Generated by trjconv : CNT in water t= 168.00000
33518
    1C        C    1   2.837   2.768   4.746
    1C        C    2   2.896   2.720   4.866
    1C        C    3   2.841   2.774   4.983
    1C        C    4   2.849   2.778   4.260
    1C        C    5   2.901   2.727   4.381
    1C        C    6   2.845   2.772   4.503
    1C        C    7   3.010   2.643   4.625
    1C        C    8   2.891   2.719   4.625
    1C        C    9   3.075   2.606   4.745
    1C        C   10   3.006   2.632   4.865
    1C        C   11   3.175   2.485   4.973
    1C        C   12   3.058   2.561   4.975
    1C        C   13   2.852   2.772   3.769
    1C        C   14   2.900   2.723   3.893
    1C        C   15   2.850   2.774   4.015
    1C        C   16   3.016   2.646   4.136
    1C        C   17   2.901   2.729   4.138
    1C        C   18   3.081   2.618   4.258
    1C        C   19   3.019   2.649   4.381
    1C        C   20   3.206   2.554   4.504
    1C        C   21   3.075   2.609   4.504
    1C        C   22   3.276   2.532   4.625
    1C        C   23   3.205   2.548   4.745
    1C        C   24   3.409   2.482   4.863
    1C        C   25   3.267   2.499   4.864
    1C        C   26   3.487   2.476   4.979
    1C        C   27   2.848   2.768   3.282
    1C        C   28   2.906   2.725   3.403
    1C        C   29   2.854   2.775   3.525
    1C        C   30   3.021   2.645   3.649
    1C        C   31   2.905   2.725   3.647
    1C        C   32   3.078   2.605   3.772
    1C        C   33   3.014   2.640   3.894
    1C        C   34   3.206   2.548   4.015
    1C        C   35   3.075   2.602   4.016
    1C        C   36   3.276   2.538   4.137
    1C        C   37   3.213   2.567   4.259
    1C        C   38   3.412   2.503   4.380
    1C        C   39   3.275   2.538   4.382
    1C        C   40   3.485   2.493   4.501
    1C        C   41   3.414   2.501   4.622
    1C        C   42   3.627   2.483   4.741
    1C        C   43   3.485   2.479   4.743
    1C        C   44   3.703   2.483   4.860
    1C        C   45   3.626   2.479   4.977
    1C        C   46   2.838   2.750   2.792
    1C        C   47   2.899   2.715   2.915
    1C        C   48   2.844   2.759   3.037
    1C        C   49   3.017   2.639   3.162
    1C        C   50   2.899   2.717   3.160
    1C        C   51   3.080   2.601   3.282
    1C        C   52   3.019   2.639   3.404
    1C        C   53   3.207   2.545   3.525
    1C        C   54   3.081   2.608   3.527
    1C        C   55   3.273   2.525   3.648
    1C        C   56   3.208   2.550   3.771
    1C        C   57   3.413   2.504   3.890
    1C        C   58   3.274   2.526   3.893
    1C        C   59   3.483   2.496   4.013
    1C        C   60   3.412   2.497   4.135
    1C        C   61   3.623   2.485   4.259
    1C        C   62   3.481   2.485   4.258
    1C        C   63   3.697   2.495   4.378
    1C        C   64   3.626   2.490   4.500
    1C        C   65   3.835   2.539   4.621
    1C        C   66   3.699   2.501   4.621
    1C        C   67   3.903   2.562   4.743
    1C        C   68   3.839   2.521   4.862
    1C        C   69   4.053   2.578   4.974
    1C        C   70   3.919   2.534   4.976
    1C        C   71   2.827   2.731   2.305
    1C        C   72   2.886   2.692   2.428
    1C        C   73   2.833   2.744   2.548
    1C        C   74   3.005   2.622   2.674
    1C        C   75   2.885   2.697   2.670
    1C        C   76   3.071   2.590   2.794
    1C        C   77   3.011   2.629   2.916
    1C        C   78   3.204   2.544   3.034
    1C        C   79   3.074   2.601   3.039
    1C        C   80   3.273   2.522   3.155
    1C        C   81   3.208   2.542   3.279
    1C        C   82   3.412   2.492   3.402
    1C        C   83   3.274   2.520   3.403
    1C        C   84   3.483   2.485   3.524
    1C        C   85   3.411   2.493   3.646
    1C        C   86   3.624   2.495   3.768
    1C        C   87   3.482   2.491   3.768
    1C        C   88   3.692   2.506   3.891
    1C        C   89   3.624   2.501   4.015
    1C        C   90   3.828   2.545   4.134
    1C        C   91   3.693   2.503   4.138
    1C        C   92   3.894   2.571   4.256
    1C        C   93   3.830   2.542   4.379
    1C        C   94   4.025   2.632   4.496
    1C        C   95   3.900   2.567   4.499
    1C        C   96   4.085   2.670   4.618
    1C        C   97   4.030   2.626   4.740
    1C        C   98   4.183   2.769   4.861
    1C        C   99   4.098   2.654   4.861
    1C        C  100   4.210   2.840   4.979
    1C        C  101   2.815   2.721   2.067
    1C        C  102   2.991   2.589   2.188
    1C        C  103   2.877   2.676   2.184
    1C        C  104   3.064   2.570   2.309
    1C        C  105   3.004   2.614   2.429
    1C        C  106   3.197   2.531   2.548
    1C        C  107   3.068   2.590   2.552
    1C        C  108   3.270   2.520   2.668
    1C        C  109   3.204   2.541   2.791
    1C        C  110   3.411   2.494   2.912
    1C        C  111   3.272   2.518   2.913
    1C        C  112   3.481   2.486   3.034
    1C        C  113   3.412   2.497   3.157
    1C        C  114   3.623   2.489   3.279
    1C        C  115   3.482   2.487   3.279
    1C        C  116   3.694   2.500   3.401
    1C        C  117   3.624   2.490   3.524
    1C        C  118   3.831   2.538   3.643
    1C        C  119   3.695   2.501   3.646
    1C        C  120   3.894   2.568   3.766
    1C        C  121   3.828   2.542   3.889
    1C        C  122   4.018   2.636   4.012
    1C        C  123   3.893   2.570   4.011
    1C        C  124   4.079   2.676   4.133
    1C        C  125   4.019   2.638   4.255
    1C        C  126   4.193   2.765   4.376
    1C        C  127   4.085   2.673   4.374
    1C        C  128   4.239   2.817   4.499
    1C        C  129   4.188   2.767   4.621
    1C        C  130   4.320   2.938   4.740
    1C        C  131   4.236   2.823   4.741
    1C        C  132   4.354   3.002   4.862
    1C        C  133   4.274   2.963   4.970
    1C        C  134   3.169   2.466   2.080
    1C        C  135   3.036   2.511   2.077
    1C        C  136   3.259   2.475   2.187
    1C        C  137   3.191   2.506   2.306
    1C        C  138   3.399   2.471   2.425
    1C        C  139   3.259   2.490   2.428
    1C        C  140   3.477   2.477   2.543
    1C        C  141   3.410   2.497   2.665
    1C        C  142   3.620   2.491   2.787
    1C        C  143   3.479   2.488   2.788
    1C        C  144   3.690   2.504   2.910
    1C        C  145   3.622   2.492   3.033
    1C        C  146   3.826   2.541   3.152
    1C        C  147   3.692   2.497   3.156
    1C        C  148   3.892   2.564   3.274
    1C        C  149   3.831   2.534   3.398
    1C        C  150   4.023   2.624   3.519
    1C        C  151   3.898   2.559   3.520
    1C        C  152   4.078   2.665   3.643
    1C        C  153   4.018   2.636   3.768
    1C        C  154   4.183   2.770   3.887
    1C        C  155   4.076   2.678   3.890
    1C        C  156   4.233   2.820   4.009
    1C        C  157   4.189   2.765   4.131
    1C        C  158   4.331   2.922   4.253
    1C        C  159   4.244   2.811   4.253
    1C        C  160   4.366   2.987   4.374
    1C        C  161   4.325   2.929   4.496
    1C        C  162   4.436   3.113   4.611
    1C        C  163   4.363   2.992   4.617
    1C        C  164   4.461   3.181   4.732
    1C        C  165   4.430   3.120   4.856
    1C        C  166   4.522   3.313   4.972
    1C        C  167   4.476   3.182   4.973
    1C        C  168   3.476   2.428   2.072
    1C        C  169   3.399   2.457   2.185
    1C        C  170   3.616   2.472   2.302
    1C        C  171   3.474   2.463   2.305
    1C        C  172   3.689   2.483   2.422
    1C        C  173   3.618   2.478   2.544
    1C        C  174   3.826   2.532   2.661
    1C        C  175   3.691   2.490   2.665
    1C        C  176   3.893   2.554   2.784
    1C        C  177   3.828   2.534   2.907
    1C        C  178   4.018   2.624   3.028
    1C        C  179   3.896   2.554   3.030
    1C        C  180   4.079   2.664   3.149
    1C        C  181   4.019   2.627   3.272
    1C        C  182   4.188   2.751   3.395
    1C        C  183   4.079   2.660   3.395
    1C        C  184   4.236   2.803   3.517
    1C        C  185   4.185   2.757   3.641
    1C        C  186   4.323   2.921   3.763
    1C        C  187   4.230   2.815   3.761
    1C        C  188   4.368   2.979   3.884
    1C        C  189   4.326   2.926   4.008
    1C        C  190   4.439   3.104   4.125
    1C        C  191   4.370   2.981   4.131
    1C        C  192   4.464   3.173   4.246
    1C        C  193   4.435   3.110   4.369
    1C        C  194   4.505   3.313   4.492
    1C        C  195   4.466   3.177   4.489
    1C        C  196   4.526   3.383   4.612
    1C        C  197   4.510   3.314   4.735
    1C        C  198   4.551   3.530   4.851
    1C        C  199   4.529   3.389   4.854
    1C        C  200   4.589   3.617   4.959
    1C        C  201   3.616   2.423   2.068
    1C        C  202   3.825   2.516   2.180
    1C        C  203   3.691   2.466   2.182
    1C        C  204   3.898   2.538   2.300
    1C        C  205   3.826   2.518   2.420
    1C        C  206   4.017   2.620   2.539
    1C        C  207   3.894   2.552   2.539
    1C        C  208   4.077   2.659   2.661
    1C        C  209   4.015   2.625   2.783
    1C        C  210   4.190   2.747   2.906
    1C        C  211   4.074   2.666   2.905
    1C        C  212   4.240   2.800   3.027
    1C        C  213   4.189   2.753   3.150
    1C        C  214   4.326   2.913   3.273
    1C        C  215   4.236   2.803   3.273
    1C        C  216   4.357   2.977   3.395
    1C        C  217   4.318   2.919   3.518
    1C        C  218   4.425   3.103   3.638
    1C        C  219   4.360   2.978   3.639
    1C        C  220   4.457   3.171   3.758
    1C        C  221   4.429   3.107   3.881
    1C        C  222   4.501   3.307   4.004
    1C        C  223   4.463   3.171   4.003
    1C        C  224   4.519   3.378   4.125
    1C        C  225   4.507   3.308   4.247
    1C        C  226   4.519   3.521   4.368
    1C        C  227   4.520   3.379   4.368
    1C        C  228   4.522   3.593   4.488
    1C        C  229   4.538   3.524   4.610
    1C        C  230   4.509   3.740   4.725
    1C        C  231   4.540   3.601   4.729
    1C        C  232   4.500   3.818   4.842
    1C        C  233   4.550   3.752   4.955
    1C        C  234   4.016   2.612   2.059
    1C        C  235   3.896   2.543   2.063
    1C        C  236   4.085   2.647   2.177
    1C        C  237   4.022   2.608   2.297
    1C        C  238   4.198   2.734   2.421
    1C        C  239   4.083   2.650   2.417
    1C        C  240   4.248   2.786   2.542
    1C        C  241   4.189   2.745   2.664
    1C        C  242   4.326   2.909   2.783
    1C        C  243   4.244   2.794   2.784
    1C        C  244   4.370   2.966   2.904
    1C        C  245   4.327   2.912   3.027
    1C        C  246   4.434   3.094   3.146
    1C        C  247   4.364   2.971   3.150
    1C        C  248   4.451   3.164   3.268
    1C        C  249   4.418   3.104   3.392
    1C        C  250   4.494   3.301   3.514
    1C        C  251   4.453   3.165   3.514
    1C        C  252   4.507   3.372   3.636
    1C        C  253   4.500   3.305   3.760
    1C        C  254   4.522   3.517   3.878
    1C        C  255   4.514   3.376   3.881
    1C        C  256   4.518   3.589   4.000
    1C        C  257   4.517   3.519   4.123
    1C        C  258   4.496   3.731   4.241
    1C        C  259   4.514   3.591   4.245
    1C        C  260   4.473   3.800   4.362
    1C        C  261   4.490   3.731   4.484
    1C        C  262   4.422   3.935   4.601
    1C        C  263   4.477   3.805   4.603
    1C        C  264   4.402   4.009   4.720
    1C        C  265   4.436   3.944   4.840
    1C        C  266   4.321   4.129   4.957
    1C        C  267   4.393   4.010   4.956
    1C        C  268   4.257   2.779   2.059
    1C        C  269   4.198   2.731   2.177
    1C        C  270   4.343   2.889   2.298
    1C        C  271   4.251   2.780   2.298
    1C        C  272   4.380   2.954   2.418
    1C        C  273   4.340   2.893   2.539
    1C        C  274   4.444   3.081   2.659
    1C        C  275   4.370   2.960   2.659
    1C        C  276   4.466   3.154   2.778
    1C        C  277   4.438   3.090   2.901
    1C        C  278   4.503   3.292   3.021
    1C        C  279   4.466   3.156   3.023
    1C        C  280   4.509   3.364   3.142
    1C        C  281   4.490   3.300   3.267
    1C        C  282   4.509   3.508   3.388
    1C        C  283   4.504   3.367   3.390
    1C        C  284   4.515   3.580   3.510
    1C        C  285   4.521   3.513   3.634
    1C        C  286   4.500   3.726   3.751
    1C        C  287   4.523   3.586   3.755
    1C        C  288   4.481   3.795   3.873
    1C        C  289   4.498   3.728   3.997
    1C        C  290   4.431   3.930   4.115
    1C        C  291   4.485   3.800   4.118
    1C        C  292   4.396   3.995   4.235
    1C        C  293   4.424   3.932   4.359
    1C        C  294   4.320   4.121   4.478
    1C        C  295   4.388   3.997   4.479
    1C        C  296   4.276   4.180   4.598
    1C        C  297   4.323   4.128   4.721
    1C        C  298   4.203   4.313   4.833
    1C        C  299   4.282   4.194   4.840
    1C        C  300   4.169   4.398   4.943
    1C        C  301   4.347   2.885   2.059
    1C        C  302   4.467   3.067   2.174
    1C        C  303   4.393   2.944   2.177
    1C        C  304   4.484   3.140   2.295
    1C        C  305   4.448   3.077   2.416
    1C        C  306   4.505   3.283   2.532
    1C        C  307   4.474   3.146   2.537
    1C        C  308   4.514   3.356   2.653
    1C        C  309   4.505   3.289   2.777
    1C        C  310   4.523   3.502   2.898
    1C        C  311   4.520   3.360   2.899
    1C        C  312   4.522   3.574   3.020
    1C        C  313   4.520   3.505   3.143
    1C        C  314   4.492   3.717   3.261
    1C        C  315   4.511   3.577   3.265
    1C        C  316   4.481   3.787   3.383
    1C        C  317   4.496   3.720   3.507
    1C        C  318   4.427   3.923   3.625
    1C        C  319   4.477   3.791   3.628
    1C        C  320   4.398   3.989   3.746
    1C        C  321   4.428   3.926   3.869
    1C        C  322   4.318   4.107   3.988
    1C        C  323   4.396   3.989   3.991
    1C        C  324   4.279   4.169   4.109
    1C        C  325   4.319   4.114   4.233
    1C        C  326   4.181   4.277   4.352
    1C        C  327   4.278   4.174   4.354
    1C        C  328   4.131   4.334   4.471
    1C        C  329   4.184   4.287   4.593
    1C        C  330   4.022   4.429   4.712
    1C        C  331   4.140   4.351   4.711
    1C        C  332   3.967   4.485   4.830
    1C        C  333   4.051   4.474   4.942
    1C        C  334   4.543   3.265   2.056
    1C        C  335   4.535   3.126   2.063
    1C        C  336   4.538   3.348   2.169
    1C        C  337   4.517   3.279   2.291
    1C        C  338   4.526   3.495   2.410
    1C        C  339   4.521   3.353   2.411
    1C        C  340   4.520   3.566   2.532
    1C        C  341   4.523   3.497   2.655
    1C        C  342   4.496   3.710   2.771
    1C        C  343   4.520   3.571   2.775
    1C        C  344   4.478   3.779   2.893
    1C        C  345   4.495   3.712   3.016
    1C        C  346   4.426   3.915   3.135
    1C        C  347   4.473   3.781   3.137
    1C        C  348   4.394   3.979   3.257
    1C        C  349   4.428   3.918   3.380
    1C        C  350   4.322   4.102   3.502
    1C        C  351   4.402   3.985   3.501
    1C        C  352   4.272   4.159   3.621
    1C        C  353   4.320   4.107   3.743
    1C        C  354   4.174   4.261   3.865
    1C        C  355   4.274   4.161   3.866
    1C        C  356   4.120   4.310   3.985
    1C        C  357   4.180   4.269   4.106
    1C        C  358   4.009   4.396   4.229
    1C        C  359   4.125   4.316   4.228
    1C        C  360   3.948   4.442   4.348
    1C        C  361   4.015   4.414   4.469
    1C        C  362   3.828   4.514   4.592
    1C        C  363   3.958   4.461   4.590
    1C        C  364   3.761   4.543   4.713
    1C        C  365   3.834   4.531   4.833
    1C        C  366   3.627   4.586   4.947
    1C        C  367   3.765   4.565   4.950
    1C        C  368   4.506   3.563   2.052
    1C        C  369   4.521   3.488   2.169
    1C        C  370   4.502   3.705   2.287
    1C        C  371   4.517   3.564   2.288
    1C        C  372   4.484   3.777   2.407
    1C        C  373   4.508   3.707   2.528
    1C        C  374   4.431   3.910   2.648
    1C        C  375   4.479   3.777   2.647
    1C        C  376   4.399   3.974   2.770
    1C        C  377   4.430   3.912   2.893
    1C        C  378   4.319   4.097   3.011
    1C        C  379   4.396   3.979   3.013
    1C        C  380   4.278   4.155   3.133
    1C        C  381   4.319   4.099   3.256
    1C        C  382   4.174   4.253   3.377
    1C        C  383   4.274   4.153   3.379
    1C        C  384   4.120   4.305   3.497
    1C        C  385   4.176   4.263   3.619
    1C        C  386   4.005   4.386   3.743
    1C        C  387   4.124   4.310   3.742
    1C        C  388   3.939   4.420   3.863
    1C        C  389   4.003   4.391   3.985
    1C        C  390   3.818   4.492   4.107
    1C        C  391   3.946   4.433   4.107
    1C        C  392   3.747   4.515   4.227
    1C        C  393   3.818   4.499   4.348
    1C        C  394   3.617   4.555   4.473
    1C        C  395   3.756   4.527   4.471
    1C        C  396   3.545   4.565   4.594
    1C        C  397   3.621   4.562   4.713
    1C        C  398   3.407   4.555   4.838
    1C        C  399   3.547   4.572   4.833
    1C        C  400   3.336   4.525   4.954
    1C        C  401   4.509   3.702   2.048
    1C        C  402   4.453   3.910   2.163
    1C        C  403   4.499   3.777   2.166
    1C        C  404   4.414   3.976   2.282
    1C        C  405   4.438   3.910   2.405
    1C        C  406   4.323   4.090   2.523
    1C        C  407   4.406   3.976   2.526
    1C        C  408   4.269   4.139   2.644
    1C        C  409   4.314   4.087   2.768
    1C        C  410   4.172   4.248   2.886
    1C        C  411   4.270   4.147   2.888
    1C        C  412   4.119   4.292   3.010
    1C        C  413   4.174   4.250   3.133
    1C        C  414   4.002   4.376   3.252
    1C        C  415   4.119   4.297   3.255
    1C        C  416   3.940   4.412   3.375
    1C        C  417   3.999   4.379   3.498
    1C        C  418   3.809   4.470   3.620
    1C        C  419   3.939   4.414   3.621
    1C        C  420   3.744   4.500   3.742
    1C        C  421   3.811   4.480   3.866
    1C        C  422   3.607   4.536   3.986
    1C        C  423   3.747   4.515   3.987
    1C        C  424   3.538   4.541   4.109
    1C        C  425   3.609   4.541   4.231
    1C        C  426   3.400   4.549   4.356
    1C        C  427   3.541   4.560   4.354
    1C        C  428   3.330   4.546   4.478
    1C        C  429   3.404   4.558   4.598
    1C        C  430   3.192   4.519   4.722
    1C        C  431   3.331   4.549   4.719
    1C        C  432   3.121   4.498   4.843
    1C        C  433   3.200   4.497   4.959
    1C        C  434   4.379   4.118   2.050
    1C        C  435   4.442   3.993   2.051
    1C        C  436   4.300   4.160   2.162
    1C        C  437   4.333   4.093   2.283
    1C        C  438   4.180   4.246   2.400
    1C        C  439   4.286   4.153   2.402
    1C        C  440   4.119   4.288   2.520
    1C        C  441   4.174   4.243   2.642
    1C        C  442   4.001   4.370   2.763
    1C        C  443   4.118   4.291   2.763
    1C        C  444   3.940   4.407   2.885
    1C        C  445   4.001   4.370   3.007
    1C        C  446   3.809   4.459   3.130
    1C        C  447   3.940   4.406   3.129
    1C        C  448   3.743   4.486   3.253
    1C        C  449   3.811   4.469   3.376
    1C        C  450   3.606   4.525   3.496
    1C        C  451   3.743   4.492   3.498
    1C        C  452   3.538   4.543   3.619
    1C        C  453   3.608   4.534   3.741
    1C        C  454   3.396   4.544   3.862
    1C        C  455   3.537   4.542   3.863
    1C        C  456   3.328   4.531   3.985
    1C        C  457   3.397   4.541   4.108
    1C        C  458   3.193   4.507   4.233
    1C        C  459   3.331   4.537   4.233
    1C        C  460   3.127   4.490   4.356
    1C        C  461   3.192   4.517   4.478
    1C        C  462   2.998   4.433   4.601
    1C        C  463   3.123   4.499   4.600
    1C        C  464   2.935   4.394   4.721
    1C        C  465   2.989   4.443   4.843
    1C        C  466   2.802   4.337   4.959
    1C        C  467   2.908   4.428   4.960
    1C        C  468   4.123   4.286   2.040
    1C        C  469   4.184   4.244   2.159
    1C        C  470   4.006   4.371   2.278
    1C        C  471   4.125   4.292   2.278
    1C        C  472   3.938   4.399   2.398
    1C        C  473   4.000   4.364   2.520
    1C        C  474   3.811   4.466   2.641
    1C        C  475   3.939   4.406   2.641
    1C        C  476   3.745   4.490   2.764
    1C        C  477   3.812   4.466   2.886
    1C        C  478   3.605   4.514   3.008
    1C        C  479   3.743   4.484   3.008
    1C        C  480   3.534   4.523   3.130
    1C        C  481   3.606   4.520   3.251
    1C        C  482   3.395   4.533   3.373
    1C        C  483   3.536   4.532   3.373
    1C        C  484   3.325   4.531   3.496
    1C        C  485   3.396   4.544   3.617
    1C        C  486   3.190   4.504   3.745
    1C        C  487   3.325   4.544   3.739
    1C        C  488   3.124   4.476   3.867
    1C        C  489   3.190   4.498   3.989
    1C        C  490   3.001   4.412   4.116
    1C        C  491   3.122   4.483   4.112
    1C        C  492   2.941   4.377   4.240
    1C        C  493   3.001   4.426   4.359
    1C        C  494   2.827   4.303   4.483
    1C        C  495   2.937   4.391   4.480
    1C        C  496   2.771   4.253   4.603
    1C        C  497   2.822   4.308   4.723
    1C        C  498   2.669   4.161   4.846
    1C        C  499   2.757   4.272   4.843
    1C        C  500   2.593   4.119   4.956
    1C        C  501   4.004   4.358   2.040
    1C        C  502   3.812   4.460   2.155
    1C        C  503   3.941   4.403   2.156
    1C        C  504   3.741   4.474   2.276
    1C        C  505   3.808   4.454   2.399
    1C        C  506   3.602   4.506   2.519
    1C        C  507   3.742   4.483   2.520
    1C        C  508   3.532   4.510   2.642
    1C        C  509   3.605   4.508   2.763
    1C        C  510   3.395   4.527   2.886
    1C        C  511   3.536   4.522   2.885
    1C        C  512   3.320   4.524   3.006
    1C        C  513   3.393   4.533   3.126
    1C        C  514   3.189   4.494   3.253
    1C        C  515   3.325   4.531   3.250
    1C        C  516   3.124   4.470   3.376
    1C        C  517   3.189   4.496   3.499
    1C        C  518   2.998   4.412   3.624
    1C        C  519   3.124   4.475   3.623
    1C        C  520   2.941   4.371   3.746
    1C        C  521   3.001   4.407   3.869
    1C        C  522   2.836   4.280   3.994
    1C        C  523   2.945   4.370   3.993
    1C        C  524   2.782   4.238   4.118
    1C        C  525   2.831   4.289   4.240
    1C        C  526   2.689   4.136   4.363
    1C        C  527   2.776   4.247   4.364
    1C        C  528   2.650   4.076   4.484
    1C        C  529   2.685   4.141   4.605
    1C        C  530   2.578   3.961   4.731
    1C        C  531   2.639   4.090   4.728
    1C        C  532   2.534   3.901   4.851
    1C        C  533   2.529   3.994   4.960
    1C        C  534   3.617   4.554   2.037
    1C        C  535   3.751   4.514   2.041
    1C        C  536   3.537   4.535   2.154
    1C        C  537   3.603   4.507   2.277
    1C        C  538   3.389   4.512   2.400
    1C        C  539   3.530   4.511   2.398
    1C        C  540   3.320   4.504   2.523
    1C        C  541   3.391   4.519   2.644
    1C        C  542   3.183   4.482   2.763
    1C        C  543   3.320   4.516   2.767
    1C        C  544   3.116   4.467   2.886
    1C        C  545   3.183   4.489   3.008
    1C        C  546   2.994   4.402   3.135
    1C        C  547   3.120   4.465   3.133
    1C        C  548   2.938   4.365   3.259
    1C        C  549   2.998   4.406   3.381
    1C        C  550   2.829   4.280   3.503
    1C        C  551   2.937   4.371   3.503
    1C        C  552   2.776   4.234   3.626
    1C        C  553   2.831   4.282   3.747
    1C        C  554   2.700   4.120   3.872
    1C        C  555   2.787   4.231   3.871
    1C        C  556   2.657   4.066   3.996
    1C        C  557   2.692   4.129   4.117
    1C        C  558   2.599   3.943   4.244
    1C        C  559   2.659   4.071   4.241
    1C        C  560   2.564   3.880   4.365
    1C        C  561   2.590   3.948   4.486
    1C        C  562   2.528   3.751   4.613
    1C        C  563   2.562   3.888   4.611
    1C        C  564   2.521   3.680   4.735
    1C        C  565   2.523   3.758   4.854
    1C        C  566   2.527   3.544   4.976
    1C        C  567   2.515   3.683   4.972
    1C        C  568   3.328   4.471   2.043
    1C        C  569   3.396   4.516   2.157
    1C        C  570   3.182   4.477   2.280
    1C        C  571   3.319   4.513   2.277
    1C        C  572   3.112   4.451   2.400
    1C        C  573   3.182   4.475   2.521
    1C        C  574   2.981   4.410   2.646
    1C        C  575   3.112   4.462   2.643
    1C        C  576   2.929   4.365   2.770
    1C        C  577   2.991   4.400   2.892
    1C        C  578   2.821   4.276   3.014
    1C        C  579   2.930   4.365   3.014
    1C        C  580   2.774   4.225   3.138
    1C        C  581   2.830   4.274   3.258
    1C        C  582   2.694   4.115   3.383
    1C        C  583   2.783   4.224   3.381
    1C        C  584   2.655   4.059   3.507
    1C        C  585   2.693   4.120   3.628
    1C        C  586   2.595   3.933   3.754
    1C        C  587   2.660   4.059   3.751
    1C        C  588   2.572   3.871   3.878
    1C        C  589   2.599   3.937   4.000
    1C        C  590   2.540   3.736   4.126
    1C        C  591   2.574   3.873   4.123
    1C        C  592   2.527   3.669   4.250
    1C        C  593   2.529   3.743   4.370
    1C        C  594   2.510   3.535   4.495
    1C        C  595   2.519   3.676   4.494
    1C        C  596   2.514   3.465   4.618
    1C        C  597   2.517   3.538   4.739
    1C        C  598   2.528   3.325   4.860
    1C        C  599   2.526   3.466   4.860
    1C        C  600   2.518   3.246   4.976
    1C        C  601   3.193   4.441   2.043
    1C        C  602   2.982   4.391   2.159
    1C        C  603   3.115   4.445   2.159
    1C        C  604   2.921   4.356   2.283
    1C        C  605   2.983   4.393   2.404
    1C        C  606   2.814   4.272   2.528
    1C        C  607   2.920   4.366   2.527
    1C        C  608   2.770   4.219   2.652
    1C        C  609   2.821   4.274   2.772
    1C        C  610   2.684   4.112   2.894
    1C        C  611   2.770   4.224   2.894
    1C        C  612   2.648   4.053   3.017
    1C        C  613   2.688   4.113   3.139
    1C        C  614   2.592   3.927   3.265
    1C        C  615   2.652   4.054   3.262
    1C        C  616   2.564   3.864   3.388
    1C        C  617   2.595   3.930   3.509
    1C        C  618   2.532   3.730   3.638
    1C        C  619   2.567   3.867   3.632
    1C        C  620   2.514   3.664   3.761
    1C        C  621   2.529   3.736   3.882
    1C        C  622   2.508   3.526   4.007
    1C        C  623   2.523   3.666   4.004
    1C        C  624   2.514   3.457   4.131
    1C        C  625   2.516   3.528   4.252
    1C        C  626   2.537   3.321   4.377
    1C        C  627   2.511   3.460   4.376
    1C        C  628   2.556   3.252   4.499
    1C        C  629   2.538   3.326   4.618
    1C        C  630   2.589   3.119   4.742
    1C        C  631   2.548   3.255   4.739
    1C        C  632   2.614   3.051   4.864
    1C        C  633   2.554   3.111   4.980
    1C        C  634   2.778   4.305   2.055
    1C        C  635   2.892   4.386   2.048
    1C        C  636   2.745   4.228   2.168
    1C        C  637   2.802   4.279   2.287
    1C        C  638   2.675   4.109   2.409
    1C        C  639   2.756   4.224   2.409
    1C        C  640   2.637   4.052   2.532
    1C        C  641   2.680   4.110   2.653
    1C        C  642   2.585   3.919   2.775
    1C        C  643   2.642   4.048   2.774
    1C        C  644   2.559   3.855   2.899
    1C        C  645   2.589   3.925   3.018
    1C        C  646   2.526   3.726   3.148
    1C        C  647   2.570   3.860   3.142
    1C        C  648   2.512   3.656   3.269
    1C        C  649   2.525   3.728   3.390
    1C        C  650   2.512   3.521   3.518
    1C        C  651   2.520   3.662   3.515
    1C        C  652   2.510   3.453   3.642
    1C        C  653   2.507   3.523   3.764
    1C        C  654   2.531   3.314   3.886
    1C        C  655   2.506   3.453   3.886
    1C        C  656   2.551   3.248   4.010
    1C        C  657   2.535   3.317   4.132
    1C        C  658   2.606   3.120   4.257
    1C        C  659   2.554   3.251   4.256
    1C        C  660   2.631   3.053   4.379
    1C        C  661   2.601   3.118   4.501
    1C        C  662   2.717   2.941   4.625
    1C        C  663   2.634   3.055   4.624
    1C        C  664   2.748   2.878   4.747
    1C        C  665   2.692   2.931   4.867
    1C        C  666   2.741   2.871   4.984
    1C        C  667   2.675   4.024   2.050
    1C        C  668   2.684   4.101   2.167
    1C        C  669   2.585   3.913   2.290
    1C        C  670   2.642   4.043   2.289
    1C        C  671   2.553   3.849   2.412
    1C        C  672   2.580   3.922   2.530
    1C        C  673   2.523   3.718   2.656
    1C        C  674   2.560   3.854   2.652
    1C        C  675   2.507   3.649   2.778
    1C        C  676   2.527   3.718   2.900
    1C        C  677   2.508   3.514   3.026
    1C        C  678   2.512   3.656   3.026
    1C        C  679   2.510   3.444   3.148
    1C        C  680   2.509   3.515   3.271
    1C        C  681   2.531   3.309   3.400
    1C        C  682   2.513   3.449   3.396
    1C        C  683   2.555   3.243   3.523
    1C        C  684   2.534   3.313   3.643
    1C        C  685   2.599   3.112   3.770
    1C        C  686   2.547   3.243   3.765
    1C        C  687   2.639   3.051   3.891
    1C        C  688   2.602   3.116   4.011
    1C        C  689   2.707   2.935   4.137
    1C        C  690   2.631   3.055   4.135
    1C        C  691   2.752   2.880   4.259
    1C        C  692   2.709   2.936   4.381
    1C        C  693   2.754   2.880   4.503
    1C        C  694   2.628   3.892   2.055
    1C        C  695   2.520   3.706   2.172
    1C        C  696   2.573   3.837   2.171
    1C        C  697   2.506   3.639   2.296
    1C        C  698   2.518   3.712   2.416
    1C        C  699   2.490   3.502   2.540
    1C        C  700   2.505   3.642   2.538
    1C        C  701   2.498   3.433   2.663
    1C        C  702   2.497   3.508   2.782
    1C        C  703   2.530   3.301   2.911
    1C        C  704   2.505   3.440   2.905
    1C        C  705   2.550   3.235   3.034
    1C        C  706   2.532   3.305   3.155
    1C        C  707   2.599   3.107   3.275
    1C        C  708   2.546   3.238   3.279
    1C        C  709   2.634   3.051   3.400
    1C        C  710   2.610   3.113   3.524
    1C        C  711   2.708   2.929   3.647
    1C        C  712   2.631   3.048   3.648
    1C        C  713   2.757   2.876   3.768
    1C        C  714   2.716   2.932   3.891
    1C        C  715   2.756   2.880   4.016
    1C        C  716   2.445   3.498   2.062
    1C        C  717   2.476   3.635   2.060
    1C        C  718   2.465   3.421   2.181
    1C        C  719   2.487   3.498   2.298
    1C        C  720   2.514   3.289   2.422
    1C        C  721   2.486   3.427   2.420
    1C        C  722   2.536   3.223   2.545
    1C        C  723   2.521   3.294   2.667
    1C        C  724   2.595   3.097   2.789
    1C        C  725   2.546   3.230   2.790
    1C        C  726   2.627   3.035   2.912
    1C        C  727   2.597   3.101   3.033
    1C        C  728   2.710   2.923   3.157
    1C        C  729   2.632   3.041   3.155
    1C        C  730   2.753   2.872   3.282
    1C        C  731   2.711   2.932   3.403
    1C        C  732   2.753   2.874   3.525
    1C        C  733   2.491   3.194   2.070
    1C        C  734   2.490   3.280   2.181
    1C        C  735   2.583   3.084   2.304
    1C        C  736   2.525   3.214   2.303
    1C        C  737   2.613   3.019   2.426
    1C        C  738   2.591   3.093   2.545
    1C        C  739   2.702   2.913   2.668
    1C        C  740   2.627   3.033   2.667
    1C        C  741   2.742   2.855   2.790
    1C        C  742   2.702   2.915   2.912
    1C        C  743   2.751   2.866   3.035
    1C        C  744   2.543   3.065   2.075
    1C        C  745   2.689   2.896   2.185
    1C        C  746   2.600   3.005   2.188
    1C        C  747   2.734   2.839   2.306
    1C        C  748   2.693   2.903   2.425
    1C        C  749   2.743   2.853   2.547
    1C        C  750   2.732   2.832   2.068
    1C        C  751   3.667   2.322   1.972
    1C        O  752   3.676   2.204   2.017
    1C        O  753   3.688   2.352   1.837
    1C        C  754   4.646   3.043   2.009
    1C        O  755   4.621   2.987   1.899
    1C        O  756   4.783   3.060   2.034
    1C        C  757   4.437   4.215   1.955
    1C        O  758   4.492   4.321   1.996
    1C        O  759   4.395   4.217   1.822
    1C        C  760   3.603   4.684   1.968
    1C        O  761   3.621   4.790   2.034
    1C        O  762   3.600   4.700   1.829
    1C        C  763   2.881   4.481   1.935
    1C        O  764   2.871   4.438   1.817
    1C        O  765   2.818   4.604   1.957
    1C        C  766   2.332   3.470   1.971
    1C        O  767   2.345   3.448   1.847
    1C        O  768   2.201   3.500   2.010
    1C        C  769   4.704   3.588   5.047
    1C        O  770   4.685   3.590   5.171
    1C        O  771   4.833   3.609   4.995
    1C        C  772   4.266   4.465   5.033
    1C        O  773   4.288   4.415   5.146
    1C        O  774   4.283   4.603   5.052
    1C        C  775   4.139   2.480   5.044
    1C        O  776   4.228   2.414   4.985
    1C        O  777   4.179   2.495   5.177
    1C        C  778   2.893   4.548   5.047
    1C        O  779   2.848   4.656   5.002
    1C        O  780   2.933   4.548   5.181
    1C        C  781   2.477   3.029   5.076
    1C        O  782   2.376   2.963   5.038
    1C        O  783   2.455   3.062   5.209
    1C        C  784   2.406   3.996   5.042
    1C        O  785   2.299   4.025   4.981
    1C        O  786   2.393   3.944   5.171
    1C        C  787   2.951   2.410   2.010
    1C        O  788   2.961   2.377   1.889
    1C        O  789   2.858   2.333   2.079
    1C        C  790   3.163   2.365   5.058
    1C        O  791   3.070   2.282   5.037
    1C        O  792   3.171   2.383   5.197
    1C        H  793   4.250   3.033   5.047
    1C        H  794   4.194   2.792   5.073
    1C        H  795   4.473   3.128   5.065
    1C        H  796   4.588   3.346   5.049
    1C        H  797   4.552   3.801   5.050
    1C        H  798   4.381   3.948   5.042
    1C        H  799   4.303   4.170   5.054
    1C        H  800   4.019   4.511   5.037
    1C        H  801   3.820   4.628   5.017
    1C        H  802   3.584   4.634   5.032
    1C        H  803   3.383   4.536   5.050
    1C        H  804   3.153   4.487   5.055
    1C        H  805   3.870   2.549   5.069
    1C        H  806   3.676   2.500   5.069
    1C        H  807   3.012   2.570   5.071
    1C        H  808   3.441   2.448   5.071
    1C        H  809   2.867   2.739   5.080
    1C        H  810   2.689   2.879   5.077
    1C        H  811   2.537   3.298   5.068
    1C        H  812   2.548   3.507   5.074
    1C        H  813   2.460   3.725   5.054
    1C        H  814   2.555   4.198   5.017
    1C        H  815   2.760   4.318   5.055
    1C        H  816   2.731   2.892   1.979
    1C        H  817   2.811   2.664   1.977
    1C        H  818   3.211   2.462   1.981
    1C        H  819   3.426   2.449   1.980
    1C        H  820   3.851   2.511   1.971
    1C        H  821   4.071   2.605   1.967
    1C        H  822   4.217   2.753   1.964
    1C        H  823   4.410   2.894   1.973
    1C        H  824   4.585   3.297   1.963
    1C        H  825   4.525   3.518   1.957
    1C        H  826   4.547   3.744   1.957
    1C        H  827   3.817   4.559   1.969
    1C        H  828   3.937   4.335   1.959
    1C        H  829   4.147   4.233   1.949
    1C        H  830   4.497   3.963   1.964
    1C        H  831   2.647   3.832   1.969
    1C        H  832   2.702   4.068   1.957
    1C        H  833   2.698   4.327   1.987
    1C        H  834   3.388   4.428   1.966
    1C        H  835   3.160   4.378   1.964
    1C        H  836   2.541   3.009   1.985
    1C        H  837   2.458   3.232   1.976
    1C        H  838   2.509   3.670   1.964
    2V3OU   H29  839   2.800   3.544   1.684
    2V3OU   C27  840   2.773   3.501   1.784
    2V3OU   H27  841   2.719   3.565   1.858
    2V3OU   H28  842   2.729   3.399   1.772
    2V3OU   O11  843   2.900   3.480   1.847
    2V3OU   C15  844   2.921   3.399   1.957
    2V3OU   C13  845   3.049   3.373   2.010
    2V3OU   C14  846   3.077   3.264   2.094
    2V3OU   C16  847   2.971   3.188   2.142
    2V3OU    H6  848   2.987   3.099   2.204
    2V3OU   C12  849   3.211   3.230   2.148
    2V3OU    O2  850   3.234   3.125   2.212
    2V3OU   C10  851   3.327   3.310   2.108
    2V3OU    C8  852   3.457   3.267   2.134
    2V3OU   O10  853   3.484   3.155   2.205
    2V3OU   H26  854   3.400   3.110   2.224
    2V3OU    C6  855   3.565   3.346   2.085
    2V3OU    C5  856   3.537   3.463   2.014
    2V3OU    C4  857   3.704   3.291   2.089
    2V3OU    H4  858   3.721   3.230   2.183
    2V3OU    H5  859   3.712   3.226   1.997
    2V3OU    C2  860   3.816   3.395   2.089
    2V3OU    O6  861   3.806   3.474   2.208
    2V3OU   H21  862   3.765   3.555   2.173
    2V3OU    C3  863   3.781   3.494   1.978
    2V3OU    H2  864   3.865   3.568   1.970
    2V3OU    H3  865   3.786   3.438   1.881
    2V3OU   C25  866   3.954   3.330   2.083
    2V3OU    O7  867   4.002   3.299   1.974
    2V3OU   C26  868   4.028   3.294   2.211
    2V3OU   H22  869   4.068   3.389   2.255
    2V3OU   H23  870   4.118   3.231   2.186
    2V3OU    O8  871   3.965   3.209   2.304
    2V3OU   H24  872   3.920   3.262   2.372
    2V3OU    C1  873   3.646   3.562   1.986
    2V3OU    H1  874   3.628   3.616   1.888
    2V3OU    O3  875   3.650   3.656   2.094
    2V3OU   C19  876   3.615   3.794   2.086
    2V3OU    H9  877   3.523   3.807   2.022
    2V3OU    O4  878   3.714   3.853   2.004
    2V3OU   C20  879   3.843   3.867   2.064
    2V3OU   H10  880   3.893   3.769   2.089
    2V3OU   C24  881   3.608   3.856   2.226
    2V3OU   H16  882   3.541   3.791   2.289
    2V3OU   H17  883   3.559   3.955   2.214
    2V3OU   C23  884   3.743   3.874   2.296
    2V3OU   H15  885   3.784   3.770   2.321
    2V3OU    N1  886   3.726   3.957   2.414
    2V3OU   H19  887   3.803   3.929   2.471
    2V3OU   H20  888   3.639   3.931   2.455
    2V3OU   C21  889   3.841   3.944   2.196
    2V3OU   H11  890   3.945   3.928   2.238
    2V3OU    O5  891   3.816   4.083   2.191
    2V3OU   H18  892   3.780   4.092   2.281
    2V3OU   C22  893   3.915   3.946   1.957
    2V3OU   H12  894   3.863   4.044   1.938
    2V3OU   H13  895   3.905   3.894   1.858
    2V3OU   H14  896   4.025   3.952   1.978
    2V3OU   C11  897   3.159   3.468   1.993
    2V3OU    O1  898   3.128   3.586   1.966
    2V3OU    C9  899   3.296   3.424   2.029
    2V3OU    C7  900   3.403   3.499   1.983
    2V3OU    O9  901   3.388   3.618   1.913
    2V3OU   H25  902   3.296   3.625   1.884
    2V3OU   C17  903   2.817   3.316   2.005
    2V3OU    H7  904   2.714   3.348   1.993
    2V3OU   C18  905   2.843   3.214   2.095
    2V3OU    H8  906   2.758   3.153   2.130
    3SOL     OW  907   2.633   4.173   1.015
    3SOL    HW1  908   2.623   4.176   1.114
    3SOL    HW2  909   2.589   4.090   0.979
    4SOL     OW  910   6.352   5.495   1.854
    4SOL    HW1  911   6.377   5.399   1.844
    4SOL    HW2  912   6.281   5.504   1.924
    5SOL     OW  913   3.495   1.378   3.224
    5SOL    HW1  914   3.567   1.309   3.220
    5SOL    HW2  915   3.535   1.468   3.239
    6SOL     OW  916   4.436   1.589   1.786
    6SOL    HW1  917   4.421   1.669   1.728
    6SOL    HW2  918   4.533   1.584   1.811
    7SOL     OW  919   6.030   3.275   2.352
    7SOL    HW1  920   6.119   3.310   2.323
    7SOL    HW2  921   5.980   3.241   2.272
    8SOL     OW  922   2.577   6.779   5.451
    8SOL    HW1  923   2.568   6.856   5.388
    8SOL    HW2  924   2.661   6.729   5.430
    9SOL     OW  925   0.505   4.935   5.853
    9SOL    HW1  926   0.412   4.972   5.857
    9SOL    HW2  927   0.551   4.953   5.939
   10SOL     OW  928   1.362   4.703   5.616
   10SOL    HW1  929   1.350   4.663   5.706
   10SOL    HW2  930   1.307   4.787   5.609
   11SOL     OW  931   2.953   0.225   0.033
   11SOL    HW1  932   2.914   0.164   6.984
   11SOL    HW2  933   3.004   0.298   7.008
   12SOL     OW  934   4.272   6.372   4.021
   12SOL    HW1  935   4.364   6.366   3.982
   12SOL    HW2  936   4.276   6.361   4.120
   13SOL     OW  937   3.234   5.745   3.915
   13SOL    HW1  938   3.324   5.734   3.959
   13SOL    HW2  939   3.239   5.711   3.821
   14SOL     OW  940   4.870   5.605   6.664
   14SOL    HW1  941   4.800   5.535   6.650
   14SOL    HW2  942   4.832   5.679   6.719
   15SOL     OW  943   1.099   4.994   0.774
   15SOL    HW1  944   1.143   5.074   0.814
   15SOL    HW2  945   1.084   4.926   0.846
   16SOL     OW  946   5.469   2.661   5.633
   16SOL    HW1  947   5.556   2.683   5.677
   16SOL    HW2  948   5.477   2.677   5.534
   17SOL     OW  949   5.903   6.195   5.145
   17SOL    HW1  950   5.961   6.182   5.064
   17SOL    HW2  951   5.821   6.139   5.137
   18SOL     OW  952   2.960   1.076   6.580
   18SOL    HW1  953   3.042   1.090   6.525
   18SOL    HW2  954   2.931   0.981   6.575
   19SOL     OW  955   0.361   0.096   3.194
   19SOL    HW1  956   0.386   0.031   3.121
   19SOL    HW2  957   0.410   0.182   3.179
   20SOL     OW  958   4.168   1.678   4.198
   20SOL    HW1  959   4.082   1.668   4.148
   20SOL    HW2  960   4.242   1.638   4.145
   21SOL     OW  961   3.161   1.886   2.172
   21SOL    HW1  962   3.127   1.915   2.082
   21SOL    HW2  963   3.259   1.867   2.166
   22SOL     OW  964   2.485   0.002   0.669
   22SOL    HW1  965   2.516   6.929   0.651
   22SOL    HW2  966   2.490   0.021   0.767
   23SOL     OW  967   4.158   6.687   3.128
   23SOL    HW1  968   4.179   6.773   3.081
   23SOL    HW2  969   4.127   6.707   3.221
   24SOL     OW  970   4.931   1.346   3.608
   24SOL    HW1  971   4.943   1.253   3.643
   24SOL    HW2  972   4.998   1.362   3.535
   25SOL     OW  973   3.536   6.610   5.628
   25SOL    HW1  974   3.491   6.560   5.554
   25SOL    HW2  975   3.530   6.556   5.713
   26SOL     OW  976   6.439   1.085   0.518
   26SOL    HW1  977   6.497   1.147   0.466
   26SOL    HW2  978   6.496   1.029   0.578
   27SOL     OW  979   0.446   1.529   1.717
   27SOL    HW1  980   0.470   1.537   1.814
   27SOL    HW2  981   0.397   1.442   1.702
   28SOL     OW  982   3.929   1.245   6.876
   28SOL    HW1  983   3.939   1.262   6.778
   28SOL    HW2  984   3.832   1.242   6.900
   29SOL     OW  985   5.982   2.633   2.014
   29SOL    HW1  986   6.029   2.677   1.937
   29SOL    HW2  987   6.012   2.538   2.022
   30SOL     OW  988   4.229   0.468   5.179
   30SOL    HW1  989   4.214   0.394   5.114
   30SOL    HW2  990   4.209   0.556   5.135
   31SOL     OW  991   0.364   2.220   5.917
   31SOL    HW1  992   0.348   2.248   5.822
   31SOL    HW2  993   0.462   2.208   5.932
   32SOL     OW  994   6.840   1.191   3.007
   32SOL    HW1  995   6.795   1.111   2.967
   32SOL    HW2  996   6.929   1.164   3.044
   33SOL     OW  997   2.707   3.621   0.316
   33SOL    HW1  998   2.648   3.631   0.236
   33SOL    HW2  999   2.680   3.539   0.367
   34SOL     OW 1000   1.847   1.447   4.087
   34SOL    HW1 1001   1.790   1.514   4.135
   34SOL    HW2 1002   1.933   1.490   4.059
   35SOL     OW 1003   3.848   1.651   0.094
   35SOL    HW1 1004   3.786   1.582   0.131
   35SOL    HW2 1005   3.806   1.695   0.015
   36SOL     OW 1006   0.363   0.957   6.603
   36SOL    HW1 1007   0.456   0.938   6.574
   36SOL    HW2 1008   0.320   1.021   6.539
   37SOL     OW 1009   1.849   0.755   0.170
   37SOL    HW1 1010   1.895   0.808   0.241
   37SOL    HW2 1011   1.750   0.762   0.183
   38SOL     OW 1012   0.412   4.708   2.202
   38SOL    HW1 1013   0.356   4.642   2.253
   38SOL    HW2 1014   0.502   4.669   2.186
   39SOL     OW 1015   6.675   4.790   6.613
   39SOL    HW1 1016   6.637   4.818   6.526
   39SOL    HW2 1017   6.613   4.725   6.658
   40SOL     OW 1018   5.943   2.557   1.245
   40SOL    HW1 1019   5.845   2.539   1.241
   40SOL    HW2 1020   5.965   2.605   1.330
   41SOL     OW 1021   0.452   6.391   4.346
   41SOL    HW1 1022   0.504   6.313   4.311
   41SOL    HW2 1023   0.466   6.470   4.286
   42SOL     OW 1024   2.502   5.753   6.299
   42SOL    HW1 1025   2.538   5.793   6.215
   42SOL    HW2 1026   2.577   5.713   6.352
   43SOL     OW 1027   5.582   6.314   5.700
   43SOL    HW1 1028   5.587   6.273   5.791
   43SOL    HW2 1029   5.488   6.344   5.682
   44SOL     OW 1030   5.782   2.736   6.161
   44SOL    HW1 1031   5.822   2.783   6.240
   44SOL    HW2 1032   5.709   2.675   6.191
   45SOL     OW 1033   3.332   6.992   3.461
   45SOL    HW1 1034   3.269   6.917   3.440
   45SOL    HW2 1035   3.412   6.956   3.509
   46SOL     OW 1036   1.193   3.366   4.440
   46SOL    HW1 1037   1.283   3.409   4.449
   46SOL    HW2 1038   1.168   3.322   4.526
   47SOL     OW 1039   5.120   4.189   2.404
   47SOL    HW1 1040   5.160   4.137   2.480
   47SOL    HW2 1041   5.021   4.198   2.420
   48SOL     OW 1042   0.133   2.943   5.463
   48SOL    HW1 1043   0.067   2.948   5.538
   48SOL    HW2 1044   0.121   2.856   5.414
   49SOL     OW 1045   4.263   4.019   1.712
   49SOL    HW1 1046   4.165   4.037   1.723
   49SOL    HW2 1047   4.316   4.091   1.756
   50SOL     OW 1048   6.428   2.710   5.588
   50SOL    HW1 1049   6.415   2.797   5.539
   50SOL    HW2 1050   6.374   2.639   5.544
   51SOL     OW 1051   3.207   6.423   2.787
   51SOL    HW1 1052   3.145   6.448   2.713
   51SOL    HW2 1053   3.154   6.392   2.866
   52SOL     OW 1054   4.948   2.919   3.374
   52SOL    HW1 1055   4.913   3.012   3.389
   52SOL    HW2 1056   4.876   2.862   3.335
   53SOL     OW 1057   4.410   0.315   4.770
   53SOL    HW1 1058   4.416   0.415   4.778
   53SOL    HW2 1059   4.384   0.291   4.677
   54SOL     OW 1060   3.911   4.896   0.637
   54SOL    HW1 1061   3.960   4.819   0.596
   54SOL    HW2 1062   3.886   4.962   0.565
   55SOL     OW 1063   3.459   1.190   6.252
   55SOL    HW1 1064   3.478   1.279   6.291
   55SOL    HW2 1065   3.388   1.199   6.182
   56SOL     OW 1066   0.672   0.479   1.577
   56SOL    HW1 1067   0.657   0.446   1.484
   56SOL    HW2 1068   0.642   0.574   1.584
   57SOL     OW 1069   5.374   0.478   0.916
   57SOL    HW1 1070   5.452   0.512   0.864
   57SOL    HW2 1071   5.400   0.461   1.011
   58SOL     OW 1072   6.532   6.584   5.202
   58SOL    HW1 1073   6.570   6.627   5.120
   58SOL    HW2 1074   6.527   6.652   5.276
   59SOL     OW 1075   1.892   1.574   6.025
   59SOL    HW1 1076   1.917   1.640   6.096
   59SOL    HW2 1077   1.901   1.481   6.061
   60SOL     OW 1078   5.985   1.302   6.246
   60SOL    HW1 1079   5.888   1.322   6.238
   60SOL    HW2 1080   5.998   1.203   6.254
   61SOL     OW 1081   5.142   2.123   4.698
   61SOL    HW1 1082   5.128   2.170   4.785
   61SOL    HW2 1083   5.054   2.109   4.653
   62SOL     OW 1084   0.062   0.479   3.443
   62SOL    HW1 1085   0.086   0.384   3.422
   62SOL    HW2 1086   0.096   0.539   3.371
   63SOL     OW 1087   6.605   1.288   4.082
   63SOL    HW1 1088   6.542   1.292   4.160
   63SOL    HW2 1089   6.601   1.374   4.032
   64SOL     OW 1090   0.275   3.942   6.572
   64SOL    HW1 1091   0.294   4.020   6.632
   64SOL    HW2 1092   0.339   3.868   6.590
   65SOL     OW 1093   6.792   4.648   5.540
   65SOL    HW1 1094   6.876   4.595   5.527
   65SOL    HW2 1095   6.754   4.629   5.630
   66SOL     OW 1096   3.830   0.685   6.955
   66SOL    HW1 1097   3.735   0.701   6.980
   66SOL    HW2 1098   3.834   0.637   6.867
   67SOL     OW 1099   5.283   4.467   5.481
   67SOL    HW1 1100   5.323   4.557   5.462
   67SOL    HW2 1101   5.321   4.400   5.417
   68SOL     OW 1102   5.895   0.671   6.638
   68SOL    HW1 1103   5.977   0.640   6.686
   68SOL    HW2 1104   5.897   0.770   6.629
   69SOL     OW 1105   1.135   3.365   6.705
   69SOL    HW1 1106   1.208   3.433   6.692
   69SOL    HW2 1107   1.123   3.312   6.621
   70SOL     OW 1108   6.193   4.698   3.518
   70SOL    HW1 1109   6.116   4.677   3.578
   70SOL    HW2 1110   6.277   4.707   3.573
   71SOL     OW 1111   4.450   1.815   2.861
   71SOL    HW1 1112   4.535   1.777   2.896
   71SOL    HW2 1113   4.402   1.745   2.808
   72SOL     OW 1114   3.030   6.006   4.901
   72SOL    HW1 1115   2.951   5.945   4.913
   72SOL    HW2 1116   3.096   5.963   4.839
   73SOL     OW 1117   3.559   1.645   0.645
   73SOL    HW1 1118   3.494   1.603   0.581
   73SOL    HW2 1119   3.512   1.667   0.730
   74SOL     OW 1120   4.903   6.302   6.031
   74SOL    HW1 1121   4.975   6.258   5.976
   74SOL    HW2 1122   4.860   6.234   6.090
   75SOL     OW 1123   4.082   0.221   6.901
   75SOL    HW1 1124   4.000   0.172   6.931
   75SOL    HW2 1125   4.150   0.156   6.867
   76SOL     OW 1126   2.142   2.515   1.582
   76SOL    HW1 1127   2.214   2.447   1.564
   76SOL    HW2 1128   2.118   2.513   1.679
   77SOL     OW 1129   5.372   6.533   4.395
   77SOL    HW1 1130   5.380   6.570   4.302
   77SOL    HW2 1131   5.358   6.434   4.390
   78SOL     OW 1132   5.989   0.764   5.641
   78SOL    HW1 1133   5.995   0.744   5.543
   78SOL    HW2 1134   6.081   0.768   5.680
   79SOL     OW 1135   3.394   6.700   0.627
   79SOL    HW1 1136   3.466   6.637   0.598
   79SOL    HW2 1137   3.322   6.650   0.674
   80SOL     OW 1138   5.438   1.683   4.621
   80SOL    HW1 1139   5.444   1.764   4.563
   80SOL    HW2 1140   5.388   1.707   4.705
   81SOL     OW 1141   2.120   0.184   3.047
   81SOL    HW1 1142   2.043   0.247   3.053
   81SOL    HW2 1143   2.200   0.231   3.013
   82SOL     OW 1144   6.622   5.836   0.400
   82SOL    HW1 1145   6.592   5.789   0.483
   82SOL    HW2 1146   6.691   5.780   0.353
   83SOL     OW 1147   6.821   0.440   0.548
   83SOL    HW1 1148   6.921   0.435   0.555
   83SOL    HW2 1149   6.795   0.457   0.453
   84SOL     OW 1150   5.118   3.437   3.787
   84SOL    HW1 1151   5.190   3.504   3.806
   84SOL    HW2 1152   5.150   3.372   3.719
   85SOL     OW 1153   1.932   2.205   5.190
   85SOL    HW1 1154   1.975   2.292   5.215
   85SOL    HW2 1155   1.834   2.219   5.176
   86SOL     OW 1156   0.610   0.755   5.780
   86SOL    HW1 1157   0.594   0.833   5.841
   86SOL    HW2 1158   0.594   0.670   5.830
   87SOL     OW 1159   4.926   3.434   0.877
   87SOL    HW1 1160   4.848   3.433   0.939
   87SOL    HW2 1161   4.922   3.517   0.821
   88SOL     OW 1162   4.195   1.629   6.279
   88SOL    HW1 1163   4.278   1.670   6.317
   88SOL    HW2 1164   4.137   1.701   6.241
   89SOL     OW 1165   0.890   2.492   5.836
   89SOL    HW1 1166   0.972   2.515   5.888
   89SOL    HW2 1167   0.815   2.470   5.900
   90SOL     OW 1168   4.245   6.622   3.411
   90SOL    HW1 1169   4.308   6.633   3.488
   90SOL    HW2 1170   4.177   6.552   3.433
   91SOL     OW 1171   4.758   4.045   4.588
   91SOL    HW1 1172   4.770   3.952   4.554
   91SOL    HW2 1173   4.668   4.079   4.563
   92SOL     OW 1174   2.936   3.922   0.772
   92SOL    HW1 1175   2.962   3.941   0.678
   92SOL    HW2 1176   2.983   3.840   0.804
   93SOL     OW 1177   2.282   4.137   6.619
   93SOL    HW1 1178   2.286   4.155   6.717
   93SOL    HW2 1179   2.231   4.210   6.573
   94SOL     OW 1180   2.809   6.219   6.224
   94SOL    HW1 1181   2.847   6.128   6.242
   94SOL    HW2 1182   2.739   6.212   6.153
   95SOL     OW 1183   0.897   0.818   3.035
   95SOL    HW1 1184   0.965   0.858   2.973
   95SOL    HW2 1185   0.828   0.887   3.056
   96SOL     OW 1186   3.615   6.933   5.138
   96SOL    HW1 1187   3.572   0.001   5.155
   96SOL    HW2 1188   3.597   6.905   5.044
   97SOL     OW 1189   1.227   3.138   6.233
   97SOL    HW1 1190   1.140   3.161   6.190
   97SOL    HW2 1191   1.295   3.118   6.162
   98SOL     OW 1192   6.338   4.067   0.604
   98SOL    HW1 1193   6.279   4.148   0.604
   98SOL    HW2 1194   6.301   3.998   0.541
   99SOL     OW 1195   4.564   3.983   1.056
   99SOL    HW1 1196   4.501   3.949   1.126
   99SOL    HW2 1197   4.657   3.950   1.075
  100SOL     OW 1198   0.337   0.413   5.804
  100SOL    HW1 1199   0.242   0.431   5.829
  100SOL    HW2 1200   0.344   0.408   5.704
  101SOL     OW 1201   1.272   6.032   2.692
  101SOL    HW1 1202   1.300   6.020   2.597
  101SOL    HW2 1203   1.354   6.045   2.749
  102SOL     OW 1204   4.297   0.470   2.226
  102SOL    HW1 1205   4.388   0.506   2.205
  102SOL    HW2 1206   4.301   0.370   2.230
  103SOL     OW 1207   3.206   0.891   2.554
  103SOL    HW1 1208   3.144   0.967   2.537
  103SOL    HW2 1209   3.268   0.915   2.629
  104SOL     OW 1210   6.930   5.361   2.682
  104SOL    HW1 1211   6.948   5.281   2.625
  104SOL    HW2 1212   6.832   5.380   2.682
  105SOL     OW 1213   6.706   2.614   6.270
  105SOL    HW1 1214   6.795   2.637   6.308
  105SOL    HW2 1215   6.714   2.530   6.215
  106SOL     OW 1216   3.532   6.239   4.604
  106SOL    HW1 1217   3.608   6.193   4.650
  106SOL    HW2 1218   3.455   6.175   4.596
  107SOL     OW 1219   1.473   1.614   1.838
  107SOL    HW1 1220   1.459   1.525   1.795
  107SOL    HW2 1221   1.417   1.682   1.792
  108SOL     OW 1222   3.965   5.380   5.449
  108SOL    HW1 1223   4.003   5.453   5.506
  108SOL    HW2 1224   4.025   5.365   5.370
  109SOL     OW 1225   0.808   1.036   1.380
  109SOL    HW1 1226   0.760   1.121   1.403
  109SOL    HW2 1227   0.864   1.051   1.299
  110SOL     OW 1228   3.986   6.275   5.092
  110SOL    HW1 1229   4.067   6.262   5.150
  110SOL    HW2 1230   3.964   6.372   5.086
  111SOL     OW 1231   3.365   0.825   5.037
  111SOL    HW1 1232   3.464   0.834   5.039
  111SOL    HW2 1233   3.327   0.858   5.124
  112SOL     OW 1234   5.723   6.343   6.484
  112SOL    HW1 1235   5.755   6.249   6.499
  112SOL    HW2 1236   5.759   6.377   6.397
  113SOL     OW 1237   6.234   4.823   3.264
  113SOL    HW1 1238   6.218   4.797   3.360
  113SOL    HW2 1239   6.318   4.877   3.258
  114SOL     OW 1240   1.172   0.219   1.475
  114SOL    HW1 1241   1.101   0.165   1.521
  114SOL    HW2 1242   1.133   0.259   1.392
  115SOL     OW 1243   3.774   1.582   3.520
  115SOL    HW1 1244   3.815   1.666   3.555
  115SOL    HW2 1245   3.836   1.505   3.538
  116SOL     OW 1246   6.166   5.182   1.974
  116SOL    HW1 1247   6.117   5.169   2.061
  116SOL    HW2 1248   6.257   5.219   1.992
  117SOL     OW 1249   1.475   1.317   6.561
  117SOL    HW1 1250   1.415   1.392   6.534
  117SOL    HW2 1251   1.528   1.345   6.642
  118SOL     OW 1252   1.353   1.414   3.082
  118SOL    HW1 1253   1.375   1.397   2.986
  118SOL    HW2 1254   1.415   1.362   3.141
  119SOL     OW 1255   1.094   1.640   6.286
  119SOL    HW1 1256   1.099   1.607   6.381
  119SOL    HW2 1257   1.183   1.631   6.243
  120SOL     OW 1258   6.185   6.657   0.590
  120SOL    HW1 1259   6.138   6.733   0.635
  120SOL    HW2 1260   6.127   6.620   0.518
  121SOL     OW 1261   2.144   4.009   6.391
  121SOL    HW1 1262   2.230   4.007   6.441
  121SOL    HW2 1263   2.112   4.103   6.382
  122SOL     OW 1264   1.641   4.650   6.874
  122SOL    HW1 1265   1.735   4.642   6.905
  122SOL    HW2 1266   1.610   4.745   6.885
  123SOL     OW 1267   0.192   1.644   1.641
  123SOL    HW1 1268   0.286   1.622   1.664
  123SOL    HW2 1269   0.135   1.638   1.723
  124SOL     OW 1270   5.370   3.224   0.793
  124SOL    HW1 1271   5.351   3.156   0.865
  124SOL    HW2 1272   5.425   3.182   0.721
  125SOL     OW 1273   2.521   1.892   2.259
  125SOL    HW1 1274   2.610   1.847   2.262
  125SOL    HW2 1275   2.530   1.986   2.290
  126SOL     OW 1276   2.461   3.866   1.256
  126SOL    HW1 1277   2.380   3.922   1.273
  126SOL    HW2 1278   2.517   3.862   1.339
  127SOL     OW 1279   0.328   5.614   5.793
  127SOL    HW1 1280   0.426   5.617   5.775
  127SOL    HW2 1281   0.282   5.682   5.736
  128SOL     OW 1282   4.741   2.301   1.485
  128SOL    HW1 1283   4.736   2.286   1.584
  128SOL    HW2 1284   4.836   2.288   1.455
  129SOL     OW 1285   3.378   3.078   5.933
  129SOL    HW1 1286   3.392   3.162   5.880
  129SOL    HW2 1287   3.393   3.098   6.030
  130SOL     OW 1288   0.580   1.174   4.213
  130SOL    HW1 1289   0.663   1.206   4.256
  130SOL    HW2 1290   0.505   1.237   4.233
  131SOL     OW 1291   5.202   1.583   3.049
  131SOL    HW1 1292   5.129   1.548   3.108
  131SOL    HW2 1293   5.260   1.507   3.019
  132SOL     OW 1294   2.362   2.709   0.618
  132SOL    HW1 1295   2.325   2.733   0.708
  132SOL    HW2 1296   2.292   2.723   0.548
  133SOL     OW 1297   5.089   6.786   4.024
  133SOL    HW1 1298   5.130   6.816   4.110
  133SOL    HW2 1299   5.125   6.841   3.949
  134SOL     OW 1300   5.886   1.491   2.570
  134SOL    HW1 1301   5.882   1.533   2.480
  134SOL    HW2 1302   5.799   1.445   2.589
  135SOL     OW 1303   5.617   3.619   2.586
  135SOL    HW1 1304   5.574   3.700   2.624
  135SOL    HW2 1305   5.623   3.547   2.655
  136SOL     OW 1306   3.089   3.881   6.537
  136SOL    HW1 1307   3.126   3.904   6.447
  136SOL    HW2 1308   3.161   3.839   6.593
  137SOL     OW 1309   5.319   1.461   4.919
  137SOL    HW1 1310   5.255   1.386   4.901
  137SOL    HW2 1311   5.342   1.462   5.016
  138SOL     OW 1312   0.319   4.754   3.379
  138SOL    HW1 1313   0.275   4.707   3.303
  138SOL    HW2 1314   0.325   4.691   3.457
  139SOL     OW 1315   2.792   6.748   4.849
  139SOL    HW1 1316   2.770   6.751   4.751
  139SOL    HW2 1317   2.753   6.829   4.893
  140SOL     OW 1318   0.401   5.484   3.144
  140SOL    HW1 1319   0.449   5.572   3.152
  140SOL    HW2 1320   0.435   5.421   3.214
  141SOL     OW 1321   6.339   3.168   4.811
  141SOL    HW1 1322   6.415   3.180   4.875
  141SOL    HW2 1323   6.318   3.071   4.801
  142SOL     OW 1324   2.010   4.245   0.370
  142SOL    HW1 1325   1.975   4.153   0.390
  142SOL    HW2 1326   1.941   4.296   0.318
  143SOL     OW 1327   5.624   4.317   1.545
  143SOL    HW1 1328   5.604   4.333   1.642
  143SOL    HW2 1329   5.539   4.296   1.497
  144SOL     OW 1330   1.484   6.302   6.859
  144SOL    HW1 1331   1.443   6.353   6.784
  144SOL    HW2 1332   1.528   6.219   6.824
  145SOL     OW 1333   0.383   5.004   0.216
  145SOL    HW1 1334   0.404   5.000   0.119
  145SOL    HW2 1335   0.377   5.099   0.245
  146SOL     OW 1336   5.038   0.504   6.508
  146SOL    HW1 1337   5.095   0.425   6.532
  146SOL    HW2 1338   5.014   0.499   6.411
  147SOL     OW 1339   5.816   3.715   6.767
  147SOL    HW1 1340   5.834   3.735   6.671
  147SOL    HW2 1341   5.776   3.796   6.810
  148SOL     OW 1342   0.132   5.281   6.498
  148SOL    HW1 1343   0.195   5.231   6.558
  148SOL    HW2 1344   0.129   5.377   6.525
  149SOL     OW 1345   3.110   2.089   4.627
  149SOL    HW1 1346   3.053   2.007   4.636
  149SOL    HW2 1347   3.076   2.160   4.688
  150SOL     OW 1348   5.794   5.737   6.280
  150SOL    HW1 1349   5.819   5.727   6.184
  150SOL    HW2 1350   5.722   5.806   6.288
  151SOL     OW 1351   3.436   2.552   1.194
  151SOL    HW1 1352   3.367   2.599   1.248
  151SOL    HW2 1353   3.439   2.455   1.221
  152SOL     OW 1354   1.417   1.414   3.425
  152SOL    HW1 1355   1.348   1.484   3.445
  152SOL    HW2 1356   1.508   1.451   3.443
  153SOL     OW 1357   2.887   0.354   1.602
  153SOL    HW1 1358   2.883   0.453   1.590
  153SOL    HW2 1359   2.972   0.319   1.562
  154SOL     OW 1360   0.555   2.121   3.016
  154SOL    HW1 1361   0.506   2.199   2.976
  154SOL    HW2 1362   0.521   2.105   3.109
  155SOL     OW 1363   6.667   1.576   3.648
  155SOL    HW1 1364   6.721   1.659   3.634
  155SOL    HW2 1365   6.572   1.594   3.620
  156SOL     OW 1366   0.141   1.989   0.341
  156SOL    HW1 1367   0.116   2.084   0.321
  156SOL    HW2 1368   0.163   1.980   0.438
  157SOL     OW 1369   6.211   3.017   1.897
  157SOL    HW1 1370   6.180   3.112   1.892
  157SOL    HW2 1371   6.269   3.005   1.977
  158SOL     OW 1372   2.717   5.916   1.906
  158SOL    HW1 1373   2.654   5.838   1.906
  158SOL    HW2 1374   2.665   6.001   1.899
  159SOL     OW 1375   4.466   4.580   1.932
  159SOL    HW1 1376   4.371   4.609   1.945
  159SOL    HW2 1377   4.475   4.483   1.956
  160SOL     OW 1378   6.316   5.616   0.239
  160SOL    HW1 1379   6.375   5.537   0.257
  160SOL    HW2 1380   6.368   5.686   0.190
  161SOL     OW 1381   2.189   5.567   4.677
  161SOL    HW1 1382   2.262   5.609   4.624
  161SOL    HW2 1383   2.120   5.531   4.614
  162SOL     OW 1384   3.879   6.636   6.936
  162SOL    HW1 1385   3.826   6.553   6.949
  162SOL    HW2 1386   3.816   6.713   6.920
  163SOL     OW 1387   5.130   5.926   0.954
  163SOL    HW1 1388   5.212   5.891   0.908
  163SOL    HW2 1389   5.103   5.862   1.026
  164SOL     OW 1390   6.408   5.040   0.476
  164SOL    HW1 1391   6.397   5.055   0.378
  164SOL    HW2 1392   6.466   4.961   0.492
  165SOL     OW 1393   5.420   2.831   1.400
  165SOL    HW1 1394   5.384   2.924   1.395
  165SOL    HW2 1395   5.470   2.819   1.486
  166SOL     OW 1396   6.920   5.325   3.890
  166SOL    HW1 1397   6.912   5.415   3.846
  166SOL    HW2 1398   6.975   5.265   3.832
  167SOL     OW 1399   5.781   2.751   6.867
  167SOL    HW1 1400   5.743   2.840   6.841
  167SOL    HW2 1401   5.782   2.744   6.967
  168SOL     OW 1402   2.016   3.499   1.480
  168SOL    HW1 1403   2.037   3.438   1.404
  168SOL    HW2 1404   2.051   3.460   1.565
  169SOL     OW 1405   4.118   0.631   1.886
  169SOL    HW1 1406   4.091   0.700   1.953
  169SOL    HW2 1407   4.043   0.617   1.821
  170SOL     OW 1408   0.368   0.916   3.518
  170SOL    HW1 1409   0.293   0.883   3.461
  170SOL    HW2 1410   0.355   1.013   3.537
  171SOL     OW 1411   4.023   4.635   0.591
  171SOL    HW1 1412   4.119   4.642   0.618
  171SOL    HW2 1413   4.014   4.574   0.513
  172SOL     OW 1414   6.489   1.954   4.331
  172SOL    HW1 1415   6.489   1.854   4.343
  172SOL    HW2 1416   6.577   1.991   4.359
  173SOL     OW 1417   6.616   2.330   4.285
  173SOL    HW1 1418   6.689   2.329   4.217
  173SOL    HW2 1419   6.535   2.284   4.247
  174SOL     OW 1420   3.505   5.464   4.235
  174SOL    HW1 1421   3.515   5.480   4.136
  174SOL    HW2 1422   3.594   5.440   4.274
  175SOL     OW 1423   2.280   6.881   2.336
  175SOL    HW1 1424   2.225   6.877   2.252
  175SOL    HW2 1425   2.377   6.876   2.313
  176SOL     OW 1426   0.926   4.408   1.367
  176SOL    HW1 1427   0.863   4.477   1.402
  176SOL    HW2 1428   1.005   4.454   1.325
  177SOL     OW 1429   5.532   2.878   2.754
  177SOL    HW1 1430   5.605   2.813   2.734
  177SOL    HW2 1431   5.467   2.878   2.678
  178SOL     OW 1432   3.079   2.546   6.342
  178SOL    HW1 1433   3.107   2.469   6.399
  178SOL    HW2 1434   3.058   2.514   6.250
  179SOL     OW 1435   2.620   1.815   6.011
  179SOL    HW1 1436   2.665   1.731   6.042
  179SOL    HW2 1437   2.626   1.884   6.083
  180SOL     OW 1438   1.722   0.287   6.394
  180SOL    HW1 1439   1.766   0.295   6.483
  180SOL    HW2 1440   1.696   0.192   6.377
  181SOL     OW 1441   3.455   1.832   5.961
  181SOL    HW1 1442   3.395   1.797   6.034
  181SOL    HW2 1443   3.404   1.834   5.875
  182SOL     OW 1444   3.495   1.745   4.081
  182SOL    HW1 1445   3.422   1.684   4.113
  182SOL    HW2 1446   3.455   1.830   4.048
  183SOL     OW 1447   3.459   2.041   3.464
  183SOL    HW1 1448   3.462   2.097   3.382
  183SOL    HW2 1449   3.552   2.015   3.491
  184SOL     OW 1450   1.939   6.147   4.168
  184SOL    HW1 1451   1.998   6.226   4.154
  184SOL    HW2 1452   1.897   6.120   4.081
  185SOL     OW 1453   0.606   2.148   6.455
  185SOL    HW1 1454   0.511   2.159   6.425
  185SOL    HW2 1455   0.611   2.165   6.554
  186SOL     OW 1456   5.988   1.332   3.966
  186SOL    HW1 1457   5.968   1.235   3.983
  186SOL    HW2 1458   5.904   1.380   3.942
  187SOL     OW 1459   4.410   0.641   2.878
  187SOL    HW1 1460   4.331   0.579   2.879
  187SOL    HW2 1461   4.397   0.709   2.805
  188SOL     OW 1462   6.748   1.686   2.004
  188SOL    HW1 1463   6.662   1.686   2.055
  188SOL    HW2 1464   6.821   1.718   2.063
  189SOL     OW 1465   2.225   5.032   1.823
  189SOL    HW1 1466   2.163   5.005   1.896
  189SOL    HW2 1467   2.298   4.964   1.816
  190SOL     OW 1468   4.199   1.218   4.112
  190SOL    HW1 1469   4.137   1.169   4.052
  190SOL    HW2 1470   4.228   1.303   4.069
  191SOL     OW 1471   5.585   5.916   6.314
  191SOL    HW1 1472   5.595   5.944   6.219
  191SOL    HW2 1473   5.502   5.861   6.324
  192SOL     OW 1474   0.121   5.899   1.852
  192SOL    HW1 1475   0.215   5.900   1.883
  192SOL    HW2 1476   0.096   5.806   1.826
  193SOL     OW 1477   4.644   2.498   5.727
  193SOL    HW1 1478   4.736   2.535   5.737
  193SOL    HW2 1479   4.627   2.429   5.797
  194SOL     OW 1480   3.557   0.695   2.573
  194SOL    HW1 1481   3.516   0.686   2.664
  194SOL    HW2 1482   3.546   0.609   2.523
  195SOL     OW 1483   1.763   6.905   4.498
  195SOL    HW1 1484   1.678   6.890   4.447
  195SOL    HW2 1485   1.744   6.898   4.596
  196SOL     OW 1486   2.514   1.299   6.509
  196SOL    HW1 1487   2.465   1.351   6.578
  196SOL    HW2 1488   2.601   1.266   6.546
  197SOL     OW 1489   1.897   0.459   0.616
  197SOL    HW1 1490   1.837   0.519   0.564
  197SOL    HW2 1491   1.977   0.436   0.560
  198SOL     OW 1492   4.895   1.221   2.881
  198SOL    HW1 1493   4.938   1.142   2.837
  198SOL    HW2 1494   4.797   1.222   2.859
  199SOL     OW 1495   1.103   2.018   4.311
  199SOL    HW1 1496   1.123   1.999   4.408
  199SOL    HW2 1497   1.154   1.955   4.253
  200SOL     OW 1498   1.133   3.564   0.600
  200SOL    HW1 1499   1.145   3.508   0.682
  200SOL    HW2 1500   1.037   3.563   0.573
  201SOL     OW 1501   0.391   6.146   5.616
  201SOL    HW1 1502   0.348   6.210   5.680
  201SOL    HW2 1503   0.447   6.197   5.552
  202SOL     OW 1504   3.531   1.961   6.299
  202SOL    HW1 1505   3.458   1.929   6.238
  202SOL    HW2 1506   3.581   2.034   6.254
  203SOL     OW 1507   6.173   2.190   5.209
  203SOL    HW1 1508   6.151   2.149   5.121
  203SOL    HW2 1509   6.187   2.288   5.198
  204SOL     OW 1510   0.895   6.752   4.406
  204SOL    HW1 1511   0.817   6.724   4.351
  204SOL    HW2 1512   0.966   6.681   4.402
  205SOL     OW 1513   1.211   2.570   2.874
  205SOL    HW1 1514   1.233   2.527   2.962
  205SOL    HW2 1515   1.112   2.575   2.864
  206SOL     OW 1516   0.625   3.436   1.179
  206SOL    HW1 1517   0.574   3.468   1.259
  206SOL    HW2 1518   0.723   3.448   1.196
  207SOL     OW 1519   5.731   1.418   4.061
  207SOL    HW1 1520   5.746   1.327   4.099
  207SOL    HW2 1521   5.808   1.477   4.085
  208SOL     OW 1522   0.252   3.984   5.703
  208SOL    HW1 1523   0.171   3.997   5.760
  208SOL    HW2 1524   0.232   3.920   5.630
  209SOL     OW 1525   6.826   4.851   3.267
  209SOL    HW1 1526   6.834   4.795   3.184
  209SOL    HW2 1527   6.911   4.846   3.319
  210SOL     OW 1528   4.472   2.156   0.515
  210SOL    HW1 1529   4.539   2.205   0.459
  210SOL    HW2 1530   4.380   2.187   0.491
  211SOL     OW 1531   1.081   6.565   2.047
  211SOL    HW1 1532   1.100   6.656   2.085
  211SOL    HW2 1533   1.048   6.575   1.953
  212SOL     OW 1534   1.191   3.306   2.455
  212SOL    HW1 1535   1.206   3.215   2.417
  212SOL    HW2 1536   1.198   3.302   2.555
  213SOL     OW 1537   2.378   6.311   0.861
  213SOL    HW1 1538   2.370   6.261   0.947
  213SOL    HW2 1539   2.328   6.262   0.789
  214SOL     OW 1540   3.405   5.553   2.987
  214SOL    HW1 1541   3.358   5.578   3.072
  214SOL    HW2 1542   3.344   5.564   2.910
  215SOL     OW 1543   3.045   3.692   0.867
  215SOL    HW1 1544   3.088   3.604   0.847
  215SOL    HW2 1545   3.112   3.753   0.909
  216SOL     OW 1546   0.438   6.043   3.364
  216SOL    HW1 1547   0.397   6.125   3.323
  216SOL    HW2 1548   0.519   6.017   3.311
  217SOL     OW 1549   1.433   2.393   4.886
  217SOL    HW1 1550   1.425   2.336   4.804
  217SOL    HW2 1551   1.343   2.399   4.930
  218SOL     OW 1552   0.843   2.686   4.568
  218SOL    HW1 1553   0.897   2.608   4.537
  218SOL    HW2 1554   0.892   2.771   4.548
  219SOL     OW 1555   3.795   6.880   0.328
  219SOL    HW1 1556   3.858   6.915   0.397
  219SOL    HW2 1557   3.847   6.841   0.252
  220SOL     OW 1558   2.629   0.258   1.584
  220SOL    HW1 1559   2.725   0.256   1.611
  220SOL    HW2 1560   2.571   0.244   1.665
  221SOL     OW 1561   5.832   4.311   1.212
  221SOL    HW1 1562   5.902   4.357   1.267
  221SOL    HW2 1563   5.853   4.213   1.207
  222SOL     OW 1564   1.499   4.611   5.349
  222SOL    HW1 1565   1.596   4.637   5.340
  222SOL    HW2 1566   1.472   4.618   5.445
  223SOL     OW 1567   6.874   3.227   6.194
  223SOL    HW1 1568   6.941   3.300   6.184
  223SOL    HW2 1569   6.793   3.262   6.241
  224SOL     OW 1570   2.834   1.471   5.996
  224SOL    HW1 1571   2.895   1.514   6.062
  224SOL    HW2 1572   2.868   1.488   5.903
  225SOL     OW 1573   4.432   4.311   6.675
  225SOL    HW1 1574   4.397   4.223   6.645
  225SOL    HW2 1575   4.481   4.355   6.600
  226SOL     OW 1576   0.245   1.591   6.006
  226SOL    HW1 1577   0.268   1.601   5.909
  226SOL    HW2 1578   0.152   1.555   6.015
  227SOL     OW 1579   1.268   4.332   2.104
  227SOL    HW1 1580   1.292   4.276   2.183
  227SOL    HW2 1581   1.221   4.415   2.134
  228SOL     OW 1582   2.059   0.254   2.645
  228SOL    HW1 1583   2.032   0.275   2.551
  228SOL    HW2 1584   2.140   0.196   2.645
  229SOL     OW 1585   5.517   5.452   6.247
  229SOL    HW1 1586   5.444   5.409   6.300
  229SOL    HW2 1587   5.606   5.415   6.276
  230SOL     OW 1588   4.436   5.724   4.211
  230SOL    HW1 1589   4.374   5.798   4.186
  230SOL    HW2 1590   4.496   5.702   4.134
  231SOL     OW 1591   6.063   0.963   6.516
  231SOL    HW1 1592   6.111   1.029   6.574
  231SOL    HW2 1593   6.124   0.888   6.493
  232SOL     OW 1594   0.076   3.544   6.815
  232SOL    HW1 1595   7.020   3.486   6.785
  232SOL    HW2 1596   0.159   3.488   6.823
  233SOL     OW 1597   3.871   1.037   2.797
  233SOL    HW1 1598   3.837   1.026   2.704
  233SOL    HW2 1599   3.900   0.948   2.832
  234SOL     OW 1600   4.928   0.685   6.686
  234SOL    HW1 1601   4.985   0.635   6.621
  234SOL    HW2 1602   4.873   0.620   6.739
  235SOL     OW 1603   4.906   2.924   2.275
  235SOL    HW1 1604   4.963   2.857   2.227
  235SOL    HW2 1605   4.875   2.994   2.210
  236SOL     OW 1606   5.254   3.114   6.974
  236SOL    HW1 1607   5.183   3.051   6.943
  236SOL    HW2 1608   5.343   3.070   6.965
  237SOL     OW 1609   0.224   4.421   2.264
  237SOL    HW1 1610   0.192   4.474   2.342
  237SOL    HW2 1611   0.210   4.473   2.179
  238SOL     OW 1612   5.936   1.820   0.497
  238SOL    HW1 1613   5.889   1.878   0.564
  238SOL    HW2 1614   6.025   1.795   0.533
  239SOL     OW 1615   0.986   4.233   7.005
  239SOL    HW1 1616   1.076   4.224   0.027
  239SOL    HW2 1617   0.988   4.305   6.937
  240SOL     OW 1618   0.948   3.207   3.605
  240SOL    HW1 1619   0.890   3.263   3.547
  240SOL    HW2 1620   1.043   3.237   3.597
  241SOL     OW 1621   2.921   2.203   4.834
  241SOL    HW1 1622   2.854   2.256   4.783
  241SOL    HW2 1623   2.953   2.257   4.912
  242SOL     OW 1624   3.219   3.779   4.132
  242SOL    HW1 1625   3.141   3.751   4.187
  242SOL    HW2 1626   3.194   3.856   4.074
  243SOL     OW 1627   4.759   1.057   0.469
  243SOL    HW1 1628   4.672   1.103   0.455
  243SOL    HW2 1629   4.762   0.974   0.415
  244SOL     OW 1630   6.216   3.853   5.262
  244SOL    HW1 1631   6.189   3.797   5.339
  244SOL    HW2 1632   6.316   3.864   5.262
  245SOL     OW 1633   4.730   1.690   4.361
  245SOL    HW1 1634   4.672   1.766   4.333
  245SOL    HW2 1635   4.753   1.698   4.458
  246SOL     OW 1636   4.474   1.988   3.177
  246SOL    HW1 1637   4.374   1.987   3.168
  246SOL    HW2 1638   4.501   2.064   3.235
  247SOL     OW 1639   2.668   2.176   0.964
  247SOL    HW1 1640   2.678   2.261   0.912
  247SOL    HW2 1641   2.707   2.188   1.055
  248SOL     OW 1642   3.387   1.429   2.989
  248SOL    HW1 1643   3.412   1.412   3.085
  248SOL    HW2 1644   3.406   1.524   2.966
  249SOL     OW 1645   5.646   6.685   5.233
  249SOL    HW1 1646   5.680   6.733   5.313
  249SOL    HW2 1647   5.720   6.632   5.191
  250SOL     OW 1648   4.519   3.257   0.265
  250SOL    HW1 1649   4.437   3.249   0.322
  250SOL    HW2 1650   4.522   3.180   0.201
  251SOL     OW 1651   4.445   3.511   5.320
  251SOL    HW1 1652   4.372   3.579   5.312
  251SOL    HW2 1653   4.527   3.543   5.273
  252SOL     OW 1654   0.068   6.279   4.918
  252SOL    HW1 1655   0.040   6.360   4.970
  252SOL    HW2 1656   0.120   6.307   4.837
  253SOL     OW 1657   3.323   5.379   6.131
  253SOL    HW1 1658   3.423   5.378   6.134
  253SOL    HW2 1659   3.291   5.473   6.117
  254SOL     OW 1660   6.370   2.636   3.890
  254SOL    HW1 1661   6.373   2.644   3.791
  254SOL    HW2 1662   6.428   2.560   3.920
  255SOL     OW 1663   2.612   4.959   5.197
  255SOL    HW1 1664   2.541   4.995   5.258
  255SOL    HW2 1665   2.612   4.859   5.202
  256SOL     OW 1666   5.708   4.024   6.122
  256SOL    HW1 1667   5.787   4.074   6.087
  256SOL    HW2 1668   5.624   4.073   6.099
  257SOL     OW 1669   4.954   0.597   3.362
  257SOL    HW1 1670   4.937   0.652   3.280
  257SOL    HW2 1671   4.871   0.547   3.386
  258SOL     OW 1672   2.026   4.463   5.276
  258SOL    HW1 1673   2.036   4.415   5.189
  258SOL    HW2 1674   1.991   4.555   5.259
  259SOL     OW 1675   6.442   1.009   2.806
  259SOL    HW1 1676   6.368   1.072   2.828
  259SOL    HW2 1677   6.480   1.031   2.716
  260SOL     OW 1678   4.300   6.245   2.938
  260SOL    HW1 1679   4.322   6.331   2.984
  260SOL    HW2 1680   4.205   6.248   2.906
  261SOL     OW 1681   6.141   3.558   0.633
  261SOL    HW1 1682   6.169   3.587   0.541
  261SOL    HW2 1683   6.047   3.523   0.629
  262SOL     OW 1684   1.139   3.839   6.983
  262SOL    HW1 1685   1.089   3.823   6.898
  262SOL    HW2 1686   1.081   3.889   0.027
  263SOL     OW 1687   1.963   0.382   5.122
  263SOL    HW1 1688   1.991   0.478   5.129
  263SOL    HW2 1689   1.966   0.353   5.027
  264SOL     OW 1690   6.041   2.856   6.851
  264SOL    HW1 1691   5.952   2.814   6.839
  264SOL    HW2 1692   6.044   2.943   6.801
  265SOL     OW 1693   5.314   6.794   2.636
  265SOL    HW1 1694   5.302   6.866   2.704
  265SOL    HW2 1695   5.401   6.746   2.653
  266SOL     OW 1696   4.019   2.622   5.702
  266SOL    HW1 1697   4.021   2.523   5.692
  266SOL    HW2 1698   4.113   2.657   5.705
  267SOL     OW 1699   0.354   1.871   5.778
  267SOL    HW1 1700   0.362   1.773   5.759
  267SOL    HW2 1701   0.408   1.894   5.859
  268SOL     OW 1702   3.115   1.035   6.345
  268SOL    HW1 1703   3.050   1.091   6.294
  268SOL    HW2 1704   3.108   0.940   6.316
  269SOL     OW 1705   1.614   3.797   0.990
  269SOL    HW1 1706   1.674   3.805   1.069
  269SOL    HW2 1707   1.587   3.701   0.978
  270SOL     OW 1708   1.261   6.041   0.483
  270SOL    HW1 1709   1.330   5.988   0.532
  270SOL    HW2 1710   1.176   5.989   0.476
  271SOL     OW 1711   6.675   1.065   6.309
  271SOL    HW1 1712   6.724   1.120   6.241
  271SOL    HW2 1713   6.721   0.978   6.322
  272SOL     OW 1714   3.853   5.915   4.144
  272SOL    HW1 1715   3.921   5.981   4.113
  272SOL    HW2 1716   3.796   5.958   4.215
  273SOL     OW 1717   2.296   4.593   4.258
  273SOL    HW1 1718   2.226   4.578   4.187
  273SOL    HW2 1719   2.373   4.532   4.242
  274SOL     OW 1720   4.145   1.504   3.044
  274SOL    HW1 1721   4.118   1.536   2.953
  274SOL    HW2 1722   4.064   1.482   3.097
  275SOL     OW 1723   6.624   5.474   3.869
  275SOL    HW1 1724   6.630   5.375   3.884
  275SOL    HW2 1725   6.705   5.517   3.908
  276SOL     OW 1726   0.312   6.482   2.598
  276SOL    HW1 1727   0.411   6.464   2.602
  276SOL    HW2 1728   0.266   6.404   2.557
  277SOL     OW 1729   0.976   3.698   0.348
  277SOL    HW1 1730   0.923   3.704   0.432
  277SOL    HW2 1731   0.921   3.727   0.270
  278SOL     OW 1732   0.345   4.412   1.157
  278SOL    HW1 1733   0.352   4.399   1.058
  278SOL    HW2 1734   0.278   4.484   1.176
  279SOL     OW 1735   5.726   2.782   4.424
  279SOL    HW1 1736   5.766   2.852   4.364
  279SOL    HW2 1737   5.767   2.790   4.515
  280SOL     OW 1738   2.672   5.546   2.838
  280SOL    HW1 1739   2.738   5.597   2.783
  280SOL    HW2 1740   2.611   5.609   2.885
  281SOL     OW 1741   2.516   4.513   1.756
  281SOL    HW1 1742   2.497   4.573   1.678
  281SOL    HW2 1743   2.614   4.511   1.774
  282SOL     OW 1744   3.342   1.555   5.402
  282SOL    HW1 1745   3.397   1.591   5.327
  282SOL    HW2 1746   3.324   1.457   5.386
  283SOL     OW 1747   5.856   2.882   6.391
  283SOL    HW1 1748   5.948   2.920   6.385
  283SOL    HW2 1749   5.794   2.948   6.434
  284SOL     OW 1750   1.201   3.784   3.580
  284SOL    HW1 1751   1.169   3.697   3.541
  284SOL    HW2 1752   1.276   3.767   3.643
  285SOL     OW 1753   5.786   5.311   4.200
  285SOL    HW1 1754   5.885   5.295   4.204
  285SOL    HW2 1755   5.739   5.224   4.184
  286SOL     OW 1756   3.239   5.052   6.644
  286SOL    HW1 1757   3.317   5.086   6.591
  286SOL    HW2 1758   3.260   4.960   6.678
  287SOL     OW 1759   1.121   3.381   1.066
  287SOL    HW1 1760   1.072   3.302   1.102
  287SOL    HW2 1761   1.102   3.460   1.123
  288SOL     OW 1762   3.213   1.470   6.851
  288SOL    HW1 1763   3.177   1.556   6.815
  288SOL    HW2 1764   3.145   1.398   6.838
  289SOL     OW 1765   2.376   4.416   5.931
  289SOL    HW1 1766   2.467   4.434   5.892
  289SOL    HW2 1767   2.312   4.395   5.857
  290SOL     OW 1768   6.653   2.089   4.721
  290SOL    HW1 1769   6.554   2.083   4.739
  290SOL    HW2 1770   6.703   2.040   4.793
  291SOL     OW 1771   1.185   2.014   4.606
  291SOL    HW1 1772   1.271   2.055   4.639
  291SOL    HW2 1773   1.121   2.087   4.581
  292SOL     OW 1774   1.603   1.995   3.150
  292SOL    HW1 1775   1.696   2.017   3.180
  292SOL    HW2 1776   1.567   2.069   3.094
  293SOL     OW 1777   4.269   6.085   3.172
  293SOL    HW1 1778   4.249   6.147   3.096
  293SOL    HW2 1779   4.368   6.083   3.188
  294SOL     OW 1780   0.234   6.248   6.787
  294SOL    HW1 1781   0.224   6.176   6.856
  294SOL    HW2 1782   0.193   6.333   6.821
  295SOL     OW 1783   3.806   1.090   3.635
  295SOL    HW1 1784   3.787   1.128   3.725
  295SOL    HW2 1785   3.728   1.107   3.574
  296SOL     OW 1786   3.626   1.585   2.825
  296SOL    HW1 1787   3.591   1.601   2.733
  296SOL    HW2 1788   3.666   1.494   2.831
  297SOL     OW 1789   2.489   4.559   3.841
  297SOL    HW1 1790   2.434   4.520   3.916
  297SOL    HW2 1791   2.452   4.648   3.816
  298SOL     OW 1792   4.171   5.609   2.244
  298SOL    HW1 1793   4.160   5.651   2.334
  298SOL    HW2 1794   4.090   5.628   2.189
  299SOL     OW 1795   5.340   3.293   6.131
  299SOL    HW1 1796   5.287   3.333   6.206
  299SOL    HW2 1797   5.286   3.297   6.047
  300SOL     OW 1798   6.219   0.971   2.494
  300SOL    HW1 1799   6.267   0.893   2.454
  300SOL    HW2 1800   6.167   0.940   2.574
  301SOL     OW 1801   5.002   3.762   1.125
  301SOL    HW1 1802   4.963   3.680   1.168
  301SOL    HW2 1803   5.100   3.763   1.140
  302SOL     OW 1804   1.353   0.397   2.971
  302SOL    HW1 1805   1.301   0.483   2.979
  302SOL    HW2 1806   1.289   0.321   2.965
  303SOL     OW 1807   6.021   0.647   2.459
  303SOL    HW1 1808   6.045   0.698   2.542
  303SOL    HW2 1809   6.103   0.637   2.402
  304SOL     OW 1810   2.052   0.114   3.344
  304SOL    HW1 1811   2.020   0.020   3.353
  304SOL    HW2 1812   2.052   0.139   3.247
  305SOL     OW 1813   0.291   3.396   6.847
  305SOL    HW1 1814   0.354   3.366   6.918
  305SOL    HW2 1815   0.340   3.405   6.760
  306SOL     OW 1816   1.369   1.017   3.523
  306SOL    HW1 1817   1.326   0.927   3.511
  306SOL    HW2 1818   1.449   1.023   3.463
  307SOL     OW 1819   4.678   6.660   1.055
  307SOL    HW1 1820   4.579   6.653   1.067
  307SOL    HW2 1821   4.701   6.751   1.020
  308SOL     OW 1822   6.988   3.924   4.752
  308SOL    HW1 1823   6.920   3.973   4.806
  308SOL    HW2 1824   0.048   3.982   4.738
  309SOL     OW 1825   3.772   4.192   5.663
  309SOL    HW1 1826   3.774   4.127   5.739
  309SOL    HW2 1827   3.677   4.206   5.634
  310SOL     OW 1828   6.389   6.552   5.973
  310SOL    HW1 1829   6.487   6.530   5.967
  310SOL    HW2 1830   6.373   6.613   6.050
  311SOL     OW 1831   6.394   5.000   1.853
  311SOL    HW1 1832   6.351   4.920   1.893
  311SOL    HW2 1833   6.435   4.976   1.765
  312SOL     OW 1834   4.759   2.047   5.895
  312SOL    HW1 1835   4.687   2.066   5.828
  312SOL    HW2 1836   4.746   1.955   5.932
  313SOL     OW 1837   2.878   4.190   1.690
  313SOL    HW1 1838   2.909   4.266   1.748
  313SOL    HW2 1839   2.782   4.204   1.666
  314SOL     OW 1840   3.641   5.501   0.305
  314SOL    HW1 1841   3.546   5.521   0.328
  314SOL    HW2 1842   3.693   5.586   0.297
  315SOL     OW 1843   0.999   2.290   3.499
  315SOL    HW1 1844   1.021   2.357   3.428
  315SOL    HW2 1845   0.968   2.205   3.457
  316SOL     OW 1846   2.034   2.390   4.487
  316SOL    HW1 1847   2.072   2.432   4.404
  316SOL    HW2 1848   2.109   2.355   4.544
  317SOL     OW 1849   0.526   1.480   0.175
  317SOL    HW1 1850   0.533   1.391   0.219
  317SOL    HW2 1851   0.451   1.532   0.217
  318SOL     OW 1852   1.174   4.780   1.000
  318SOL    HW1 1853   1.194   4.683   1.008
  318SOL    HW2 1854   1.077   4.797   1.017
  319SOL     OW 1855   0.360   0.367   2.227
  319SOL    HW1 1856   0.345   0.302   2.302
  319SOL    HW2 1857   0.371   0.459   2.263
  320SOL     OW 1858   5.436   2.078   6.863
  320SOL    HW1 1859   5.408   2.169   6.892
  320SOL    HW2 1860   5.398   2.058   6.773
  321SOL     OW 1861   2.538   1.575   2.310
  321SOL    HW1 1862   2.619   1.605   2.259
  321SOL    HW2 1863   2.475   1.529   2.247
  322SOL     OW 1864   3.025   3.344   4.422
  322SOL    HW1 1865   2.955   3.405   4.385
  322SOL    HW2 1866   3.115   3.387   4.413
  323SOL     OW 1867   1.042   4.166   6.696
  323SOL    HW1 1868   1.061   4.260   6.724
  323SOL    HW2 1869   0.973   4.126   6.757
  324SOL     OW 1870   1.627   2.854   4.175
  324SOL    HW1 1871   1.561   2.925   4.199
  324SOL    HW2 1872   1.620   2.833   4.077
  325SOL     OW 1873   2.014   3.088   1.402
  325SOL    HW1 1874   2.102   3.049   1.375
  325SOL    HW2 1875   1.947   3.070   1.330
  326SOL     OW 1876   1.650   5.950   6.954
  326SOL    HW1 1877   1.696   5.865   6.931
  326SOL    HW2 1878   1.712   6.009   7.006
  327SOL     OW 1879   0.576   5.471   3.673
  327SOL    HW1 1880   0.585   5.392   3.734
  327SOL    HW2 1881   0.482   5.505   3.677
  328SOL     OW 1882   3.085   5.249   2.743
  328SOL    HW1 1883   3.066   5.247   2.841
  328SOL    HW2 1884   3.183   5.249   2.728
  329SOL     OW 1885   3.225   4.083   3.687
  329SOL    HW1 1886   3.227   4.138   3.603
  329SOL    HW2 1887   3.227   3.986   3.663
  330SOL     OW 1888   3.365   6.105   2.049
  330SOL    HW1 1889   3.443   6.162   2.074
  330SOL    HW2 1890   3.353   6.106   1.950
  331SOL     OW 1891   4.770   5.111   6.534
  331SOL    HW1 1892   4.798   5.045   6.465
  331SOL    HW2 1893   4.834   5.188   6.535
  332SOL     OW 1894   3.728   2.059   4.017
  332SOL    HW1 1895   3.657   2.113   4.062
  332SOL    HW2 1896   3.727   1.966   4.054
  333SOL     OW 1897   3.828   0.127   0.225
  333SOL    HW1 1898   3.884   0.162   0.301
  333SOL    HW2 1899   3.771   0.052   0.258
  334SOL     OW 1900   2.725   6.596   1.078
  334SOL    HW1 1901   2.818   6.558   1.072
  334SOL    HW2 1902   2.671   6.541   1.141
  335SOL     OW 1903   3.079   6.099   3.774
  335SOL    HW1 1904   3.086   6.113   3.675
  335SOL    HW2 1905   3.011   6.161   3.812
  336SOL     OW 1906   2.096   0.777   3.567
  336SOL    HW1 1907   2.191   0.806   3.561
  336SOL    HW2 1908   2.053   0.818   3.648
  337SOL     OW 1909   0.099   3.765   1.221
  337SOL    HW1 1910   0.144   3.699   1.162
  337SOL    HW2 1911   0.017   3.800   1.175
  338SOL     OW 1912   2.861   3.089   1.472
  338SOL    HW1 1913   2.814   3.001   1.471
  338SOL    HW2 1914   2.955   3.077   1.502
  339SOL     OW 1915   4.075   0.038   3.708
  339SOL    HW1 1916   4.082   0.027   3.807
  339SOL    HW2 1917   4.082   6.968   3.664
  340SOL     OW 1918   5.256   4.030   4.903
  340SOL    HW1 1919   5.198   4.050   4.824
  340SOL    HW2 1920   5.326   4.101   4.912
  341SOL     OW 1921   6.233   6.444   4.165
  341SOL    HW1 1922   6.180   6.374   4.214
  341SOL    HW2 1923   6.177   6.527   4.154
  342SOL     OW 1924   5.958   4.309   0.374
  342SOL    HW1 1925   5.940   4.224   0.323
  342SOL    HW2 1926   6.009   4.287   0.457
  343SOL     OW 1927   3.255   5.870   1.678
  343SOL    HW1 1928   3.171   5.878   1.624
  343SOL    HW2 1929   3.235   5.826   1.765
  344SOL     OW 1930   2.263   5.340   1.292
  344SOL    HW1 1931   2.354   5.300   1.288
  344SOL    HW2 1932   2.252   5.390   1.379
  345SOL     OW 1933   0.229   0.682   6.086
  345SOL    HW1 1934   0.290   0.671   6.165
  345SOL    HW2 1935   0.219   0.594   6.040
  346SOL     OW 1936   1.863   0.032   2.125
  346SOL    HW1 1937   1.771   7.015   2.116
  346SOL    HW2 1938   1.895   0.018   2.219
  347SOL     OW 1939   4.866   0.203   6.528
  347SOL    HW1 1940   4.948   0.204   6.585
  347SOL    HW2 1941   4.890   0.178   6.435
  348SOL     OW 1942   4.222   4.853   2.025
  348SOL    HW1 1943   4.177   4.834   1.937
  348SOL    HW2 1944   4.213   4.774   2.084
  349SOL     OW 1945   0.128   4.598   2.492
  349SOL    HW1 1946   0.038   4.609   2.450
  349SOL    HW2 1947   0.150   4.681   2.543
  350SOL     OW 1948   3.564   3.931   1.730
  350SOL    HW1 1949   3.596   3.859   1.793
  350SOL    HW2 1950   3.472   3.960   1.757
  351SOL     OW 1951   2.712   2.411   0.840
  351SOL    HW1 1952   2.779   2.482   0.863
  351SOL    HW2 1953   2.632   2.454   0.796
  352SOL     OW 1954   3.827   0.127   4.915
  352SOL    HW1 1955   3.766   0.206   4.920
  352SOL    HW2 1956   3.776   0.048   4.880
  353SOL     OW 1957   2.544   0.299   0.847
  353SOL    HW1 1958   2.552   0.201   0.832
  353SOL    HW2 1959   2.467   0.335   0.794
  354SOL     OW 1960   4.093   2.557   0.699
  354SOL    HW1 1961   4.027   2.482   0.700
  354SOL    HW2 1962   4.043   2.644   0.699
  355SOL     OW 1963   6.649   3.207   2.742
  355SOL    HW1 1964   6.641   3.110   2.765
  355SOL    HW2 1965   6.722   3.220   2.675
  356SOL     OW 1966   4.289   5.750   4.859
  356SOL    HW1 1967   4.267   5.843   4.830
  356SOL    HW2 1968   4.254   5.735   4.952
  357SOL     OW 1969   0.004   6.537   5.045
  357SOL    HW1 1970   6.943   6.493   5.082
  357SOL    HW2 1971   0.060   6.574   5.119
  358SOL     OW 1972   6.515   0.111   1.294
  358SOL    HW1 1973   6.454   0.066   1.229
  358SOL    HW2 1974   6.478   0.101   1.386
  359SOL     OW 1975   1.681   2.724   2.181
  359SOL    HW1 1976   1.662   2.787   2.257
  359SOL    HW2 1977   1.762   2.669   2.203
  360SOL     OW 1978   2.947   6.210   6.564
  360SOL    HW1 1979   2.980   6.285   6.507
  360SOL    HW2 1980   2.946   6.126   6.510
  361SOL     OW 1981   5.934   5.674   3.156
  361SOL    HW1 1982   5.960   5.579   3.172
  361SOL    HW2 1983   5.846   5.676   3.110
  362SOL     OW 1984   3.301   4.219   0.414
  362SOL    HW1 1985   3.269   4.129   0.385
  362SOL    HW2 1986   3.254   4.290   0.361
  363SOL     OW 1987   3.805   5.281   3.864
  363SOL    HW1 1988   3.789   5.209   3.932
  363SOL    HW2 1989   3.794   5.243   3.772
  364SOL     OW 1990   0.581   5.721   5.372
  364SOL    HW1 1991   0.551   5.637   5.327
  364SOL    HW2 1992   0.667   5.752   5.330
  365SOL     OW 1993   4.499   6.787   2.937
  365SOL    HW1 1994   4.505   6.710   3.001
  365SOL    HW2 1995   4.585   6.839   2.939
  366SOL     OW 1996   5.256   1.375   0.205
  366SOL    HW1 1997   5.237   1.281   0.233
  366SOL    HW2 1998   5.287   1.428   0.284
  367SOL     OW 1999   4.979   2.747   0.696
  367SOL    HW1 2000   4.989   2.652   0.667
  367SOL    HW2 2001   4.900   2.755   0.757
  368SOL     OW 2002   1.145   4.572   4.630
  368SOL    HW1 2003   1.187   4.481   4.636
  368SOL    HW2 2004   1.075   4.581   4.700
  369SOL     OW 2005   6.334   4.625   2.147
  369SOL    HW1 2006   6.332   4.724   2.158
  369SOL    HW2 2007   6.370   4.583   2.230
  370SOL     OW 2008   2.598   0.931   5.016
  370SOL    HW1 2009   2.622   1.025   5.040
  370SOL    HW2 2010   2.619   0.914   4.920
  371SOL     OW 2011   2.071   3.838   6.649
  371SOL    HW1 2012   2.060   3.928   6.608
  371SOL    HW2 2013   2.149   3.792   6.607
  372SOL     OW 2014   6.951   0.237   5.226
  372SOL    HW1 2015   6.868   0.198   5.267
  372SOL    HW2 2016   0.011   0.205   5.277
  373SOL     OW 2017   0.283   6.737   6.044
  373SOL    HW1 2018   0.372   6.779   6.061
  373SOL    HW2 2019   0.243   6.777   5.961
  374SOL     OW 2020   4.353   6.975   1.989
  374SOL    HW1 2021   4.270   6.972   2.044
  374SOL    HW2 2022   4.409   0.033   2.017
  375SOL     OW 2023   6.783   4.707   3.915
  375SOL    HW1 2024   6.828   4.735   4.000
  375SOL    HW2 2025   6.845   4.649   3.862
  376SOL     OW 2026   1.661   3.148   3.697
  376SOL    HW1 2027   1.631   3.166   3.791
  376SOL    HW2 2028   1.628   3.059   3.668
  377SOL     OW 2029   5.708   2.669   2.666
  377SOL    HW1 2030   5.680   2.671   2.570
  377SOL    HW2 2031   5.746   2.580   2.688
  378SOL     OW 2032   4.096   3.137   5.675
  378SOL    HW1 2033   4.144   3.054   5.648
  378SOL    HW2 2034   4.113   3.209   5.608
  379SOL     OW 2035   5.631   3.454   1.180
  379SOL    HW1 2036   5.575   3.440   1.261
  379SOL    HW2 2037   5.709   3.391   1.183
  380SOL     OW 2038   2.175   1.714   1.478
  380SOL    HW1 2039   2.087   1.759   1.494
  380SOL    HW2 2040   2.160   1.617   1.460
  381SOL     OW 2041   2.221   4.744   1.611
  381SOL    HW1 2042   2.216   4.835   1.571
  381SOL    HW2 2043   2.129   4.713   1.635
  382SOL     OW 2044   3.827   6.084   0.261
  382SOL    HW1 2045   3.787   6.091   0.170
  382SOL    HW2 2046   3.922   6.053   0.254
  383SOL     OW 2047   6.474   2.825   6.434
  383SOL    HW1 2048   6.554   2.882   6.450
  383SOL    HW2 2049   6.491   2.764   6.357
  384SOL     OW 2050   1.162   4.607   4.930
  384SOL    HW1 2051   1.244   4.650   4.967
  384SOL    HW2 2052   1.082   4.640   4.980
  385SOL     OW 2053   5.107   6.551   0.055
  385SOL    HW1 2054   5.071   6.570   0.146
  385SOL    HW2 2055   5.031   6.544   7.010
  386SOL     OW 2056   4.254   7.003   5.666
  386SOL    HW1 2057   4.325   0.038   5.622
  386SOL    HW2 2058   4.283   6.908   5.670
  387SOL     OW 2059   0.434   6.971   4.259
  387SOL    HW1 2060   0.424   7.015   4.348
  387SOL    HW2 2061   0.355   6.914   4.240
  388SOL     OW 2062   6.768   2.324   5.353
  388SOL    HW1 2063   6.682   2.333   5.303
  388SOL    HW2 2064   6.755   2.353   5.448
  389SOL     OW 2065   4.266   4.405   1.688
  389SOL    HW1 2066   4.180   4.359   1.664
  389SOL    HW2 2067   4.327   4.340   1.732
  390SOL     OW 2068   3.485   1.048   0.506
  390SOL    HW1 2069   3.543   1.110   0.559
  390SOL    HW2 2070   3.423   0.999   0.568
  391SOL     OW 2071   2.834   4.001   5.714
  391SOL    HW1 2072   2.785   3.917   5.687
  391SOL    HW2 2073   2.805   4.076   5.656
  392SOL     OW 2074   1.730   3.388   2.303
  392SOL    HW1 2075   1.765   3.438   2.224
  392SOL    HW2 2076   1.806   3.357   2.360
  393SOL     OW 2077   0.674   4.440   0.900
  393SOL    HW1 2078   0.678   4.539   0.894
  393SOL    HW2 2079   0.676   4.411   0.995
  394SOL     OW 2080   6.962   3.189   0.184
  394SOL    HW1 2081   7.017   3.229   0.258
  394SOL    HW2 2082   7.017   3.185   0.100
  395SOL     OW 2083   5.314   4.251   2.195
  395SOL    HW1 2084   5.246   4.239   2.267
  395SOL    HW2 2085   5.288   4.196   2.116
  396SOL     OW 2086   2.649   2.172   2.049
  396SOL    HW1 2087   2.593   2.218   1.979
  396SOL    HW2 2088   2.729   2.229   2.070
  397SOL     OW 2089   4.506   1.365   5.551
  397SOL    HW1 2090   4.436   1.436   5.558
  397SOL    HW2 2091   4.561   1.364   5.634
  398SOL     OW 2092   0.773   0.054   4.472
  398SOL    HW1 2093   0.839   0.055   4.397
  398SOL    HW2 2094   0.687   0.012   4.440
  399SOL     OW 2095   5.679   6.091   4.012
  399SOL    HW1 2096   5.639   6.110   3.923
  399SOL    HW2 2097   5.639   6.151   4.081
  400SOL     OW 2098   6.579   0.224   4.778
  400SOL    HW1 2099   6.672   0.201   4.807
  400SOL    HW2 2100   6.579   0.239   4.679
  401SOL     OW 2101   6.545   0.665   5.889
  401SOL    HW1 2102   6.521   0.697   5.981
  401SOL    HW2 2103   6.626   0.714   5.857
  402SOL     OW 2104   6.397   0.334   2.473
  402SOL    HW1 2105   6.387   0.417   2.527
  402SOL    HW2 2106   6.479   0.284   2.502
  403SOL     OW 2107   2.507   0.355   5.624
  403SOL    HW1 2108   2.589   0.350   5.681
  403SOL    HW2 2109   2.494   0.268   5.576
  404SOL     OW 2110   3.797   6.590   5.782
  404SOL    HW1 2111   3.856   6.667   5.758
  404SOL    HW2 2112   3.729   6.575   5.709
  405SOL     OW 2113   1.710   3.884   3.498
  405SOL    HW1 2114   1.736   3.860   3.405
  405SOL    HW2 2115   1.697   3.983   3.505
  406SOL     OW 2116   0.838   5.289   5.280
  406SOL    HW1 2117   0.775   5.309   5.355
  406SOL    HW2 2118   0.794   5.311   5.192
  407SOL     OW 2119   1.644   3.361   3.492
  407SOL    HW1 2120   1.739   3.370   3.463
  407SOL    HW2 2121   1.633   3.279   3.548
  408SOL     OW 2122   3.499   1.632   2.587
  408SOL    HW1 2123   3.578   1.657   2.531
  408SOL    HW2 2124   3.426   1.699   2.573
  409SOL     OW 2125   0.863   3.669   1.974
  409SOL    HW1 2126   0.947   3.703   2.017
  409SOL    HW2 2127   0.802   3.746   1.955
  410SOL     OW 2128   1.505   2.543   1.302
  410SOL    HW1 2129   1.539   2.548   1.396
  410SOL    HW2 2130   1.566   2.485   1.248
  411SOL     OW 2131   0.037   1.969   2.067
  411SOL    HW1 2132   0.085   1.896   2.114
  411SOL    HW2 2133   0.050   2.055   2.115
  412SOL     OW 2134   2.800   4.702   2.973
  412SOL    HW1 2135   2.752   4.728   2.889
  412SOL    HW2 2136   2.898   4.718   2.961
  413SOL     OW 2137   3.520   4.873   2.562
  413SOL    HW1 2138   3.618   4.865   2.578
  413SOL    HW2 2139   3.504   4.914   2.472
  414SOL     OW 2140   2.709   6.886   3.882
  414SOL    HW1 2141   2.677   6.938   3.961
  414SOL    HW2 2142   2.770   6.944   3.827
  415SOL     OW 2143   6.601   1.246   0.375
  415SOL    HW1 2144   6.552   1.320   0.328
  415SOL    HW2 2145   6.696   1.273   0.389
  416SOL     OW 2146   5.295   3.781   5.004
  416SOL    HW1 2147   5.245   3.733   4.932
  416SOL    HW2 2148   5.300   3.878   4.982
  417SOL     OW 2149   2.553   2.313   6.879
  417SOL    HW1 2150   2.570   2.373   6.957
  417SOL    HW2 2151   2.605   2.228   6.890
  418SOL     OW 2152   3.506   6.869   4.253
  418SOL    HW1 2153   3.562   6.846   4.333
  418SOL    HW2 2154   3.450   6.791   4.227
  419SOL     OW 2155   0.592   6.782   1.678
  419SOL    HW1 2156   0.641   6.821   1.756
  419SOL    HW2 2157   0.496   6.808   1.682
  420SOL     OW 2158   5.647   0.682   6.790
  420SOL    HW1 2159   5.742   0.677   6.759
  420SOL    HW2 2160   5.598   0.751   6.738
  421SOL     OW 2161   4.973   4.313   4.556
  421SOL    HW1 2162   5.031   4.241   4.519
  421SOL    HW2 2163   4.978   4.313   4.656
  422SOL     OW 2164   5.008   2.215   1.405
  422SOL    HW1 2165   5.081   2.184   1.465
  422SOL    HW2 2166   5.043   2.283   1.341
  423SOL     OW 2167   2.893   1.068   5.870
  423SOL    HW1 2168   2.820   1.007   5.900
  423SOL    HW2 2169   2.978   1.016   5.860
  424SOL     OW 2170   1.291   4.740   2.939
  424SOL    HW1 2171   1.388   4.763   2.933
  424SOL    HW2 2172   1.267   4.719   3.034
  425SOL     OW 2173   4.662   0.634   4.846
  425SOL    HW1 2174   4.747   0.583   4.857
  425SOL    HW2 2175   4.615   0.641   4.934
  426SOL     OW 2176   2.720   2.022   4.909
  426SOL    HW1 2177   2.747   1.927   4.924
  426SOL    HW2 2178   2.801   2.076   4.885
  427SOL     OW 2179   4.506   1.516   3.561
  427SOL    HW1 2180   4.503   1.480   3.655
  427SOL    HW2 2181   4.594   1.560   3.546
  428SOL     OW 2182   3.033   0.980   5.144
  428SOL    HW1 2183   3.016   0.992   5.046
  428SOL    HW2 2184   3.029   0.882   5.167
  429SOL     OW 2185   1.338   6.123   3.780
  429SOL    HW1 2186   1.271   6.064   3.827
  429SOL    HW2 2187   1.328   6.111   3.681
  430SOL     OW 2188   1.379   6.903   4.025
  430SOL    HW1 2189   1.342   6.995   4.012
  430SOL    HW2 2190   1.420   6.872   3.939
  431SOL     OW 2191   2.725   2.252   1.243
  431SOL    HW1 2192   2.725   2.187   1.320
  431SOL    HW2 2193   2.815   2.294   1.235
  432SOL     OW 2194   4.524   1.823   1.669
  432SOL    HW1 2195   4.526   1.914   1.628
  432SOL    HW2 2196   4.576   1.824   1.755
  433SOL     OW 2197   2.755   6.498   6.624
  433SOL    HW1 2198   2.743   6.463   6.532
  433SOL    HW2 2199   2.842   6.547   6.630
  434SOL     OW 2200   4.146   6.572   3.823
  434SOL    HW1 2201   4.177   6.518   3.900
  434SOL    HW2 2202   4.224   6.615   3.778
  435SOL     OW 2203   3.703   1.949   5.986
  435SOL    HW1 2204   3.713   2.009   6.066
  435SOL    HW2 2205   3.607   1.924   5.975
  436SOL     OW 2206   3.888   6.264   3.705
  436SOL    HW1 2207   3.899   6.231   3.611
  436SOL    HW2 2208   3.796   6.242   3.738
  437SOL     OW 2209   0.131   0.252   4.313
  437SOL    HW1 2210   0.162   0.333   4.262
  437SOL    HW2 2211   0.059   0.278   4.376
  438SOL     OW 2212   1.072   5.130   2.643
  438SOL    HW1 2213   1.153   5.139   2.701
  438SOL    HW2 2214   1.063   5.211   2.585
  439SOL     OW 2215   6.022   0.606   2.959
  439SOL    HW1 2216   6.054   0.700   2.969
  439SOL    HW2 2217   6.089   0.543   3.000
  440SOL     OW 2218   4.439   0.297   0.165
  440SOL    HW1 2219   4.428   0.384   0.213
  440SOL    HW2 2220   4.381   0.228   0.208
  441SOL     OW 2221   6.829   4.313   2.483
  441SOL    HW1 2222   6.793   4.237   2.429
  441SOL    HW2 2223   6.754   4.354   2.536
  442SOL     OW 2224   5.409   3.480   5.511
  442SOL    HW1 2225   5.389   3.563   5.458
  442SOL    HW2 2226   5.507   3.473   5.528
  443SOL     OW 2227   5.010   4.115   3.306
  443SOL    HW1 2228   5.084   4.048   3.308
  443SOL    HW2 2229   4.962   4.114   3.394
  444SOL     OW 2230   3.902   1.230   1.123
  444SOL    HW1 2231   3.890   1.174   1.040
  444SOL    HW2 2232   3.921   1.324   1.096
  445SOL     OW 2233   2.053   5.508   2.805
  445SOL    HW1 2234   2.127   5.570   2.778
  445SOL    HW2 2235   2.085   5.414   2.802
  446SOL     OW 2236   5.869   6.000   2.747
  446SOL    HW1 2237   5.953   5.987   2.800
  446SOL    HW2 2238   5.882   6.075   2.683
  447SOL     OW 2239   6.239   3.916   6.879
  447SOL    HW1 2240   6.195   3.993   6.832
  447SOL    HW2 2241   6.255   3.842   6.814
  448SOL     OW 2242   2.987   1.110   2.424
  448SOL    HW1 2243   2.948   1.181   2.482
  448SOL    HW2 2244   2.949   1.021   2.451
  449SOL     OW 2245   1.696   2.404   4.017
  449SOL    HW1 2246   1.679   2.436   3.924
  449SOL    HW2 2247   1.634   2.450   4.081
  450SOL     OW 2248   1.055   4.371   2.867
  450SOL    HW1 2249   1.008   4.448   2.825
  450SOL    HW2 2250   1.129   4.405   2.925
  451SOL     OW 2251   0.786   2.001   3.491
  451SOL    HW1 2252   0.765   2.063   3.415
  451SOL    HW2 2253   0.875   1.959   3.476
  452SOL     OW 2254   3.900   6.445   3.303
  452SOL    HW1 2255   3.915   6.444   3.204
  452SOL    HW2 2256   3.842   6.368   3.328
  453SOL     OW 2257   4.081   6.486   0.154
  453SOL    HW1 2258   4.057   6.398   0.112
  453SOL    HW2 2259   4.130   6.542   0.087
  454SOL     OW 2260   0.021   4.787   6.469
  454SOL    HW1 2261   0.056   4.849   6.398
  454SOL    HW2 2262   6.990   4.839   6.537
  455SOL     OW 2263   6.655   4.423   5.821
  455SOL    HW1 2264   6.584   4.421   5.892
  455SOL    HW2 2265   6.690   4.516   5.812
  456SOL     OW 2266   2.204   1.013   3.041
  456SOL    HW1 2267   2.126   0.972   3.088
  456SOL    HW2 2268   2.172   1.060   2.958
  457SOL     OW 2269   2.191   6.051   6.074
  457SOL    HW1 2270   2.093   6.042   6.053
  457SOL    HW2 2271   2.202   6.105   6.157
  458SOL     OW 2272   2.205   1.304   3.210
  458SOL    HW1 2273   2.188   1.227   3.271
  458SOL    HW2 2274   2.129   1.313   3.146
  459SOL     OW 2275   2.269   6.998   4.789
  459SOL    HW1 2276   2.233   0.062   4.830
  459SOL    HW2 2277   2.234   6.989   4.696
  460SOL     OW 2278   1.674   1.927   5.079
  460SOL    HW1 2279   1.712   1.876   5.156
  460SOL    HW2 2280   1.592   1.881   5.045
  461SOL     OW 2281   0.585   4.876   5.562
  461SOL    HW1 2282   0.662   4.933   5.535
  461SOL    HW2 2283   0.586   4.863   5.661
  462SOL     OW 2284   3.607   3.424   4.472
  462SOL    HW1 2285   3.530   3.369   4.505
  462SOL    HW2 2286   3.585   3.462   4.382
  463SOL     OW 2287   6.047   6.753   2.284
  463SOL    HW1 2288   6.096   6.679   2.238
  463SOL    HW2 2289   6.099   6.782   2.364
  464SOL     OW 2290   3.414   6.312   6.196
  464SOL    HW1 2291   3.329   6.330   6.147
  464SOL    HW2 2292   3.490   6.359   6.150
  465SOL     OW 2293   1.011   2.213   0.725
  465SOL    HW1 2294   1.104   2.181   0.711
  465SOL    HW2 2295   0.952   2.179   0.652
  466SOL     OW 2296   3.354   6.370   4.837
  466SOL    HW1 2297   3.393   6.336   4.751
  466SOL    HW2 2298   3.391   6.316   4.913
  467SOL     OW 2299   6.513   1.298   2.672
  467SOL    HW1 2300   6.599   1.322   2.627
  467SOL    HW2 2301   6.514   1.332   2.766
  468SOL     OW 2302   3.870   0.553   6.733
  468SOL    HW1 2303   3.891   0.616   6.658
  468SOL    HW2 2304   3.922   0.469   6.721
  469SOL     OW 2305   2.730   4.247   6.090
  469SOL    HW1 2306   2.735   4.320   6.022
  469SOL    HW2 2307   2.783   4.169   6.059
  470SOL     OW 2308   2.566   5.060   3.266
  470SOL    HW1 2309   2.639   5.068   3.334
  470SOL    HW2 2310   2.480   5.038   3.312
  471SOL     OW 2311   2.823   2.236   4.052
  471SOL    HW1 2312   2.776   2.171   3.993
  471SOL    HW2 2313   2.868   2.306   3.997
  472SOL     OW 2314   6.417   4.256   5.933
  472SOL    HW1 2315   6.449   4.189   5.866
  472SOL    HW2 2316   6.346   4.312   5.892
  473SOL     OW 2317   0.101   2.351   2.798
  473SOL    HW1 2318   0.033   2.346   2.872
  473SOL    HW2 2319   0.055   2.374   2.712
  474SOL     OW 2320   6.458   6.446   4.350
  474SOL    HW1 2321   6.434   6.539   4.319
  474SOL    HW2 2322   6.417   6.379   4.288
  475SOL     OW 2323   6.086   1.366   0.420
  475SOL    HW1 2324   5.990   1.376   0.446
  475SOL    HW2 2325   6.096   1.289   0.358
  476SOL     OW 2326   0.881   4.082   1.983
  476SOL    HW1 2327   0.969   4.053   1.948
  476SOL    HW2 2328   0.883   4.180   2.002
  477SOL     OW 2329   1.904   5.031   3.439
  477SOL    HW1 2330   1.990   5.025   3.388
  477SOL    HW2 2331   1.849   4.949   3.422
  478SOL     OW 2332   4.541   5.408   3.074
  478SOL    HW1 2333   4.515   5.397   2.978
  478SOL    HW2 2334   4.636   5.377   3.086
  479SOL     OW 2335   4.111   3.681   3.587
  479SOL    HW1 2336   4.204   3.716   3.599
  479SOL    HW2 2337   4.068   3.669   3.676
  480SOL     OW 2338   1.448   0.005   2.768
  480SOL    HW1 2339   1.428   0.103   2.764
  480SOL    HW2 2340   1.529   7.005   2.714
  481SOL     OW 2341   0.980   6.447   0.596
  481SOL    HW1 2342   0.914   6.375   0.576
  481SOL    HW2 2343   1.020   6.431   0.687
  482SOL     OW 2344   5.255   4.524   2.404
  482SOL    HW1 2345   5.229   4.478   2.319
  482SOL    HW2 2346   5.342   4.488   2.437
  483SOL     OW 2347   5.762   2.693   3.765
  483SOL    HW1 2348   5.781   2.724   3.859
  483SOL    HW2 2349   5.832   2.730   3.704
  484SOL     OW 2350   2.313   4.173   4.122
  484SOL    HW1 2351   2.242   4.159   4.053
  484SOL    HW2 2352   2.286   4.129   4.208
  485SOL     OW 2353   5.164   2.983   2.862
  485SOL    HW1 2354   5.220   2.982   2.779
  485SOL    HW2 2355   5.205   2.922   2.930
  486SOL     OW 2356   6.488   6.347   5.593
  486SOL    HW1 2357   6.476   6.294   5.677
  486SOL    HW2 2358   6.401   6.391   5.569
  487SOL     OW 2359   0.516   6.122   4.264
  487SOL    HW1 2360   0.488   6.079   4.178
  487SOL    HW2 2361   0.440   6.117   4.330
  488SOL     OW 2362   1.853   6.711   3.496
  488SOL    HW1 2363   1.861   6.807   3.472
  488SOL    HW2 2364   1.797   6.702   3.579
  489SOL     OW 2365   0.415   5.650   4.995
  489SOL    HW1 2366   0.477   5.693   4.929
  489SOL    HW2 2367   0.458   5.649   5.085
  490SOL     OW 2368   1.631   4.702   5.818
  490SOL    HW1 2369   1.597   4.787   5.858
  490SOL    HW2 2370   1.568   4.628   5.840
  491SOL     OW 2371   0.327   2.435   0.860
  491SOL    HW1 2372   0.294   2.426   0.766
  491SOL    HW2 2373   0.410   2.489   0.861
  492SOL     OW 2374   1.640   1.633   5.679
  492SOL    HW1 2375   1.634   1.534   5.669
  492SOL    HW2 2376   1.727   1.658   5.721
  493SOL     OW 2377   2.277   6.354   4.626
  493SOL    HW1 2378   2.208   6.284   4.646
  493SOL    HW2 2379   2.278   6.422   4.699
  494SOL     OW 2380   2.381   0.437   4.812
  494SOL    HW1 2381   2.315   0.362   4.817
  494SOL    HW2 2382   2.374   0.493   4.894
  495SOL     OW 2383   4.220   6.148   5.227
  495SOL    HW1 2384   4.136   6.102   5.257
  495SOL    HW2 2385   4.298   6.110   5.276
  496SOL     OW 2386   5.454   2.286   2.700
  496SOL    HW1 2387   5.372   2.228   2.692
  496SOL    HW2 2388   5.445   2.345   2.780
  497SOL     OW 2389   3.257   1.199   6.533
  497SOL    HW1 2390   3.186   1.176   6.600
  497SOL    HW2 2391   3.220   1.261   6.464
  498SOL     OW 2392   0.611   5.667   2.145
  498SOL    HW1 2393   0.650   5.701   2.059
  498SOL    HW2 2394   0.587   5.570   2.134
  499SOL     OW 2395   3.851   5.437   6.912
  499SOL    HW1 2396   3.775   5.425   6.977
  499SOL    HW2 2397   3.820   5.489   6.833
  500SOL     OW 2398   5.705   2.080   6.966
  500SOL    HW1 2399   5.611   2.051   6.946
  500SOL    HW2 2400   5.705   2.139   0.027
  501SOL     OW 2401   0.842   7.003   3.185
  501SOL    HW1 2402   0.795   0.059   3.230
  501SOL    HW2 2403   0.932   6.990   3.225
  502SOL     OW 2404   1.824   5.016   6.606
  502SOL    HW1 2405   1.817   5.019   6.506
  502SOL    HW2 2406   1.891   4.947   6.632
  503SOL     OW 2407   3.526   5.067   6.797
  503SOL    HW1 2408   3.552   5.056   6.893
  503SOL    HW2 2409   3.473   4.987   6.768
  504SOL     OW 2410   6.298   5.955   1.854
  504SOL    HW1 2411   6.383   5.908   1.830
  504SOL    HW2 2412   6.229   5.888   1.881
  505SOL     OW 2413   5.195   6.736   5.452
  505SOL    HW1 2414   5.246   6.650   5.446
  505SOL    HW2 2415   5.225   6.786   5.534
  506SOL     OW 2416   3.017   5.834   3.022
  506SOL    HW1 2417   2.982   5.744   2.995
  506SOL    HW2 2418   3.050   5.883   2.940
  507SOL     OW 2419   3.670   1.159   1.596
  507SOL    HW1 2420   3.725   1.214   1.533
  507SOL    HW2 2421   3.720   1.147   1.682
  508SOL     OW 2422   0.764   4.483   4.762
  508SOL    HW1 2423   0.666   4.491   4.743
  508SOL    HW2 2424   0.809   4.570   4.744
  509SOL     OW 2425   4.327   0.547   5.984
  509SOL    HW1 2426   4.242   0.589   5.953
  509SOL    HW2 2427   4.363   0.598   6.063
  510SOL     OW 2428   6.111   4.244   6.314
  510SOL    HW1 2429   6.111   4.344   6.312
  510SOL    HW2 2430   6.184   4.209   6.256
  511SOL     OW 2431   1.368   1.586   0.578
  511SOL    HW1 2432   1.362   1.601   0.479
  511SOL    HW2 2433   1.312   1.655   0.625
  512SOL     OW 2434   5.956   2.070   0.123
  512SOL    HW1 2435   5.893   2.058   0.201
  512SOL    HW2 2436   5.906   2.054   0.038
  513SOL     OW 2437   5.783   0.684   2.688
  513SOL    HW1 2438   5.813   0.592   2.664
  513SOL    HW2 2439   5.861   0.737   2.723
  514SOL     OW 2440   6.877   0.022   4.057
  514SOL    HW1 2441   6.961   0.073   4.037
  514SOL    HW2 2442   6.893   6.981   4.134
  515SOL     OW 2443   3.559   6.913   6.578
  515SOL    HW1 2444   3.483   6.915   6.513
  515SOL    HW2 2445   3.541   6.979   6.651
  516SOL     OW 2446   2.831   4.777   1.388
  516SOL    HW1 2447   2.850   4.748   1.294
  516SOL    HW2 2448   2.864   4.707   1.451
  517SOL     OW 2449   2.574   5.149   2.327
  517SOL    HW1 2450   2.649   5.091   2.360
  517SOL    HW2 2451   2.553   5.218   2.395
  518SOL     OW 2452   2.070   2.729   3.543
  518SOL    HW1 2453   2.080   2.780   3.457
  518SOL    HW2 2454   2.001   2.657   3.531
  519SOL     OW 2455   0.095   6.540   3.584
  519SOL    HW1 2456   0.034   6.466   3.615
  519SOL    HW2 2457   0.135   6.514   3.496
  520SOL     OW 2458   1.098   2.797   0.136
  520SOL    HW1 2459   1.063   2.740   0.062
  520SOL    HW2 2460   1.185   2.759   0.168
  521SOL     OW 2461   5.039   4.919   5.047
  521SOL    HW1 2462   5.101   4.986   5.007
  521SOL    HW2 2463   4.969   4.894   4.980
  522SOL     OW 2464   4.352   3.443   1.093
  522SOL    HW1 2465   4.365   3.487   1.004
  522SOL    HW2 2466   4.433   3.459   1.150
  523SOL     OW 2467   6.988   6.152   1.780
  523SOL    HW1 2468   6.976   6.177   1.876
  523SOL    HW2 2469   6.933   6.072   1.759
  524SOL     OW 2470   0.113   2.629   2.360
  524SOL    HW1 2471   0.196   2.672   2.324
  524SOL    HW2 2472   0.035   2.653   2.302
  525SOL     OW 2473   1.184   3.327   6.964
  525SOL    HW1 2474   1.166   3.320   6.866
  525SOL    HW2 2475   1.275   3.367   6.978
  526SOL     OW 2476   3.031   0.116   4.823
  526SOL    HW1 2477   3.004   0.172   4.902
  526SOL    HW2 2478   3.021   0.170   4.739
  527SOL     OW 2479   1.519   2.300   6.455
  527SOL    HW1 2480   1.533   2.316   6.553
  527SOL    HW2 2481   1.423   2.315   6.432
  528SOL     OW 2482   0.171   3.177   4.086
  528SOL    HW1 2483   0.132   3.269   4.094
  528SOL    HW2 2484   0.216   3.152   4.172
  529SOL     OW 2485   2.252   6.914   5.418
  529SOL    HW1 2486   2.343   6.879   5.393
  529SOL    HW2 2487   2.226   6.878   5.507
  530SOL     OW 2488   3.549   3.351   1.700
  530SOL    HW1 2489   3.575   3.433   1.648
  530SOL    HW2 2490   3.630   3.312   1.743
  531SOL     OW 2491   2.530   0.792   2.238
  531SOL    HW1 2492   2.485   0.775   2.326
  531SOL    HW2 2493   2.624   0.759   2.242
  532SOL     OW 2494   2.953   2.614   0.141
  532SOL    HW1 2495   2.879   2.559   0.181
  532SOL    HW2 2496   2.999   2.664   0.214
  533SOL     OW 2497   3.874   0.185   3.582
  533SOL    HW1 2498   3.811   0.202   3.658
  533SOL    HW2 2499   3.957   0.139   3.616
  534SOL     OW 2500   0.954   5.566   0.915
  534SOL    HW1 2501   0.935   5.595   0.821
  534SOL    HW2 2502   0.868   5.562   0.966
  535SOL     OW 2503   5.487   4.186   3.357
  535SOL    HW1 2504   5.453   4.276   3.385
  535SOL    HW2 2505   5.435   4.155   3.277
  536SOL     OW 2506   6.623   6.294   3.115
  536SOL    HW1 2507   6.695   6.336   3.171
  536SOL    HW2 2508   6.581   6.219   3.165
  537SOL     OW 2509   3.265   0.161   3.934
  537SOL    HW1 2510   3.277   0.259   3.951
  537SOL    HW2 2511   3.245   0.114   4.019
  538SOL     OW 2512   2.668   5.015   5.621
  538SOL    HW1 2513   2.736   4.968   5.677
  538SOL    HW2 2514   2.617   4.948   5.567
  539SOL     OW 2515   1.025   5.879   0.465
  539SOL    HW1 2516   0.991   5.842   0.378
  539SOL    HW2 2517   1.045   5.804   0.528
  540SOL     OW 2518   1.391   0.594   3.531
  540SOL    HW1 2519   1.452   0.664   3.569
  540SOL    HW2 2520   1.443   0.535   3.469
  541SOL     OW 2521   4.003   6.615   4.301
  541SOL    HW1 2522   4.035   6.662   4.219
  541SOL    HW2 2523   4.078   6.564   4.343
  542SOL     OW 2524   3.363   5.960   6.420
  542SOL    HW1 2525   3.295   6.031   6.438
  542SOL    HW2 2526   3.409   5.979   6.333
  543SOL     OW 2527   5.726   3.004   4.124
  543SOL    HW1 2528   5.647   3.058   4.155
  543SOL    HW2 2529   5.799   3.066   4.095
  544SOL     OW 2530   0.053   5.119   0.046
  544SOL    HW1 2531   6.988   5.168   0.026
  544SOL    HW2 2532   0.059   5.101   0.144
  545SOL     OW 2533   5.235   1.368   1.172
  545SOL    HW1 2534   5.164   1.398   1.237
  545SOL    HW2 2535   5.192   1.324   1.093
  546SOL     OW 2536   0.442   4.236   2.114
  546SOL    HW1 2537   0.396   4.291   2.184
  546SOL    HW2 2538   0.451   4.142   2.147
  547SOL     OW 2539   3.258   1.528   0.122
  547SOL    HW1 2540   3.246   1.534   0.023
  547SOL    HW2 2541   3.204   1.601   0.166
  548SOL     OW 2542   3.774   3.173   0.161
  548SOL    HW1 2543   3.759   3.261   0.205
  548SOL    HW2 2544   3.689   3.121   0.159
  549SOL     OW 2545   5.613   2.553   0.484
  549SOL    HW1 2546   5.702   2.597   0.494
  549SOL    HW2 2547   5.540   2.621   0.487
  550SOL     OW 2548   0.286   4.573   3.140
  550SOL    HW1 2549   0.376   4.586   3.099
  550SOL    HW2 2550   0.284   4.486   3.189
  551SOL     OW 2551   0.072   1.163   0.220
  551SOL    HW1 2552   0.072   1.071   0.182
  551SOL    HW2 2553   0.156   1.178   0.273
  552SOL     OW 2554   5.499   5.446   5.818
  552SOL    HW1 2555   5.430   5.421   5.886
  552SOL    HW2 2556   5.550   5.365   5.790
  553SOL     OW 2557   3.416   0.948   5.356
  553SOL    HW1 2558   3.347   1.017   5.378
  553SOL    HW2 2559   3.469   0.979   5.277
  554SOL     OW 2560   5.469   5.842   0.784
  554SOL    HW1 2561   5.441   5.933   0.754
  554SOL    HW2 2562   5.403   5.774   0.750
  555SOL     OW 2563   2.789   5.486   5.266
  555SOL    HW1 2564   2.740   5.573   5.265
  555SOL    HW2 2565   2.831   5.472   5.355
  556SOL     OW 2566   4.824   1.808   3.748
  556SOL    HW1 2567   4.917   1.842   3.758
  556SOL    HW2 2568   4.820   1.742   3.673
  557SOL     OW 2569   0.151   4.859   5.625
  557SOL    HW1 2570   0.142   4.769   5.667
  557SOL    HW2 2571   0.079   4.871   5.557
  558SOL     OW 2572   3.901   3.538   2.973
  558SOL    HW1 2573   3.835   3.490   3.031
  558SOL    HW2 2574   3.962   3.593   3.030
  559SOL     OW 2575   6.462   6.183   5.859
  559SOL    HW1 2576   6.366   6.180   5.887
  559SOL    HW2 2577   6.509   6.252   5.914
  560SOL     OW 2578   6.883   2.684   3.308
  560SOL    HW1 2579   6.969   2.673   3.358
  560SOL    HW2 2580   6.903   2.713   3.214
  561SOL     OW 2581   0.066   3.544   6.443
  561SOL    HW1 2582   0.142   3.535   6.378
  561SOL    HW2 2583   7.012   3.596   6.401
  562SOL     OW 2584   4.603   6.450   5.870
  562SOL    HW1 2585   4.689   6.490   5.900
  562SOL    HW2 2586   4.543   6.522   5.834
  563SOL     OW 2587   1.790   1.724   4.530
  563SOL    HW1 2588   1.701   1.713   4.573
  563SOL    HW2 2589   1.856   1.660   4.570
  564SOL     OW 2590   0.472   1.429   6.043
  564SOL    HW1 2591   0.559   1.477   6.030
  564SOL    HW2 2592   0.397   1.495   6.042
  565SOL     OW 2593   3.513   3.035   3.804
  565SOL    HW1 2594   3.470   2.978   3.875
  565SOL    HW2 2595   3.453   3.112   3.783
  566SOL     OW 2596   3.048   5.107   3.076
  566SOL    HW1 2597   3.127   5.047   3.087
  566SOL    HW2 2598   3.037   5.164   3.157
  567SOL     OW 2599   2.373   2.529   0.331
  567SOL    HW1 2600   2.377   2.625   0.359
  567SOL    HW2 2601   2.328   2.475   0.402
  568SOL     OW 2602   5.411   6.692   0.647
  568SOL    HW1 2603   5.372   6.708   0.557
  568SOL    HW2 2604   5.505   6.661   0.638
  569SOL     OW 2605   0.335   2.159   6.866
  569SOL    HW1 2606   0.268   2.125   6.799
  569SOL    HW2 2607   0.361   2.084   6.927
  570SOL     OW 2608   2.592   0.513   5.969
  570SOL    HW1 2609   2.653   0.455   5.915
  570SOL    HW2 2610   2.579   0.600   5.921
  571SOL     OW 2611   2.568   5.038   2.955
  571SOL    HW1 2612   2.547   5.025   3.052
  571SOL    HW2 2613   2.664   5.063   2.945
  572SOL     OW 2614   1.636   5.985   4.335
  572SOL    HW1 2615   1.644   6.014   4.240
  572SOL    HW2 2616   1.727   5.969   4.374
  573SOL     OW 2617   6.450   2.152   6.013
  573SOL    HW1 2618   6.539   2.137   6.057
  573SOL    HW2 2619   6.383   2.090   6.052
  574SOL     OW 2620   3.103   1.266   5.058
  574SOL    HW1 2621   3.110   1.174   5.022
  574SOL    HW2 2622   3.089   1.262   5.157
  575SOL     OW 2623   3.547   3.177   0.740
  575SOL    HW1 2624   3.562   3.276   0.738
  575SOL    HW2 2625   3.507   3.151   0.828
  576SOL     OW 2626   2.248   2.854   2.961
  576SOL    HW1 2627   2.176   2.788   2.981
  576SOL    HW2 2628   2.333   2.805   2.941
  577SOL     OW 2629   0.805   0.850   2.251
  577SOL    HW1 2630   0.880   0.831   2.188
  577SOL    HW2 2631   0.807   0.947   2.276
  578SOL     OW 2632   1.561   5.396   0.112
  578SOL    HW1 2633   1.633   5.368   0.049
  578SOL    HW2 2634   1.537   5.491   0.095
  579SOL     OW 2635   2.781   4.979   2.426
  579SOL    HW1 2636   2.867   4.974   2.477
  579SOL    HW2 2637   2.759   4.889   2.389
  580SOL     OW 2638   4.637   5.316   5.062
  580SOL    HW1 2639   4.618   5.218   5.058
  580SOL    HW2 2640   4.653   5.350   4.969
  581SOL     OW 2641   0.988   2.830   3.482
  581SOL    HW1 2642   0.941   2.897   3.424
  581SOL    HW2 2643   1.028   2.876   3.561
  582SOL     OW 2644   5.318   5.316   3.260
  582SOL    HW1 2645   5.301   5.395   3.201
  582SOL    HW2 2646   5.372   5.248   3.210
  583SOL     OW 2647   2.959   5.423   5.566
  583SOL    HW1 2648   3.020   5.430   5.644
  583SOL    HW2 2649   2.975   5.499   5.503
  584SOL     OW 2650   3.367   0.274   6.065
  584SOL    HW1 2651   3.456   0.290   6.107
  584SOL    HW2 2652   3.377   0.210   5.989
  585SOL     OW 2653   3.437   6.855   1.607
  585SOL    HW1 2654   3.467   6.928   1.546
  585SOL    HW2 2655   3.354   6.813   1.570
  586SOL     OW 2656   4.385   0.259   1.580
  586SOL    HW1 2657   4.421   0.289   1.491
  586SOL    HW2 2658   4.460   0.241   1.643
  587SOL     OW 2659   5.503   1.777   1.810
  587SOL    HW1 2660   5.582   1.811   1.759
  587SOL    HW2 2661   5.503   1.816   1.902
  588SOL     OW 2662   1.552   5.559   0.859
  588SOL    HW1 2663   1.630   5.564   0.922
  588SOL    HW2 2664   1.477   5.512   0.904
  589SOL     OW 2665   3.449   6.101   1.390
  589SOL    HW1 2666   3.370   6.041   1.381
  589SOL    HW2 2667   3.530   6.056   1.351
  590SOL     OW 2668   5.889   1.950   0.915
  590SOL    HW1 2669   5.791   1.931   0.919
  590SOL    HW2 2670   5.926   1.910   0.831
  591SOL     OW 2671   4.311   6.031   4.246
  591SOL    HW1 2672   4.241   6.070   4.305
  591SOL    HW2 2673   4.392   6.090   4.247
  592SOL     OW 2674   4.956   1.034   3.913
  592SOL    HW1 2675   5.050   1.068   3.912
  592SOL    HW2 2676   4.935   0.996   4.003
  593SOL     OW 2677   3.960   2.144   4.912
  593SOL    HW1 2678   3.890   2.120   4.979
  593SOL    HW2 2679   4.010   2.224   4.944
  594SOL     OW 2680   5.913   2.094   1.424
  594SOL    HW1 2681   5.910   2.183   1.469
  594SOL    HW2 2682   5.922   2.106   1.325
  595SOL     OW 2683   5.186   6.815   3.056
  595SOL    HW1 2684   5.177   6.778   3.148
  595SOL    HW2 2685   5.210   6.912   3.062
  596SOL     OW 2686   6.937   4.536   3.733
  596SOL    HW1 2687   6.948   4.447   3.688
  596SOL    HW2 2688   6.981   4.606   3.677
  597SOL     OW 2689   3.143   6.820   5.756
  597SOL    HW1 2690   3.189   6.888   5.698
  597SOL    HW2 2691   3.171   6.834   5.851
  598SOL     OW 2692   3.026   3.749   4.770
  598SOL    HW1 2693   3.076   3.830   4.802
  598SOL    HW2 2694   2.975   3.709   4.846
  599SOL     OW 2695   1.597   5.978   2.235
  599SOL    HW1 2696   1.650   5.981   2.151
  599SOL    HW2 2697   1.539   6.059   2.242
  600SOL     OW 2698   0.222   3.894   5.443
  600SOL    HW1 2699   0.289   3.935   5.380
  600SOL    HW2 2700   0.164   3.830   5.393
  601SOL     OW 2701   1.611   0.733   4.898
  601SOL    HW1 2702   1.559   0.782   4.968
  601SOL    HW2 2703   1.701   0.775   4.887
  602SOL     OW 2704   2.947   6.981   5.117
  602SOL    HW1 2705   2.947   0.001   5.208
  602SOL    HW2 2706   3.042   6.973   5.084
  603SOL     OW 2707   1.440   1.394   5.500
  603SOL    HW1 2708   1.399   1.470   5.451
  603SOL    HW2 2709   1.539   1.406   5.505
  604SOL     OW 2710   6.976   2.230   1.738
  604SOL    HW1 2711   7.014   2.323   1.738
  604SOL    HW2 2712   7.004   2.182   1.656
  605SOL     OW 2713   0.434   4.461   2.479
  605SOL    HW1 2714   0.512   4.467   2.542
  605SOL    HW2 2715   0.350   4.488   2.527
  606SOL     OW 2716   4.447   6.659   5.256
  606SOL    HW1 2717   4.415   6.602   5.332
  606SOL    HW2 2718   4.372   6.674   5.192
  607SOL     OW 2719   1.250   5.352   5.820
  607SOL    HW1 2720   1.255   5.363   5.920
  607SOL    HW2 2721   1.191   5.423   5.782
  608SOL     OW 2722   3.949   6.745   6.633
  608SOL    HW1 2723   3.902   6.817   6.683
  608SOL    HW2 2724   4.036   6.779   6.598
  609SOL     OW 2725   3.885   2.421   1.666
  609SOL    HW1 2726   3.948   2.496   1.687
  609SOL    HW2 2727   3.812   2.418   1.734
  610SOL     OW 2728   4.652   2.242   0.313
  610SOL    HW1 2729   4.590   2.208   0.243
  610SOL    HW2 2730   4.737   2.273   0.269
  611SOL     OW 2731   4.016   0.003   2.450
  611SOL    HW1 2732   4.048   6.945   2.505
  611SOL    HW2 2733   3.970   0.069   2.510
  612SOL     OW 2734   3.096   4.804   5.572
  612SOL    HW1 2735   3.007   4.840   5.600
  612SOL    HW2 2736   3.088   4.707   5.549
  613SOL     OW 2737   5.693   5.412   4.984
  613SOL    HW1 2738   5.605   5.458   4.997
  613SOL    HW2 2739   5.734   5.392   5.073
  614SOL     OW 2740   5.034   5.239   5.265
  614SOL    HW1 2741   4.964   5.306   5.240
  614SOL    HW2 2742   4.990   5.156   5.300
  615SOL     OW 2743   0.021   4.571   0.817
  615SOL    HW1 2744   0.050   4.551   0.723
  615SOL    HW2 2745   0.005   4.485   0.865
  616SOL     OW 2746   6.752   2.931   3.381
  616SOL    HW1 2747   6.736   2.997   3.454
  616SOL    HW2 2748   6.783   2.844   3.421
  617SOL     OW 2749   2.149   5.433   5.825
  617SOL    HW1 2750   2.083   5.385   5.882
  617SOL    HW2 2751   2.235   5.443   5.875
  618SOL     OW 2752   1.732   1.818   1.680
  618SOL    HW1 2753   1.714   1.721   1.690
  618SOL    HW2 2754   1.687   1.869   1.753
  619SOL     OW 2755   1.851   1.904   6.905
  619SOL    HW1 2756   1.798   1.840   6.849
  619SOL    HW2 2757   1.858   1.991   6.857
  620SOL     OW 2758   4.937   2.454   0.557
  620SOL    HW1 2759   5.037   2.457   0.566
  620SOL    HW2 2760   4.899   2.407   0.637
  621SOL     OW 2761   6.073   5.075   6.805
  621SOL    HW1 2762   6.057   5.172   6.783
  621SOL    HW2 2763   6.043   5.057   6.899
  622SOL     OW 2764   2.049   1.114   0.033
  622SOL    HW1 2765   2.126   1.069   0.078
  622SOL    HW2 2766   1.964   1.069   0.060
  623SOL     OW 2767   0.493   5.475   6.069
  623SOL    HW1 2768   0.548   5.468   5.986
  623SOL    HW2 2769   0.510   5.564   6.113
  624SOL     OW 2770   0.705   2.585   2.562
  624SOL    HW1 2771   0.666   2.644   2.634
  624SOL    HW2 2772   0.729   2.496   2.601
  625SOL     OW 2773   3.297   1.660   2.013
  625SOL    HW1 2774   3.215   1.631   1.964
  625SOL    HW2 2775   3.337   1.740   1.967
  626SOL     OW 2776   2.168   5.778   3.475
  626SOL    HW1 2777   2.083   5.815   3.436
  626SOL    HW2 2778   2.157   5.681   3.493
  627SOL     OW 2779   5.307   0.749   0.517
  627SOL    HW1 2780   5.321   0.822   0.584
  627SOL    HW2 2781   5.248   0.678   0.557
  628SOL     OW 2782   4.996   5.440   4.901
  628SOL    HW1 2783   5.019   5.443   4.804
  628SOL    HW2 2784   5.011   5.348   4.937
  629SOL     OW 2785   0.572   0.378   1.325
  629SOL    HW1 2786   0.559   0.291   1.371
  629SOL    HW2 2787   0.621   0.364   1.239
  630SOL     OW 2788   4.935   1.975   2.020
  630SOL    HW1 2789   4.948   1.957   2.117
  630SOL    HW2 2790   5.024   1.977   1.974
  631SOL     OW 2791   3.156   0.647   5.278
  631SOL    HW1 2792   3.229   0.590   5.242
  631SOL    HW2 2793   3.081   0.651   5.212
  632SOL     OW 2794   2.595   1.156   0.213
  632SOL    HW1 2795   2.624   1.104   0.133
  632SOL    HW2 2796   2.497   1.140   0.230
  633SOL     OW 2797   3.165   5.177   0.680
  633SOL    HW1 2798   3.193   5.202   0.773
  633SOL    HW2 2799   3.157   5.077   0.674
  634SOL     OW 2800   4.245   5.058   1.564
  634SOL    HW1 2801   4.315   5.042   1.633
  634SOL    HW2 2802   4.179   5.126   1.598
  635SOL     OW 2803   3.510   0.076   3.263
  635SOL    HW1 2804   3.592   0.119   3.301
  635SOL    HW2 2805   3.444   0.059   3.335
  636SOL     OW 2806   4.846   5.387   6.300
  636SOL    HW1 2807   4.753   5.426   6.298
  636SOL    HW2 2808   4.840   5.288   6.293
  637SOL     OW 2809   5.025   5.019   1.903
  637SOL    HW1 2810   4.951   4.984   1.960
  637SOL    HW2 2811   5.023   4.973   1.814
  638SOL     OW 2812   5.072   1.233   2.103
  638SOL    HW1 2813   5.010   1.241   2.181
  638SOL    HW2 2814   5.140   1.162   2.122
  639SOL     OW 2815   4.713   4.588   1.760
  639SOL    HW1 2816   4.691   4.596   1.663
  639SOL    HW2 2817   4.630   4.563   1.812
  640SOL     OW 2818   2.315   4.117   5.948
  640SOL    HW1 2819   2.223   4.106   5.911
  640SOL    HW2 2820   2.381   4.118   5.872
  641SOL     OW 2821   0.798   5.025   4.727
  641SOL    HW1 2822   0.889   5.066   4.723
  641SOL    HW2 2823   0.762   5.016   4.634
  642SOL     OW 2824   0.388   4.422   4.944
  642SOL    HW1 2825   0.431   4.461   5.025
  642SOL    HW2 2826   0.292   4.451   4.940
  643SOL     OW 2827   6.389   6.207   4.763
  643SOL    HW1 2828   6.425   6.171   4.849
  643SOL    HW2 2829   6.321   6.143   4.726
  644SOL     OW 2830   0.705   5.921   3.172
  644SOL    HW1 2831   0.712   6.005   3.119
  644SOL    HW2 2832   0.777   5.857   3.142
  645SOL     OW 2833   4.384   2.348   4.568
  645SOL    HW1 2834   4.391   2.289   4.488
  645SOL    HW2 2835   4.294   2.337   4.610
  646SOL     OW 2836   1.828   1.633   3.709
  646SOL    HW1 2837   1.881   1.557   3.746
  646SOL    HW2 2838   1.868   1.719   3.740
  647SOL     OW 2839   6.038   2.906   0.092
  647SOL    HW1 2840   6.056   2.830   0.153
  647SOL    HW2 2841   6.058   2.880   7.018
  648SOL     OW 2842   5.950   3.951   2.672
  648SOL    HW1 2843   5.869   3.915   2.719
  648SOL    HW2 2844   6.031   3.903   2.705
  649SOL     OW 2845   3.620   4.371   0.688
  649SOL    HW1 2846   3.717   4.350   0.676
  649SOL    HW2 2847   3.565   4.304   0.637
  650SOL     OW 2848   4.918   4.582   0.527
  650SOL    HW1 2849   4.959   4.583   0.619
  650SOL    HW2 2850   4.946   4.664   0.477
  651SOL     OW 2851   0.684   6.387   0.916
  651SOL    HW1 2852   0.733   6.332   0.848
  651SOL    HW2 2853   0.638   6.463   0.870
  652SOL     OW 2854   4.696   6.971   3.001
  652SOL    HW1 2855   4.704   6.976   3.100
  652SOL    HW2 2856   4.783   6.998   2.959
  653SOL     OW 2857   3.332   5.302   4.375
  653SOL    HW1 2858   3.421   5.314   4.331
  653SOL    HW2 2859   3.277   5.384   4.360
  654SOL     OW 2860   6.907   5.438   6.070
  654SOL    HW1 2861   6.887   5.529   6.105
  654SOL    HW2 2862   6.825   5.381   6.073
  655SOL     OW 2863   0.477   0.208   1.832
  655SOL    HW1 2864   0.561   0.197   1.778
  655SOL    HW2 2865   0.409   0.257   1.777
  656SOL     OW 2866   2.381   5.952   2.088
  656SOL    HW1 2867   2.341   6.016   2.154
  656SOL    HW2 2868   2.447   6.001   2.031
  657SOL     OW 2869   2.765   1.902   1.040
  657SOL    HW1 2870   2.723   1.989   1.011
  657SOL    HW2 2871   2.819   1.864   0.965
  658SOL     OW 2872   3.277   3.788   6.773
  658SOL    HW1 2873   3.189   3.799   6.820
  658SOL    HW2 2874   3.333   3.870   6.788
  659SOL     OW 2875   2.728   6.434   6.361
  659SOL    HW1 2876   2.744   6.354   6.303
  659SOL    HW2 2877   2.658   6.492   6.318
  660SOL     OW 2878   3.685   5.908   1.895
  660SOL    HW1 2879   3.629   5.878   1.972
  660SOL    HW2 2880   3.782   5.904   1.921
  661SOL     OW 2881   4.693   6.071   3.482
  661SOL    HW1 2882   4.739   6.005   3.422
  661SOL    HW2 2883   4.713   6.047   3.578
  662SOL     OW 2884   3.365   1.293   5.323
  662SOL    HW1 2885   3.294   1.229   5.353
  662SOL    HW2 2886   3.381   1.282   5.225
  663SOL     OW 2887   1.915   4.264   4.545
  663SOL    HW1 2888   1.859   4.338   4.582
  663SOL    HW2 2889   1.955   4.211   4.619
  664SOL     OW 2890   0.437   6.418   6.085
  664SOL    HW1 2891   0.444   6.424   6.184
  664SOL    HW2 2892   0.342   6.429   6.057
  665SOL     OW 2893   3.845   5.189   3.611
  665SOL    HW1 2894   3.821   5.248   3.534
  665SOL    HW2 2895   3.942   5.164   3.605
  666SOL     OW 2896   4.207   0.856   2.042
  666SOL    HW1 2897   4.234   0.925   1.975
  666SOL    HW2 2898   4.288   0.819   2.087
  667SOL     OW 2899   0.883   5.154   1.730
  667SOL    HW1 2900   0.917   5.095   1.803
  667SOL    HW2 2901   0.867   5.246   1.766
  668SOL     OW 2902   5.718   5.131   6.086
  668SOL    HW1 2903   5.692   5.163   6.177
  668SOL    HW2 2904   5.818   5.129   6.079
  669SOL     OW 2905   5.567   1.173   3.256
  669SOL    HW1 2906   5.658   1.176   3.215
  669SOL    HW2 2907   5.508   1.242   3.214
  670SOL     OW 2908   2.081   1.657   2.893
  670SOL    HW1 2909   2.102   1.678   2.797
  670SOL    HW2 2910   2.148   1.701   2.952
  671SOL     OW 2911   2.682   6.430   1.602
  671SOL    HW1 2912   2.773   6.470   1.599
  671SOL    HW2 2913   2.689   6.332   1.622
  672SOL     OW 2914   0.240   5.325   1.859
  672SOL    HW1 2915   0.202   5.242   1.818
  672SOL    HW2 2916   0.219   5.325   1.957
  673SOL     OW 2917   5.135   6.905   1.019
  673SOL    HW1 2918   5.220   6.868   0.981
  673SOL    HW2 2919   5.146   7.003   1.035
  674SOL     OW 2920   7.007   2.084   4.978
  674SOL    HW1 2921   6.976   2.179   4.985
  674SOL    HW2 2922   6.927   2.024   4.970
  675SOL     OW 2923   6.128   2.411   1.996
  675SOL    HW1 2924   6.216   2.445   2.028
  675SOL    HW2 2925   6.141   2.324   1.950
  676SOL     OW 2926   2.468   4.860   4.784
  676SOL    HW1 2927   2.420   4.775   4.803
  676SOL    HW2 2928   2.565   4.849   4.803
  677SOL     OW 2929   5.052   0.998   1.702
  677SOL    HW1 2930   5.122   0.982   1.632
  677SOL    HW2 2931   4.992   0.918   1.708
  678SOL     OW 2932   2.731   4.669   5.287
  678SOL    HW1 2933   2.649   4.658   5.232
  678SOL    HW2 2934   2.808   4.622   5.244
  679SOL     OW 2935   5.365   2.099   4.972
  679SOL    HW1 2936   5.298   2.144   4.913
  679SOL    HW2 2937   5.440   2.063   4.916
  680SOL     OW 2938   5.001   6.487   4.547
  680SOL    HW1 2939   5.009   6.481   4.646
  680SOL    HW2 2940   5.070   6.550   4.512
  681SOL     OW 2941   4.807   5.816   2.571
  681SOL    HW1 2942   4.716   5.798   2.534
  681SOL    HW2 2943   4.872   5.750   2.533
  682SOL     OW 2944   7.004   1.334   1.781
  682SOL    HW1 2945   0.004   1.361   1.687
  682SOL    HW2 2946   6.913   1.365   1.806
  683SOL     OW 2947   4.202   3.207   1.278
  683SOL    HW1 2948   4.110   3.177   1.304
  683SOL    HW2 2949   4.216   3.301   1.308
  684SOL     OW 2950   6.088   0.327   6.932
  684SOL    HW1 2951   6.145   0.285   7.002
  684SOL    HW2 2952   5.994   0.293   6.941
  685SOL     OW 2953   2.816   0.998   3.501
  685SOL    HW1 2954   2.877   0.963   3.572
  685SOL    HW2 2955   2.816   1.098   3.502
  686SOL     OW 2956   4.413   1.195   3.759
  686SOL    HW1 2957   4.425   1.137   3.839
  686SOL    HW2 2958   4.478   1.271   3.763
  687SOL     OW 2959   1.156   1.756   4.531
  687SOL    HW1 2960   1.181   1.848   4.561
  687SOL    HW2 2961   1.103   1.711   4.603
  688SOL     OW 2962   0.291   0.926   5.974
  688SOL    HW1 2963   0.354   0.860   5.932
  688SOL    HW2 2964   0.221   0.878   6.025
  689SOL     OW 2965   1.271   4.351   5.861
  689SOL    HW1 2966   1.221   4.290   5.922
  689SOL    HW2 2967   1.246   4.331   5.766
  690SOL     OW 2968   6.657   3.600   3.202
  690SOL    HW1 2969   6.683   3.504   3.214
  690SOL    HW2 2970   6.729   3.659   3.238
  691SOL     OW 2971   4.235   1.733   0.749
  691SOL    HW1 2972   4.282   1.820   0.766
  691SOL    HW2 2973   4.235   1.714   0.650
  692SOL     OW 2974   3.265   1.728   5.134
  692SOL    HW1 2975   3.259   1.783   5.217
  692SOL    HW2 2976   3.358   1.694   5.123
  693SOL     OW 2977   4.645   6.602   4.028
  693SOL    HW1 2978   4.737   6.602   4.069
  693SOL    HW2 2979   4.645   6.659   3.946
  694SOL     OW 2980   3.926   6.134   4.389
  694SOL    HW1 2981   3.843   6.079   4.381
  694SOL    HW2 2982   3.986   6.116   4.311
  695SOL     OW 2983   3.310   5.661   4.608
  695SOL    HW1 2984   3.349   5.665   4.516
  695SOL    HW2 2985   3.307   5.567   4.640
  696SOL     OW 2986   4.770   4.115   3.509
  696SOL    HW1 2987   4.695   4.137   3.447
  696SOL    HW2 2988   4.791   4.195   3.565
  697SOL     OW 2989   1.020   3.746   1.603
  697SOL    HW1 2990   0.986   3.801   1.527
  697SOL    HW2 2991   1.058   3.807   1.673
  698SOL     OW 2992   4.650   6.628   1.664
  698SOL    HW1 2993   4.579   6.559   1.653
  698SOL    HW2 2994   4.736   6.593   1.627
  699SOL     OW 2995   2.133   3.278   6.618
  699SOL    HW1 2996   2.188   3.301   6.699
  699SOL    HW2 2997   2.187   3.221   6.556
  700SOL     OW 2998   3.435   0.108   2.306
  700SOL    HW1 2999   3.360   0.101   2.373
  700SOL    HW2 3000   3.437   0.025   2.250
  701SOL     OW 3001   5.975   4.643   1.098
  701SOL    HW1 3002   5.912   4.618   1.171
  701SOL    HW2 3003   6.054   4.690   1.137
  702SOL     OW 3004   2.596   0.317   4.107
  702SOL    HW1 3005   2.570   0.263   4.187
  702SOL    HW2 3006   2.582   0.414   4.127
  703SOL     OW 3007   2.984   3.398   5.792
  703SOL    HW1 3008   2.955   3.328   5.727
  703SOL    HW2 3009   2.968   3.489   5.752
  704SOL     OW 3010   1.651   2.846   6.112
  704SOL    HW1 3011   1.640   2.765   6.170
  704SOL    HW2 3012   1.749   2.868   6.103
  705SOL     OW 3013   0.003   6.307   3.717
  705SOL    HW1 3014   6.926   6.298   3.695
  705SOL    HW2 3015   0.014   6.337   3.812
  706SOL     OW 3016   4.231   1.442   5.190
  706SOL    HW1 3017   4.253   1.486   5.103
  706SOL    HW2 3018   4.311   1.390   5.221
  707SOL     OW 3019   4.213   5.560   3.278
  707SOL    HW1 3020   4.212   5.561   3.178
  707SOL    HW2 3021   4.158   5.636   3.313
  708SOL     OW 3022   2.425   1.519   3.609
  708SOL    HW1 3023   2.373   1.550   3.529
  708SOL    HW2 3024   2.521   1.544   3.598
  709SOL     OW 3025   1.804   6.700   1.694
  709SOL    HW1 3026   1.740   6.706   1.617
  709SOL    HW2 3027   1.881   6.641   1.669
  710SOL     OW 3028   4.993   2.534   1.794
  710SOL    HW1 3029   4.924   2.500   1.858
  710SOL    HW2 3030   5.038   2.614   1.833
  711SOL     OW 3031   6.621   3.001   6.109
  711SOL    HW1 3032   6.660   3.074   6.054
  711SOL    HW2 3033   6.610   3.032   6.204
  712SOL     OW 3034   5.008   2.834   1.128
  712SOL    HW1 3035   4.964   2.918   1.095
  712SOL    HW2 3036   4.956   2.797   1.204
  713SOL     OW 3037   4.241   2.698   5.347
  713SOL    HW1 3038   4.329   2.676   5.389
  713SOL    HW2 3039   4.215   2.624   5.285
  714SOL     OW 3040   6.177   5.257   3.723
  714SOL    HW1 3041   6.201   5.340   3.774
  714SOL    HW2 3042   6.252   5.233   3.662
  715SOL     OW 3043   6.631   4.927   5.224
  715SOL    HW1 3044   6.599   4.903   5.316
  715SOL    HW2 3045   6.557   4.913   5.158
  716SOL     OW 3046   2.086   0.642   3.041
  716SOL    HW1 3047   2.052   0.597   3.124
  716SOL    HW2 3048   2.085   0.578   2.965
  717SOL     OW 3049   5.770   4.890   4.438
  717SOL    HW1 3050   5.757   4.843   4.525
  717SOL    HW2 3051   5.858   4.937   4.438
  718SOL     OW 3052   4.610   2.525   4.483
  718SOL    HW1 3053   4.531   2.475   4.520
  718SOL    HW2 3054   4.598   2.622   4.500
  719SOL     OW 3055   6.550   0.348   2.224
  719SOL    HW1 3056   6.644   0.341   2.257
  719SOL    HW2 3057   6.486   0.327   2.298
  720SOL     OW 3058   2.689   0.559   5.475
  720SOL    HW1 3059   2.645   0.642   5.510
  720SOL    HW2 3060   2.633   0.479   5.499
  721SOL     OW 3061   0.564   1.607   1.954
  721SOL    HW1 3062   0.582   1.705   1.958
  721SOL    HW2 3063   0.651   1.557   1.958
  722SOL     OW 3064   3.990   0.708   6.537
  722SOL    HW1 3065   4.042   0.725   6.454
  722SOL    HW2 3066   4.017   0.774   6.607
  723SOL     OW 3067   2.061   6.094   3.514
  723SOL    HW1 3068   2.011   6.034   3.452
  723SOL    HW2 3069   2.094   6.174   3.464
  724SOL     OW 3070   6.813   0.860   3.366
  724SOL    HW1 3071   6.741   0.915   3.323
  724SOL    HW2 3072   6.798   0.858   3.465
  725SOL     OW 3073   1.967   4.471   2.032
  725SOL    HW1 3074   2.033   4.420   1.975
  725SOL    HW2 3075   1.964   4.566   2.001
  726SOL     OW 3076   2.421   5.011   0.860
  726SOL    HW1 3077   2.450   4.943   0.793
  726SOL    HW2 3078   2.488   5.018   0.933
  727SOL     OW 3079   4.345   5.395   6.161
  727SOL    HW1 3080   4.335   5.394   6.062
  727SOL    HW2 3081   4.439   5.421   6.184
  728SOL     OW 3082   6.979   3.183   4.402
  728SOL    HW1 3083   0.034   3.224   4.351
  728SOL    HW2 3084   6.977   3.220   4.495
  729SOL     OW 3085   0.360   2.975   1.030
  729SOL    HW1 3086   0.334   2.940   1.120
  729SOL    HW2 3087   0.402   3.066   1.040
  730SOL     OW 3088   5.377   0.482   2.665
  730SOL    HW1 3089   5.321   0.423   2.723
  730SOL    HW2 3090   5.426   0.549   2.721
  731SOL     OW 3091   5.023   4.513   6.355
  731SOL    HW1 3092   4.986   4.511   6.262
  731SOL    HW2 3093   5.079   4.432   6.371
  732SOL     OW 3094   5.466   1.968   2.270
  732SOL    HW1 3095   5.384   1.968   2.328
  732SOL    HW2 3096   5.483   2.060   2.235
  733SOL     OW 3097   5.742   0.109   4.431
  733SOL    HW1 3098   5.758   0.017   4.468
  733SOL    HW2 3099   5.783   0.177   4.492
  734SOL     OW 3100   6.305   4.349   2.345
  734SOL    HW1 3101   6.256   4.359   2.431
  734SOL    HW2 3102   6.354   4.262   2.344
  735SOL     OW 3103   5.717   0.448   1.756
  735SOL    HW1 3104   5.761   0.499   1.830
  735SOL    HW2 3105   5.656   0.379   1.795
  736SOL     OW 3106   1.227   1.042   4.338
  736SOL    HW1 3107   1.148   1.101   4.354
  736SOL    HW2 3108   1.249   1.044   4.240
  737SOL     OW 3109   5.947   1.784   5.627
  737SOL    HW1 3110   5.986   1.744   5.543
  737SOL    HW2 3111   5.850   1.761   5.632
  738SOL     OW 3112   2.895   3.990   1.244
  738SOL    HW1 3113   2.928   4.027   1.157
  738SOL    HW2 3114   2.931   3.898   1.257
  739SOL     OW 3115   3.523   0.174   5.154
  739SOL    HW1 3116   3.483   0.172   5.062
  739SOL    HW2 3117   3.451   0.195   5.221
  740SOL     OW 3118   5.833   2.429   2.739
  740SOL    HW1 3119   5.813   2.353   2.800
  740SOL    HW2 3120   5.910   2.481   2.776
  741SOL     OW 3121   1.853   1.068   4.457
  741SOL    HW1 3122   1.808   1.139   4.404
  741SOL    HW2 3123   1.816   0.979   4.431
  742SOL     OW 3124   2.104   5.995   1.289
  742SOL    HW1 3125   2.029   5.983   1.224
  742SOL    HW2 3126   2.077   5.958   1.378
  743SOL     OW 3127   0.556   6.281   3.582
  743SOL    HW1 3128   0.616   6.361   3.575
  743SOL    HW2 3129   0.470   6.307   3.625
  744SOL     OW 3130   6.601   0.913   0.651
  744SOL    HW1 3131   6.686   0.954   0.617
  744SOL    HW2 3132   6.618   0.872   0.741
  745SOL     OW 3133   2.189   6.013   5.086
  745SOL    HW1 3134   2.191   6.079   5.011
  745SOL    HW2 3135   2.281   6.003   5.124
  746SOL     OW 3136   5.731   4.013   5.251
  746SOL    HW1 3137   5.718   4.005   5.152
  746SOL    HW2 3138   5.648   4.051   5.292
  747SOL     OW 3139   5.194   5.651   3.828
  747SOL    HW1 3140   5.248   5.596   3.892
  747SOL    HW2 3141   5.129   5.592   3.780
  748SOL     OW 3142   5.398   4.915   2.740
  748SOL    HW1 3143   5.407   5.012   2.762
  748SOL    HW2 3144   5.436   4.898   2.649
  749SOL     OW 3145   5.235   3.479   3.430
  749SOL    HW1 3146   5.158   3.464   3.493
  749SOL    HW2 3147   5.202   3.477   3.336
  750SOL     OW 3148   3.106   0.990   1.322
  750SOL    HW1 3149   3.135   1.068   1.376
  750SOL    HW2 3150   3.020   0.954   1.358
  751SOL     OW 3151   5.198   2.382   0.860
  751SOL    HW1 3152   5.171   2.301   0.912
  751SOL    HW2 3153   5.174   2.464   0.911
  752SOL     OW 3154   3.452   2.190   6.072
  752SOL    HW1 3155   3.545   2.203   6.037
  752SOL    HW2 3156   3.408   2.279   6.083
  753SOL     OW 3157   2.818   3.465   5.271
  753SOL    HW1 3158   2.759   3.389   5.300
  753SOL    HW2 3159   2.835   3.524   5.350
  754SOL     OW 3160   5.434   1.051   6.988
  754SOL    HW1 3161   5.505   1.054   0.038
  754SOL    HW2 3162   5.344   1.048   0.012
  755SOL     OW 3163   3.082   4.410   5.359
  755SOL    HW1 3164   3.163   4.463   5.386
  755SOL    HW2 3165   3.021   4.468   5.305
  756SOL     OW 3166   3.109   5.162   6.867
  756SOL    HW1 3167   3.144   5.116   6.785
  756SOL    HW2 3168   3.186   5.187   6.926
  757SOL     OW 3169   1.882   0.023   2.411
  757SOL    HW1 3170   1.796   7.011   2.449
  757SOL    HW2 3171   1.958   7.009   2.465
  758SOL     OW 3172   3.845   1.238   3.896
  758SOL    HW1 3173   3.836   1.251   3.995
  758SOL    HW2 3174   3.898   1.313   3.858
  759SOL     OW 3175   0.461   2.045   3.283
  759SOL    HW1 3176   0.466   2.050   3.382
  759SOL    HW2 3177   0.373   2.082   3.252
  760SOL     OW 3178   6.548   6.828   3.504
  760SOL    HW1 3179   6.539   6.809   3.407
  760SOL    HW2 3180   6.565   6.742   3.554
  761SOL     OW 3181   5.639   4.061   5.732
  761SOL    HW1 3182   5.558   4.118   5.738
  761SOL    HW2 3183   5.719   4.114   5.760
  762SOL     OW 3184   2.990   6.348   5.690
  762SOL    HW1 3185   3.061   6.419   5.687
  762SOL    HW2 3186   3.029   6.265   5.729
  763SOL     OW 3187   5.328   0.448   6.486
  763SOL    HW1 3188   5.333   0.504   6.569
  763SOL    HW2 3189   5.300   0.355   6.509
  764SOL     OW 3190   5.821   1.300   5.679
  764SOL    HW1 3191   5.904   1.257   5.646
  764SOL    HW2 3192   5.809   1.280   5.776
  765SOL     OW 3193   1.249   6.755   0.874
  765SOL    HW1 3194   1.167   6.767   0.819
  765SOL    HW2 3195   1.313   6.829   0.855
  766SOL     OW 3196   2.505   2.137   5.454
  766SOL    HW1 3197   2.499   2.181   5.543
  766SOL    HW2 3198   2.428   2.165   5.397
  767SOL     OW 3199   6.828   6.783   3.356
  767SOL    HW1 3200   6.878   6.840   3.291
  767SOL    HW2 3201   6.872   6.786   3.445
  768SOL     OW 3202   2.255   6.222   2.927
  768SOL    HW1 3203   2.253   6.322   2.937
  768SOL    HW2 3204   2.330   6.196   2.867
  769SOL     OW 3205   3.505   1.610   5.202
  769SOL    HW1 3206   3.563   1.550   5.146
  769SOL    HW2 3207   3.556   1.693   5.225
  770SOL     OW 3208   1.540   4.740   4.449
  770SOL    HW1 3209   1.582   4.714   4.362
  770SOL    HW2 3210   1.608   4.735   4.522
  771SOL     OW 3211   1.125   5.491   3.301
  771SOL    HW1 3212   1.160   5.422   3.364
  771SOL    HW2 3213   1.091   5.569   3.353
  772SOL     OW 3214   5.679   4.968   6.988
  772SOL    HW1 3215   5.680   4.947   0.066
  772SOL    HW2 3216   5.644   5.060   6.974
  773SOL     OW 3217   1.059   3.683   3.041
  773SOL    HW1 3218   1.009   3.663   2.956
  773SOL    HW2 3219   1.157   3.666   3.027
  774SOL     OW 3220   2.243   1.972   3.490
  774SOL    HW1 3221   2.193   1.891   3.459
  774SOL    HW2 3222   2.338   1.947   3.511
  775SOL     OW 3223   2.070   3.366   4.135
  775SOL    HW1 3224   2.146   3.302   4.144
  775SOL    HW2 3225   1.990   3.318   4.099
  776SOL     OW 3226   0.808   0.028   6.299
  776SOL    HW1 3227   0.899   7.011   6.319
  776SOL    HW2 3228   0.750   0.020   6.380
  777SOL     OW 3229   1.593   3.384   0.416
  777SOL    HW1 3230   1.537   3.340   0.346
  777SOL    HW2 3231   1.543   3.388   0.502
  778SOL     OW 3232   3.070   0.019   1.851
  778SOL    HW1 3233   3.000   0.089   1.856
  778SOL    HW2 3234   3.095   0.003   1.755
  779SOL     OW 3235   0.321   2.367   1.580
  779SOL    HW1 3236   0.404   2.422   1.572
  779SOL    HW2 3237   0.245   2.412   1.534
  780SOL     OW 3238   1.406   2.389   4.473
  780SOL    HW1 3239   1.494   2.437   4.476
  780SOL    HW2 3240   1.404   2.330   4.393
  781SOL     OW 3241   6.966   4.539   0.093
  781SOL    HW1 3242   6.918   4.468   0.145
  781SOL    HW2 3243   6.906   4.574   0.021
  782SOL     OW 3244   2.100   4.208   5.748
  782SOL    HW1 3245   2.095   4.302   5.715
  782SOL    HW2 3246   2.114   4.146   5.670
  783SOL     OW 3247   5.612   5.769   6.639
  783SOL    HW1 3248   5.651   5.820   6.716
  783SOL    HW2 3249   5.651   5.677   6.637
  784SOL     OW 3250   2.466   6.085   1.786
  784SOL    HW1 3251   2.442   6.135   1.870
  784SOL    HW2 3252   2.386   6.080   1.726
  785SOL     OW 3253   0.643   0.050   3.812
  785SOL    HW1 3254   0.618   0.106   3.734
  785SOL    HW2 3255   0.738   0.021   3.803
  786SOL     OW 3256   5.867   0.450   3.322
  786SOL    HW1 3257   5.865   0.540   3.279
  786SOL    HW2 3258   5.844   0.380   3.255
  787SOL     OW 3259   2.634   0.889   0.523
  787SOL    HW1 3260   2.656   0.987   0.529
  787SOL    HW2 3261   2.538   0.876   0.547
  788SOL     OW 3262   3.621   3.068   1.607
  788SOL    HW1 3263   3.637   2.970   1.593
  788SOL    HW2 3264   3.570   3.104   1.529
  789SOL     OW 3265   4.481   5.526   1.891
  789SOL    HW1 3266   4.572   5.562   1.913
  789SOL    HW2 3267   4.427   5.519   1.975
  790SOL     OW 3268   0.940   2.571   1.571
  790SOL    HW1 3269   1.034   2.551   1.596
  790SOL    HW2 3270   0.890   2.485   1.557
  791SOL     OW 3271   3.038   5.687   5.451
  791SOL    HW1 3272   3.022   5.754   5.523
  791SOL    HW2 3273   3.060   5.735   5.365
  792SOL     OW 3274   0.368   1.864   0.722
  792SOL    HW1 3275   0.334   1.849   0.814
  792SOL    HW2 3276   0.292   1.886   0.661
  793SOL     OW 3277   4.793   5.844   4.585
  793SOL    HW1 3278   4.745   5.826   4.671
  793SOL    HW2 3279   4.768   5.934   4.550
  794SOL     OW 3280   3.231   3.516   4.398
  794SOL    HW1 3281   3.297   3.451   4.363
  794SOL    HW2 3282   3.270   3.608   4.396
  795SOL     OW 3283   3.766   0.681   5.426
  795SOL    HW1 3284   3.766   0.767   5.478
  795SOL    HW2 3285   3.759   0.604   5.489
  796SOL     OW 3286   1.725   2.691   6.379
  796SOL    HW1 3287   1.820   2.713   6.356
  796SOL    HW2 3288   1.720   2.661   6.474
  797SOL     OW 3289   4.185   0.154   1.376
  797SOL    HW1 3290   4.260   0.194   1.429
  797SOL    HW2 3291   4.173   0.205   1.291
  798SOL     OW 3292   2.516   6.525   1.433
  798SOL    HW1 3293   2.574   6.478   1.499
  798SOL    HW2 3294   2.469   6.601   1.478
  799SOL     OW 3295   0.132   2.474   6.429
  799SOL    HW1 3296   0.111   2.444   6.335
  799SOL    HW2 3297   0.149   2.572   6.429
  800SOL     OW 3298   6.046   1.307   1.745
  800SOL    HW1 3299   6.008   1.273   1.830
  800SOL    HW2 3300   6.128   1.254   1.721
  801SOL     OW 3301   2.177   5.322   5.535
  801SOL    HW1 3302   2.265   5.280   5.559
  801SOL    HW2 3303   2.141   5.371   5.614
  802SOL     OW 3304   5.048   2.399   6.433
  802SOL    HW1 3305   4.977   2.354   6.487
  802SOL    HW2 3306   5.060   2.493   6.467
  803SOL     OW 3307   2.766   0.065   5.840
  803SOL    HW1 3308   2.715   0.048   5.756
  803SOL    HW2 3309   2.742   7.016   5.908
  804SOL     OW 3310   6.078   0.291   1.383
  804SOL    HW1 3311   6.032   0.314   1.469
  804SOL    HW2 3312   6.102   0.194   1.384
  805SOL     OW 3313   2.126   0.466   3.775
  805SOL    HW1 3314   2.202   0.462   3.840
  805SOL    HW2 3315   2.144   0.536   3.706
  806SOL     OW 3316   0.554   0.192   6.011
  806SOL    HW1 3317   0.636   0.210   6.065
  806SOL    HW2 3318   0.473   0.198   6.069
  807SOL     OW 3319   0.679   6.605   4.708
  807SOL    HW1 3320   0.648   6.682   4.764
  807SOL    HW2 3321   0.776   6.614   4.688
  808SOL     OW 3322   5.863   2.911   0.508
  808SOL    HW1 3323   5.821   2.919   0.418
  808SOL    HW2 3324   5.808   2.963   0.575
  809SOL     OW 3325   0.265   5.449   6.739
  809SOL    HW1 3326   0.285   5.355   6.769
  809SOL    HW2 3327   0.347   5.491   6.702
  810SOL     OW 3328   2.581   2.973   0.702
  810SOL    HW1 3329   2.566   2.926   0.615
  810SOL    HW2 3330   2.492   2.998   0.741
  811SOL     OW 3331   5.320   5.202   4.570
  811SOL    HW1 3332   5.335   5.274   4.501
  811SOL    HW2 3333   5.318   5.243   4.661
  812SOL     OW 3334   0.647   2.122   2.130
  812SOL    HW1 3335   0.702   2.176   2.066
  812SOL    HW2 3336   0.612   2.181   2.202
  813SOL     OW 3337   2.312   0.639   4.141
  813SOL    HW1 3338   2.349   0.647   4.234
  813SOL    HW2 3339   2.381   0.598   4.081
  814SOL     OW 3340   6.614   5.977   2.621
  814SOL    HW1 3341   6.658   5.962   2.710
  814SOL    HW2 3342   6.523   5.936   2.621
  815SOL     OW 3343   4.770   2.605   3.312
  815SOL    HW1 3344   4.712   2.527   3.288
  815SOL    HW2 3345   4.744   2.684   3.256
  816SOL     OW 3346   5.139   4.112   0.109
  816SOL    HW1 3347   5.169   4.172   0.183
  816SOL    HW2 3348   5.219   4.073   0.063
  817SOL     OW 3349   1.212   5.476   0.852
  817SOL    HW1 3350   1.254   5.484   0.942
  817SOL    HW2 3351   1.115   5.502   0.857
  818SOL     OW 3352   5.391   2.676   3.385
  818SOL    HW1 3353   5.412   2.637   3.475
  818SOL    HW2 3354   5.477   2.702   3.340
  819SOL     OW 3355   5.988   2.833   1.204
  819SOL    HW1 3356   5.909   2.889   1.228
  819SOL    HW2 3357   5.961   2.737   1.198
  820SOL     OW 3358   2.539   2.037   4.457
  820SOL    HW1 3359   2.606   2.110   4.446
  820SOL    HW2 3360   2.514   2.027   4.553
  821SOL     OW 3361   5.774   4.654   4.601
  821SOL    HW1 3362   5.731   4.568   4.575
  821SOL    HW2 3363   5.853   4.636   4.659
  822SOL     OW 3364   0.704   4.347   3.203
  822SOL    HW1 3365   0.638   4.290   3.253
  822SOL    HW2 3366   0.734   4.300   3.121
  823SOL     OW 3367   0.647   3.752   6.122
  823SOL    HW1 3368   0.684   3.667   6.086
  823SOL    HW2 3369   0.702   3.829   6.089
  824SOL     OW 3370   5.590   1.387   5.322
  824SOL    HW1 3371   5.610   1.398   5.419
  824SOL    HW2 3372   5.551   1.296   5.306
  825SOL     OW 3373   6.276   6.224   0.963
  825SOL    HW1 3374   6.373   6.200   0.966
  825SOL    HW2 3375   6.230   6.186   1.044
  826SOL     OW 3376   3.969   1.921   5.906
  826SOL    HW1 3377   4.004   2.012   5.882
  826SOL    HW2 3378   3.871   1.927   5.926
  827SOL     OW 3379   3.438   4.195   4.671
  827SOL    HW1 3380   3.454   4.290   4.695
  827SOL    HW2 3381   3.340   4.180   4.656
  828SOL     OW 3382   6.450   5.403   4.331
  828SOL    HW1 3383   6.495   5.469   4.270
  828SOL    HW2 3384   6.357   5.433   4.349
  829SOL     OW 3385   3.414   2.924   2.328
  829SOL    HW1 3386   3.448   2.842   2.376
  829SOL    HW2 3387   3.425   2.912   2.230
  830SOL     OW 3388   5.965   4.722   6.600
  830SOL    HW1 3389   6.060   4.746   6.582
  830SOL    HW2 3390   5.938   4.758   6.689
  831SOL     OW 3391   5.636   6.556   1.431
  831SOL    HW1 3392   5.550   6.586   1.474
  831SOL    HW2 3393   5.616   6.489   1.360
  832SOL     OW 3394   3.900   1.581   4.413
  832SOL    HW1 3395   3.821   1.585   4.352
  832SOL    HW2 3396   3.959   1.505   4.386
  833SOL     OW 3397   1.232   3.908   6.496
  833SOL    HW1 3398   1.266   3.983   6.552
  833SOL    HW2 3399   1.293   3.893   6.419
  834SOL     OW 3400   4.535   3.577   6.702
  834SOL    HW1 3401   4.545   3.676   6.711
  834SOL    HW2 3402   4.547   3.550   6.607
  835SOL     OW 3403   1.914   0.692   4.625
  835SOL    HW1 3404   1.895   0.751   4.703
  835SOL    HW2 3405   1.855   0.718   4.549
  836SOL     OW 3406   3.358   1.869   5.711
  836SOL    HW1 3407   3.392   1.954   5.673
  836SOL    HW2 3408   3.302   1.822   5.642
  837SOL     OW 3409   1.640   0.677   1.302
  837SOL    HW1 3410   1.660   0.651   1.396
  837SOL    HW2 3411   1.721   0.663   1.246
  838SOL     OW 3412   1.991   5.303   4.283
  838SOL    HW1 3413   2.003   5.235   4.356
  838SOL    HW2 3414   2.071   5.303   4.223
  839SOL     OW 3415   2.039   1.167   1.105
  839SOL    HW1 3416   1.971   1.128   1.043
  839SOL    HW2 3417   1.997   1.183   1.195
  840SOL     OW 3418   5.977   6.063   0.314
  840SOL    HW1 3419   5.959   6.125   0.238
  840SOL    HW2 3420   5.992   5.970   0.278
  841SOL     OW 3421   4.521   5.609   5.583
  841SOL    HW1 3422   4.604   5.577   5.536
  841SOL    HW2 3423   4.545   5.640   5.675
  842SOL     OW 3424   3.381   0.031   6.997
  842SOL    HW1 3425   3.420   0.102   0.035
  842SOL    HW2 3426   3.355   6.972   0.033
  843SOL     OW 3427   2.319   2.033   1.669
  843SOL    HW1 3428   2.223   2.045   1.644
  843SOL    HW2 3429   2.356   1.954   1.620
  844SOL     OW 3430   0.571   6.238   1.238
  844SOL    HW1 3431   0.608   6.201   1.153
  844SOL    HW2 3432   0.566   6.165   1.306
  845SOL     OW 3433   4.188   1.948   3.146
  845SOL    HW1 3434   4.192   1.902   3.057
  845SOL    HW2 3435   4.112   2.013   3.147
  846SOL     OW 3436   3.209   1.615   5.857
  846SOL    HW1 3437   3.307   1.596   5.866
  846SOL    HW2 3438   3.194   1.670   5.775
  847SOL     OW 3439   2.289   3.049   1.568
  847SOL    HW1 3440   2.303   3.145   1.589
  847SOL    HW2 3441   2.279   2.997   1.653
  848SOL     OW 3442   6.024   6.542   6.112
  848SOL    HW1 3443   6.051   6.518   6.205
  848SOL    HW2 3444   6.052   6.635   6.092
  849SOL     OW 3445   5.744   3.836   0.139
  849SOL    HW1 3446   5.691   3.782   0.074
  849SOL    HW2 3447   5.837   3.799   0.146
  850SOL     OW 3448   6.856   0.210   4.893
  850SOL    HW1 3449   6.870   0.117   4.857
  850SOL    HW2 3450   6.893   0.215   4.985
  851SOL     OW 3451   6.511   3.275   0.147
  851SOL    HW1 3452   6.417   3.302   0.127
  851SOL    HW2 3453   6.515   3.176   0.163
  852SOL     OW 3454   0.125   4.829   0.812
  852SOL    HW1 3455   0.064   4.750   0.813
  852SOL    HW2 3456   0.188   4.823   0.889
  853SOL     OW 3457   2.265   4.215   6.869
  853SOL    HW1 3458   2.168   4.234   6.857
  853SOL    HW2 3459   2.302   4.275   6.941
  854SOL     OW 3460   6.080   6.483   6.620
  854SOL    HW1 3461   6.072   6.528   6.709
  854SOL    HW2 3462   6.008   6.517   6.559
  855SOL     OW 3463   6.903   0.610   0.330
  855SOL    HW1 3464   6.943   0.688   0.378
  855SOL    HW2 3465   6.831   0.642   0.268
  856SOL     OW 3466   1.828   6.897   6.232
  856SOL    HW1 3467   1.913   6.870   6.276
  856SOL    HW2 3468   1.790   6.819   6.183
  857SOL     OW 3469   6.941   4.547   3.178
  857SOL    HW1 3470   6.914   4.593   3.093
  857SOL    HW2 3471   6.915   4.451   3.173
  858SOL     OW 3472   2.911   4.080   1.009
  858SOL    HW1 3473   2.899   4.017   0.933
  858SOL    HW2 3474   2.824   4.127   1.027
  859SOL     OW 3475   4.910   6.141   5.342
  859SOL    HW1 3476   4.965   6.087   5.407
  859SOL    HW2 3477   4.891   6.085   5.261
  860SOL     OW 3478   5.614   3.370   6.513
  860SOL    HW1 3479   5.679   3.445   6.520
  860SOL    HW2 3480   5.522   3.407   6.499
  861SOL     OW 3481   1.622   5.416   2.942
  861SOL    HW1 3482   1.540   5.464   2.912
  861SOL    HW2 3483   1.699   5.480   2.947
  862SOL     OW 3484   1.706   4.846   3.771
  862SOL    HW1 3485   1.721   4.941   3.742
  862SOL    HW2 3486   1.671   4.793   3.694
  863SOL     OW 3487   6.139   0.697   5.920
  863SOL    HW1 3488   6.218   0.748   5.886
  863SOL    HW2 3489   6.116   0.623   5.857
  864SOL     OW 3490   4.618   0.259   5.410
  864SOL    HW1 3491   4.582   0.340   5.364
  864SOL    HW2 3492   4.649   0.192   5.342
  865SOL     OW 3493   2.019   6.764   4.995
  865SOL    HW1 3494   1.930   6.733   4.962
  865SOL    HW2 3495   2.007   6.820   5.077
  866SOL     OW 3496   3.136   6.633   0.965
  866SOL    HW1 3497   3.180   6.714   1.004
  866SOL    HW2 3498   3.181   6.609   0.879
  867SOL     OW 3499   5.883   2.639   0.518
  867SOL    HW1 3500   5.859   2.734   0.537
  867SOL    HW2 3501   5.969   2.616   0.563
  868SOL     OW 3502   0.263   2.301   2.405
  868SOL    HW1 3503   0.234   2.233   2.337
  868SOL    HW2 3504   0.245   2.392   2.370
  869SOL     OW 3505   6.980   3.607   4.008
  869SOL    HW1 3506   7.007   3.514   4.032
  869SOL    HW2 3507   0.036   3.669   4.027
  870SOL     OW 3508   3.731   4.745   1.291
  870SOL    HW1 3509   3.752   4.652   1.320
  870SOL    HW2 3510   3.635   4.766   1.313
  871SOL     OW 3511   4.818   2.114   4.025
  871SOL    HW1 3512   4.843   2.186   4.090
  871SOL    HW2 3513   4.888   2.107   3.954
  872SOL     OW 3514   0.124   2.046   4.729
  872SOL    HW1 3515   0.096   2.043   4.825
  872SOL    HW2 3516   0.196   1.978   4.713
  873SOL     OW 3517   4.571   6.168   5.653
  873SOL    HW1 3518   4.611   6.178   5.562
  873SOL    HW2 3519   4.546   6.259   5.688
  874SOL     OW 3520   6.252   4.184   6.758
  874SOL    HW1 3521   6.169   4.240   6.767
  874SOL    HW2 3522   6.330   4.244   6.739
  875SOL     OW 3523   5.550   5.511   1.336
  875SOL    HW1 3524   5.560   5.515   1.237
  875SOL    HW2 3525   5.478   5.446   1.360
  876SOL     OW 3526   0.481   5.410   1.769
  876SOL    HW1 3527   0.385   5.396   1.795
  876SOL    HW2 3528   0.512   5.332   1.713
  877SOL     OW 3529   2.482   4.219   6.457
  877SOL    HW1 3530   2.403   4.182   6.505
  877SOL    HW2 3531   2.490   4.176   6.367
  878SOL     OW 3532   4.556   6.828   4.188
  878SOL    HW1 3533   4.474   6.833   4.244
  878SOL    HW2 3534   4.560   6.739   4.142
  879SOL     OW 3535   3.927   0.622   1.668
  879SOL    HW1 3536   3.854   0.675   1.711
  879SOL    HW2 3537   3.994   0.685   1.628
  880SOL     OW 3538   3.501   4.120   3.710
  880SOL    HW1 3539   3.535   4.207   3.745
  880SOL    HW2 3540   3.402   4.114   3.726
  881SOL     OW 3541   4.845   3.122   4.833
  881SOL    HW1 3542   4.879   3.107   4.926
  881SOL    HW2 3543   4.746   3.131   4.835
  882SOL     OW 3544   0.909   3.137   4.359
  882SOL    HW1 3545   0.841   3.090   4.303
  882SOL    HW2 3546   0.889   3.235   4.360
  883SOL     OW 3547   3.383   0.875   2.174
  883SOL    HW1 3548   3.283   0.878   2.182
  883SOL    HW2 3549   3.410   0.784   2.141
  884SOL     OW 3550   5.156   3.305   5.901
  884SOL    HW1 3551   5.202   3.308   5.812
  884SOL    HW2 3552   5.099   3.386   5.912
  885SOL     OW 3553   3.672   1.058   4.884
  885SOL    HW1 3554   3.742   0.995   4.918
  885SOL    HW2 3555   3.671   1.058   4.784
  886SOL     OW 3556   3.400   0.562   0.629
  886SOL    HW1 3557   3.493   0.563   0.665
  886SOL    HW2 3558   3.380   0.474   0.587
  887SOL     OW 3559   3.817   6.752   3.917
  887SOL    HW1 3560   3.730   6.795   3.941
  887SOL    HW2 3561   3.826   6.665   3.966
  888SOL     OW 3562   0.376   6.219   3.135
  888SOL    HW1 3563   0.287   6.199   3.096
  888SOL    HW2 3564   0.392   6.318   3.133
  889SOL     OW 3565   0.491   3.701   0.827
  889SOL    HW1 3566   0.560   3.771   0.846
  889SOL    HW2 3567   0.444   3.677   0.912
  890SOL     OW 3568   1.163   5.173   3.316
  890SOL    HW1 3569   1.240   5.148   3.256
  890SOL    HW2 3570   1.105   5.240   3.269
  891SOL     OW 3571   5.229   5.601   0.379
  891SOL    HW1 3572   5.262   5.623   0.470
  891SOL    HW2 3573   5.279   5.521   0.344
  892SOL     OW 3574   2.268   3.719   5.240
  892SOL    HW1 3575   2.322   3.796   5.206
  892SOL    HW2 3576   2.252   3.654   5.166
  893SOL     OW 3577   1.919   6.628   2.626
  893SOL    HW1 3578   1.972   6.710   2.644
  893SOL    HW2 3579   1.849   6.618   2.697
  894SOL     OW 3580   1.168   3.264   1.764
  894SOL    HW1 3581   1.244   3.207   1.797
  894SOL    HW2 3582   1.081   3.219   1.785
  895SOL     OW 3583   0.323   4.528   3.807
  895SOL    HW1 3584   0.314   4.548   3.905
  895SOL    HW2 3585   0.420   4.521   3.784
  896SOL     OW 3586   5.768   4.668   0.420
  896SOL    HW1 3587   5.744   4.734   0.491
  896SOL    HW2 3588   5.732   4.578   0.445
  897SOL     OW 3589   4.762   1.436   6.791
  897SOL    HW1 3590   4.674   1.403   6.756
  897SOL    HW2 3591   4.835   1.380   6.753
  898SOL     OW 3592   3.169   6.096   2.477
  898SOL    HW1 3593   3.209   6.060   2.393
  898SOL    HW2 3594   3.241   6.115   2.544
  899SOL     OW 3595   0.035   6.457   6.532
  899SOL    HW1 3596   0.088   6.380   6.496
  899SOL    HW2 3597   0.054   6.468   6.629
  900SOL     OW 3598   5.621   6.471   0.349
  900SOL    HW1 3599   5.692   6.515   0.404
  900SOL    HW2 3600   5.547   6.441   0.408
  901SOL     OW 3601   2.261   0.464   3.324
  901SOL    HW1 3602   2.239   0.561   3.312
  901SOL    HW2 3603   2.178   0.409   3.314
  902SOL     OW 3604   0.308   2.444   0.576
  902SOL    HW1 3605   0.312   2.544   0.575
  902SOL    HW2 3606   0.294   2.410   0.482
  903SOL     OW 3607   6.827   2.493   6.738
  903SOL    HW1 3608   6.785   2.520   6.825
  903SOL    HW2 3609   6.758   2.497   6.665
  904SOL     OW 3610   2.637   2.371   2.784
  904SOL    HW1 3611   2.587   2.443   2.735
  904SOL    HW2 3612   2.661   2.298   2.719
  905SOL     OW 3613   4.939   1.650   6.880
  905SOL    HW1 3614   4.994   1.604   6.949
  905SOL    HW2 3615   4.853   1.600   6.867
  906SOL     OW 3616   0.093   2.313   5.920
  906SOL    HW1 3617   0.187   2.289   5.894
  906SOL    HW2 3618   0.092   2.405   5.959
  907SOL     OW 3619   5.387   3.678   0.350
  907SOL    HW1 3620   5.316   3.722   0.295
  907SOL    HW2 3621   5.344   3.613   0.413
  908SOL     OW 3622   2.685   4.682   2.421
  908SOL    HW1 3623   2.604   4.623   2.416
  908SOL    HW2 3624   2.721   4.697   2.329
  909SOL     OW 3625   4.425   5.443   0.856
  909SOL    HW1 3626   4.414   5.528   0.907
  909SOL    HW2 3627   4.519   5.411   0.865
  910SOL     OW 3628   2.846   2.445   1.502
  910SOL    HW1 3629   2.762   2.499   1.508
  910SOL    HW2 3630   2.834   2.360   1.554
  911SOL     OW 3631   1.113   5.943   6.509
  911SOL    HW1 3632   1.213   5.939   6.518
  911SOL    HW2 3633   1.079   5.856   6.473
  912SOL     OW 3634   5.825   2.195   2.881
  912SOL    HW1 3635   5.843   2.107   2.837
  912SOL    HW2 3636   5.738   2.190   2.930
  913SOL     OW 3637   4.222   6.930   2.990
  913SOL    HW1 3638   4.317   6.910   2.964
  913SOL    HW2 3639   4.188   7.006   2.935
  914SOL     OW 3640   2.256   7.017   6.498
  914SOL    HW1 3641   2.260   0.079   6.441
  914SOL    HW2 3642   2.349   6.980   6.509
  915SOL     OW 3643   5.922   4.247   6.514
  915SOL    HW1 3644   5.987   4.203   6.452
  915SOL    HW2 3645   5.933   4.346   6.508
  916SOL     OW 3646   1.641   2.410   2.054
  916SOL    HW1 3647   1.672   2.420   2.148
  916SOL    HW2 3648   1.703   2.349   2.005
  917SOL     OW 3649   0.410   6.199   0.389
  917SOL    HW1 3650   0.475   6.262   0.431
  917SOL    HW2 3651   0.336   6.180   0.454
  918SOL     OW 3652   2.830   0.138   0.513
  918SOL    HW1 3653   2.734   0.117   0.491
  918SOL    HW2 3654   2.833   0.203   0.589
  919SOL     OW 3655   5.547   1.371   3.470
  919SOL    HW1 3656   5.568   1.292   3.411
  919SOL    HW2 3657   5.512   1.338   3.558
  920SOL     OW 3658   2.619   4.177   1.593
  920SOL    HW1 3659   2.533   4.130   1.615
  920SOL    HW2 3660   2.603   4.276   1.591
  921SOL     OW 3661   5.100   6.007   4.263
  921SOL    HW1 3662   5.002   5.996   4.278
  921SOL    HW2 3663   5.123   5.971   4.172
  922SOL     OW 3664   3.927   4.031   4.512
  922SOL    HW1 3665   3.987   4.110   4.524
  922SOL    HW2 3666   3.834   4.054   4.543
  923SOL     OW 3667   2.557   2.753   6.333
  923SOL    HW1 3668   2.531   2.818   6.404
  923SOL    HW2 3669   2.641   2.784   6.289
  924SOL     OW 3670   6.020   4.037   1.956
  924SOL    HW1 3671   5.978   3.952   1.989
  924SOL    HW2 3672   5.952   4.110   1.955
  925SOL     OW 3673   6.712   2.570   7.010
  925SOL    HW1 3674   6.793   2.621   0.017
  925SOL    HW2 3675   6.669   2.529   0.070
  926SOL     OW 3676   6.921   1.322   0.898
  926SOL    HW1 3677   6.845   1.348   0.958
  926SOL    HW2 3678   6.918   1.379   0.815
  927SOL     OW 3679   5.824   3.500   3.936
  927SOL    HW1 3680   5.808   3.587   3.889
  927SOL    HW2 3681   5.921   3.493   3.960
  928SOL     OW 3682   2.900   6.248   0.636
  928SOL    HW1 3683   2.863   6.156   0.645
  928SOL    HW2 3684   2.857   6.293   0.557
  929SOL     OW 3685   6.962   0.618   7.018
  929SOL    HW1 3686   6.930   0.524   0.002
  929SOL    HW2 3687   6.906   0.675   0.058
  930SOL     OW 3688   4.304   5.535   6.430
  930SOL    HW1 3689   4.285   5.633   6.426
  930SOL    HW2 3690   4.296   5.495   6.339
  931SOL     OW 3691   6.394   2.173   4.119
  931SOL    HW1 3692   6.433   2.084   4.142
  931SOL    HW2 3693   6.338   2.164   4.037
  932SOL     OW 3694   2.479   1.777   3.299
  932SOL    HW1 3695   2.489   1.821   3.389
  932SOL    HW2 3696   2.423   1.694   3.309
  933SOL     OW 3697   1.328   4.888   2.503
  933SOL    HW1 3698   1.233   4.856   2.496
  933SOL    HW2 3699   1.383   4.845   2.432
  934SOL     OW 3700   2.613   6.118   5.763
  934SOL    HW1 3701   2.515   6.101   5.774
  934SOL    HW2 3702   2.663   6.032   5.769
  935SOL     OW 3703   4.805   3.970   3.811
  935SOL    HW1 3704   4.795   3.875   3.837
  935SOL    HW2 3705   4.808   3.977   3.711
  936SOL     OW 3706   1.582   0.386   6.153
  936SOL    HW1 3707   1.665   0.367   6.205
  936SOL    HW2 3708   1.502   0.377   6.213
  937SOL     OW 3709   4.802   1.777   5.479
  937SOL    HW1 3710   4.888   1.825   5.497
  937SOL    HW2 3711   4.821   1.694   5.428
  938SOL     OW 3712   6.711   5.566   4.206
  938SOL    HW1 3713   6.648   5.643   4.210
  938SOL    HW2 3714   6.796   5.589   4.252
  939SOL     OW 3715   0.490   6.841   4.562
  939SOL    HW1 3716   0.585   6.810   4.550
  939SOL    HW2 3717   0.428   6.771   4.528
  940SOL     OW 3718   1.061   4.112   0.388
  940SOL    HW1 3719   1.022   4.079   0.302
  940SOL    HW2 3720   1.095   4.205   0.375
  941SOL     OW 3721   5.023   0.349   6.938
  941SOL    HW1 3722   4.940   0.405   6.935
  941SOL    HW2 3723   5.033   0.310   0.009
  942SOL     OW 3724   6.607   6.282   1.293
  942SOL    HW1 3725   6.664   6.225   1.352
  942SOL    HW2 3726   6.629   6.378   1.309
  943SOL     OW 3727   2.341   5.044   2.552
  943SOL    HW1 3728   2.366   5.137   2.523
  943SOL    HW2 3729   2.276   5.005   2.487
  944SOL     OW 3730   0.664   5.011   4.474
  944SOL    HW1 3731   0.731   5.044   4.407
  944SOL    HW2 3732   0.589   5.077   4.480
  945SOL     OW 3733   0.804   5.041   5.475
  945SOL    HW1 3734   0.878   5.096   5.436
  945SOL    HW2 3735   0.794   5.063   5.572
  946SOL     OW 3736   4.815   4.762   4.372
  946SOL    HW1 3737   4.853   4.682   4.418
  946SOL    HW2 3738   4.861   4.844   4.405
  947SOL     OW 3739   3.842   3.627   3.300
  947SOL    HW1 3740   3.748   3.630   3.268
  947SOL    HW2 3741   3.865   3.713   3.345
  948SOL     OW 3742   5.015   0.940   2.443
  948SOL    HW1 3743   4.966   0.964   2.526
  948SOL    HW2 3744   5.098   0.889   2.466
  949SOL     OW 3745   3.140   6.502   6.999
  949SOL    HW1 3746   3.100   6.588   0.010
  949SOL    HW2 3747   3.072   6.429   7.007
  950SOL     OW 3748   6.135   5.743   2.203
  950SOL    HW1 3749   6.163   5.648   2.216
  950SOL    HW2 3750   6.144   5.768   2.107
  951SOL     OW 3751   1.242   6.596   3.455
  951SOL    HW1 3752   1.268   6.643   3.539
  951SOL    HW2 3753   1.274   6.501   3.458
  952SOL     OW 3754   4.248   1.990   2.864
  952SOL    HW1 3755   4.320   1.921   2.870
  952SOL    HW2 3756   4.280   2.068   2.811
  953SOL     OW 3757   6.114   5.940   4.992
  953SOL    HW1 3758   6.155   5.882   4.922
  953SOL    HW2 3759   6.111   6.034   4.960
  954SOL     OW 3760   4.452   6.133   2.434
  954SOL    HW1 3761   4.409   6.208   2.383
  954SOL    HW2 3762   4.417   6.132   2.527
  955SOL     OW 3763   1.906   4.057   0.092
  955SOL    HW1 3764   1.832   4.103   0.043
  955SOL    HW2 3765   1.989   4.060   0.036
  956SOL     OW 3766   0.404   1.197   1.049
  956SOL    HW1 3767   0.486   1.234   1.093
  956SOL    HW2 3768   0.430   1.139   0.972
  957SOL     OW 3769   6.222   1.389   2.029
  957SOL    HW1 3770   6.317   1.401   2.001
  957SOL    HW2 3771   6.191   1.297   2.003
  958SOL     OW 3772   5.129   6.263   2.294
  958SOL    HW1 3773   5.101   6.321   2.218
  958SOL    HW2 3774   5.110   6.167   2.272
  959SOL     OW 3775   3.478   6.602   4.610
  959SOL    HW1 3776   3.446   6.555   4.527
  959SOL    HW2 3777   3.514   6.691   4.585
  960SOL     OW 3778   0.863   0.733   1.075
  960SOL    HW1 3779   0.790   0.665   1.081
  960SOL    HW2 3780   0.887   0.747   0.979
  961SOL     OW 3781   3.421   6.453   3.428
  961SOL    HW1 3782   3.417   6.530   3.364
  961SOL    HW2 3783   3.517   6.431   3.448
  962SOL     OW 3784   5.728   0.460   5.139
  962SOL    HW1 3785   5.644   0.407   5.133
  962SOL    HW2 3786   5.804   0.400   5.163
  963SOL     OW 3787   4.375   1.317   1.416
  963SOL    HW1 3788   4.305   1.383   1.392
  963SOL    HW2 3789   4.464   1.351   1.386
  964SOL     OW 3790   4.541   4.697   5.406
  964SOL    HW1 3791   4.550   4.616   5.347
  964SOL    HW2 3792   4.566   4.779   5.353
  965SOL     OW 3793   6.449   2.437   2.657
  965SOL    HW1 3794   6.524   2.380   2.623
  965SOL    HW2 3795   6.362   2.398   2.628
  966SOL     OW 3796   4.781   2.293   3.518
  966SOL    HW1 3797   4.864   2.343   3.493
  966SOL    HW2 3798   4.702   2.353   3.510
  967SOL     OW 3799   3.503   4.746   6.495
  967SOL    HW1 3800   3.523   4.841   6.472
  967SOL    HW2 3801   3.582   4.688   6.472
  968SOL     OW 3802   3.424   0.317   1.271
  968SOL    HW1 3803   3.424   0.329   1.172
  968SOL    HW2 3804   3.513   0.281   1.300
  969SOL     OW 3805   2.761   5.238   5.484
  969SOL    HW1 3806   2.830   5.301   5.521
  969SOL    HW2 3807   2.743   5.166   5.552
  970SOL     OW 3808   6.032   1.433   5.895
  970SOL    HW1 3809   6.005   1.344   5.930
  970SOL    HW2 3810   6.051   1.495   5.971
  971SOL     OW 3811   6.755   3.635   2.618
  971SOL    HW1 3812   6.766   3.722   2.568
  971SOL    HW2 3813   6.715   3.654   2.708
  972SOL     OW 3814   6.638   2.400   1.064
  972SOL    HW1 3815   6.700   2.322   1.074
  972SOL    HW2 3816   6.644   2.457   1.146
  973SOL     OW 3817   0.266   4.043   6.225
  973SOL    HW1 3818   0.265   3.944   6.231
  973SOL    HW2 3819   0.257   4.082   6.317
  974SOL     OW 3820   0.679   4.809   2.630
  974SOL    HW1 3821   0.665   4.775   2.723
  974SOL    HW2 3822   0.763   4.863   2.626
  975SOL     OW 3823   2.521   6.754   0.983
  975SOL    HW1 3824   2.515   6.746   0.884
  975SOL    HW2 3825   2.598   6.699   1.017
  976SOL     OW 3826   5.886   3.787   1.687
  976SOL    HW1 3827   5.846   3.854   1.749
  976SOL    HW2 3828   5.829   3.780   1.605
  977SOL     OW 3829   0.771   1.438   2.017
  977SOL    HW1 3830   0.770   1.370   1.943
  977SOL    HW2 3831   0.832   1.407   2.090
  978SOL     OW 3832   5.600   2.098   0.840
  978SOL    HW1 3833   5.585   2.020   0.901
  978SOL    HW2 3834   5.512   2.137   0.813
  979SOL     OW 3835   6.789   2.893   6.747
  979SOL    HW1 3836   6.696   2.862   6.727
  979SOL    HW2 3837   6.785   2.970   6.811
  980SOL     OW 3838   3.934   0.986   4.714
  980SOL    HW1 3839   3.982   0.961   4.797
  980SOL    HW2 3840   3.991   1.045   4.657
  981SOL     OW 3841   0.162   6.943   5.199
  981SOL    HW1 3842   0.112   6.991   5.272
  981SOL    HW2 3843   0.258   6.970   5.201
  982SOL     OW 3844   0.441   1.608   5.440
  982SOL    HW1 3845   0.413   1.516   5.468
  982SOL    HW2 3846   0.360   1.661   5.414
  983SOL     OW 3847   6.751   2.894   3.110
  983SOL    HW1 3848   6.663   2.854   3.085
  983SOL    HW2 3849   6.756   2.905   3.209
  984SOL     OW 3850   1.580   2.178   2.954
  984SOL    HW1 3851   1.489   2.173   2.911
  984SOL    HW2 3852   1.636   2.244   2.905
  985SOL     OW 3853   6.058   3.847   4.876
  985SOL    HW1 3854   5.975   3.835   4.930
  985SOL    HW2 3855   6.075   3.766   4.820
  986SOL     OW 3856   4.915   4.317   1.521
  986SOL    HW1 3857   5.004   4.300   1.564
  986SOL    HW2 3858   4.845   4.261   1.566
  987SOL     OW 3859   5.676   6.497   3.454
  987SOL    HW1 3860   5.740   6.509   3.378
  987SOL    HW2 3861   5.609   6.426   3.431
  988SOL     OW 3862   3.322   3.678   2.281
  988SOL    HW1 3863   3.372   3.754   2.322
  988SOL    HW2 3864   3.269   3.711   2.203
  989SOL     OW 3865   6.690   2.104   0.449
  989SOL    HW1 3866   6.762   2.035   0.441
  989SOL    HW2 3867   6.709   2.180   0.388
  990SOL     OW 3868   3.081   0.094   2.911
  990SOL    HW1 3869   3.173   0.119   2.879
  990SOL    HW2 3870   3.035   0.174   2.947
  991SOL     OW 3871   6.559   4.526   3.268
  991SOL    HW1 3872   6.489   4.462   3.300
  991SOL    HW2 3873   6.616   4.554   3.345
  992SOL     OW 3874   0.596   2.895   1.443
  992SOL    HW1 3875   0.644   2.902   1.530
  992SOL    HW2 3876   0.659   2.860   1.373
  993SOL     OW 3877   1.009   3.943   0.972
  993SOL    HW1 3878   1.076   3.955   0.899
  993SOL    HW2 3879   1.004   3.846   0.997
  994SOL     OW 3880   3.990   5.829   0.953
  994SOL    HW1 3881   3.901   5.874   0.950
  994SOL    HW2 3882   3.981   5.734   0.924
  995SOL     OW 3883   4.519   3.612   5.622
  995SOL    HW1 3884   4.579   3.532   5.618
  995SOL    HW2 3885   4.566   3.691   5.584
  996SOL     OW 3886   4.232   5.750   5.110
  996SOL    HW1 3887   4.272   5.705   5.190
  996SOL    HW2 3888   4.137   5.774   5.128
  997SOL     OW 3889   1.572   6.903   3.245
  997SOL    HW1 3890   1.569   6.886   3.344
  997SOL    HW2 3891   1.539   6.996   3.227
  998SOL     OW 3892   6.086   0.469   5.774
  998SOL    HW1 3893   5.999   0.421   5.774
  998SOL    HW2 3894   6.157   0.411   5.734
  999SOL     OW 3895   4.492   3.689   1.642
  999SOL    HW1 3896   4.393   3.693   1.653
  999SOL    HW2 3897   4.531   3.781   1.650
 1000SOL     OW 3898   4.193   1.521   1.357
 1000SOL    HW1 3899   4.222   1.616   1.354
 1000SOL    HW2 3900   4.093   1.517   1.362
 1001SOL     OW 3901   2.559   6.181   2.107
 1001SOL    HW1 3902   2.568   6.279   2.091
 1001SOL    HW2 3903   2.508   6.166   2.192
 1002SOL     OW 3904   5.540   2.109   1.624
 1002SOL    HW1 3905   5.585   2.019   1.629
 1002SOL    HW2 3906   5.520   2.141   1.716
 1003SOL     OW 3907   1.760   6.052   2.720
 1003SOL    HW1 3908   1.822   6.033   2.643
 1003SOL    HW2 3909   1.729   6.147   2.715
 1004SOL     OW 3910   6.403   1.556   2.444
 1004SOL    HW1 3911   6.441   1.580   2.533
 1004SOL    HW2 3912   6.321   1.611   2.428
 1005SOL     OW 3913   1.486   4.081   3.694
 1005SOL    HW1 3914   1.453   4.136   3.770
 1005SOL    HW2 3915   1.586   4.088   3.689
 1006SOL     OW 3916   2.332   3.525   0.686
 1006SOL    HW1 3917   2.389   3.607   0.693
 1006SOL    HW2 3918   2.262   3.540   0.617
 1007SOL     OW 3919   4.705   1.294   6.384
 1007SOL    HW1 3920   4.623   1.260   6.338
 1007SOL    HW2 3921   4.697   1.392   6.398
 1008SOL     OW 3922   0.484   3.783   5.521
 1008SOL    HW1 3923   0.391   3.817   5.503
 1008SOL    HW2 3924   0.479   3.686   5.545
 1009SOL     OW 3925   6.004   4.946   5.510
 1009SOL    HW1 3926   6.062   4.865   5.522
 1009SOL    HW2 3927   6.057   5.020   5.468
 1010SOL     OW 3928   2.436   2.227   1.834
 1010SOL    HW1 3929   2.469   2.301   1.775
 1010SOL    HW2 3930   2.397   2.154   1.779
 1011SOL     OW 3931   0.717   5.244   2.966
 1011SOL    HW1 3932   0.709   5.190   3.050
 1011SOL    HW2 3933   0.803   5.295   2.967
 1012SOL     OW 3934   6.725   6.920   2.645
 1012SOL    HW1 3935   6.749   6.900   2.550
 1012SOL    HW2 3936   6.731   7.019   2.661
 1013SOL     OW 3937   6.565   0.990   6.034
 1013SOL    HW1 3938   6.593   1.019   6.126
 1013SOL    HW2 3939   6.472   0.954   6.038
 1014SOL     OW 3940   1.286   4.308   4.643
 1014SOL    HW1 3941   1.367   4.311   4.584
 1014SOL    HW2 3942   1.262   4.213   4.661
 1015SOL     OW 3943   3.149   0.268   6.225
 1015SOL    HW1 3944   3.135   0.254   6.323
 1015SOL    HW2 3945   3.241   0.237   6.200
 1016SOL     OW 3946   4.706   4.335   1.349
 1016SOL    HW1 3947   4.654   4.250   1.350
 1016SOL    HW2 3948   4.790   4.325   1.402
 1017SOL     OW 3949   2.985   1.397   1.927
 1017SOL    HW1 3950   3.011   1.340   1.848
 1017SOL    HW2 3951   2.887   1.385   1.944
 1018SOL     OW 3952   7.005   4.351   3.965
 1018SOL    HW1 3953   6.928   4.331   3.904
 1018SOL    HW2 3954   0.043   4.421   3.923
 1019SOL     OW 3955   6.685   5.279   0.296
 1019SOL    HW1 3956   6.688   5.191   0.343
 1019SOL    HW2 3957   6.733   5.272   0.209
 1020SOL     OW 3958   6.628   0.810   1.110
 1020SOL    HW1 3959   6.631   0.885   1.176
 1020SOL    HW2 3960   6.535   0.773   1.106
 1021SOL     OW 3961   6.261   5.532   2.598
 1021SOL    HW1 3962   6.215   5.598   2.539
 1021SOL    HW2 3963   6.228   5.544   2.692
 1022SOL     OW 3964   2.886   5.996   5.931
 1022SOL    HW1 3965   2.857   5.903   5.909
 1022SOL    HW2 3966   2.808   6.049   5.963
 1023SOL     OW 3967   7.011   0.955   2.488
 1023SOL    HW1 3968   0.071   1.010   2.512
 1023SOL    HW2 3969   6.963   0.997   2.411
 1024SOL     OW 3970   0.838   1.152   4.531
 1024SOL    HW1 3971   0.762   1.101   4.570
 1024SOL    HW2 3972   0.909   1.164   4.600
 1025SOL     OW 3973   4.396   3.279   0.648
 1025SOL    HW1 3974   4.364   3.203   0.705
 1025SOL    HW2 3975   4.322   3.309   0.588
 1026SOL     OW 3976   3.063   2.518   1.690
 1026SOL    HW1 3977   3.045   2.478   1.780
 1026SOL    HW2 3978   2.988   2.497   1.628
 1027SOL     OW 3979   1.420   6.227   1.835
 1027SOL    HW1 3980   1.510   6.271   1.830
 1027SOL    HW2 3981   1.386   6.211   1.743
 1028SOL     OW 3982   1.491   6.434   3.236
 1028SOL    HW1 3983   1.451   6.369   3.171
 1028SOL    HW2 3984   1.423   6.505   3.258
 1029SOL     OW 3985   0.943   1.845   6.191
 1029SOL    HW1 3986   0.873   1.851   6.261
 1029SOL    HW2 3987   1.009   1.774   6.215
 1030SOL     OW 3988   3.236   3.350   1.694
 1030SOL    HW1 3989   3.228   3.307   1.604
 1030SOL    HW2 3990   3.333   3.362   1.716
 1031SOL     OW 3991   3.793   3.233   1.746
 1031SOL    HW1 3992   3.837   3.170   1.811
 1031SOL    HW2 3993   3.730   3.181   1.688
 1032SOL     OW 3994   2.327   0.948   5.214
 1032SOL    HW1 3995   2.317   1.047   5.224
 1032SOL    HW2 3996   2.403   0.929   5.152
 1033SOL     OW 3997   1.929   6.049   2.492
 1033SOL    HW1 3998   1.892   6.127   2.440
 1033SOL    HW2 3999   2.017   6.073   2.531
 1034SOL     OW 4000   2.193   6.100   4.254
 1034SOL    HW1 4001   2.230   6.190   4.274
 1034SOL    HW2 4002   2.096   6.098   4.277
 1035SOL     OW 4003   0.713   2.401   6.118
 1035SOL    HW1 4004   0.715   2.493   6.079
 1035SOL    HW2 4005   0.785   2.392   6.186
 1036SOL     OW 4006   5.354   1.220   1.694
 1036SOL    HW1 4007   5.287   1.243   1.764
 1036SOL    HW2 4008   5.394   1.304   1.657
 1037SOL     OW 4009   1.298   2.049   2.450
 1037SOL    HW1 4010   1.325   1.995   2.370
 1037SOL    HW2 4011   1.253   2.133   2.419
 1038SOL     OW 4012   1.823   1.488   6.394
 1038SOL    HW1 4013   1.802   1.457   6.487
 1038SOL    HW2 4014   1.899   1.552   6.397
 1039SOL     OW 4015   3.184   3.036   3.790
 1039SOL    HW1 4016   3.224   2.975   3.721
 1039SOL    HW2 4017   3.125   3.103   3.745
 1040SOL     OW 4018   5.118   0.815   3.414
 1040SOL    HW1 4019   5.099   0.723   3.379
 1040SOL    HW2 4020   5.031   0.864   3.424
 1041SOL     OW 4021   6.715   6.839   3.926
 1041SOL    HW1 4022   6.748   6.926   3.963
 1041SOL    HW2 4023   6.775   6.810   3.852
 1042SOL     OW 4024   4.710   4.868   2.911
 1042SOL    HW1 4025   4.711   4.769   2.922
 1042SOL    HW2 4026   4.797   4.906   2.944
 1043SOL     OW 4027   3.641   1.822   3.156
 1043SOL    HW1 4028   3.559   1.854   3.203
 1043SOL    HW2 4029   3.678   1.895   3.099
 1044SOL     OW 4030   5.975   5.964   1.124
 1044SOL    HW1 4031   5.915   5.884   1.120
 1044SOL    HW2 4032   5.973   6.003   1.216
 1045SOL     OW 4033   2.758   0.001   3.123
 1045SOL    HW1 4034   2.839   6.998   3.177
 1045SOL    HW2 4035   2.749   0.101   3.118
 1046SOL     OW 4036   2.740   1.398   1.139
 1046SOL    HW1 4037   2.660   1.340   1.126
 1046SOL    HW2 4038   2.819   1.357   1.093
 1047SOL     OW 4039   3.149   6.875   4.059
 1047SOL    HW1 4040   3.226   6.872   3.995
 1047SOL    HW2 4041   3.076   6.815   4.025
 1048SOL     OW 4042   2.840   5.476   2.468
 1048SOL    HW1 4043   2.786   5.409   2.518
 1048SOL    HW2 4044   2.935   5.445   2.462
 1049SOL     OW 4045   4.604   6.855   3.901
 1049SOL    HW1 4046   4.582   6.876   3.997
 1049SOL    HW2 4047   4.536   6.897   3.841
 1050SOL     OW 4048   4.033   5.330   2.963
 1050SOL    HW1 4049   3.989   5.321   3.052
 1050SOL    HW2 4050   4.100   5.405   2.966
 1051SOL     OW 4051   0.064   6.001   0.254
 1051SOL    HW1 4052   0.156   5.962   0.263
 1051SOL    HW2 4053   7.016   5.929   0.258
 1052SOL     OW 4054   4.480   0.587   5.592
 1052SOL    HW1 4055   4.490   0.541   5.504
 1052SOL    HW2 4056   4.460   0.519   5.663
 1053SOL     OW 4057   5.992   3.899   2.361
 1053SOL    HW1 4058   5.972   3.945   2.447
 1053SOL    HW2 4059   5.935   3.938   2.288
 1054SOL     OW 4060   2.872   3.425   0.794
 1054SOL    HW1 4061   2.923   3.347   0.832
 1054SOL    HW2 4062   2.793   3.445   0.851
 1055SOL     OW 4063   5.200   5.913   6.395
 1055SOL    HW1 4064   5.129   5.861   6.347
 1055SOL    HW2 4065   5.171   5.933   6.488
 1056SOL     OW 4066   1.490   3.815   0.296
 1056SOL    HW1 4067   1.398   3.775   0.297
 1056SOL    HW2 4068   1.555   3.748   0.331
 1057SOL     OW 4069   3.660   1.965   1.874
 1057SOL    HW1 4070   3.717   1.990   1.796
 1057SOL    HW2 4071   3.644   2.045   1.932
 1058SOL     OW 4072   3.995   2.183   3.184
 1058SOL    HW1 4073   3.952   2.167   3.095
 1058SOL    HW2 4074   3.932   2.158   3.256
 1059SOL     OW 4075   2.619   6.833   1.975
 1059SOL    HW1 4076   2.536   6.799   2.019
 1059SOL    HW2 4077   2.642   6.776   1.897
 1060SOL     OW 4078   0.179   5.030   4.048
 1060SOL    HW1 4079   0.155   5.060   4.141
 1060SOL    HW2 4080   0.111   5.065   3.984
 1061SOL     OW 4081   6.509   4.037   6.971
 1061SOL    HW1 4082   6.452   4.007   6.895
 1061SOL    HW2 4083   6.503   3.970   0.025
 1062SOL     OW 4084   4.262   6.722   5.626
 1062SOL    HW1 4085   4.190   6.767   5.572
 1062SOL    HW2 4086   4.260   6.624   5.609
 1063SOL     OW 4087   0.380   0.149   6.225
 1063SOL    HW1 4088   0.378   0.092   6.308
 1063SOL    HW2 4089   0.384   0.245   6.251
 1064SOL     OW 4090   0.523   4.193   1.771
 1064SOL    HW1 4091   0.546   4.192   1.674
 1064SOL    HW2 4092   0.425   4.210   1.781
 1065SOL     OW 4093   3.482   0.896   3.807
 1065SOL    HW1 4094   3.566   0.913   3.859
 1065SOL    HW2 4095   3.423   0.976   3.812
 1066SOL     OW 4096   4.903   6.870   2.034
 1066SOL    HW1 4097   4.885   6.962   2.067
 1066SOL    HW2 4098   4.816   6.825   2.014
 1067SOL     OW 4099   2.871   0.929   6.921
 1067SOL    HW1 4100   2.965   0.962   6.929
 1067SOL    HW2 4101   2.869   0.848   6.862
 1068SOL     OW 4102   6.044   3.689   1.264
 1068SOL    HW1 4103   6.121   3.718   1.208
 1068SOL    HW2 4104   6.078   3.643   1.346
 1069SOL     OW 4105   5.765   5.105   0.912
 1069SOL    HW1 4106   5.758   5.173   0.985
 1069SOL    HW2 4107   5.826   5.031   0.941
 1070SOL     OW 4108   2.306   0.100   2.674
 1070SOL    HW1 4109   2.338   0.095   2.579
 1070SOL    HW2 4110   2.329   0.015   2.721
 1071SOL     OW 4111   0.561   2.119   4.717
 1071SOL    HW1 4112   0.541   2.084   4.809
 1071SOL    HW2 4113   0.475   2.149   4.674
 1072SOL     OW 4114   1.914   0.716   1.408
 1072SOL    HW1 4115   1.939   0.644   1.472
 1072SOL    HW2 4116   1.871   0.791   1.458
 1073SOL     OW 4117   6.056   1.735   3.096
 1073SOL    HW1 4118   6.117   1.738   3.017
 1073SOL    HW2 4119   5.975   1.790   3.077
 1074SOL     OW 4120   2.612   5.451   1.505
 1074SOL    HW1 4121   2.553   5.377   1.537
 1074SOL    HW2 4122   2.637   5.435   1.410
 1075SOL     OW 4123   6.189   1.151   4.639
 1075SOL    HW1 4124   6.137   1.230   4.671
 1075SOL    HW2 4125   6.138   1.105   4.566
 1076SOL     OW 4126   1.827   3.759   5.288
 1076SOL    HW1 4127   1.728   3.749   5.296
 1076SOL    HW2 4128   1.850   3.856   5.290
 1077SOL     OW 4129   0.135   6.675   0.054
 1077SOL    HW1 4130   0.054   6.711   0.009
 1077SOL    HW2 4131   0.131   6.698   0.152
 1078SOL     OW 4132   6.614   0.272   3.005
 1078SOL    HW1 4133   6.594   0.247   3.100
 1078SOL    HW2 4134   6.713   0.272   2.990
 1079SOL     OW 4135   1.268   5.528   2.084
 1079SOL    HW1 4136   1.192   5.467   2.107
 1079SOL    HW2 4137   1.353   5.476   2.077
 1080SOL     OW 4138   2.345   5.719   5.109
 1080SOL    HW1 4139   2.342   5.628   5.067
 1080SOL    HW2 4140   2.290   5.783   5.055
 1081SOL     OW 4141   0.512   5.831   4.250
 1081SOL    HW1 4142   0.440   5.849   4.318
 1081SOL    HW2 4143   0.528   5.914   4.197
 1082SOL     OW 4144   6.050   1.598   6.114
 1082SOL    HW1 4145   5.993   1.537   6.168
 1082SOL    HW2 4146   5.993   1.667   6.070
 1083SOL     OW 4147   4.555   4.258   0.513
 1083SOL    HW1 4148   4.598   4.329   0.569
 1083SOL    HW2 4149   4.621   4.184   0.496
 1084SOL     OW 4150   6.292   0.054   6.664
 1084SOL    HW1 4151   6.332   0.144   6.648
 1084SOL    HW2 4152   6.304   0.029   6.760
 1085SOL     OW 4153   2.040   3.569   3.937
 1085SOL    HW1 4154   2.066   3.516   4.017
 1085SOL    HW2 4155   2.007   3.659   3.966
 1086SOL     OW 4156   6.602   4.707   6.264
 1086SOL    HW1 4157   6.544   4.626   6.265
 1086SOL    HW2 4158   6.698   4.680   6.267
 1087SOL     OW 4159   1.480   1.868   5.329
 1087SOL    HW1 4160   1.404   1.934   5.327
 1087SOL    HW2 4161   1.444   1.778   5.352
 1088SOL     OW 4162   0.243   5.167   3.157
 1088SOL    HW1 4163   0.337   5.200   3.152
 1088SOL    HW2 4164   0.186   5.233   3.207
 1089SOL     OW 4165   0.719   5.544   4.874
 1089SOL    HW1 4166   0.741   5.488   4.953
 1089SOL    HW2 4167   0.803   5.584   4.837
 1090SOL     OW 4168   5.411   1.784   3.327
 1090SOL    HW1 4169   5.489   1.725   3.343
 1090SOL    HW2 4170   5.417   1.824   3.235
 1091SOL     OW 4171   1.892   3.298   3.452
 1091SOL    HW1 4172   1.893   3.375   3.516
 1091SOL    HW2 4173   1.982   3.291   3.409
 1092SOL     OW 4174   0.921   4.740   0.820
 1092SOL    HW1 4175   0.891   4.779   0.733
 1092SOL    HW2 4176   0.845   4.742   0.885
 1093SOL     OW 4177   3.136   0.046   1.456
 1093SOL    HW1 4178   3.142   0.145   1.444
 1093SOL    HW2 4179   3.053   0.023   1.506
 1094SOL     OW 4180   0.787   6.976   2.892
 1094SOL    HW1 4181   0.825   7.001   2.981
 1094SOL    HW2 4182   0.772   6.877   2.889
 1095SOL     OW 4183   0.443   2.832   6.399
 1095SOL    HW1 4184   0.447   2.890   6.318
 1095SOL    HW2 4185   0.494   2.747   6.382
 1096SOL     OW 4186   2.863   5.248   0.837
 1096SOL    HW1 4187   2.838   5.152   0.826
 1096SOL    HW2 4188   2.877   5.268   0.934
 1097SOL     OW 4189   2.151   5.501   3.450
 1097SOL    HW1 4190   2.183   5.483   3.358
 1097SOL    HW2 4191   2.051   5.502   3.451
 1098SOL     OW 4192   5.942   4.110   6.837
 1098SOL    HW1 4193   5.996   4.097   6.920
 1098SOL    HW2 4194   5.979   4.186   6.785
 1099SOL     OW 4195   4.712   0.941   6.175
 1099SOL    HW1 4196   4.615   0.965   6.177
 1099SOL    HW2 4197   4.749   0.940   6.268
 1100SOL     OW 4198   3.277   1.417   3.895
 1100SOL    HW1 4199   3.315   1.494   3.947
 1100SOL    HW2 4200   3.212   1.368   3.953
 1101SOL     OW 4201   5.812   3.292   5.387
 1101SOL    HW1 4202   5.713   3.307   5.393
 1101SOL    HW2 4203   5.859   3.351   5.453
 1102SOL     OW 4204   2.539   0.816   4.295
 1102SOL    HW1 4205   2.569   0.911   4.309
 1102SOL    HW2 4206   2.509   0.777   4.381
 1103SOL     OW 4207   2.918   1.682   6.920
 1103SOL    HW1 4208   2.966   1.757   6.873
 1103SOL    HW2 4209   2.914   1.602   6.860
 1104SOL     OW 4210   1.418   4.093   3.423
 1104SOL    HW1 4211   1.426   4.092   3.523
 1104SOL    HW2 4212   1.416   3.999   3.389
 1105SOL     OW 4213   5.025   2.575   4.260
 1105SOL    HW1 4214   4.990   2.541   4.347
 1105SOL    HW2 4215   5.124   2.588   4.266
 1106SOL     OW 4216   0.265   1.300   0.366
 1106SOL    HW1 4217   0.255   1.285   0.464
 1106SOL    HW2 4218   0.355   1.267   0.336
 1107SOL     OW 4219   1.154   0.626   6.806
 1107SOL    HW1 4220   1.199   0.614   6.717
 1107SOL    HW2 4221   1.222   0.617   6.879
 1108SOL     OW 4222   3.599   6.349   4.373
 1108SOL    HW1 4223   3.558   6.282   4.312
 1108SOL    HW2 4224   3.583   6.322   4.468
 1109SOL     OW 4225   6.058   2.083   3.748
 1109SOL    HW1 4226   5.966   2.080   3.709
 1109SOL    HW2 4227   6.063   2.154   3.818
 1110SOL     OW 4228   3.186   1.137   3.160
 1110SOL    HW1 4229   3.256   1.086   3.109
 1110SOL    HW2 4230   3.230   1.189   3.234
 1111SOL     OW 4231   4.944   4.168   6.271
 1111SOL    HW1 4232   4.976   4.116   6.192
 1111SOL    HW2 4233   4.855   4.208   6.251
 1112SOL     OW 4234   6.333   6.987   3.644
 1112SOL    HW1 4235   6.402   6.941   3.588
 1112SOL    HW2 4236   6.360   6.983   3.740
 1113SOL     OW 4237   6.262   3.910   1.853
 1113SOL    HW1 4238   6.192   3.961   1.903
 1113SOL    HW2 4239   6.236   3.903   1.756
 1114SOL     OW 4240   3.691   2.246   5.955
 1114SOL    HW1 4241   3.751   2.192   6.014
 1114SOL    HW2 4242   3.699   2.343   5.979
 1115SOL     OW 4243   3.937   4.416   5.617
 1115SOL    HW1 4244   3.886   4.336   5.651
 1115SOL    HW2 4245   4.018   4.386   5.568
 1116SOL     OW 4246   5.276   0.798   0.251
 1116SOL    HW1 4247   5.281   0.758   0.343
 1116SOL    HW2 4248   5.329   0.742   0.187
 1117SOL     OW 4249   0.852   2.362   1.426
 1117SOL    HW1 4250   0.920   2.377   1.354
 1117SOL    HW2 4251   0.797   2.282   1.403
 1118SOL     OW 4252   2.410   5.924   6.789
 1118SOL    HW1 4253   2.313   5.933   6.769
 1118SOL    HW2 4254   2.442   6.004   6.839
 1119SOL     OW 4255   4.398   4.515   2.505
 1119SOL    HW1 4256   4.308   4.559   2.498
 1119SOL    HW2 4257   4.427   4.484   2.415
 1120SOL     OW 4258   6.232   5.864   1.173
 1120SOL    HW1 4259   6.141   5.901   1.156
 1120SOL    HW2 4260   6.300   5.938   1.164
 1121SOL     OW 4261   0.859   4.809   4.470
 1121SOL    HW1 4262   0.784   4.874   4.457
 1121SOL    HW2 4263   0.822   4.716   4.468
 1122SOL     OW 4264   6.310   2.736   1.994
 1122SOL    HW1 4265   6.391   2.776   1.951
 1122SOL    HW2 4266   6.240   2.721   1.925
 1123SOL     OW 4267   4.477   2.142   3.651
 1123SOL    HW1 4268   4.572   2.116   3.665
 1123SOL    HW2 4269   4.419   2.099   3.721
 1124SOL     OW 4270   1.320   3.546   5.288
 1124SOL    HW1 4271   1.271   3.459   5.285
 1124SOL    HW2 4272   1.348   3.566   5.382
 1125SOL     OW 4273   1.707   2.831   4.697
 1125SOL    HW1 4274   1.666   2.744   4.724
 1125SOL    HW2 4275   1.669   2.904   4.753
 1126SOL     OW 4276   3.922   6.207   5.416
 1126SOL    HW1 4277   3.938   6.300   5.381
 1126SOL    HW2 4278   3.924   6.143   5.340
 1127SOL     OW 4279   5.855   6.595   4.409
 1127SOL    HW1 4280   5.909   6.629   4.486
 1127SOL    HW2 4281   5.841   6.668   4.343
 1128SOL     OW 4282   5.704   1.214   4.825
 1128SOL    HW1 4283   5.634   1.252   4.765
 1128SOL    HW2 4284   5.701   1.260   4.914
 1129SOL     OW 4285   1.941   6.832   0.428
 1129SOL    HW1 4286   1.888   6.914   0.406
 1129SOL    HW2 4287   1.973   6.837   0.522
 1130SOL     OW 4288   1.674   5.079   1.644
 1130SOL    HW1 4289   1.615   5.015   1.595
 1130SOL    HW2 4290   1.622   5.162   1.665
 1131SOL     OW 4291   1.682   0.177   4.775
 1131SOL    HW1 4292   1.684   0.270   4.739
 1131SOL    HW2 4293   1.587   0.144   4.776
 1132SOL     OW 4294   5.006   0.435   2.633
 1132SOL    HW1 4295   5.045   0.482   2.554
 1132SOL    HW2 4296   4.944   0.496   2.682
 1133SOL     OW 4297   1.313   0.417   6.273
 1133SOL    HW1 4298   1.263   0.394   6.356
 1133SOL    HW2 4299   1.248   0.444   6.202
 1134SOL     OW 4300   5.360   6.800   1.959
 1134SOL    HW1 4301   5.347   6.707   1.994
 1134SOL    HW2 4302   5.271   6.837   1.930
 1135SOL     OW 4303   2.603   6.257   3.824
 1135SOL    HW1 4304   2.664   6.227   3.750
 1135SOL    HW2 4305   2.587   6.181   3.886
 1136SOL     OW 4306   3.589   5.602   3.293
 1136SOL    HW1 4307   3.656   5.664   3.333
 1136SOL    HW2 4308   3.635   5.521   3.257
 1137SOL     OW 4309   0.936   6.085   6.689
 1137SOL    HW1 4310   0.966   6.003   6.640
 1137SOL    HW2 4311   0.931   6.162   6.625
 1138SOL     OW 4312   1.852   2.705   5.382
 1138SOL    HW1 4313   1.903   2.789   5.399
 1138SOL    HW2 4314   1.770   2.703   5.439
 1139SOL     OW 4315   2.349   4.800   3.949
 1139SOL    HW1 4316   2.360   4.813   3.851
 1139SOL    HW2 4317   2.334   4.888   3.993
 1140SOL     OW 4318   1.804   0.790   2.034
 1140SOL    HW1 4319   1.836   0.719   2.097
 1140SOL    HW2 4320   1.771   0.869   2.086
 1141SOL     OW 4321   6.122   5.168   6.400
 1141SOL    HW1 4322   6.218   5.167   6.373
 1141SOL    HW2 4323   6.083   5.258   6.381
 1142SOL     OW 4324   2.521   7.020   3.457
 1142SOL    HW1 4325   2.427   7.003   3.425
 1142SOL    HW2 4326   2.570   6.933   3.461
 1143SOL     OW 4327   1.352   2.765   2.344
 1143SOL    HW1 4328   1.428   2.827   2.363
 1143SOL    HW2 4329   1.385   2.671   2.338
 1144SOL     OW 4330   5.410   4.305   2.831
 1144SOL    HW1 4331   5.344   4.256   2.773
 1144SOL    HW2 4332   5.501   4.298   2.791
 1145SOL     OW 4333   0.999   2.453   0.517
 1145SOL    HW1 4334   0.913   2.433   0.563
 1145SOL    HW2 4335   0.983   2.516   0.442
 1146SOL     OW 4336   0.784   2.022   1.320
 1146SOL    HW1 4337   0.771   2.061   1.229
 1146SOL    HW2 4338   0.721   2.067   1.384
 1147SOL     OW 4339   3.135   5.908   0.671
 1147SOL    HW1 4340   3.106   5.825   0.719
 1147SOL    HW2 4341   3.132   5.986   0.735
 1148SOL     OW 4342   3.951   6.265   2.018
 1148SOL    HW1 4343   3.880   6.262   1.947
 1148SOL    HW2 4344   3.963   6.175   2.059
 1149SOL     OW 4345   6.102   2.986   1.466
 1149SOL    HW1 4346   6.160   2.942   1.397
 1149SOL    HW2 4347   6.132   2.957   1.557
 1150SOL     OW 4348   1.291   4.080   6.848
 1150SOL    HW1 4349   1.219   4.086   6.778
 1150SOL    HW2 4350   1.249   4.079   6.939
 1151SOL     OW 4351   6.050   5.200   4.246
 1151SOL    HW1 4352   6.136   5.200   4.195
 1151SOL    HW2 4353   6.050   5.124   4.311
 1152SOL     OW 4354   4.309   6.596   6.987
 1152SOL    HW1 4355   4.261   6.563   6.905
 1152SOL    HW2 4356   4.369   6.672   6.963
 1153SOL     OW 4357   6.890   7.013   1.081
 1153SOL    HW1 4358   6.825   0.010   1.006
 1153SOL    HW2 4359   6.841   7.014   1.168
 1154SOL     OW 4360   0.688   3.892   1.944
 1154SOL    HW1 4361   0.710   3.869   1.849
 1154SOL    HW2 4362   0.740   3.973   1.972
 1155SOL     OW 4363   2.259   6.638   5.149
 1155SOL    HW1 4364   2.347   6.604   5.117
 1155SOL    HW2 4365   2.229   6.714   5.092
 1156SOL     OW 4366   4.379   1.816   5.087
 1156SOL    HW1 4367   4.297   1.767   5.059
 1156SOL    HW2 4368   4.424   1.854   5.006
 1157SOL     OW 4369   5.124   1.357   5.439
 1157SOL    HW1 4370   5.084   1.267   5.456
 1157SOL    HW2 4371   5.116   1.379   5.341
 1158SOL     OW 4372   5.805   6.127   4.335
 1158SOL    HW1 4373   5.729   6.071   4.369
 1158SOL    HW2 4374   5.881   6.068   4.311
 1159SOL     OW 4375   6.140   6.730   3.069
 1159SOL    HW1 4376   6.192   6.677   3.002
 1159SOL    HW2 4377   6.190   6.814   3.091
 1160SOL     OW 4378   4.097   6.030   1.245
 1160SOL    HW1 4379   3.998   6.033   1.230
 1160SOL    HW2 4380   4.143   6.006   1.159
 1161SOL     OW 4381   0.034   5.485   5.851
 1161SOL    HW1 4382   0.008   5.443   5.938
 1161SOL    HW2 4383   0.123   5.529   5.860
 1162SOL     OW 4384   2.191   2.915   5.828
 1162SOL    HW1 4385   2.117   2.857   5.792
 1162SOL    HW2 4386   2.269   2.911   5.765
 1163SOL     OW 4387   5.886   4.822   1.552
 1163SOL    HW1 4388   5.966   4.854   1.604
 1163SOL    HW2 4389   5.805   4.828   1.610
 1164SOL     OW 4390   5.569   2.366   4.776
 1164SOL    HW1 4391   5.604   2.398   4.863
 1164SOL    HW2 4392   5.627   2.292   4.741
 1165SOL     OW 4393   4.436   6.439   3.309
 1165SOL    HW1 4394   4.355   6.492   3.335
 1165SOL    HW2 4395   4.453   6.369   3.379
 1166SOL     OW 4396   1.937   6.619   0.057
 1166SOL    HW1 4397   1.918   6.570   0.142
 1166SOL    HW2 4398   1.859   6.611   7.016
 1167SOL     OW 4399   5.150   4.058   1.668
 1167SOL    HW1 4400   5.168   4.151   1.634
 1167SOL    HW2 4401   5.068   4.059   1.725
 1168SOL     OW 4402   6.222   2.167   1.882
 1168SOL    HW1 4403   6.254   2.125   1.797
 1168SOL    HW2 4404   6.251   2.112   1.960
 1169SOL     OW 4405   5.696   1.657   5.589
 1169SOL    HW1 4406   5.655   1.569   5.613
 1169SOL    HW2 4407   5.706   1.663   5.489
 1170SOL     OW 4408   4.574   0.427   2.761
 1170SOL    HW1 4409   4.514   0.496   2.800
 1170SOL    HW2 4410   4.520   0.352   2.724
 1171SOL     OW 4411   2.558   0.173   0.474
 1171SOL    HW1 4412   2.527   0.121   0.553
 1171SOL    HW2 4413   2.509   0.144   0.392
 1172SOL     OW 4414   5.427   4.091   1.051
 1172SOL    HW1 4415   5.344   4.071   1.102
 1172SOL    HW2 4416   5.472   4.006   1.025
 1173SOL     OW 4417   2.106   1.452   1.402
 1173SOL    HW1 4418   2.142   1.477   1.312
 1173SOL    HW2 4419   2.170   1.391   1.447
 1174SOL     OW 4420   3.338   4.004   1.861
 1174SOL    HW1 4421   3.394   4.045   1.933
 1174SOL    HW2 4422   3.256   3.963   1.902
 1175SOL     OW 4423   4.730   3.450   5.742
 1175SOL    HW1 4424   4.796   3.510   5.697
 1175SOL    HW2 4425   4.704   3.377   5.678
 1176SOL     OW 4426   4.717   3.464   6.178
 1176SOL    HW1 4427   4.802   3.487   6.131
 1176SOL    HW2 4428   4.706   3.365   6.180
 1177SOL     OW 4429   6.668   3.560   5.005
 1177SOL    HW1 4430   6.739   3.503   4.964
 1177SOL    HW2 4431   6.609   3.504   5.063
 1178SOL     OW 4432   2.908   2.909   0.528
 1178SOL    HW1 4433   2.842   2.984   0.529
 1178SOL    HW2 4434   2.874   2.833   0.584
 1179SOL     OW 4435   2.196   5.795   0.385
 1179SOL    HW1 4436   2.181   5.747   0.471
 1179SOL    HW2 4437   2.276   5.756   0.339
 1180SOL     OW 4438   2.599   6.117   3.075
 1180SOL    HW1 4439   2.602   6.199   3.017
 1180SOL    HW2 4440   2.691   6.077   3.080
 1181SOL     OW 4441   0.616   5.307   5.670
 1181SOL    HW1 4442   0.531   5.309   5.723
 1181SOL    HW2 4443   0.602   5.252   5.587
 1182SOL     OW 4444   4.069   5.753   3.409
 1182SOL    HW1 4445   4.138   5.823   3.428
 1182SOL    HW2 4446   4.029   5.721   3.495
 1183SOL     OW 4447   2.132   4.387   0.600
 1183SOL    HW1 4448   2.155   4.327   0.676
 1183SOL    HW2 4449   2.137   4.336   0.514
 1184SOL     OW 4450   0.381   0.326   4.988
 1184SOL    HW1 4451   0.352   0.405   5.041
 1184SOL    HW2 4452   0.420   0.356   4.901
 1185SOL     OW 4453   0.564   1.060   0.097
 1185SOL    HW1 4454   0.619   0.997   0.042
 1185SOL    HW2 4455   0.467   1.047   0.073
 1186SOL     OW 4456   5.135   5.586   5.624
 1186SOL    HW1 4457   5.097   5.499   5.654
 1186SOL    HW2 4458   5.061   5.653   5.611
 1187SOL     OW 4459   6.452   6.465   6.801
 1187SOL    HW1 4460   6.487   6.551   6.839
 1187SOL    HW2 4461   6.397   6.483   6.720
 1188SOL     OW 4462   3.489   6.121   4.957
 1188SOL    HW1 4463   3.427   6.072   5.019
 1188SOL    HW2 4464   3.567   6.157   5.010
 1189SOL     OW 4465   6.659   2.525   2.972
 1189SOL    HW1 4466   6.730   2.467   3.011
 1189SOL    HW2 4467   6.701   2.603   2.925
 1190SOL     OW 4468   2.614   5.664   4.004
 1190SOL    HW1 4469   2.663   5.743   3.966
 1190SOL    HW2 4470   2.516   5.678   3.995
 1191SOL     OW 4471   4.914   5.216   3.599
 1191SOL    HW1 4472   4.906   5.127   3.645
 1191SOL    HW2 4473   4.866   5.285   3.652
 1192SOL     OW 4474   3.775   5.384   3.114
 1192SOL    HW1 4475   3.691   5.356   3.068
 1192SOL    HW2 4476   3.783   5.483   3.113
 1193SOL     OW 4477   6.325   3.650   4.744
 1193SOL    HW1 4478   6.360   3.664   4.836
 1193SOL    HW2 4479   6.231   3.616   4.748
 1194SOL     OW 4480   5.471   0.032   1.627
 1194SOL    HW1 4481   5.546   0.048   1.562
 1194SOL    HW2 4482   5.506   7.004   1.707
 1195SOL     OW 4483   6.579   4.504   1.815
 1195SOL    HW1 4484   6.663   4.554   1.836
 1195SOL    HW2 4485   6.583   4.468   1.722
 1196SOL     OW 4486   6.851   5.737   2.966
 1196SOL    HW1 4487   6.910   5.668   2.923
 1196SOL    HW2 4488   6.887   5.760   3.056
 1197SOL     OW 4489   4.096   0.724   5.468
 1197SOL    HW1 4490   4.105   0.632   5.506
 1197SOL    HW2 4491   4.061   0.719   5.375
 1198SOL     OW 4492   1.431   3.169   1.595
 1198SOL    HW1 4493   1.516   3.145   1.549
 1198SOL    HW2 4494   1.438   3.146   1.693
 1199SOL     OW 4495   4.602   4.780   2.075
 1199SOL    HW1 4496   4.534   4.735   2.017
 1199SOL    HW2 4497   4.652   4.712   2.127
 1200SOL     OW 4498   3.535   3.607   3.446
 1200SOL    HW1 4499   3.606   3.558   3.497
 1200SOL    HW2 4500   3.493   3.545   3.380
 1201SOL     OW 4501   1.234   0.950   4.624
 1201SOL    HW1 4502   1.232   0.995   4.534
 1201SOL    HW2 4503   1.327   0.920   4.644
 1202SOL     OW 4504   0.772   5.772   6.198
 1202SOL    HW1 4505   0.819   5.744   6.114
 1202SOL    HW2 4506   0.674   5.781   6.180
 1203SOL     OW 4507   6.066   6.363   0.127
 1203SOL    HW1 4508   6.086   6.291   0.061
 1203SOL    HW2 4509   5.988   6.417   0.096
 1204SOL     OW 4510   2.960   6.483   1.115
 1204SOL    HW1 4511   3.035   6.511   1.055
 1204SOL    HW2 4512   2.991   6.407   1.172
 1205SOL     OW 4513   5.452   3.798   1.210
 1205SOL    HW1 4514   5.409   3.850   1.283
 1205SOL    HW2 4515   5.533   3.750   1.246
 1206SOL     OW 4516   3.153   2.833   5.247
 1206SOL    HW1 4517   3.138   2.913   5.188
 1206SOL    HW2 4518   3.072   2.819   5.305
 1207SOL     OW 4519   2.027   6.558   1.644
 1207SOL    HW1 4520   2.105   6.614   1.668
 1207SOL    HW2 4521   2.013   6.488   1.715
 1208SOL     OW 4522   3.300   3.444   0.577
 1208SOL    HW1 4523   3.348   3.504   0.513
 1208SOL    HW2 4524   3.201   3.452   0.562
 1209SOL     OW 4525   4.340   0.881   4.855
 1209SOL    HW1 4526   4.244   0.872   4.880
 1209SOL    HW2 4527   4.351   0.959   4.792
 1210SOL     OW 4528   2.733   0.277   3.214
 1210SOL    HW1 4529   2.634   0.286   3.219
 1210SOL    HW2 4530   2.761   0.273   3.118
 1211SOL     OW 4531   1.270   3.706   1.526
 1211SOL    HW1 4532   1.332   3.687   1.450
 1211SOL    HW2 4533   1.179   3.727   1.490
 1212SOL     OW 4534   6.246   0.380   6.708
 1212SOL    HW1 4535   6.182   0.370   6.632
 1212SOL    HW2 4536   6.205   0.346   6.792
 1213SOL     OW 4537   6.445   2.395   0.664
 1213SOL    HW1 4538   6.521   2.343   0.702
 1213SOL    HW2 4539   6.437   2.482   0.712
 1214SOL     OW 4540   0.421   2.992   0.228
 1214SOL    HW1 4541   0.462   3.067   0.281
 1214SOL    HW2 4542   0.494   2.937   0.188
 1215SOL     OW 4543   1.455   3.770   3.670
 1215SOL    HW1 4544   1.479   3.708   3.745
 1215SOL    HW2 4545   1.530   3.835   3.655
 1216SOL     OW 4546   5.051   0.805   1.357
 1216SOL    HW1 4547   5.069   0.894   1.315
 1216SOL    HW2 4548   4.990   0.816   1.435
 1217SOL     OW 4549   1.648   4.854   0.772
 1217SOL    HW1 4550   1.615   4.794   0.845
 1217SOL    HW2 4551   1.629   4.812   0.683
 1218SOL     OW 4552   1.998   4.407   4.137
 1218SOL    HW1 4553   2.047   4.395   4.223
 1218SOL    HW2 4554   2.028   4.492   4.093
 1219SOL     OW 4555   5.529   5.107   2.028
 1219SOL    HW1 4556   5.475   5.023   2.024
 1219SOL    HW2 4557   5.576   5.121   1.941
 1220SOL     OW 4558   0.616   4.817   3.279
 1220SOL    HW1 4559   0.535   4.856   3.323
 1220SOL    HW2 4560   0.662   4.888   3.225
 1221SOL     OW 4561   5.030   3.620   5.782
 1221SOL    HW1 4562   4.964   3.627   5.706
 1221SOL    HW2 4563   5.111   3.673   5.760
 1222SOL     OW 4564   6.548   6.950   6.579
 1222SOL    HW1 4565   6.604   0.001   6.621
 1222SOL    HW2 4566   6.451   6.977   6.584
 1223SOL     OW 4567   3.851   0.645   0.796
 1223SOL    HW1 4568   3.942   0.612   0.822
 1223SOL    HW2 4569   3.839   0.632   0.698
 1224SOL     OW 4570   2.488   6.354   0.439
 1224SOL    HW1 4571   2.414   6.412   0.403
 1224SOL    HW2 4572   2.550   6.410   0.494
 1225SOL     OW 4573   3.402   3.835   6.434
 1225SOL    HW1 4574   3.453   3.904   6.384
 1225SOL    HW2 4575   3.339   3.788   6.372
 1226SOL     OW 4576   2.341   5.333   0.966
 1226SOL    HW1 4577   2.294   5.421   0.954
 1226SOL    HW2 4578   2.342   5.310   1.063
 1227SOL     OW 4579   6.929   3.886   0.195
 1227SOL    HW1 4580   0.008   3.888   0.180
 1227SOL    HW2 4581   6.898   3.791   0.195
 1228SOL     OW 4582   4.374   2.757   6.729
 1228SOL    HW1 4583   4.363   2.676   6.672
 1228SOL    HW2 4584   4.344   2.738   6.822
 1229SOL     OW 4585   3.371   4.655   6.198
 1229SOL    HW1 4586   3.426   4.574   6.219
 1229SOL    HW2 4587   3.430   4.736   6.196
 1230SOL     OW 4588   4.553   0.095   3.525
 1230SOL    HW1 4589   4.506   0.151   3.594
 1230SOL    HW2 4590   4.490   0.075   3.451
 1231SOL     OW 4591   1.286   3.863   4.283
 1231SOL    HW1 4592   1.270   3.772   4.244
 1231SOL    HW2 4593   1.366   3.860   4.343
 1232SOL     OW 4594   0.806   1.963   5.977
 1232SOL    HW1 4595   0.845   1.905   6.048
 1232SOL    HW2 4596   0.877   1.985   5.909
 1233SOL     OW 4597   1.565   3.213   4.432
 1233SOL    HW1 4598   1.646   3.268   4.455
 1233SOL    HW2 4599   1.530   3.169   4.515
 1234SOL     OW 4600   6.477   4.011   4.846
 1234SOL    HW1 4601   6.447   3.952   4.771
 1234SOL    HW2 4602   6.446   4.105   4.829
 1235SOL     OW 4603   6.910   6.093   2.699
 1235SOL    HW1 4604   6.815   6.101   2.669
 1235SOL    HW2 4605   6.969   6.141   2.634
 1236SOL     OW 4606   5.472   1.389   0.018
 1236SOL    HW1 4607   5.398   1.353   0.075
 1236SOL    HW2 4608   5.509   1.316   6.981
 1237SOL     OW 4609   2.603   5.120   6.721
 1237SOL    HW1 4610   2.511   5.106   6.758
 1237SOL    HW2 4611   2.600   5.115   6.621
 1238SOL     OW 4612   2.071   0.752   0.661
 1238SOL    HW1 4613   2.005   0.826   0.673
 1238SOL    HW2 4614   2.036   0.669   0.704
 1239SOL     OW 4615   6.862   6.511   6.337
 1239SOL    HW1 4616   6.916   6.503   6.421
 1239SOL    HW2 4617   6.911   6.567   6.271
 1240SOL     OW 4618   5.768   6.013   2.125
 1240SOL    HW1 4619   5.822   5.963   2.192
 1240SOL    HW2 4620   5.814   6.098   2.101
 1241SOL     OW 4621   6.758   3.658   4.164
 1241SOL    HW1 4622   6.670   3.620   4.136
 1241SOL    HW2 4623   6.826   3.640   4.093
 1242SOL     OW 4624   1.515   3.452   1.075
 1242SOL    HW1 4625   1.445   3.383   1.090
 1242SOL    HW2 4626   1.547   3.447   0.980
 1243SOL     OW 4627   1.107   6.272   5.142
 1243SOL    HW1 4628   1.205   6.288   5.152
 1243SOL    HW2 4629   1.066   6.262   5.233
 1244SOL     OW 4630   0.227   5.833   3.327
 1244SOL    HW1 4631   0.276   5.752   3.358
 1244SOL    HW2 4632   0.284   5.914   3.338
 1245SOL     OW 4633   4.392   3.819   6.454
 1245SOL    HW1 4634   4.445   3.734   6.455
 1245SOL    HW2 4635   4.453   3.897   6.462
 1246SOL     OW 4636   2.243   6.174   2.220
 1246SOL    HW1 4637   2.148   6.160   2.191
 1246SOL    HW2 4638   2.256   6.269   2.245
 1247SOL     OW 4639   2.809   0.170   6.805
 1247SOL    HW1 4640   2.816   0.146   6.708
 1247SOL    HW2 4641   2.761   0.257   6.815
 1248SOL     OW 4642   2.362   6.798   4.069
 1248SOL    HW1 4643   2.426   6.872   4.048
 1248SOL    HW2 4644   2.335   6.752   3.984
 1249SOL     OW 4645   5.754   2.636   2.157
 1249SOL    HW1 4646   5.851   2.620   2.145
 1249SOL    HW2 4647   5.708   2.635   2.068
 1250SOL     OW 4648   0.133   4.541   4.858
 1250SOL    HW1 4649   0.143   4.616   4.793
 1250SOL    HW2 4650   0.039   4.537   4.891
 1251SOL     OW 4651   3.333   0.167   4.528
 1251SOL    HW1 4652   3.306   0.076   4.560
 1251SOL    HW2 4653   3.361   0.161   4.432
 1252SOL     OW 4654   3.460   3.656   6.179
 1252SOL    HW1 4655   3.517   3.584   6.219
 1252SOL    HW2 4656   3.477   3.662   6.081
 1253SOL     OW 4657   3.949   5.914   1.987
 1253SOL    HW1 4658   3.944   5.908   1.888
 1253SOL    HW2 4659   3.950   5.822   2.027
 1254SOL     OW 4660   6.365   3.285   2.644
 1254SOL    HW1 4661   6.442   3.226   2.669
 1254SOL    HW2 4662   6.302   3.233   2.586
 1255SOL     OW 4663   6.882   1.285   4.683
 1255SOL    HW1 4664   6.934   1.368   4.666
 1255SOL    HW2 4665   6.823   1.298   4.762
 1256SOL     OW 4666   6.867   0.217   2.965
 1256SOL    HW1 4667   6.947   0.216   2.905
 1256SOL    HW2 4668   6.895   0.236   3.059
 1257SOL     OW 4669   0.019   6.994   3.680
 1257SOL    HW1 4670   0.110   6.973   3.642
 1257SOL    HW2 4671   0.012   0.072   3.697
 1258SOL     OW 4672   0.243   4.906   3.667
 1258SOL    HW1 4673   0.322   4.894   3.728
 1258SOL    HW2 4674   0.218   4.817   3.628
 1259SOL     OW 4675   3.913   1.946   4.336
 1259SOL    HW1 4676   3.931   1.862   4.387
 1259SOL    HW2 4677   3.848   1.928   4.263
 1260SOL     OW 4678   0.920   1.852   0.148
 1260SOL    HW1 4679   0.915   1.828   0.245
 1260SOL    HW2 4680   1.008   1.825   0.111
 1261SOL     OW 4681   0.147   5.690   6.628
 1261SOL    HW1 4682   0.054   5.722   6.645
 1261SOL    HW2 4683   0.168   5.616   6.692
 1262SOL     OW 4684   5.272   5.241   2.249
 1262SOL    HW1 4685   5.313   5.308   2.187
 1262SOL    HW2 4686   5.273   5.151   2.206
 1263SOL     OW 4687   0.453   1.262   2.714
 1263SOL    HW1 4688   0.506   1.283   2.796
 1263SOL    HW2 4689   0.366   1.311   2.717
 1264SOL     OW 4690   1.028   3.452   6.255
 1264SOL    HW1 4691   1.120   3.443   6.294
 1264SOL    HW2 4692   1.035   3.474   6.158
 1265SOL     OW 4693   6.611   5.477   4.653
 1265SOL    HW1 4694   6.627   5.566   4.612
 1265SOL    HW2 4695   6.616   5.406   4.582
 1266SOL     OW 4696   0.468   0.342   4.537
 1266SOL    HW1 4697   0.472   0.393   4.452
 1266SOL    HW2 4698   0.560   0.331   4.575
 1267SOL     OW 4699   5.043   0.891   1.951
 1267SOL    HW1 4700   5.055   0.948   1.869
 1267SOL    HW2 4701   5.105   0.813   1.946
 1268SOL     OW 4702   3.817   2.719   5.865
 1268SOL    HW1 4703   3.893   2.686   5.809
 1268SOL    HW2 4704   3.765   2.787   5.813
 1269SOL     OW 4705   5.504   2.457   4.071
 1269SOL    HW1 4706   5.447   2.398   4.015
 1269SOL    HW2 4707   5.467   2.550   4.071
 1270SOL     OW 4708   1.869   4.726   2.203
 1270SOL    HW1 4709   1.932   4.770   2.267
 1270SOL    HW2 4710   1.912   4.644   2.165
 1271SOL     OW 4711   2.115   0.730   1.035
 1271SOL    HW1 4712   2.034   0.783   1.010
 1271SOL    HW2 4713   2.194   0.761   0.982
 1272SOL     OW 4714   6.590   4.070   6.300
 1272SOL    HW1 4715   6.591   3.971   6.315
 1272SOL    HW2 4716   6.679   4.099   6.265
 1273SOL     OW 4717   1.544   3.747   4.716
 1273SOL    HW1 4718   1.641   3.724   4.720
 1273SOL    HW2 4719   1.521   3.807   4.793
 1274SOL     OW 4720   0.299   4.678   1.395
 1274SOL    HW1 4721   0.217   4.735   1.392
 1274SOL    HW2 4722   0.371   4.727   1.444
 1275SOL     OW 4723   2.841   0.205   3.465
 1275SOL    HW1 4724   2.807   0.226   3.373
 1275SOL    HW2 4725   2.770   0.158   3.517
 1276SOL     OW 4726   5.482   4.633   4.721
 1276SOL    HW1 4727   5.550   4.633   4.647
 1276SOL    HW2 4728   5.418   4.709   4.707
 1277SOL     OW 4729   1.219   5.177   0.133
 1277SOL    HW1 4730   1.257   5.256   0.086
 1277SOL    HW2 4731   1.120   5.174   0.119
 1278SOL     OW 4732   0.869   6.901   3.704
 1278SOL    HW1 4733   0.783   6.895   3.655
 1278SOL    HW2 4734   0.923   6.818   3.689
 1279SOL     OW 4735   2.216   3.714   5.961
 1279SOL    HW1 4736   2.223   3.666   6.049
 1279SOL    HW2 4737   2.124   3.753   5.952
 1280SOL     OW 4738   3.428   0.530   3.717
 1280SOL    HW1 4739   3.442   0.466   3.642
 1280SOL    HW2 4740   3.517   0.556   3.757
 1281SOL     OW 4741   2.772   6.013   4.203
 1281SOL    HW1 4742   2.687   6.048   4.162
 1281SOL    HW2 4743   2.771   5.913   4.200
 1282SOL     OW 4744   0.029   2.715   0.407
 1282SOL    HW1 4745   7.002   2.780   0.466
 1282SOL    HW2 4746   0.095   2.764   0.350
 1283SOL     OW 4747   6.447   4.142   5.413
 1283SOL    HW1 4748   6.505   4.161   5.334
 1283SOL    HW2 4749   6.406   4.228   5.446
 1284SOL     OW 4750   3.980   0.874   1.193
 1284SOL    HW1 4751   4.036   0.797   1.163
 1284SOL    HW2 4752   4.032   0.959   1.183
 1285SOL     OW 4753   3.836   1.482   5.205
 1285SOL    HW1 4754   3.795   1.407   5.153
 1285SOL    HW2 4755   3.772   1.512   5.276
 1286SOL     OW 4756   4.816   3.032   1.117
 1286SOL    HW1 4757   4.728   3.075   1.097
 1286SOL    HW2 4758   4.865   3.086   1.185
 1287SOL     OW 4759   5.582   4.726   5.208
 1287SOL    HW1 4760   5.667   4.765   5.243
 1287SOL    HW2 4761   5.579   4.735   5.109
 1288SOL     OW 4762   4.655   4.647   6.121
 1288SOL    HW1 4763   4.631   4.742   6.101
 1288SOL    HW2 4764   4.621   4.624   6.213
 1289SOL     OW 4765   6.516   0.712   1.794
 1289SOL    HW1 4766   6.449   0.656   1.745
 1289SOL    HW2 4767   6.607   0.670   1.787
 1290SOL     OW 4768   1.164   0.399   0.498
 1290SOL    HW1 4769   1.145   0.496   0.485
 1290SOL    HW2 4770   1.162   0.377   0.596
 1291SOL     OW 4771   6.521   4.963   4.545
 1291SOL    HW1 4772   6.558   5.055   4.555
 1291SOL    HW2 4773   6.449   4.963   4.475
 1292SOL     OW 4774   0.026   5.556   2.495
 1292SOL    HW1 4775   0.093   5.628   2.479
 1292SOL    HW2 4776   6.983   5.583   2.567
 1293SOL     OW 4777   2.467   1.721   0.171
 1293SOL    HW1 4778   2.563   1.697   0.157
 1293SOL    HW2 4779   2.429   1.755   0.085
 1294SOL     OW 4780   1.842   4.074   6.570
 1294SOL    HW1 4781   1.830   4.167   6.536
 1294SOL    HW2 4782   1.786   4.011   6.516
 1295SOL     OW 4783   0.244   4.129   1.197
 1295SOL    HW1 4784   0.262   4.033   1.216
 1295SOL    HW2 4785   0.288   4.186   1.267
 1296SOL     OW 4786   4.990   0.017   5.499
 1296SOL    HW1 4787   4.999   6.991   5.411
 1296SOL    HW2 4788   4.973   6.970   5.571
 1297SOL     OW 4789   0.925   6.603   1.820
 1297SOL    HW1 4790   0.929   6.587   1.722
 1297SOL    HW2 4791   0.856   6.543   1.860
 1298SOL     OW 4792   5.108   6.185   3.146
 1298SOL    HW1 4793   5.022   6.220   3.111
 1298SOL    HW2 4794   5.174   6.260   3.155
 1299SOL     OW 4795   2.107   2.819   3.857
 1299SOL    HW1 4796   2.122   2.857   3.765
 1299SOL    HW2 4797   2.192   2.822   3.909
 1300SOL     OW 4798   2.068   3.978   1.233
 1300SOL    HW1 4799   2.161   3.969   1.268
 1300SOL    HW2 4800   2.046   3.900   1.175
 1301SOL     OW 4801   0.691   0.217   1.686
 1301SOL    HW1 4802   0.762   0.152   1.663
 1301SOL    HW2 4803   0.713   0.307   1.647
 1302SOL     OW 4804   5.558   0.486   5.492
 1302SOL    HW1 4805   5.657   0.477   5.486
 1302SOL    HW2 4806   5.532   0.500   5.588
 1303SOL     OW 4807   4.120   0.247   1.659
 1303SOL    HW1 4808   4.217   0.270   1.646
 1303SOL    HW2 4809   4.090   0.284   1.747
 1304SOL     OW 4810   1.251   1.434   1.219
 1304SOL    HW1 4811   1.201   1.411   1.302
 1304SOL    HW2 4812   1.273   1.532   1.220
 1305SOL     OW 4813   5.498   4.214   6.054
 1305SOL    HW1 4814   5.485   4.272   6.135
 1305SOL    HW2 4815   5.533   4.269   5.979
 1306SOL     OW 4816   0.645   6.129   4.717
 1306SOL    HW1 4817   0.711   6.162   4.785
 1306SOL    HW2 4818   0.570   6.195   4.708
 1307SOL     OW 4819   1.935   3.108   3.721
 1307SOL    HW1 4820   1.857   3.166   3.700
 1307SOL    HW2 4821   1.918   3.016   3.687
 1308SOL     OW 4822   6.715   6.282   6.294
 1308SOL    HW1 4823   6.755   6.368   6.327
 1308SOL    HW2 4824   6.663   6.299   6.211
 1309SOL     OW 4825   5.176   4.715   5.842
 1309SOL    HW1 4826   5.198   4.740   5.747
 1309SOL    HW2 4827   5.091   4.662   5.843
 1310SOL     OW 4828   0.707   3.982   3.992
 1310SOL    HW1 4829   0.732   4.050   4.061
 1310SOL    HW2 4830   0.784   3.968   3.930
 1311SOL     OW 4831   6.318   5.718   6.314
 1311SOL    HW1 4832   6.240   5.658   6.295
 1311SOL    HW2 4833   6.330   5.782   6.238
 1312SOL     OW 4834   1.483   1.060   5.936
 1312SOL    HW1 4835   1.510   1.136   5.996
 1312SOL    HW2 4836   1.545   0.983   5.951
 1313SOL     OW 4837   6.406   5.447   2.945
 1313SOL    HW1 4838   6.489   5.502   2.941
 1313SOL    HW2 4839   6.344   5.475   2.871
 1314SOL     OW 4840   2.933   1.883   4.596
 1314SOL    HW1 4841   2.904   1.862   4.503
 1314SOL    HW2 4842   2.885   1.823   4.660
 1315SOL     OW 4843   6.615   0.618   3.740
 1315SOL    HW1 4844   6.696   0.561   3.730
 1315SOL    HW2 4845   6.533   0.561   3.742
 1316SOL     OW 4846   3.739   0.273   5.299
 1316SOL    HW1 4847   3.805   0.330   5.249
 1316SOL    HW2 4848   3.658   0.259   5.242
 1317SOL     OW 4849   2.192   4.513   5.483
 1317SOL    HW1 4850   2.281   4.547   5.453
 1317SOL    HW2 4851   2.135   4.494   5.403
 1318SOL     OW 4852   2.041   3.168   6.947
 1318SOL    HW1 4853   2.097   3.222   7.011
 1318SOL    HW2 4854   2.088   3.083   6.925
 1319SOL     OW 4855   6.965   6.140   6.914
 1319SOL    HW1 4856   6.918   6.214   6.961
 1319SOL    HW2 4857   0.043   6.144   6.935
 1320SOL     OW 4858   3.359   2.991   6.583
 1320SOL    HW1 4859   3.385   2.937   6.502
 1320SOL    HW2 4860   3.263   2.976   6.603
 1321SOL     OW 4861   4.888   2.266   6.613
 1321SOL    HW1 4862   4.951   2.191   6.630
 1321SOL    HW2 4863   4.798   2.229   6.589
 1322SOL     OW 4864   3.527   1.353   4.630
 1322SOL    HW1 4865   3.527   1.294   4.549
 1322SOL    HW2 4866   3.610   1.409   4.631
 1323SOL     OW 4867   3.600   6.557   0.924
 1323SOL    HW1 4868   3.513   6.533   0.882
 1323SOL    HW2 4869   3.630   6.484   0.985
 1324SOL     OW 4870   1.245   3.702   0.281
 1324SOL    HW1 4871   1.250   3.650   0.196
 1324SOL    HW2 4872   1.153   3.697   0.318
 1325SOL     OW 4873   3.934   6.461   5.327
 1325SOL    HW1 4874   3.853   6.517   5.309
 1325SOL    HW2 4875   4.016   6.511   5.301
 1326SOL     OW 4876   4.704   4.273   5.141
 1326SOL    HW1 4877   4.691   4.285   5.042
 1326SOL    HW2 4878   4.755   4.188   5.157
 1327SOL     OW 4879   0.335   6.754   0.988
 1327SOL    HW1 4880   0.307   6.814   1.063
 1327SOL    HW2 4881   0.434   6.740   0.993
 1328SOL     OW 4882   1.833   3.200   5.867
 1328SOL    HW1 4883   1.866   3.186   5.774
 1328SOL    HW2 4884   1.906   3.238   5.923
 1329SOL     OW 4885   6.864   1.687   2.758
 1329SOL    HW1 4886   6.846   1.606   2.703
 1329SOL    HW2 4887   6.943   1.736   2.721
 1330SOL     OW 4888   0.259   2.138   0.924
 1330SOL    HW1 4889   0.280   2.152   0.827
 1330SOL    HW2 4890   0.247   2.227   0.969
 1331SOL     OW 4891   4.758   2.497   2.521
 1331SOL    HW1 4892   4.789   2.584   2.482
 1331SOL    HW2 4893   4.697   2.451   2.455
 1332SOL     OW 4894   2.250   6.890   0.276
 1332SOL    HW1 4895   2.322   6.856   0.216
 1332SOL    HW2 4896   2.257   6.844   0.365
 1333SOL     OW 4897   3.099   3.844   2.766
 1333SOL    HW1 4898   3.169   3.800   2.710
 1333SOL    HW2 4899   3.141   3.890   2.844
 1334SOL     OW 4900   7.002   2.012   3.358
 1334SOL    HW1 4901   0.020   1.967   3.438
 1334SOL    HW2 4902   0.009   2.108   3.357
 1335SOL     OW 4903   1.731   2.266   2.278
 1335SOL    HW1 4904   1.795   2.238   2.350
 1335SOL    HW2 4905   1.641   2.226   2.296
 1336SOL     OW 4906   3.943   1.565   5.536
 1336SOL    HW1 4907   3.853   1.562   5.492
 1336SOL    HW2 4908   3.937   1.522   5.626
 1337SOL     OW 4909   6.792   1.516   2.558
 1337SOL    HW1 4910   6.730   1.485   2.486
 1337SOL    HW2 4911   6.831   1.604   2.532
 1338SOL     OW 4912   5.977   4.272   4.201
 1338SOL    HW1 4913   5.909   4.292   4.272
 1338SOL    HW2 4914   5.975   4.174   4.180
 1339SOL     OW 4915   6.991   0.380   0.138
 1339SOL    HW1 4916   0.029   0.305   0.169
 1339SOL    HW2 4917   6.992   0.453   0.206
 1340SOL     OW 4918   5.266   1.992   2.465
 1340SOL    HW1 4919   5.261   2.026   2.559
 1340SOL    HW2 4920   5.201   2.043   2.408
 1341SOL     OW 4921   4.361   6.452   0.464
 1341SOL    HW1 4922   4.426   6.513   0.418
 1341SOL    HW2 4923   4.312   6.503   0.535
 1342SOL     OW 4924   2.963   5.353   6.725
 1342SOL    HW1 4925   3.018   5.294   6.783
 1342SOL    HW2 4926   2.871   5.361   6.763
 1343SOL     OW 4927   5.998   5.413   3.159
 1343SOL    HW1 4928   6.052   5.386   3.080
 1343SOL    HW2 4929   5.985   5.333   3.219
 1344SOL     OW 4930   0.863   6.441   4.243
 1344SOL    HW1 4931   0.875   6.343   4.222
 1344SOL    HW2 4932   0.785   6.452   4.305
 1345SOL     OW 4933   1.101   4.709   2.001
 1345SOL    HW1 4934   1.120   4.632   2.061
 1345SOL    HW2 4935   1.065   4.675   1.914
 1346SOL     OW 4936   1.831   5.396   6.142
 1346SOL    HW1 4937   1.766   5.361   6.209
 1346SOL    HW2 4938   1.890   5.465   6.185
 1347SOL     OW 4939   2.400   0.210   6.340
 1347SOL    HW1 4940   2.315   0.239   6.384
 1347SOL    HW2 4941   2.476   0.264   6.376
 1348SOL     OW 4942   0.189   6.171   5.444
 1348SOL    HW1 4943   0.280   6.156   5.484
 1348SOL    HW2 4944   0.165   6.268   5.450
 1349SOL     OW 4945   5.769   2.458   4.097
 1349SOL    HW1 4946   5.798   2.362   4.095
 1349SOL    HW2 4947   5.670   2.464   4.084
 1350SOL     OW 4948   4.194   4.541   0.271
 1350SOL    HW1 4949   4.222   4.627   0.314
 1350SOL    HW2 4950   4.265   4.472   0.287
 1351SOL     OW 4951   5.811   2.393   3.709
 1351SOL    HW1 4952   5.911   2.400   3.717
 1351SOL    HW2 4953   5.771   2.484   3.720
 1352SOL     OW 4954   6.915   6.680   2.633
 1352SOL    HW1 4955   6.842   6.748   2.637
 1352SOL    HW2 4956   6.971   6.687   2.716
 1353SOL     OW 4957   0.897   1.849   0.426
 1353SOL    HW1 4958   0.812   1.807   0.459
 1353SOL    HW2 4959   0.913   1.935   0.475
 1354SOL     OW 4960   6.901   3.494   2.397
 1354SOL    HW1 4961   6.861   3.557   2.463
 1354SOL    HW2 4962   6.829   3.434   2.360
 1355SOL     OW 4963   6.423   3.535   4.478
 1355SOL    HW1 4964   6.453   3.622   4.518
 1355SOL    HW2 4965   6.338   3.506   4.524
 1356SOL     OW 4966   3.886   2.947   2.200
 1356SOL    HW1 4967   3.943   3.023   2.232
 1356SOL    HW2 4968   3.934   2.861   2.214
 1357SOL     OW 4969   6.377   3.885   6.038
 1357SOL    HW1 4970   6.341   3.915   6.126
 1357SOL    HW2 4971   6.476   3.896   6.037
 1358SOL     OW 4972   5.740   0.071   0.355
 1358SOL    HW1 4973   5.704   0.164   0.350
 1358SOL    HW2 4974   5.827   0.066   0.305
 1359SOL     OW 4975   6.356   4.704   1.874
 1359SOL    HW1 4976   6.449   4.674   1.851
 1359SOL    HW2 4977   6.332   4.674   1.966
 1360SOL     OW 4978   3.310   3.485   6.983
 1360SOL    HW1 4979   3.363   3.499   6.900
 1360SOL    HW2 4980   3.230   3.428   6.963
 1361SOL     OW 4981   6.925   4.414   4.990
 1361SOL    HW1 4982   6.901   4.372   5.077
 1361SOL    HW2 4983   6.896   4.510   4.990
 1362SOL     OW 4984   3.994   3.679   2.573
 1362SOL    HW1 4985   3.953   3.597   2.534
 1362SOL    HW2 4986   4.049   3.654   2.653
 1363SOL     OW 4987   0.142   5.089   4.735
 1363SOL    HW1 4988   0.085   5.171   4.731
 1363SOL    HW2 4989   0.112   5.024   4.665
 1364SOL     OW 4990   4.553   4.172   0.104
 1364SOL    HW1 4991   4.557   4.211   0.012
 1364SOL    HW2 4992   4.636   4.198   0.154
 1365SOL     OW 4993   0.461   4.340   6.579
 1365SOL    HW1 4994   0.428   4.424   6.621
 1365SOL    HW2 4995   0.483   4.357   6.483
 1366SOL     OW 4996   1.974   6.680   5.450
 1366SOL    HW1 4997   1.984   6.692   5.549
 1366SOL    HW2 4998   2.064   6.666   5.409
 1367SOL     OW 4999   1.837   1.659   2.559
 1367SOL    HW1 5000   1.828   1.737   2.622
 1367SOL    HW2 5001   1.759   1.659   2.496
 1368SOL     OW 5002   5.649   6.598   4.820
 1368SOL    HW1 5003   5.580   6.592   4.748
 1368SOL    HW2 5004   5.635   6.523   4.885
 1369SOL     OW 5005   1.344   6.268   3.053
 1369SOL    HW1 5006   1.253   6.227   3.064
 1369SOL    HW2 5007   1.351   6.310   2.963
 1370SOL     OW 5008   3.412   0.999   1.568
 1370SOL    HW1 5009   3.498   1.031   1.607
 1370SOL    HW2 5010   3.403   0.900   1.585
 1371SOL     OW 5011   4.465   0.714   5.035
 1371SOL    HW1 5012   4.495   0.773   5.109
 1371SOL    HW2 5013   4.437   0.770   4.957
 1372SOL     OW 5014   1.852   2.455   0.879
 1372SOL    HW1 5015   1.945   2.472   0.911
 1372SOL    HW2 5016   1.846   2.364   0.839
 1373SOL     OW 5017   0.221   5.014   0.656
 1373SOL    HW1 5018   0.177   4.964   0.731
 1373SOL    HW2 5019   0.152   5.065   0.606
 1374SOL     OW 5020   4.351   2.209   1.373
 1374SOL    HW1 5021   4.406   2.243   1.296
 1374SOL    HW2 5022   4.273   2.270   1.387
 1375SOL     OW 5023   0.180   5.081   5.834
 1375SOL    HW1 5024   0.116   5.147   5.795
 1375SOL    HW2 5025   0.176   4.996   5.782
 1376SOL     OW 5026   4.595   2.500   3.846
 1376SOL    HW1 5027   4.500   2.478   3.869
 1376SOL    HW2 5028   4.604   2.507   3.746
 1377SOL     OW 5029   0.561   4.521   5.119
 1377SOL    HW1 5030   0.555   4.604   5.175
 1377SOL    HW2 5031   0.653   4.515   5.080
 1378SOL     OW 5032   0.875   2.303   6.590
 1378SOL    HW1 5033   0.934   2.246   6.532
 1378SOL    HW2 5034   0.916   2.311   6.681
 1379SOL     OW 5035   3.102   5.765   3.287
 1379SOL    HW1 5036   3.065   5.773   3.194
 1379SOL    HW2 5037   3.169   5.838   3.303
 1380SOL     OW 5038   6.492   0.021   2.442
 1380SOL    HW1 5039   6.423   0.019   2.370
 1380SOL    HW2 5040   6.458   6.993   2.523
 1381SOL     OW 5041   6.015   3.308   7.017
 1381SOL    HW1 5042   6.004   3.307   0.096
 1381SOL    HW2 5043   5.979   3.395   6.980
 1382SOL     OW 5044   6.217   5.195   5.878
 1382SOL    HW1 5045   6.296   5.256   5.885
 1382SOL    HW2 5046   6.239   5.119   5.816
 1383SOL     OW 5047   0.352   0.399   7.017
 1383SOL    HW1 5048   0.392   0.489   7.000
 1383SOL    HW2 5049   0.349   0.381   0.095
 1384SOL     OW 5050   3.676   1.114   3.180
 1384SOL    HW1 5051   3.698   1.016   3.177
 1384SOL    HW2 5052   3.759   1.166   3.200
 1385SOL     OW 5053   6.496   2.854   2.993
 1385SOL    HW1 5054   6.440   2.776   2.965
 1385SOL    HW2 5055   6.453   2.900   3.070
 1386SOL     OW 5056   2.177   3.130   4.253
 1386SOL    HW1 5057   2.113   3.083   4.192
 1386SOL    HW2 5058   2.193   3.074   4.334
 1387SOL     OW 5059   3.526   0.448   4.520
 1387SOL    HW1 5060   3.560   0.357   4.547
 1387SOL    HW2 5061   3.472   0.486   4.594
 1388SOL     OW 5062   6.542   0.932   4.349
 1388SOL    HW1 5063   6.567   0.864   4.418
 1388SOL    HW2 5064   6.624   0.963   4.301
 1389SOL     OW 5065   5.793   6.853   4.246
 1389SOL    HW1 5066   5.786   6.874   4.343
 1389SOL    HW2 5067   5.774   6.936   4.192
 1390SOL     OW 5068   4.219   1.744   1.662
 1390SOL    HW1 5069   4.271   1.792   1.591
 1390SOL    HW2 5070   4.122   1.761   1.649
 1391SOL     OW 5071   6.866   0.436   4.740
 1391SOL    HW1 5072   6.864   0.355   4.798
 1391SOL    HW2 5073   6.773   0.456   4.706
 1392SOL     OW 5074   4.458   5.706   6.837
 1392SOL    HW1 5075   4.524   5.632   6.852
 1392SOL    HW2 5076   4.507   5.792   6.820
 1393SOL     OW 5077   6.488   1.592   6.423
 1393SOL    HW1 5078   6.479   1.634   6.333
 1393SOL    HW2 5079   6.581   1.556   6.434
 1394SOL     OW 5080   4.051   6.838   3.517
 1394SOL    HW1 5081   4.053   6.920   3.460
 1394SOL    HW2 5082   4.122   6.774   3.488
 1395SOL     OW 5083   1.278   5.312   2.676
 1395SOL    HW1 5084   1.338   5.369   2.732
 1395SOL    HW2 5085   1.231   5.369   2.608
 1396SOL     OW 5086   2.688   1.105   4.534
 1396SOL    HW1 5087   2.600   1.130   4.495
 1396SOL    HW2 5088   2.758   1.104   4.462
 1397SOL     OW 5089   0.451   5.179   4.560
 1397SOL    HW1 5090   0.533   5.213   4.605
 1397SOL    HW2 5091   0.390   5.255   4.540
 1398SOL     OW 5092   0.831   1.870   0.860
 1398SOL    HW1 5093   0.895   1.941   0.889
 1398SOL    HW2 5094   0.877   1.781   0.861
 1399SOL     OW 5095   3.667   0.417   0.664
 1399SOL    HW1 5096   3.754   0.369   0.653
 1399SOL    HW2 5097   3.651   0.477   0.586
 1400SOL     OW 5098   6.276   0.643   4.433
 1400SOL    HW1 5099   6.220   0.573   4.479
 1400SOL    HW2 5100   6.236   0.733   4.448
 1401SOL     OW 5101   5.373   0.726   3.418
 1401SOL    HW1 5102   5.417   0.713   3.330
 1401SOL    HW2 5103   5.277   0.753   3.405
 1402SOL     OW 5104   5.951   3.566   1.842
 1402SOL    HW1 5105   5.917   3.645   1.792
 1402SOL    HW2 5106   5.932   3.483   1.790
 1403SOL     OW 5107   3.638   2.625   0.010
 1403SOL    HW1 5108   3.653   2.686   0.088
 1403SOL    HW2 5109   3.708   2.642   6.961
 1404SOL     OW 5110   4.155   0.118   0.960
 1404SOL    HW1 5111   4.158   0.198   1.021
 1404SOL    HW2 5112   4.227   0.125   0.891
 1405SOL     OW 5113   2.144   3.326   1.311
 1405SOL    HW1 5114   2.129   3.245   1.367
 1405SOL    HW2 5115   2.187   3.300   1.225
 1406SOL     OW 5116   2.722   3.129   0.947
 1406SOL    HW1 5117   2.674   3.113   0.860
 1406SOL    HW2 5118   2.660   3.173   1.011
 1407SOL     OW 5119   0.435   3.235   1.448
 1407SOL    HW1 5120   0.482   3.158   1.403
 1407SOL    HW2 5121   0.500   3.284   1.506
 1408SOL     OW 5122   5.977   6.082   6.661
 1408SOL    HW1 5123   5.950   6.106   6.568
 1408SOL    HW2 5124   5.985   5.982   6.668
 1409SOL     OW 5125   6.869   1.127   5.785
 1409SOL    HW1 5126   6.896   1.031   5.783
 1409SOL    HW2 5127   6.932   1.180   5.727
 1410SOL     OW 5128   3.092   2.688   5.947
 1410SOL    HW1 5129   3.087   2.611   5.884
 1410SOL    HW2 5130   3.003   2.733   5.950
 1411SOL     OW 5131   3.908   5.619   0.195
 1411SOL    HW1 5132   3.954   5.626   0.283
 1411SOL    HW2 5133   3.962   5.560   0.134
 1412SOL     OW 5134   1.538   2.337   0.795
 1412SOL    HW1 5135   1.535   2.437   0.803
 1412SOL    HW2 5136   1.625   2.309   0.756
 1413SOL     OW 5137   2.014   1.718   5.449
 1413SOL    HW1 5138   2.054   1.720   5.540
 1413SOL    HW2 5139   1.996   1.624   5.422
 1414SOL     OW 5140   1.306   3.483   2.159
 1414SOL    HW1 5141   1.238   3.524   2.220
 1414SOL    HW2 5142   1.300   3.384   2.164
 1415SOL     OW 5143   2.494   1.903   3.556
 1415SOL    HW1 5144   2.500   1.846   3.638
 1415SOL    HW2 5145   2.544   1.989   3.572
 1416SOL     OW 5146   4.271   0.222   6.056
 1416SOL    HW1 5147   4.282   0.322   6.063
 1416SOL    HW2 5148   4.224   0.199   5.971
 1417SOL     OW 5149   3.659   2.764   6.242
 1417SOL    HW1 5150   3.617   2.757   6.151
 1417SOL    HW2 5151   3.730   2.695   6.252
 1418SOL     OW 5152   3.717   3.799   0.039
 1418SOL    HW1 5153   3.767   3.826   6.977
 1418SOL    HW2 5154   3.623   3.830   0.033
 1419SOL     OW 5155   2.071   4.813   3.614
 1419SOL    HW1 5156   2.009   4.763   3.674
 1419SOL    HW2 5157   2.051   4.791   3.519
 1420SOL     OW 5158   3.533   5.306   3.055
 1420SOL    HW1 5159   3.512   5.315   3.152
 1420SOL    HW2 5160   3.485   5.376   3.003
 1421SOL     OW 5161   1.099   5.523   5.679
 1421SOL    HW1 5162   1.133   5.605   5.632
 1421SOL    HW2 5163   1.000   5.519   5.671
 1422SOL     OW 5164   2.687   3.226   5.859
 1422SOL    HW1 5165   2.623   3.149   5.850
 1422SOL    HW2 5166   2.640   3.311   5.835
 1423SOL     OW 5167   4.896   0.928   4.644
 1423SOL    HW1 5168   4.827   0.858   4.628
 1423SOL    HW2 5169   4.867   0.987   4.720
 1424SOL     OW 5170   5.226   3.187   6.428
 1424SOL    HW1 5171   5.266   3.141   6.507
 1424SOL    HW2 5172   5.191   3.277   6.454
 1425SOL     OW 5173   4.067   6.821   3.865
 1425SOL    HW1 5174   3.969   6.814   3.880
 1425SOL    HW2 5175   4.105   6.730   3.847
 1426SOL     OW 5176   2.652   2.064   6.932
 1426SOL    HW1 5177   2.663   2.037   0.007
 1426SOL    HW2 5178   2.733   2.038   6.880
 1427SOL     OW 5179   1.282   1.128   2.930
 1427SOL    HW1 5180   1.289   1.150   3.027
 1427SOL    HW2 5181   1.336   1.193   2.877
 1428SOL     OW 5182   6.484   3.521   3.856
 1428SOL    HW1 5183   6.499   3.520   3.955
 1428SOL    HW2 5184   6.572   3.523   3.808
 1429SOL     OW 5185   6.289   1.302   0.621
 1429SOL    HW1 5186   6.220   1.351   0.568
 1429SOL    HW2 5187   6.332   1.232   0.564
 1430SOL     OW 5188   2.147   3.239   3.377
 1430SOL    HW1 5189   2.192   3.202   3.295
 1430SOL    HW2 5190   2.169   3.182   3.456
 1431SOL     OW 5191   2.167   1.688   5.971
 1431SOL    HW1 5192   2.175   1.609   6.031
 1431SOL    HW2 5193   2.170   1.772   6.026
 1432SOL     OW 5194   2.779   1.338   1.476
 1432SOL    HW1 5195   2.834   1.375   1.401
 1432SOL    HW2 5196   2.683   1.362   1.462
 1433SOL     OW 5197   3.065   0.587   4.205
 1433SOL    HW1 5198   3.141   0.524   4.191
 1433SOL    HW2 5199   3.017   0.602   4.119
 1434SOL     OW 5200   6.752   3.375   0.161
 1434SOL    HW1 5201   6.829   3.312   0.170
 1434SOL    HW2 5202   6.669   3.324   0.139
 1435SOL     OW 5203   0.677   6.779   5.207
 1435SOL    HW1 5204   0.765   6.785   5.159
 1435SOL    HW2 5205   0.604   6.766   5.141
 1436SOL     OW 5206   5.693   1.951   0.629
 1436SOL    HW1 5207   5.627   1.878   0.610
 1436SOL    HW2 5208   5.668   1.996   0.715
 1437SOL     OW 5209   4.422   1.007   6.154
 1437SOL    HW1 5210   4.363   1.000   6.074
 1437SOL    HW2 5211   4.382   0.954   6.229
 1438SOL     OW 5212   2.428   0.919   1.673
 1438SOL    HW1 5213   2.441   0.999   1.731
 1438SOL    HW2 5214   2.381   0.847   1.725
 1439SOL     OW 5215   6.736   4.890   0.056
 1439SOL    HW1 5216   6.761   4.960   7.010
 1439SOL    HW2 5217   6.766   4.800   0.022
 1440SOL     OW 5218   2.934   3.312   3.303
 1440SOL    HW1 5219   2.917   3.226   3.350
 1440SOL    HW2 5220   3.025   3.310   3.260
 1441SOL     OW 5221   7.004   2.423   3.946
 1441SOL    HW1 5222   6.967   2.438   3.854
 1441SOL    HW2 5223   0.050   2.495   3.967
 1442SOL     OW 5224   4.960   4.315   0.431
 1442SOL    HW1 5225   4.871   4.275   0.407
 1442SOL    HW2 5226   4.948   4.412   0.451
 1443SOL     OW 5227   0.956   1.425   3.634
 1443SOL    HW1 5228   0.873   1.480   3.635
 1443SOL    HW2 5229   0.977   1.398   3.540
 1444SOL     OW 5230   4.250   0.645   3.740
 1444SOL    HW1 5231   4.220   0.609   3.651
 1444SOL    HW2 5232   4.328   0.706   3.725
 1445SOL     OW 5233   6.790   2.331   1.924
 1445SOL    HW1 5234   6.715   2.383   1.882
 1445SOL    HW2 5235   6.849   2.294   1.852
 1446SOL     OW 5236   3.730   2.110   1.652
 1446SOL    HW1 5237   3.766   2.194   1.690
 1446SOL    HW2 5238   3.636   2.125   1.620
 1447SOL     OW 5239   6.589   1.263   4.651
 1447SOL    HW1 5240   6.517   1.217   4.703
 1447SOL    HW2 5241   6.674   1.212   4.659
 1448SOL     OW 5242   5.400   1.130   6.258
 1448SOL    HW1 5243   5.383   1.103   6.163
 1448SOL    HW2 5244   5.319   1.112   6.312
 1449SOL     OW 5245   4.962   5.482   1.118
 1449SOL    HW1 5246   4.934   5.578   1.124
 1449SOL    HW2 5247   5.062   5.477   1.121
 1450SOL     OW 5248   5.585   2.784   3.141
 1450SOL    HW1 5249   5.683   2.791   3.157
 1450SOL    HW2 5250   5.566   2.707   3.080
 1451SOL     OW 5251   1.363   6.407   2.815
 1451SOL    HW1 5252   1.286   6.391   2.753
 1451SOL    HW2 5253   1.353   6.496   2.859
 1452SOL     OW 5254   5.065   0.657   5.330
 1452SOL    HW1 5255   5.058   0.745   5.377
 1452SOL    HW2 5256   5.140   0.660   5.263
 1453SOL     OW 5257   5.052   4.310   4.829
 1453SOL    HW1 5258   5.006   4.340   4.913
 1453SOL    HW2 5259   5.146   4.345   4.828
 1454SOL     OW 5260   4.911   3.168   1.843
 1454SOL    HW1 5261   4.855   3.163   1.760
 1454SOL    HW2 5262   4.860   3.132   1.920
 1455SOL     OW 5263   1.117   1.717   1.447
 1455SOL    HW1 5264   1.175   1.793   1.476
 1455SOL    HW2 5265   1.034   1.716   1.503
 1456SOL     OW 5266   6.838   6.389   4.172
 1456SOL    HW1 5267   6.895   6.411   4.251
 1456SOL    HW2 5268   6.785   6.469   4.145
 1457SOL     OW 5269   1.879   0.424   3.674
 1457SOL    HW1 5270   1.961   0.431   3.732
 1457SOL    HW2 5271   1.836   0.335   3.687
 1458SOL     OW 5272   5.768   6.059   6.451
 1458SOL    HW1 5273   5.693   6.016   6.402
 1458SOL    HW2 5274   5.842   6.082   6.387
 1459SOL     OW 5275   3.336   5.833   6.671
 1459SOL    HW1 5276   3.365   5.899   6.602
 1459SOL    HW2 5277   3.238   5.815   6.661
 1460SOL     OW 5278   1.487   0.345   6.831
 1460SOL    HW1 5279   1.571   0.386   6.867
 1460SOL    HW2 5280   1.442   0.292   6.904
 1461SOL     OW 5281   5.525   4.484   2.492
 1461SOL    HW1 5282   5.567   4.422   2.557
 1461SOL    HW2 5283   5.593   4.550   2.459
 1462SOL     OW 5284   5.805   0.424   0.252
 1462SOL    HW1 5285   5.725   0.395   0.304
 1462SOL    HW2 5286   5.812   0.524   0.256
 1463SOL     OW 5287   1.194   1.222   5.249
 1463SOL    HW1 5288   1.133   1.167   5.191
 1463SOL    HW2 5289   1.239   1.291   5.193
 1464SOL     OW 5290   0.177   6.483   1.032
 1464SOL    HW1 5291   0.238   6.561   1.016
 1464SOL    HW2 5292   0.157   6.438   0.945
 1465SOL     OW 5293   0.389   0.084   5.148
 1465SOL    HW1 5294   0.453   0.121   5.216
 1465SOL    HW2 5295   0.386   0.144   5.069
 1466SOL     OW 5296   6.120   5.053   3.437
 1466SOL    HW1 5297   6.034   5.040   3.487
 1466SOL    HW2 5298   6.195   5.062   3.503
 1467SOL     OW 5299   0.970   1.100   3.969
 1467SOL    HW1 5300   0.938   1.177   4.025
 1467SOL    HW2 5301   0.934   1.110   3.877
 1468SOL     OW 5302   5.207   6.123   3.662
 1468SOL    HW1 5303   5.252   6.035   3.650
 1468SOL    HW2 5304   5.138   6.116   3.734
 1469SOL     OW 5305   0.909   1.332   2.225
 1469SOL    HW1 5306   0.950   1.243   2.204
 1469SOL    HW2 5307   0.965   1.380   2.293
 1470SOL     OW 5308   1.400   1.374   2.807
 1470SOL    HW1 5309   1.345   1.402   2.728
 1470SOL    HW2 5310   1.493   1.352   2.776
 1471SOL     OW 5311   0.535   6.994   0.070
 1471SOL    HW1 5312   0.552   0.068   0.041
 1471SOL    HW2 5313   0.571   6.930   0.001
 1472SOL     OW 5314   4.987   0.491   6.242
 1472SOL    HW1 5315   4.913   0.557   6.225
 1472SOL    HW2 5316   4.989   0.424   6.167
 1473SOL     OW 5317   6.150   4.473   2.926
 1473SOL    HW1 5318   6.209   4.527   2.985
 1473SOL    HW2 5319   6.128   4.525   2.844
 1474SOL     OW 5320   5.697   5.533   4.332
 1474SOL    HW1 5321   5.727   5.447   4.292
 1474SOL    HW2 5322   5.704   5.606   4.264
 1475SOL     OW 5323   6.649   0.795   2.283
 1475SOL    HW1 5324   6.719   0.755   2.341
 1475SOL    HW2 5325   6.691   0.842   2.206
 1476SOL     OW 5326   0.134   2.187   2.203
 1476SOL    HW1 5327   0.224   2.143   2.210
 1476SOL    HW2 5328   0.136   2.255   2.130
 1477SOL     OW 5329   2.767   6.747   5.178
 1477SOL    HW1 5330   2.794   6.706   5.266
 1477SOL    HW2 5331   2.849   6.760   5.121
 1478SOL     OW 5332   5.872   4.847   0.949
 1478SOL    HW1 5333   5.901   4.777   1.013
 1478SOL    HW2 5334   5.775   4.835   0.927
 1479SOL     OW 5335   1.819   4.418   0.249
 1479SOL    HW1 5336   1.866   4.471   0.319
 1479SOL    HW2 5337   1.846   4.452   0.158
 1480SOL     OW 5338   2.569   1.413   0.574
 1480SOL    HW1 5339   2.491   1.465   0.540
 1480SOL    HW2 5340   2.572   1.418   0.674
 1481SOL     OW 5341   5.805   2.514   5.933
 1481SOL    HW1 5342   5.790   2.468   6.021
 1481SOL    HW2 5343   5.887   2.478   5.889
 1482SOL     OW 5344   5.868   0.697   0.022
 1482SOL    HW1 5345   5.825   0.702   0.112
 1482SOL    HW2 5346   5.844   0.778   6.989
 1483SOL     OW 5347   6.127   2.603   0.605
 1483SOL    HW1 5348   6.185   2.664   0.550
 1483SOL    HW2 5349   6.161   2.510   0.599
 1484SOL     OW 5350   6.725   5.277   2.963
 1484SOL    HW1 5351   6.693   5.352   2.906
 1484SOL    HW2 5352   6.805   5.307   3.015
 1485SOL     OW 5353   5.251   2.362   3.989
 1485SOL    HW1 5354   5.255   2.263   3.998
 1485SOL    HW2 5355   5.213   2.386   3.899
 1486SOL     OW 5356   4.720   2.175   2.809
 1486SOL    HW1 5357   4.795   2.210   2.754
 1486SOL    HW2 5358   4.661   2.117   2.753
 1487SOL     OW 5359   6.095   1.471   5.652
 1487SOL    HW1 5360   6.081   1.386   5.601
 1487SOL    HW2 5361   6.063   1.458   5.746
 1488SOL     OW 5362   4.443   1.125   3.112
 1488SOL    HW1 5363   4.431   1.223   3.098
 1488SOL    HW2 5364   4.377   1.075   3.056
 1489SOL     OW 5365   3.569   5.011   4.961
 1489SOL    HW1 5366   3.478   5.028   4.998
 1489SOL    HW2 5367   3.563   4.954   4.879
 1490SOL     OW 5368   1.170   2.312   0.391
 1490SOL    HW1 5369   1.107   2.372   0.440
 1490SOL    HW2 5370   1.123   2.269   0.314
 1491SOL     OW 5371   0.189   3.000   3.674
 1491SOL    HW1 5372   0.106   2.943   3.674
 1491SOL    HW2 5373   0.246   2.976   3.752
 1492SOL     OW 5374   4.971   1.491   1.590
 1492SOL    HW1 5375   4.893   1.431   1.609
 1492SOL    HW2 5376   4.941   1.586   1.590
 1493SOL     OW 5377   4.724   0.099   5.218
 1493SOL    HW1 5378   4.812   0.051   5.213
 1493SOL    HW2 5379   4.669   0.076   5.138
 1494SOL     OW 5380   4.058   2.343   5.617
 1494SOL    HW1 5381   4.046   2.386   5.528
 1494SOL    HW2 5382   4.020   2.250   5.615
 1495SOL     OW 5383   0.772   3.241   2.326
 1495SOL    HW1 5384   0.801   3.333   2.351
 1495SOL    HW2 5385   0.677   3.243   2.293
 1496SOL     OW 5386   0.102   0.344   2.409
 1496SOL    HW1 5387   0.103   0.244   2.411
 1496SOL    HW2 5388   0.071   0.380   2.497
 1497SOL     OW 5389   6.324   4.971   4.340
 1497SOL    HW1 5390   6.300   5.067   4.330
 1497SOL    HW2 5391   6.325   4.927   4.250
 1498SOL     OW 5392   1.524   5.036   6.666
 1498SOL    HW1 5393   1.499   5.063   6.573
 1498SOL    HW2 5394   1.623   5.021   6.671
 1499SOL     OW 5395   1.207   3.943   5.116
 1499SOL    HW1 5396   1.211   3.987   5.205
 1499SOL    HW2 5397   1.179   3.847   5.128
 1500SOL     OW 5398   5.019   6.488   0.367
 1500SOL    HW1 5399   4.938   6.505   0.423
 1500SOL    HW2 5400   5.019   6.393   0.336
 1501SOL     OW 5401   4.082   0.399   6.669
 1501SOL    HW1 5402   4.064   0.338   6.747
 1501SOL    HW2 5403   4.152   0.358   6.611
 1502SOL     OW 5404   6.143   6.652   0.084
 1502SOL    HW1 5405   6.235   6.669   0.119
 1502SOL    HW2 5406   6.100   6.579   0.138
 1503SOL     OW 5407   3.414   3.000   6.915
 1503SOL    HW1 5408   3.449   3.042   6.998
 1503SOL    HW2 5409   3.335   2.943   6.936
 1504SOL     OW 5410   3.363   6.672   4.859
 1504SOL    HW1 5411   3.388   6.604   4.790
 1504SOL    HW2 5412   3.287   6.637   4.914
 1505SOL     OW 5413   5.594   6.295   6.074
 1505SOL    HW1 5414   5.596   6.196   6.064
 1505SOL    HW2 5415   5.503   6.330   6.052
 1506SOL     OW 5416   0.918   5.785   4.068
 1506SOL    HW1 5417   0.852   5.732   4.121
 1506SOL    HW2 5418   1.000   5.801   4.122
 1507SOL     OW 5419   1.897   1.475   5.365
 1507SOL    HW1 5420   1.836   1.416   5.312
 1507SOL    HW2 5421   1.991   1.441   5.358
 1508SOL     OW 5422   4.422   0.002   0.543
 1508SOL    HW1 5423   4.369   6.997   0.462
 1508SOL    HW2 5424   4.478   6.945   0.572
 1509SOL     OW 5425   4.209   3.034   6.980
 1509SOL    HW1 5426   4.111   3.036   6.998
 1509SOL    HW2 5427   4.229   3.090   6.900
 1510SOL     OW 5428   0.003   2.073   4.211
 1510SOL    HW1 5429   0.071   2.125   4.158
 1510SOL    HW2 5430   6.988   2.131   4.284
 1511SOL     OW 5431   2.712   2.060   0.565
 1511SOL    HW1 5432   2.683   2.154   0.583
 1511SOL    HW2 5433   2.650   2.019   0.499
 1512SOL     OW 5434   6.988   0.958   1.685
 1512SOL    HW1 5435   0.047   0.975   1.744
 1512SOL    HW2 5436   6.992   1.019   1.606
 1513SOL     OW 5437   3.515   0.135   3.794
 1513SOL    HW1 5438   3.424   0.141   3.837
 1513SOL    HW2 5439   3.516   0.058   3.731
 1514SOL     OW 5440   5.955   1.279   4.763
 1514SOL    HW1 5441   5.985   1.374   4.762
 1514SOL    HW2 5442   5.855   1.275   4.765
 1515SOL     OW 5443   0.271   4.573   5.369
 1515SOL    HW1 5444   0.279   4.673   5.373
 1515SOL    HW2 5445   0.330   4.532   5.439
 1516SOL     OW 5446   0.307   1.241   0.646
 1516SOL    HW1 5447   0.398   1.279   0.664
 1516SOL    HW2 5448   0.264   1.215   0.733
 1517SOL     OW 5449   4.857   6.000   3.264
 1517SOL    HW1 5450   4.942   6.010   3.316
 1517SOL    HW2 5451   4.877   6.005   3.167
 1518SOL     OW 5452   6.497   4.191   1.240
 1518SOL    HW1 5453   6.445   4.275   1.228
 1518SOL    HW2 5454   6.558   4.200   1.319
 1519SOL     OW 5455   6.077   4.373   1.076
 1519SOL    HW1 5456   6.020   4.322   1.012
 1519SOL    HW2 5457   6.034   4.461   1.097
 1520SOL     OW 5458   2.076   3.687   2.714
 1520SOL    HW1 5459   2.096   3.591   2.695
 1520SOL    HW2 5460   2.113   3.712   2.804
 1521SOL     OW 5461   1.844   3.098   6.763
 1521SOL    HW1 5462   1.838   3.104   6.863
 1521SOL    HW2 5463   1.930   3.139   6.732
 1522SOL     OW 5464   5.663   1.981   6.625
 1522SOL    HW1 5465   5.605   1.901   6.614
 1522SOL    HW2 5466   5.715   1.974   6.710
 1523SOL     OW 5467   6.261   2.813   1.265
 1523SOL    HW1 5468   6.291   2.724   1.299
 1523SOL    HW2 5469   6.163   2.811   1.246
 1524SOL     OW 5470   0.003   1.153   1.507
 1524SOL    HW1 5471   0.048   1.237   1.539
 1524SOL    HW2 5472   0.052   1.118   1.427
 1525SOL     OW 5473   4.049   1.842   6.166
 1525SOL    HW1 5474   4.059   1.938   6.194
 1525SOL    HW2 5475   4.054   1.836   6.066
 1526SOL     OW 5476   7.006   2.056   1.466
 1526SOL    HW1 5477   0.005   2.127   1.398
 1526SOL    HW2 5478   0.069   2.035   1.516
 1527SOL     OW 5479   3.564   1.975   5.117
 1527SOL    HW1 5480   3.541   1.935   5.206
 1527SOL    HW2 5481   3.482   2.012   5.075
 1528SOL     OW 5482   4.543   6.778   3.303
 1528SOL    HW1 5483   4.626   6.723   3.298
 1528SOL    HW2 5484   4.480   6.738   3.370
 1529SOL     OW 5485   3.557   0.022   6.236
 1529SOL    HW1 5486   3.504   6.970   6.192
 1529SOL    HW2 5487   3.636   7.001   6.284
 1530SOL     OW 5488   2.913   6.588   2.293
 1530SOL    HW1 5489   2.825   6.597   2.339
 1530SOL    HW2 5490   2.931   6.491   2.275
 1531SOL     OW 5491   6.550   0.140   4.246
 1531SOL    HW1 5492   6.574   0.172   4.155
 1531SOL    HW2 5493   6.499   0.211   4.295
 1532SOL     OW 5494   3.386   2.197   5.276
 1532SOL    HW1 5495   3.407   2.146   5.193
 1532SOL    HW2 5496   3.331   2.277   5.253
 1533SOL     OW 5497   5.952   3.367   6.686
 1533SOL    HW1 5498   6.043   3.405   6.698
 1533SOL    HW2 5499   5.890   3.407   6.753
 1534SOL     OW 5500   0.769   5.931   0.828
 1534SOL    HW1 5501   0.739   5.981   0.909
 1534SOL    HW2 5502   0.869   5.925   0.828
 1535SOL     OW 5503   4.741   4.447   3.954
 1535SOL    HW1 5504   4.772   4.355   3.979
 1535SOL    HW2 5505   4.661   4.471   4.008
 1536SOL     OW 5506   2.780   5.821   4.933
 1536SOL    HW1 5507   2.688   5.790   4.906
 1536SOL    HW2 5508   2.846   5.748   4.916
 1537SOL     OW 5509   1.658   5.188   4.833
 1537SOL    HW1 5510   1.668   5.117   4.764
 1537SOL    HW2 5511   1.622   5.271   4.791
 1538SOL     OW 5512   2.406   5.102   0.256
 1538SOL    HW1 5513   2.495   5.105   0.302
 1538SOL    HW2 5514   2.341   5.158   0.307
 1539SOL     OW 5515   3.672   5.058   1.471
 1539SOL    HW1 5516   3.756   5.026   1.428
 1539SOL    HW2 5517   3.654   5.004   1.554
 1540SOL     OW 5518   0.669   0.128   5.231
 1540SOL    HW1 5519   0.642   0.048   5.177
 1540SOL    HW2 5520   0.726   0.189   5.176
 1541SOL     OW 5521   4.597   2.753   1.278
 1541SOL    HW1 5522   4.680   2.791   1.237
 1541SOL    HW2 5523   4.560   2.817   1.345
 1542SOL     OW 5524   0.427   6.272   1.574
 1542SOL    HW1 5525   0.479   6.302   1.654
 1542SOL    HW2 5526   0.349   6.217   1.603
 1543SOL     OW 5527   3.447   3.628   3.783
 1543SOL    HW1 5528   3.440   3.577   3.869
 1543SOL    HW2 5529   3.542   3.651   3.766
 1544SOL     OW 5530   3.396   3.973   2.458
 1544SOL    HW1 5531   3.413   3.887   2.505
 1544SOL    HW2 5532   3.411   4.049   2.520
 1545SOL     OW 5533   6.599   0.533   4.657
 1545SOL    HW1 5534   6.652   0.599   4.603
 1545SOL    HW2 5535   6.520   0.580   4.696
 1546SOL     OW 5536   6.728   5.939   6.078
 1546SOL    HW1 5537   6.703   6.018   6.022
 1546SOL    HW2 5538   6.747   5.970   6.172
 1547SOL     OW 5539   2.732   5.306   2.649
 1547SOL    HW1 5540   2.695   5.356   2.727
 1547SOL    HW2 5541   2.694   5.213   2.648
 1548SOL     OW 5542   4.660   4.302   4.882
 1548SOL    HW1 5543   4.697   4.331   4.793
 1548SOL    HW2 5544   4.568   4.265   4.869
 1549SOL     OW 5545   6.514   2.371   1.344
 1549SOL    HW1 5546   6.561   2.348   1.429
 1549SOL    HW2 5547   6.529   2.298   1.277
 1550SOL     OW 5548   1.880   6.180   4.521
 1550SOL    HW1 5549   1.924   6.255   4.471
 1550SOL    HW2 5550   1.906   6.093   4.479
 1551SOL     OW 5551   1.769   3.166   0.866
 1551SOL    HW1 5552   1.683   3.131   0.902
 1551SOL    HW2 5553   1.836   3.174   0.940
 1552SOL     OW 5554   1.156   0.952   1.086
 1552SOL    HW1 5555   1.092   0.964   1.010
 1552SOL    HW2 5556   1.105   0.925   1.168
 1553SOL     OW 5557   5.880   1.641   6.872
 1553SOL    HW1 5558   5.829   1.624   6.787
 1553SOL    HW2 5559   5.942   1.718   6.858
 1554SOL     OW 5560   4.047   1.781   2.383
 1554SOL    HW1 5561   4.086   1.836   2.457
 1554SOL    HW2 5562   3.977   1.834   2.335
 1555SOL     OW 5563   3.762   1.253   5.063
 1555SOL    HW1 5564   3.682   1.300   5.025
 1555SOL    HW2 5565   3.805   1.200   4.991
 1556SOL     OW 5566   3.960   0.306   0.747
 1556SOL    HW1 5567   3.975   0.213   0.779
 1556SOL    HW2 5568   3.966   0.369   0.825
 1557SOL     OW 5569   1.670   2.043   1.400
 1557SOL    HW1 5570   1.663   1.949   1.367
 1557SOL    HW2 5571   1.591   2.063   1.459
 1558SOL     OW 5572   6.179   3.510   5.356
 1558SOL    HW1 5573   6.097   3.494   5.411
 1558SOL    HW2 5574   6.161   3.581   5.288
 1559SOL     OW 5575   1.488   4.442   2.856
 1559SOL    HW1 5576   1.580   4.466   2.823
 1559SOL    HW2 5577   1.420   4.494   2.804
 1560SOL     OW 5578   3.853   1.738   1.297
 1560SOL    HW1 5579   3.879   1.809   1.231
 1560SOL    HW2 5580   3.754   1.735   1.305
 1561SOL     OW 5581   5.425   6.224   1.868
 1561SOL    HW1 5582   5.376   6.186   1.789
 1561SOL    HW2 5583   5.404   6.321   1.876
 1562SOL     OW 5584   3.288   0.079   2.055
 1562SOL    HW1 5585   3.246   0.081   1.964
 1562SOL    HW2 5586   3.262   0.162   2.105
 1563SOL     OW 5587   3.557   2.101   4.522
 1563SOL    HW1 5588   3.645   2.141   4.548
 1563SOL    HW2 5589   3.530   2.136   4.433
 1564SOL     OW 5590   0.974   2.037   2.376
 1564SOL    HW1 5591   1.046   2.006   2.314
 1564SOL    HW2 5592   0.955   2.134   2.360
 1565SOL     OW 5593   3.700   0.222   3.373
 1565SOL    HW1 5594   3.773   0.219   3.442
 1565SOL    HW2 5595   3.740   0.247   3.285
 1566SOL     OW 5596   4.804   4.300   2.905
 1566SOL    HW1 5597   4.788   4.288   3.003
 1566SOL    HW2 5598   4.730   4.255   2.853
 1567SOL     OW 5599   5.217   5.708   5.300
 1567SOL    HW1 5600   5.141   5.643   5.311
 1567SOL    HW2 5601   5.300   5.658   5.278
 1568SOL     OW 5602   2.119   6.421   2.642
 1568SOL    HW1 5603   2.190   6.477   2.599
 1568SOL    HW2 5604   2.033   6.471   2.643
 1569SOL     OW 5605   2.498   0.054   3.056
 1569SOL    HW1 5606   2.586   0.018   3.087
 1569SOL    HW2 5607   2.482   0.144   3.098
 1570SOL     OW 5608   3.414   0.068   0.325
 1570SOL    HW1 5609   3.327   0.048   0.372
 1570SOL    HW2 5610   3.476   7.011   0.338
 1571SOL     OW 5611   1.276   2.591   3.764
 1571SOL    HW1 5612   1.336   2.667   3.741
 1571SOL    HW2 5613   1.195   2.625   3.811
 1572SOL     OW 5614   1.558   5.329   1.733
 1572SOL    HW1 5615   1.473   5.294   1.771
 1572SOL    HW2 5616   1.568   5.426   1.757
 1573SOL     OW 5617   4.460   4.776   1.421
 1573SOL    HW1 5618   4.458   4.682   1.457
 1573SOL    HW2 5619   4.442   4.774   1.323
 1574SOL     OW 5620   6.634   3.184   2.140
 1574SOL    HW1 5621   6.684   3.198   2.055
 1574SOL    HW2 5622   6.536   3.201   2.124
 1575SOL     OW 5623   0.469   1.016   0.837
 1575SOL    HW1 5624   0.490   0.924   0.802
 1575SOL    HW2 5625   0.489   1.084   0.766
 1576SOL     OW 5626   0.418   6.100   1.979
 1576SOL    HW1 5627   0.480   6.156   1.925
 1576SOL    HW2 5628   0.344   6.157   2.016
 1577SOL     OW 5629   4.165   6.985   6.170
 1577SOL    HW1 5630   4.252   6.986   6.120
 1577SOL    HW2 5631   4.154   0.051   6.219
 1578SOL     OW 5632   4.507   0.932   0.664
 1578SOL    HW1 5633   4.571   0.857   0.644
 1578SOL    HW2 5634   4.419   0.894   0.691
 1579SOL     OW 5635   2.172   2.283   1.921
 1579SOL    HW1 5636   2.265   2.246   1.918
 1579SOL    HW2 5637   2.106   2.208   1.915
 1580SOL     OW 5638   3.456   4.085   2.834
 1580SOL    HW1 5639   3.489   4.117   2.745
 1580SOL    HW2 5640   3.529   4.095   2.901
 1581SOL     OW 5641   0.153   4.211   6.035
 1581SOL    HW1 5642   0.175   4.161   6.119
 1581SOL    HW2 5643   0.116   4.148   5.967
 1582SOL     OW 5644   4.481   6.262   6.033
 1582SOL    HW1 5645   4.511   6.330   5.966
 1582SOL    HW2 5646   4.517   6.287   6.123
 1583SOL     OW 5647   0.901   5.846   5.518
 1583SOL    HW1 5648   0.954   5.924   5.485
 1583SOL    HW2 5649   0.914   5.768   5.457
 1584SOL     OW 5650   0.646   5.063   6.421
 1584SOL    HW1 5651   0.657   5.112   6.507
 1584SOL    HW2 5652   0.587   4.983   6.436
 1585SOL     OW 5653   3.917   7.004   3.107
 1585SOL    HW1 5654   3.851   6.933   3.131
 1585SOL    HW2 5655   3.982   6.968   3.040
 1586SOL     OW 5656   3.045   5.682   4.154
 1586SOL    HW1 5657   3.069   5.696   4.058
 1586SOL    HW2 5658   2.946   5.691   4.166
 1587SOL     OW 5659   1.921   6.144   6.082
 1587SOL    HW1 5660   1.838   6.088   6.074
 1587SOL    HW2 5661   1.937   6.166   6.178
 1588SOL     OW 5662   6.229   0.015   2.060
 1588SOL    HW1 5663   6.261   0.101   2.019
 1588SOL    HW2 5664   6.192   0.034   2.151
 1589SOL     OW 5665   6.622   3.959   2.636
 1589SOL    HW1 5666   6.670   3.993   2.555
 1589SOL    HW2 5667   6.524   3.975   2.626
 1590SOL     OW 5668   6.767   1.895   3.629
 1590SOL    HW1 5669   6.768   1.884   3.729
 1590SOL    HW2 5670   6.789   1.989   3.605
 1591SOL     OW 5671   0.364   5.773   1.030
 1591SOL    HW1 5672   0.294   5.778   1.102
 1591SOL    HW2 5673   0.322   5.740   0.946
 1592SOL     OW 5674   1.541   4.190   6.903
 1592SOL    HW1 5675   1.452   4.149   6.883
 1592SOL    HW2 5676   1.534   4.245   6.986
 1593SOL     OW 5677   0.921   0.021   6.787
 1593SOL    HW1 5678   1.014   7.004   6.784
 1593SOL    HW2 5679   0.882   0.004   6.877
 1594SOL     OW 5680   6.884   0.333   1.657
 1594SOL    HW1 5681   6.821   0.257   1.640
 1594SOL    HW2 5682   6.978   0.301   1.646
 1595SOL     OW 5683   1.308   3.572   6.637
 1595SOL    HW1 5684   1.324   3.660   6.682
 1595SOL    HW2 5685   1.377   3.506   6.666
 1596SOL     OW 5686   5.789   4.402   2.241
 1596SOL    HW1 5687   5.857   4.340   2.278
 1596SOL    HW2 5688   5.779   4.481   2.302
 1597SOL     OW 5689   3.508   6.019   0.897
 1597SOL    HW1 5690   3.468   5.930   0.922
 1597SOL    HW2 5691   3.488   6.039   0.801
 1598SOL     OW 5692   1.486   5.768   0.076
 1598SOL    HW1 5693   1.530   5.830   0.011
 1598SOL    HW2 5694   1.394   5.747   0.044
 1599SOL     OW 5695   3.990   5.062   4.063
 1599SOL    HW1 5696   3.930   4.999   4.014
 1599SOL    HW2 5697   4.084   5.029   4.060
 1600SOL     OW 5698   3.110   0.422   2.855
 1600SOL    HW1 5699   3.192   0.366   2.862
 1600SOL    HW2 5700   3.123   0.507   2.906
 1601SOL     OW 5701   6.423   6.878   3.904
 1601SOL    HW1 5702   6.391   6.799   3.851
 1601SOL    HW2 5703   6.523   6.883   3.898
 1602SOL     OW 5704   4.484   5.414   4.291
 1602SOL    HW1 5705   4.386   5.431   4.295
 1602SOL    HW2 5706   4.522   5.457   4.209
 1603SOL     OW 5707   2.986   6.155   4.083
 1603SOL    HW1 5708   2.907   6.104   4.118
 1603SOL    HW2 5709   2.953   6.231   4.027
 1604SOL     OW 5710   3.688   4.887   2.278
 1604SOL    HW1 5711   3.660   4.837   2.196
 1604SOL    HW2 5712   3.784   4.869   2.298
 1605SOL     OW 5713   4.824   4.924   2.035
 1605SOL    HW1 5714   4.852   4.948   2.127
 1605SOL    HW2 5715   4.737   4.873   2.039
 1606SOL     OW 5716   4.494   6.241   4.232
 1606SOL    HW1 5717   4.567   6.197   4.179
 1606SOL    HW2 5718   4.519   6.337   4.249
 1607SOL     OW 5719   4.226   6.628   2.780
 1607SOL    HW1 5720   4.250   6.536   2.748
 1607SOL    HW2 5721   4.247   6.635   2.878
 1608SOL     OW 5722   6.831   0.692   2.939
 1608SOL    HW1 5723   6.806   0.788   2.927
 1608SOL    HW2 5724   6.830   0.669   3.037
 1609SOL     OW 5725   3.141   6.564   0.685
 1609SOL    HW1 5726   3.146   6.521   0.595
 1609SOL    HW2 5727   3.062   6.626   0.689
 1610SOL     OW 5728   3.947   6.740   0.160
 1610SOL    HW1 5729   3.966   6.661   0.217
 1610SOL    HW2 5730   3.939   6.712   0.064
 1611SOL     OW 5731   0.635   4.181   1.505
 1611SOL    HW1 5732   0.734   4.178   1.496
 1611SOL    HW2 5733   0.595   4.215   1.420
 1612SOL     OW 5734   3.083   5.935   1.092
 1612SOL    HW1 5735   3.065   5.887   1.006
 1612SOL    HW2 5736   2.997   5.945   1.143
 1613SOL     OW 5737   0.223   5.755   2.472
 1613SOL    HW1 5738   0.242   5.844   2.514
 1613SOL    HW2 5739   0.288   5.688   2.508
 1614SOL     OW 5740   5.452   2.673   6.623
 1614SOL    HW1 5741   5.463   2.678   6.722
 1614SOL    HW2 5742   5.540   2.694   6.579
 1615SOL     OW 5743   0.349   5.095   6.628
 1615SOL    HW1 5744   0.365   5.010   6.578
 1615SOL    HW2 5745   0.430   5.153   6.622
 1616SOL     OW 5746   3.022   0.989   5.566
 1616SOL    HW1 5747   2.964   0.919   5.524
 1616SOL    HW2 5748   3.064   0.952   5.649
 1617SOL     OW 5749   4.813   6.674   3.588
 1617SOL    HW1 5750   4.854   6.623   3.664
 1617SOL    HW2 5751   4.797   6.768   3.617
 1618SOL     OW 5752   2.515   5.674   3.030
 1618SOL    HW1 5753   2.417   5.652   3.030
 1618SOL    HW2 5754   2.542   5.707   3.120
 1619SOL     OW 5755   0.892   5.227   6.767
 1619SOL    HW1 5756   0.808   5.172   6.772
 1619SOL    HW2 5757   0.901   5.281   6.850
 1620SOL     OW 5758   3.296   5.158   0.934
 1620SOL    HW1 5759   3.276   5.064   0.961
 1620SOL    HW2 5760   3.360   5.199   0.998
 1621SOL     OW 5761   6.096   6.563   1.399
 1621SOL    HW1 5762   6.145   6.594   1.318
 1621SOL    HW2 5763   6.005   6.605   1.400
 1622SOL     OW 5764   0.988   3.728   4.905
 1622SOL    HW1 5765   1.059   3.712   4.974
 1622SOL    HW2 5766   1.017   3.801   4.844
 1623SOL     OW 5767   0.327   2.505   4.694
 1623SOL    HW1 5768   0.352   2.587   4.745
 1623SOL    HW2 5769   0.227   2.499   4.685
 1624SOL     OW 5770   4.083   1.242   0.411
 1624SOL    HW1 5771   4.023   1.294   0.472
 1624SOL    HW2 5772   4.085   1.146   0.441
 1625SOL     OW 5773   1.976   4.788   0.699
 1625SOL    HW1 5774   1.989   4.690   0.687
 1625SOL    HW2 5775   1.898   4.819   0.645
 1626SOL     OW 5776   3.150   2.209   1.350
 1626SOL    HW1 5777   3.107   2.289   1.309
 1626SOL    HW2 5778   3.131   2.207   1.448
 1627SOL     OW 5779   4.788   2.325   4.606
 1627SOL    HW1 5780   4.716   2.393   4.620
 1627SOL    HW2 5781   4.877   2.370   4.603
 1628SOL     OW 5782   4.709   6.130   6.607
 1628SOL    HW1 5783   4.767   6.167   6.681
 1628SOL    HW2 5784   4.685   6.204   6.544
 1629SOL     OW 5785   2.988   2.079   3.052
 1629SOL    HW1 5786   2.924   2.052   2.980
 1629SOL    HW2 5787   2.954   2.162   3.096
 1630SOL     OW 5788   0.284   4.174   0.272
 1630SOL    HW1 5789   0.375   4.214   0.272
 1630SOL    HW2 5790   0.242   4.187   0.362
 1631SOL     OW 5791   0.137   3.363   1.162
 1631SOL    HW1 5792   0.184   3.394   1.245
 1631SOL    HW2 5793   0.163   3.421   1.085
 1632SOL     OW 5794   5.746   4.499   2.834
 1632SOL    HW1 5795   5.728   4.535   2.926
 1632SOL    HW2 5796   5.790   4.569   2.779
 1633SOL     OW 5797   4.845   3.690   3.807
 1633SOL    HW1 5798   4.862   3.600   3.846
 1633SOL    HW2 5799   4.873   3.690   3.711
 1634SOL     OW 5800   4.689   0.729   4.601
 1634SOL    HW1 5801   4.696   0.693   4.694
 1634SOL    HW2 5802   4.693   0.654   4.535
 1635SOL     OW 5803   3.935   4.701   5.634
 1635SOL    HW1 5804   3.930   4.608   5.597
 1635SOL    HW2 5805   3.859   4.716   5.697
 1636SOL     OW 5806   4.626   5.875   1.520
 1636SOL    HW1 5807   4.615   5.953   1.583
 1636SOL    HW2 5808   4.689   5.809   1.559
 1637SOL     OW 5809   0.107   6.858   2.546
 1637SOL    HW1 5810   0.038   6.791   2.571
 1637SOL    HW2 5811   0.197   6.815   2.548
 1638SOL     OW 5812   6.685   3.202   1.840
 1638SOL    HW1 5813   6.610   3.257   1.876
 1638SOL    HW2 5814   6.648   3.116   1.805
 1639SOL     OW 5815   5.812   4.017   2.214
 1639SOL    HW1 5816   5.719   4.049   2.227
 1639SOL    HW2 5817   5.814   3.950   2.140
 1640SOL     OW 5818   6.275   0.201   0.949
 1640SOL    HW1 5819   6.319   0.290   0.960
 1640SOL    HW2 5820   6.295   0.144   1.028
 1641SOL     OW 5821   0.148   2.465   3.187
 1641SOL    HW1 5822   0.209   2.414   3.127
 1641SOL    HW2 5823   0.140   2.559   3.154
 1642SOL     OW 5824   5.694   2.706   5.754
 1642SOL    HW1 5825   5.728   2.652   5.831
 1642SOL    HW2 5826   5.726   2.800   5.762
 1643SOL     OW 5827   3.598   5.263   4.605
 1643SOL    HW1 5828   3.582   5.287   4.700
 1643SOL    HW2 5829   3.592   5.164   4.593
 1644SOL     OW 5830   5.976   3.259   0.597
 1644SOL    HW1 5831   6.014   3.224   0.683
 1644SOL    HW2 5832   6.044   3.251   0.524
 1645SOL     OW 5833   2.898   0.715   6.013
 1645SOL    HW1 5834   2.881   0.733   5.916
 1645SOL    HW2 5835   2.810   0.706   6.061
 1646SOL     OW 5836   1.028   5.749   0.041
 1646SOL    HW1 5837   1.085   5.831   0.055
 1646SOL    HW2 5838   1.067   5.695   6.986
 1647SOL     OW 5839   6.533   3.039   4.268
 1647SOL    HW1 5840   6.512   2.988   4.352
 1647SOL    HW2 5841   6.531   3.137   4.287
 1648SOL     OW 5842   4.884   5.881   0.764
 1648SOL    HW1 5843   4.798   5.930   0.777
 1648SOL    HW2 5844   4.951   5.914   0.831
 1649SOL     OW 5845   3.485   0.541   3.306
 1649SOL    HW1 5846   3.388   0.528   3.289
 1649SOL    HW2 5847   3.514   0.483   3.381
 1650SOL     OW 5848   1.988   5.309   6.452
 1650SOL    HW1 5849   2.042   5.367   6.391
 1650SOL    HW2 5850   2.017   5.214   6.442
 1651SOL     OW 5851   0.793   2.747   4.001
 1651SOL    HW1 5852   0.740   2.773   4.082
 1651SOL    HW2 5853   0.745   2.778   3.919
 1652SOL     OW 5854   1.160   2.746   1.366
 1652SOL    HW1 5855   1.245   2.790   1.395
 1652SOL    HW2 5856   1.170   2.646   1.373
 1653SOL     OW 5857   6.675   5.357   2.671
 1653SOL    HW1 5858   6.620   5.283   2.633
 1653SOL    HW2 5859   6.620   5.441   2.676
 1654SOL     OW 5860   0.509   2.811   1.765
 1654SOL    HW1 5861   0.597   2.854   1.744
 1654SOL    HW2 5862   0.525   2.717   1.796
 1655SOL     OW 5863   6.979   1.143   4.450
 1655SOL    HW1 5864   6.942   1.187   4.531
 1655SOL    HW2 5865   0.018   1.208   4.401
 1656SOL     OW 5866   2.436   5.542   4.338
 1656SOL    HW1 5867   2.347   5.579   4.312
 1656SOL    HW2 5868   2.472   5.485   4.265
 1657SOL     OW 5869   0.200   0.493   5.530
 1657SOL    HW1 5870   0.121   0.498   5.469
 1657SOL    HW2 5871   0.169   0.470   5.622
 1658SOL     OW 5872   6.778   6.951   0.434
 1658SOL    HW1 5873   6.744   7.012   0.506
 1658SOL    HW2 5874   6.708   6.940   0.364
 1659SOL     OW 5875   4.239   0.020   6.856
 1659SOL    HW1 5876   4.256   6.966   6.791
 1659SOL    HW2 5877   4.318   0.032   6.916
 1660SOL     OW 5878   1.460   6.555   2.121
 1660SOL    HW1 5879   1.430   6.482   2.182
 1660SOL    HW2 5880   1.391   6.569   2.050
 1661SOL     OW 5881   3.222   4.904   2.221
 1661SOL    HW1 5882   3.183   4.884   2.311
 1661SOL    HW2 5883   3.184   4.841   2.154
 1662SOL     OW 5884   6.825   1.576   5.529
 1662SOL    HW1 5885   6.909   1.616   5.491
 1662SOL    HW2 5886   6.848   1.517   5.607
 1663SOL     OW 5887   4.570   4.979   1.573
 1663SOL    HW1 5888   4.663   4.957   1.544
 1663SOL    HW2 5889   4.506   4.915   1.531
 1664SOL     OW 5890   0.683   0.279   5.643
 1664SOL    HW1 5891   0.607   0.240   5.695
 1664SOL    HW2 5892   0.732   0.205   5.596
 1665SOL     OW 5893   1.835   3.611   0.897
 1665SOL    HW1 5894   1.839   3.706   0.926
 1665SOL    HW2 5895   1.744   3.592   0.859
 1666SOL     OW 5896   5.345   0.163   6.555
 1666SOL    HW1 5897   5.326   0.085   6.495
 1666SOL    HW2 5898   5.366   0.129   6.647
 1667SOL     OW 5899   0.381   6.471   0.829
 1667SOL    HW1 5900   0.458   6.493   0.769
 1667SOL    HW2 5901   0.414   6.461   0.923
 1668SOL     OW 5902   5.212   4.918   4.032
 1668SOL    HW1 5903   5.158   5.001   4.020
 1668SOL    HW2 5904   5.230   4.904   4.130
 1669SOL     OW 5905   0.398   3.712   5.981
 1669SOL    HW1 5906   0.473   3.728   6.046
 1669SOL    HW2 5907   0.400   3.782   5.910
 1670SOL     OW 5908   1.933   4.673   6.080
 1670SOL    HW1 5909   1.946   4.667   5.981
 1670SOL    HW2 5910   1.960   4.764   6.112
 1671SOL     OW 5911   4.856   1.651   2.392
 1671SOL    HW1 5912   4.938   1.661   2.449
 1671SOL    HW2 5913   4.821   1.558   2.401
 1672SOL     OW 5914   0.822   2.907   7.013
 1672SOL    HW1 5915   0.876   2.864   6.941
 1672SOL    HW2 5916   0.861   2.995   0.016
 1673SOL     OW 5917   2.374   1.661   4.402
 1673SOL    HW1 5918   2.405   1.573   4.366
 1673SOL    HW2 5919   2.276   1.672   4.382
 1674SOL     OW 5920   5.105   3.097   2.347
 1674SOL    HW1 5921   5.046   3.021   2.375
 1674SOL    HW2 5922   5.172   3.064   2.281
 1675SOL     OW 5923   5.647   0.854   1.311
 1675SOL    HW1 5924   5.737   0.828   1.345
 1675SOL    HW2 5925   5.654   0.884   1.216
 1676SOL     OW 5926   1.816   2.374   2.953
 1676SOL    HW1 5927   1.817   2.366   3.053
 1676SOL    HW2 5928   1.911   2.376   2.919
 1677SOL     OW 5929   3.666   3.782   2.756
 1677SOL    HW1 5930   3.687   3.685   2.750
 1677SOL    HW2 5931   3.741   3.831   2.800
 1678SOL     OW 5932   0.537   6.336   0.586
 1678SOL    HW1 5933   0.583   6.424   0.599
 1678SOL    HW2 5934   0.595   6.262   0.621
 1679SOL     OW 5935   1.766   1.767   5.284
 1679SOL    HW1 5936   1.859   1.757   5.319
 1679SOL    HW2 5937   1.703   1.781   5.361
 1680SOL     OW 5938   5.167   2.867   4.520
 1680SOL    HW1 5939   5.263   2.844   4.509
 1680SOL    HW2 5940   5.140   2.933   4.450
 1681SOL     OW 5941   1.773   5.670   3.873
 1681SOL    HW1 5942   1.873   5.677   3.872
 1681SOL    HW2 5943   1.744   5.627   3.958
 1682SOL     OW 5944   2.885   0.060   5.365
 1682SOL    HW1 5945   2.871   6.994   5.414
 1682SOL    HW2 5946   2.796   0.101   5.344
 1683SOL     OW 5947   5.795   4.967   2.747
 1683SOL    HW1 5948   5.879   5.010   2.714
 1683SOL    HW2 5949   5.743   5.033   2.802
 1684SOL     OW 5950   1.777   4.636   1.657
 1684SOL    HW1 5951   1.841   4.559   1.652
 1684SOL    HW2 5952   1.798   4.691   1.737
 1685SOL     OW 5953   1.262   1.549   5.870
 1685SOL    HW1 5954   1.245   1.631   5.816
 1685SOL    HW2 5955   1.184   1.486   5.862
 1686SOL     OW 5956   4.839   5.713   3.742
 1686SOL    HW1 5957   4.824   5.800   3.789
 1686SOL    HW2 5958   4.860   5.730   3.646
 1687SOL     OW 5959   0.181   3.792   2.591
 1687SOL    HW1 5960   0.248   3.835   2.531
 1687SOL    HW2 5961   0.228   3.742   2.664
 1688SOL     OW 5962   2.207   2.171   3.305
 1688SOL    HW1 5963   2.273   2.243   3.324
 1688SOL    HW2 5964   2.217   2.097   3.372
 1689SOL     OW 5965   6.513   1.213   2.233
 1689SOL    HW1 5966   6.551   1.165   2.312
 1689SOL    HW2 5967   6.462   1.148   2.176
 1690SOL     OW 5968   0.645   3.727   4.076
 1690SOL    HW1 5969   0.698   3.718   4.160
 1690SOL    HW2 5970   0.631   3.824   4.055
 1691SOL     OW 5971   4.906   3.181   4.554
 1691SOL    HW1 5972   4.902   3.155   4.651
 1691SOL    HW2 5973   4.843   3.123   4.502
 1692SOL     OW 5974   5.826   5.194   2.123
 1692SOL    HW1 5975   5.731   5.165   2.133
 1692SOL    HW2 5976   5.875   5.130   2.065
 1693SOL     OW 5977   6.868   1.348   5.359
 1693SOL    HW1 5978   6.879   1.445   5.335
 1693SOL    HW2 5979   6.774   1.332   5.390
 1694SOL     OW 5980   6.205   1.089   4.949
 1694SOL    HW1 5981   6.136   1.160   4.964
 1694SOL    HW2 5982   6.263   1.115   4.872
 1695SOL     OW 5983   4.031   0.863   0.008
 1695SOL    HW1 5984   3.999   0.937   0.068
 1695SOL    HW2 5985   3.959   0.796   7.015
 1696SOL     OW 5986   4.231   5.466   0.337
 1696SOL    HW1 5987   4.210   5.552   0.384
 1696SOL    HW2 5988   4.288   5.485   0.258
 1697SOL     OW 5989   6.027   2.409   0.995
 1697SOL    HW1 5990   5.954   2.353   0.955
 1697SOL    HW2 5991   5.988   2.470   1.063
 1698SOL     OW 5992   3.461   1.038   1.970
 1698SOL    HW1 5993   3.557   1.020   1.947
 1698SOL    HW2 5994   3.431   0.971   2.039
 1699SOL     OW 5995   2.719   1.183   6.642
 1699SOL    HW1 5996   2.740   1.243   6.720
 1699SOL    HW2 5997   2.789   1.113   6.635
 1700SOL     OW 5998   5.738   3.720   3.779
 1700SOL    HW1 5999   5.816   3.742   3.722
 1700SOL    HW2 6000   5.671   3.668   3.725
 1701SOL     OW 6001   6.485   4.755   4.732
 1701SOL    HW1 6002   6.534   4.668   4.723
 1701SOL    HW2 6003   6.509   4.815   4.656
 1702SOL     OW 6004   2.024   1.684   6.243
 1702SOL    HW1 6005   2.006   1.779   6.269
 1702SOL    HW2 6006   2.113   1.656   6.279
 1703SOL     OW 6007   2.963   1.194   6.153
 1703SOL    HW1 6008   2.885   1.213   6.213
 1703SOL    HW2 6009   2.938   1.211   6.058
 1704SOL     OW 6010   2.342   1.541   0.460
 1704SOL    HW1 6011   2.328   1.640   0.460
 1704SOL    HW2 6012   2.274   1.498   0.400
 1705SOL     OW 6013   3.710   1.690   1.966
 1705SOL    HW1 6014   3.665   1.775   1.940
 1705SOL    HW2 6015   3.641   1.622   1.991
 1706SOL     OW 6016   4.587   1.960   0.856
 1706SOL    HW1 6017   4.653   2.021   0.811
 1706SOL    HW2 6018   4.516   1.934   0.790
 1707SOL     OW 6019   4.766   1.772   2.688
 1707SOL    HW1 6020   4.781   1.726   2.601
 1707SOL    HW2 6021   4.712   1.855   2.673
 1708SOL     OW 6022   3.056   5.460   2.100
 1708SOL    HW1 6023   3.027   5.368   2.125
 1708SOL    HW2 6024   3.149   5.457   2.062
 1709SOL     OW 6025   5.011   5.627   0.700
 1709SOL    HW1 6026   4.965   5.710   0.731
 1709SOL    HW2 6027   4.976   5.600   0.611
 1710SOL     OW 6028   4.370   5.339   3.279
 1710SOL    HW1 6029   4.301   5.409   3.301
 1710SOL    HW2 6030   4.422   5.368   3.199
 1711SOL     OW 6031   3.634   6.156   5.735
 1711SOL    HW1 6032   3.725   6.140   5.696
 1711SOL    HW2 6033   3.628   6.107   5.823
 1712SOL     OW 6034   0.311   2.213   4.649
 1712SOL    HW1 6035   0.294   2.309   4.671
 1712SOL    HW2 6036   0.235   2.157   4.682
 1713SOL     OW 6037   3.771   0.623   2.890
 1713SOL    HW1 6038   3.792   0.697   2.827
 1713SOL    HW2 6039   3.677   0.591   2.874
 1714SOL     OW 6040   3.953   2.746   0.112
 1714SOL    HW1 6041   3.948   2.657   0.068
 1714SOL    HW2 6042   4.049   2.769   0.129
 1715SOL     OW 6043   1.193   6.350   2.179
 1715SOL    HW1 6044   1.111   6.342   2.236
 1715SOL    HW2 6045   1.173   6.408   2.100
 1716SOL     OW 6046   5.145   0.642   4.258
 1716SOL    HW1 6047   5.146   0.550   4.297
 1716SOL    HW2 6048   5.143   0.710   4.332
 1717SOL     OW 6049   4.349   6.414   5.427
 1717SOL    HW1 6050   4.422   6.397   5.360
 1717SOL    HW2 6051   4.309   6.326   5.454
 1718SOL     OW 6052   2.165   2.153   2.239
 1718SOL    HW1 6053   2.219   2.237   2.226
 1718SOL    HW2 6054   2.210   2.077   2.192
 1719SOL     OW 6055   1.218   4.221   1.310
 1719SOL    HW1 6056   1.315   4.244   1.302
 1719SOL    HW2 6057   1.164   4.304   1.321
 1720SOL     OW 6058   6.771   2.790   5.829
 1720SOL    HW1 6059   6.706   2.866   5.825
 1720SOL    HW2 6060   6.727   2.707   5.794
 1721SOL     OW 6061   1.404   1.134   1.857
 1721SOL    HW1 6062   1.432   1.166   1.948
 1721SOL    HW2 6063   1.359   1.045   1.865
 1722SOL     OW 6064   3.415   2.110   2.614
 1722SOL    HW1 6065   3.389   2.086   2.521
 1722SOL    HW2 6066   3.334   2.137   2.666
 1723SOL     OW 6067   5.073   2.063   6.917
 1723SOL    HW1 6068   5.005   2.137   6.922
 1723SOL    HW2 6069   5.134   2.068   6.996
 1724SOL     OW 6070   6.298   2.535   1.312
 1724SOL    HW1 6071   6.248   2.492   1.237
 1724SOL    HW2 6072   6.371   2.474   1.343
 1725SOL     OW 6073   2.029   4.835   6.663
 1725SOL    HW1 6074   2.073   4.857   6.750
 1725SOL    HW2 6075   2.091   4.779   6.608
 1726SOL     OW 6076   5.631   4.811   3.743
 1726SOL    HW1 6077   5.671   4.747   3.808
 1726SOL    HW2 6078   5.548   4.771   3.703
 1727SOL     OW 6079   2.960   3.495   3.057
 1727SOL    HW1 6080   2.928   3.492   3.152
 1727SOL    HW2 6081   2.932   3.581   3.015
 1728SOL     OW 6082   4.839   3.640   5.578
 1728SOL    HW1 6083   4.777   3.719   5.575
 1728SOL    HW2 6084   4.909   3.650   5.507
 1729SOL     OW 6085   1.911   3.861   1.981
 1729SOL    HW1 6086   1.825   3.810   1.972
 1729SOL    HW2 6087   1.978   3.822   1.918
 1730SOL     OW 6088   2.379   5.049   5.334
 1730SOL    HW1 6089   2.333   5.057   5.246
 1730SOL    HW2 6090   2.318   5.004   5.399
 1731SOL     OW 6091   5.656   4.824   4.055
 1731SOL    HW1 6092   5.705   4.745   4.020
 1731SOL    HW2 6093   5.558   4.812   4.038
 1732SOL     OW 6094   1.908   4.621   6.948
 1732SOL    HW1 6095   1.992   4.607   6.896
 1732SOL    HW2 6096   1.922   4.695   7.014
 1733SOL     OW 6097   2.679   3.910   0.217
 1733SOL    HW1 6098   2.726   3.997   0.229
 1733SOL    HW2 6099   2.648   3.876   0.306
 1734SOL     OW 6100   6.837   3.059   1.429
 1734SOL    HW1 6101   6.901   3.105   1.366
 1734SOL    HW2 6102   6.799   3.126   1.492
 1735SOL     OW 6103   4.515   5.068   6.673
 1735SOL    HW1 6104   4.590   5.106   6.619
 1735SOL    HW2 6105   4.431   5.118   6.652
 1736SOL     OW 6106   4.514   3.512   1.334
 1736SOL    HW1 6107   4.594   3.455   1.318
 1736SOL    HW2 6108   4.530   3.573   1.412
 1737SOL     OW 6109   4.680   1.179   4.624
 1737SOL    HW1 6110   4.668   1.273   4.655
 1737SOL    HW2 6111   4.710   1.122   4.701
 1738SOL     OW 6112   1.421   3.676   3.941
 1738SOL    HW1 6113   1.339   3.666   3.998
 1738SOL    HW2 6114   1.492   3.724   3.993
 1739SOL     OW 6115   5.473   0.242   3.897
 1739SOL    HW1 6116   5.393   0.279   3.945
 1739SOL    HW2 6117   5.459   0.146   3.876
 1740SOL     OW 6118   6.984   2.131   4.511
 1740SOL    HW1 6119   7.015   2.076   4.588
 1740SOL    HW2 6120   0.042   2.173   4.466
 1741SOL     OW 6121   1.640   2.018   4.677
 1741SOL    HW1 6122   1.713   2.042   4.742
 1741SOL    HW2 6123   1.676   2.022   4.584
 1742SOL     OW 6124   6.385   6.142   6.229
 1742SOL    HW1 6125   6.372   6.099   6.318
 1742SOL    HW2 6126   6.342   6.232   6.229
 1743SOL     OW 6127   1.422   0.895   3.241
 1743SOL    HW1 6128   1.367   0.846   3.309
 1743SOL    HW2 6129   1.436   0.989   3.272
 1744SOL     OW 6130   5.002   2.556   3.471
 1744SOL    HW1 6131   4.928   2.602   3.423
 1744SOL    HW2 6132   5.057   2.504   3.405
 1745SOL     OW 6133   6.392   6.453   1.092
 1745SOL    HW1 6134   6.369   6.375   1.150
 1745SOL    HW2 6135   6.472   6.429   1.036
 1746SOL     OW 6136   1.830   3.709   3.272
 1746SOL    HW1 6137   1.835   3.739   3.177
 1746SOL    HW2 6138   1.917   3.725   3.318
 1747SOL     OW 6139   3.281   1.266   2.302
 1747SOL    HW1 6140   3.219   1.300   2.372
 1747SOL    HW2 6141   3.266   1.317   2.217
 1748SOL     OW 6142   0.052   1.541   4.562
 1748SOL    HW1 6143   6.984   1.564   4.521
 1748SOL    HW2 6144   0.061   1.586   4.650
 1749SOL     OW 6145   2.801   5.667   0.927
 1749SOL    HW1 6146   2.847   5.578   0.934
 1749SOL    HW2 6147   2.737   5.677   1.004
 1750SOL     OW 6148   4.361   0.835   5.544
 1750SOL    HW1 6149   4.273   0.787   5.544
 1750SOL    HW2 6150   4.427   0.785   5.599
 1751SOL     OW 6151   5.896   2.670   5.220
 1751SOL    HW1 6152   5.875   2.687   5.317
 1751SOL    HW2 6153   5.856   2.743   5.165
 1752SOL     OW 6154   6.566   1.038   1.279
 1752SOL    HW1 6155   6.597   1.104   1.348
 1752SOL    HW2 6156   6.488   0.986   1.316
 1753SOL     OW 6157   6.447   1.711   1.572
 1753SOL    HW1 6158   6.392   1.693   1.653
 1753SOL    HW2 6159   6.542   1.725   1.598
 1754SOL     OW 6160   3.086   6.132   5.830
 1754SOL    HW1 6161   3.028   6.071   5.883
 1754SOL    HW2 6162   3.172   6.086   5.807
 1755SOL     OW 6163   6.296   0.128   5.019
 1755SOL    HW1 6164   6.349   0.044   5.009
 1755SOL    HW2 6165   6.224   0.130   4.950
 1756SOL     OW 6166   5.660   0.313   6.325
 1756SOL    HW1 6167   5.661   0.379   6.401
 1756SOL    HW2 6168   5.753   0.303   6.289
 1757SOL     OW 6169   2.590   5.710   4.752
 1757SOL    HW1 6170   2.661   5.680   4.688
 1757SOL    HW2 6171   2.549   5.631   4.796
 1758SOL     OW 6172   1.741   6.791   5.073
 1758SOL    HW1 6173   1.720   6.860   5.143
 1758SOL    HW2 6174   1.756   6.703   5.118
 1759SOL     OW 6175   1.350   6.590   0.191
 1759SOL    HW1 6176   1.280   6.634   0.135
 1759SOL    HW2 6177   1.309   6.553   0.274
 1760SOL     OW 6178   6.451   0.641   5.235
 1760SOL    HW1 6179   6.416   0.548   5.233
 1760SOL    HW2 6180   6.475   0.666   5.329
 1761SOL     OW 6181   6.828   1.942   1.037
 1761SOL    HW1 6182   6.914   1.905   1.072
 1761SOL    HW2 6183   6.763   1.954   1.112
 1762SOL     OW 6184   0.374   1.350   5.478
 1762SOL    HW1 6185   0.468   1.321   5.497
 1762SOL    HW2 6186   0.327   1.279   5.426
 1763SOL     OW 6187   0.957   3.533   4.451
 1763SOL    HW1 6188   1.044   3.495   4.418
 1763SOL    HW2 6189   0.943   3.504   4.546
 1764SOL     OW 6190   1.449   4.631   2.156
 1764SOL    HW1 6191   1.500   4.550   2.127
 1764SOL    HW2 6192   1.390   4.607   2.233
 1765SOL     OW 6193   5.565   3.224   1.907
 1765SOL    HW1 6194   5.585   3.183   1.817
 1765SOL    HW2 6195   5.576   3.323   1.901
 1766SOL     OW 6196   4.225   4.823   4.258
 1766SOL    HW1 6197   4.133   4.819   4.296
 1766SOL    HW2 6198   4.287   4.860   4.327
 1767SOL     OW 6199   6.893   5.104   2.551
 1767SOL    HW1 6200   6.931   5.067   2.466
 1767SOL    HW2 6201   6.794   5.087   2.554
 1768SOL     OW 6202   4.526   6.595   2.239
 1768SOL    HW1 6203   4.493   6.619   2.330
 1768SOL    HW2 6204   4.453   6.607   2.172
 1769SOL     OW 6205   5.696   0.065   6.475
 1769SOL    HW1 6206   5.751   0.108   6.547
 1769SOL    HW2 6207   5.628   0.130   6.442
 1770SOL     OW 6208   1.663   4.565   6.116
 1770SOL    HW1 6209   1.758   4.597   6.105
 1770SOL    HW2 6210   1.640   4.503   6.041
 1771SOL     OW 6211   1.040   3.702   6.554
 1771SOL    HW1 6212   1.099   3.624   6.575
 1771SOL    HW2 6213   1.096   3.781   6.530
 1772SOL     OW 6214   2.869   4.870   4.119
 1772SOL    HW1 6215   2.854   4.822   4.205
 1772SOL    HW2 6216   2.925   4.814   4.058
 1773SOL     OW 6217   0.289   6.937   5.488
 1773SOL    HW1 6218   0.206   6.903   5.532
 1773SOL    HW2 6219   0.304   6.888   5.402
 1774SOL     OW 6220   5.720   5.787   1.191
 1774SOL    HW1 6221   5.686   5.795   1.284
 1774SOL    HW2 6222   5.678   5.858   1.134
 1775SOL     OW 6223   1.617   5.598   6.748
 1775SOL    HW1 6224   1.596   5.502   6.732
 1775SOL    HW2 6225   1.662   5.637   6.668
 1776SOL     OW 6226   4.248   1.111   5.497
 1776SOL    HW1 6227   4.289   1.025   5.528
 1776SOL    HW2 6228   4.252   1.178   5.571
 1777SOL     OW 6229   4.419   6.362   0.050
 1777SOL    HW1 6230   4.374   6.442   0.012
 1777SOL    HW2 6231   4.396   6.353   0.147
 1778SOL     OW 6232   5.963   1.034   3.971
 1778SOL    HW1 6233   5.927   0.965   3.907
 1778SOL    HW2 6234   5.901   1.043   4.049
 1779SOL     OW 6235   5.590   6.698   4.048
 1779SOL    HW1 6236   5.529   6.683   3.971
 1779SOL    HW2 6237   5.539   6.739   4.124
 1780SOL     OW 6238   1.977   5.497   4.953
 1780SOL    HW1 6239   1.899   5.560   4.955
 1780SOL    HW2 6240   2.019   5.499   4.862
 1781SOL     OW 6241   4.370   0.375   3.903
 1781SOL    HW1 6242   4.318   0.427   3.834
 1781SOL    HW2 6243   4.468   0.391   3.890
 1782SOL     OW 6244   1.424   1.817   2.823
 1782SOL    HW1 6245   1.408   1.753   2.899
 1782SOL    HW2 6246   1.338   1.862   2.798
 1783SOL     OW 6247   1.668   3.971   5.807
 1783SOL    HW1 6248   1.763   3.985   5.837
 1783SOL    HW2 6249   1.667   3.946   5.710
 1784SOL     OW 6250   2.431   0.795   0.970
 1784SOL    HW1 6251   2.497   0.743   0.916
 1784SOL    HW2 6252   2.452   0.786   1.067
 1785SOL     OW 6253   1.199   6.631   4.646
 1785SOL    HW1 6254   1.150   6.590   4.568
 1785SOL    HW2 6255   1.243   6.715   4.616
 1786SOL     OW 6256   1.489   5.911   0.646
 1786SOL    HW1 6257   1.551   5.954   0.580
 1786SOL    HW2 6258   1.483   5.813   0.629
 1787SOL     OW 6259   1.985   3.576   5.643
 1787SOL    HW1 6260   2.056   3.508   5.661
 1787SOL    HW2 6261   1.995   3.610   5.549
 1788SOL     OW 6262   4.713   4.064   0.652
 1788SOL    HW1 6263   4.641   3.995   0.648
 1788SOL    HW2 6264   4.694   4.128   0.726
 1789SOL     OW 6265   6.688   3.891   1.817
 1789SOL    HW1 6266   6.692   3.792   1.799
 1789SOL    HW2 6267   6.603   3.928   1.780
 1790SOL     OW 6268   2.806   2.370   4.309
 1790SOL    HW1 6269   2.821   2.321   4.224
 1790SOL    HW2 6270   2.737   2.441   4.295
 1791SOL     OW 6271   6.064   0.218   3.740
 1791SOL    HW1 6272   6.076   0.183   3.833
 1791SOL    HW2 6273   5.967   0.230   3.720
 1792SOL     OW 6274   6.608   1.631   5.059
 1792SOL    HW1 6275   6.604   1.681   4.972
 1792SOL    HW2 6276   6.638   1.693   5.132
 1793SOL     OW 6277   0.068   1.273   5.666
 1793SOL    HW1 6278   0.134   1.217   5.716
 1793SOL    HW2 6279   0.057   1.236   5.573
 1794SOL     OW 6280   0.105   0.293   6.391
 1794SOL    HW1 6281   0.069   0.261   6.303
 1794SOL    HW2 6282   0.030   0.329   6.447
 1795SOL     OW 6283   5.984   4.735   0.259
 1795SOL    HW1 6284   5.894   4.742   0.302
 1795SOL    HW2 6285   5.995   4.644   0.219
 1796SOL     OW 6286   1.122   6.898   5.662
 1796SOL    HW1 6287   1.106   6.996   5.646
 1796SOL    HW2 6288   1.040   6.846   5.636
 1797SOL     OW 6289   2.449   6.149   4.947
 1797SOL    HW1 6290   2.448   6.060   4.902
 1797SOL    HW2 6291   2.469   6.137   5.044
 1798SOL     OW 6292   3.154   3.970   4.838
 1798SOL    HW1 6293   3.114   4.037   4.775
 1798SOL    HW2 6294   3.107   3.975   4.926
 1799SOL     OW 6295   3.250   1.085   0.157
 1799SOL    HW1 6296   3.169   1.046   0.201
 1799SOL    HW2 6297   3.248   1.185   0.168
 1800SOL     OW 6298   5.392   3.346   4.335
 1800SOL    HW1 6299   5.366   3.366   4.241
 1800SOL    HW2 6300   5.311   3.320   4.387
 1801SOL     OW 6301   1.077   1.656   2.260
 1801SOL    HW1 6302   1.020   1.719   2.208
 1801SOL    HW2 6303   1.022   1.613   2.332
 1802SOL     OW 6304   6.441   4.688   3.609
 1802SOL    HW1 6305   6.526   4.644   3.581
 1802SOL    HW2 6306   6.440   4.698   3.708
 1803SOL     OW 6307   0.858   6.695   2.907
 1803SOL    HW1 6308   0.822   6.675   2.998
 1803SOL    HW2 6309   0.911   6.616   2.874
 1804SOL     OW 6310   2.517   3.367   6.074
 1804SOL    HW1 6311   2.594   3.348   6.013
 1804SOL    HW2 6312   2.526   3.461   6.109
 1805SOL     OW 6313   0.169   6.262   6.131
 1805SOL    HW1 6314   0.156   6.358   6.109
 1805SOL    HW2 6315   0.133   6.205   6.058
 1806SOL     OW 6316   6.960   1.950   1.809
 1806SOL    HW1 6317   6.945   2.047   1.790
 1806SOL    HW2 6318   6.988   1.938   1.905
 1807SOL     OW 6319   6.307   3.705   2.039
 1807SOL    HW1 6320   6.318   3.755   2.125
 1807SOL    HW2 6321   6.279   3.769   1.967
 1808SOL     OW 6322   5.533   1.884   5.793
 1808SOL    HW1 6323   5.496   1.922   5.878
 1808SOL    HW2 6324   5.489   1.796   5.774
 1809SOL     OW 6325   3.767   2.078   5.389
 1809SOL    HW1 6326   3.814   2.027   5.318
 1809SOL    HW2 6327   3.697   2.020   5.431
 1810SOL     OW 6328   0.708   6.799   4.220
 1810SOL    HW1 6329   0.757   6.794   4.133
 1810SOL    HW2 6330   0.662   6.887   4.227
 1811SOL     OW 6331   4.001   5.532   2.626
 1811SOL    HW1 6332   3.946   5.477   2.689
 1811SOL    HW2 6333   4.053   5.472   2.565
 1812SOL     OW 6334   4.902   0.112   5.780
 1812SOL    HW1 6335   4.968   0.107   5.855
 1812SOL    HW2 6336   4.863   0.022   5.764
 1813SOL     OW 6337   4.541   4.410   2.709
 1813SOL    HW1 6338   4.474   4.438   2.640
 1813SOL    HW2 6339   4.588   4.328   2.678
 1814SOL     OW 6340   0.625   6.593   0.653
 1814SOL    HW1 6341   0.704   6.632   0.605
 1814SOL    HW2 6342   0.550   6.658   0.651
 1815SOL     OW 6343   5.773   6.267   1.970
 1815SOL    HW1 6344   5.795   6.261   1.873
 1815SOL    HW2 6345   5.792   6.359   2.003
 1816SOL     OW 6346   4.067   5.619   5.905
 1816SOL    HW1 6347   4.112   5.627   5.994
 1816SOL    HW2 6348   4.027   5.707   5.879
 1817SOL     OW 6349   1.535   1.595   3.848
 1817SOL    HW1 6350   1.513   1.523   3.914
 1817SOL    HW2 6351   1.626   1.579   3.809
 1818SOL     OW 6352   2.360   6.498   7.007
 1818SOL    HW1 6353   2.394   6.497   6.913
 1818SOL    HW2 6354   2.273   6.448   7.011
 1819SOL     OW 6355   1.771   4.659   2.928
 1819SOL    HW1 6356   1.809   4.718   2.856
 1819SOL    HW2 6357   1.845   4.607   2.972
 1820SOL     OW 6358   3.674   0.595   3.815
 1820SOL    HW1 6359   3.711   0.664   3.752
 1820SOL    HW2 6360   3.691   0.624   3.909
 1821SOL     OW 6361   4.559   1.972   2.650
 1821SOL    HW1 6362   4.497   2.020   2.588
 1821SOL    HW2 6363   4.506   1.934   2.727
 1822SOL     OW 6364   0.509   3.292   2.212
 1822SOL    HW1 6365   0.531   3.251   2.124
 1822SOL    HW2 6366   0.447   3.232   2.263
 1823SOL     OW 6367   4.121   6.305   2.494
 1823SOL    HW1 6368   4.113   6.218   2.445
 1823SOL    HW2 6369   4.084   6.379   2.436
 1824SOL     OW 6370   4.091   3.558   0.965
 1824SOL    HW1 6371   4.105   3.562   1.064
 1824SOL    HW2 6372   4.174   3.587   0.918
 1825SOL     OW 6373   2.010   1.935   5.083
 1825SOL    HW1 6374   1.970   2.027   5.088
 1825SOL    HW2 6375   1.965   1.875   5.149
 1826SOL     OW 6376   3.456   2.299   1.714
 1826SOL    HW1 6377   3.538   2.318   1.767
 1826SOL    HW2 6378   3.417   2.384   1.680
 1827SOL     OW 6379   5.640   4.849   0.620
 1827SOL    HW1 6380   5.564   4.867   0.558
 1827SOL    HW2 6381   5.604   4.830   0.712
 1828SOL     OW 6382   1.599   3.435   5.453
 1828SOL    HW1 6383   1.665   3.364   5.428
 1828SOL    HW2 6384   1.635   3.489   5.529
 1829SOL     OW 6385   2.994   0.945   3.721
 1829SOL    HW1 6386   2.975   0.871   3.785
 1829SOL    HW2 6387   3.081   0.928   3.675
 1830SOL     OW 6388   5.919   6.552   4.834
 1830SOL    HW1 6389   5.822   6.575   4.823
 1830SOL    HW2 6390   5.951   6.504   4.753
 1831SOL     OW 6391   4.859   5.682   2.833
 1831SOL    HW1 6392   4.858   5.721   2.925
 1831SOL    HW2 6393   4.831   5.751   2.766
 1832SOL     OW 6394   2.589   2.812   0.493
 1832SOL    HW1 6395   2.667   2.756   0.520
 1832SOL    HW2 6396   2.504   2.764   0.515
 1833SOL     OW 6397   5.053   0.207   1.281
 1833SOL    HW1 6398   5.030   0.258   1.364
 1833SOL    HW2 6399   4.974   0.205   1.220
 1834SOL     OW 6400   2.520   2.782   6.657
 1834SOL    HW1 6401   2.610   2.745   6.681
 1834SOL    HW2 6402   2.514   2.877   6.688
 1835SOL     OW 6403   0.079   5.057   1.393
 1835SOL    HW1 6404   0.005   5.114   1.427
 1835SOL    HW2 6405   0.165   5.107   1.399
 1836SOL     OW 6406   5.445   2.358   1.498
 1836SOL    HW1 6407   5.416   2.436   1.554
 1836SOL    HW2 6408   5.470   2.282   1.558
 1837SOL     OW 6409   2.918   1.709   6.199
 1837SOL    HW1 6410   2.996   1.743   6.251
 1837SOL    HW2 6411   2.837   1.707   6.257
 1838SOL     OW 6412   6.215   0.981   0.663
 1838SOL    HW1 6413   6.286   1.015   0.601
 1838SOL    HW2 6414   6.208   1.043   0.741
 1839SOL     OW 6415   5.636   1.314   6.834
 1839SOL    HW1 6416   5.670   1.382   6.898
 1839SOL    HW2 6417   5.713   1.271   6.786
 1840SOL     OW 6418   4.095   7.018   3.322
 1840SOL    HW1 6419   4.110   0.091   3.356
 1840SOL    HW2 6420   4.021   7.020   3.255
 1841SOL     OW 6421   2.052   1.656   2.109
 1841SOL    HW1 6422   1.982   1.588   2.132
 1841SOL    HW2 6423   2.111   1.671   2.188
 1842SOL     OW 6424   1.613   5.462   0.434
 1842SOL    HW1 6425   1.571   5.451   0.344
 1842SOL    HW2 6426   1.712   5.454   0.426
 1843SOL     OW 6427   3.464   1.308   4.362
 1843SOL    HW1 6428   3.396   1.273   4.426
 1843SOL    HW2 6429   3.444   1.273   4.270
 1844SOL     OW 6430   5.380   1.186   6.701
 1844SOL    HW1 6431   5.475   1.183   6.733
 1844SOL    HW2 6432   5.349   1.281   6.701
 1845SOL     OW 6433   1.713   1.515   3.273
 1845SOL    HW1 6434   1.666   1.583   3.215
 1845SOL    HW2 6435   1.692   1.534   3.369
 1846SOL     OW 6436   4.248   1.336   2.572
 1846SOL    HW1 6437   4.266   1.284   2.489
 1846SOL    HW2 6438   4.273   1.282   2.652
 1847SOL     OW 6439   2.198   0.246   4.852
 1847SOL    HW1 6440   2.127   0.316   4.853
 1847SOL    HW2 6441   2.182   0.180   4.925
 1848SOL     OW 6442   2.192   5.640   4.233
 1848SOL    HW1 6443   2.097   5.610   4.223
 1848SOL    HW2 6444   2.196   5.720   4.293
 1849SOL     OW 6445   4.642   2.644   1.966
 1849SOL    HW1 6446   4.561   2.642   1.908
 1849SOL    HW2 6447   4.708   2.709   1.929
 1850SOL     OW 6448   5.243   1.790   1.750
 1850SOL    HW1 6449   5.219   1.870   1.805
 1850SOL    HW2 6450   5.342   1.780   1.747
 1851SOL     OW 6451   6.843   3.738   5.604
 1851SOL    HW1 6452   6.834   3.835   5.581
 1851SOL    HW2 6453   6.787   3.684   5.541
 1852SOL     OW 6454   1.486   5.316   2.120
 1852SOL    HW1 6455   1.491   5.227   2.076
 1852SOL    HW2 6456   1.464   5.304   2.217
 1853SOL     OW 6457   0.707   2.519   4.352
 1853SOL    HW1 6458   0.800   2.537   4.383
 1853SOL    HW2 6459   0.647   2.509   4.431
 1854SOL     OW 6460   0.316   6.416   3.676
 1854SOL    HW1 6461   0.347   6.437   3.769
 1854SOL    HW2 6462   0.233   6.468   3.656
 1855SOL     OW 6463   4.767   3.398   5.342
 1855SOL    HW1 6464   4.733   3.455   5.267
 1855SOL    HW2 6465   4.813   3.456   5.410
 1856SOL     OW 6466   3.723   2.751   0.241
 1856SOL    HW1 6467   3.694   2.817   0.310
 1856SOL    HW2 6468   3.814   2.774   0.209
 1857SOL     OW 6469   4.928   0.782   0.553
 1857SOL    HW1 6470   4.940   0.868   0.604
 1857SOL    HW2 6471   4.965   0.792   0.461
 1858SOL     OW 6472   4.261   2.251   4.309
 1858SOL    HW1 6473   4.347   2.294   4.281
 1858SOL    HW2 6474   4.185   2.299   4.266
 1859SOL     OW 6475   5.573   2.044   3.659
 1859SOL    HW1 6476   5.538   2.036   3.752
 1859SOL    HW2 6477   5.496   2.057   3.596
 1860SOL     OW 6478   1.547   1.107   4.762
 1860SOL    HW1 6479   1.555   1.014   4.727
 1860SOL    HW2 6480   1.560   1.172   4.687
 1861SOL     OW 6481   6.218   0.432   3.148
 1861SOL    HW1 6482   6.205   0.343   3.104
 1861SOL    HW2 6483   6.262   0.419   3.237
 1862SOL     OW 6484   2.671   6.134   6.623
 1862SOL    HW1 6485   2.601   6.201   6.598
 1862SOL    HW2 6486   2.759   6.181   6.634
 1863SOL     OW 6487   0.208   2.689   1.675
 1863SOL    HW1 6488   0.290   2.682   1.732
 1863SOL    HW2 6489   0.162   2.775   1.694
 1864SOL     OW 6490   3.563   5.796   2.981
 1864SOL    HW1 6491   3.538   5.853   3.059
 1864SOL    HW2 6492   3.493   5.726   2.967
 1865SOL     OW 6493   5.698   1.095   6.165
 1865SOL    HW1 6494   5.757   1.057   6.237
 1865SOL    HW2 6495   5.608   1.116   6.204
 1866SOL     OW 6496   0.100   4.469   3.387
 1866SOL    HW1 6497   0.068   4.517   3.305
 1866SOL    HW2 6498   0.022   4.424   3.431
 1867SOL     OW 6499   2.142   2.476   0.848
 1867SOL    HW1 6500   2.206   2.419   0.899
 1867SOL    HW2 6501   2.177   2.570   0.845
 1868SOL     OW 6502   5.960   4.492   5.847
 1868SOL    HW1 6503   5.998   4.543   5.770
 1868SOL    HW2 6504   5.923   4.556   5.914
 1869SOL     OW 6505   4.434   2.021   4.395
 1869SOL    HW1 6506   4.382   1.937   4.383
 1869SOL    HW2 6507   4.487   2.016   4.480
 1870SOL     OW 6508   0.644   4.906   4.096
 1870SOL    HW1 6509   0.727   4.959   4.114
 1870SOL    HW2 6510   0.563   4.960   4.123
 1871SOL     OW 6511   0.941   6.728   0.671
 1871SOL    HW1 6512   0.954   6.795   0.598
 1871SOL    HW2 6513   0.951   6.636   0.635
 1872SOL     OW 6514   2.482   2.495   0.740
 1872SOL    HW1 6515   2.452   2.529   0.830
 1872SOL    HW2 6516   2.455   2.561   0.670
 1873SOL     OW 6517   6.525   0.668   7.006
 1873SOL    HW1 6518   6.446   0.671   0.046
 1873SOL    HW2 6519   6.516   0.589   6.944
 1874SOL     OW 6520   0.950   6.405   0.105
 1874SOL    HW1 6521   0.998   6.340   0.164
 1874SOL    HW2 6522   0.976   6.388   0.010
 1875SOL     OW 6523   6.122   4.865   0.059
 1875SOL    HW1 6524   6.066   4.859   6.997
 1875SOL    HW2 6525   6.073   4.825   0.136
 1876SOL     OW 6526   6.721   5.815   6.446
 1876SOL    HW1 6527   6.666   5.898   6.453
 1876SOL    HW2 6528   6.789   5.814   6.519
 1877SOL     OW 6529   0.223   1.121   2.488
 1877SOL    HW1 6530   0.217   1.143   2.391
 1877SOL    HW2 6531   0.302   1.061   2.504
 1878SOL     OW 6532   6.884   4.778   3.602
 1878SOL    HW1 6533   6.823   4.856   3.595
 1878SOL    HW2 6534   6.963   4.791   3.541
 1879SOL     OW 6535   3.874   5.763   4.805
 1879SOL    HW1 6536   3.784   5.757   4.762
 1879SOL    HW2 6537   3.920   5.674   4.798
 1880SOL     OW 6538   0.693   1.635   3.966
 1880SOL    HW1 6539   0.679   1.578   3.885
 1880SOL    HW2 6540   0.791   1.655   3.976
 1881SOL     OW 6541   1.489   1.388   4.057
 1881SOL    HW1 6542   1.393   1.379   4.084
 1881SOL    HW2 6543   1.546   1.332   4.116
 1882SOL     OW 6544   1.240   5.453   0.066
 1882SOL    HW1 6545   1.183   5.485   0.142
 1882SOL    HW2 6546   1.209   5.496   7.001
 1883SOL     OW 6547   1.555   3.043   2.964
 1883SOL    HW1 6548   1.529   3.115   3.028
 1883SOL    HW2 6549   1.655   3.042   2.954
 1884SOL     OW 6550   2.886   0.652   0.071
 1884SOL    HW1 6551   2.868   0.721   0.142
 1884SOL    HW2 6552   2.948   0.583   0.108
 1885SOL     OW 6553   6.934   2.206   0.928
 1885SOL    HW1 6554   6.912   2.123   0.978
 1885SOL    HW2 6555   6.902   2.198   0.834
 1886SOL     OW 6556   2.884   2.903   6.875
 1886SOL    HW1 6557   2.970   2.909   6.825
 1886SOL    HW2 6558   2.874   2.812   6.915
 1887SOL     OW 6559   1.241   6.439   5.456
 1887SOL    HW1 6560   1.214   6.370   5.523
 1887SOL    HW2 6561   1.167   6.506   5.445
 1888SOL     OW 6562   1.815   2.470   6.198
 1888SOL    HW1 6563   1.814   2.503   6.292
 1888SOL    HW2 6564   1.813   2.370   6.197
 1889SOL     OW 6565   4.432   2.897   0.372
 1889SOL    HW1 6566   4.486   2.936   0.446
 1889SOL    HW2 6567   4.446   2.951   0.289
 1890SOL     OW 6568   6.963   5.766   6.265
 1890SOL    HW1 6569   6.896   5.732   6.199
 1890SOL    HW2 6570   6.921   5.771   6.356
 1891SOL     OW 6571   6.142   3.206   5.613
 1891SOL    HW1 6572   6.235   3.229   5.585
 1891SOL    HW2 6573   6.141   3.184   5.711
 1892SOL     OW 6574   3.872   4.898   1.994
 1892SOL    HW1 6575   3.810   4.830   2.034
 1892SOL    HW2 6576   3.819   4.962   1.939
 1893SOL     OW 6577   3.747   1.799   4.125
 1893SOL    HW1 6578   3.657   1.757   4.130
 1893SOL    HW2 6579   3.813   1.733   4.089
 1894SOL     OW 6580   4.485   3.835   0.736
 1894SOL    HW1 6581   4.572   3.838   0.786
 1894SOL    HW2 6582   4.483   3.752   0.680
 1895SOL     OW 6583   5.885   0.764   3.178
 1895SOL    HW1 6584   5.796   0.802   3.153
 1895SOL    HW2 6585   5.944   0.762   3.097
 1896SOL     OW 6586   0.047   1.464   5.051
 1896SOL    HW1 6587   0.057   1.368   5.077
 1896SOL    HW2 6588   6.977   1.478   5.009
 1897SOL     OW 6589   5.491   4.607   3.303
 1897SOL    HW1 6590   5.568   4.631   3.361
 1897SOL    HW2 6591   5.524   4.585   3.211
 1898SOL     OW 6592   5.516   4.798   1.139
 1898SOL    HW1 6593   5.531   4.725   1.206
 1898SOL    HW2 6594   5.537   4.886   1.180
 1899SOL     OW 6595   0.739   2.883   2.790
 1899SOL    HW1 6596   0.777   2.944   2.721
 1899SOL    HW2 6597   0.786   2.898   2.877
 1900SOL     OW 6598   1.997   5.653   6.153
 1900SOL    HW1 6599   1.959   5.663   6.061
 1900SOL    HW2 6600   2.069   5.722   6.167
 1901SOL     OW 6601   1.485   1.046   6.485
 1901SOL    HW1 6602   1.577   1.066   6.449
 1901SOL    HW2 6603   1.448   1.127   6.529
 1902SOL     OW 6604   0.938   2.944   4.539
 1902SOL    HW1 6605   0.924   3.013   4.468
 1902SOL    HW2 6606   1.035   2.918   4.540
 1903SOL     OW 6607   6.145   3.764   3.334
 1903SOL    HW1 6608   6.147   3.787   3.237
 1903SOL    HW2 6609   6.156   3.666   3.346
 1904SOL     OW 6610   6.370   0.268   3.891
 1904SOL    HW1 6611   6.276   0.234   3.897
 1904SOL    HW2 6612   6.432   0.203   3.935
 1905SOL     OW 6613   0.161   2.134   3.685
 1905SOL    HW1 6614   0.173   2.077   3.767
 1905SOL    HW2 6615   0.142   2.228   3.712
 1906SOL     OW 6616   2.595   0.415   6.464
 1906SOL    HW1 6617   2.691   0.409   6.491
 1906SOL    HW2 6618   2.577   0.504   6.422
 1907SOL     OW 6619   3.341   6.009   3.781
 1907SOL    HW1 6620   3.336   5.945   3.704
 1907SOL    HW2 6621   3.251   6.049   3.797
 1908SOL     OW 6622   4.091   1.434   6.101
 1908SOL    HW1 6623   4.127   1.497   6.170
 1908SOL    HW2 6624   4.143   1.349   6.103
 1909SOL     OW 6625   2.350   5.335   4.557
 1909SOL    HW1 6626   2.417   5.367   4.491
 1909SOL    HW2 6627   2.390   5.263   4.615
 1910SOL     OW 6628   5.447   1.939   6.049
 1910SOL    HW1 6629   5.384   1.950   6.126
 1910SOL    HW2 6630   5.527   1.997   6.063
 1911SOL     OW 6631   6.345   2.937   5.042
 1911SOL    HW1 6632   6.444   2.921   5.043
 1911SOL    HW2 6633   6.306   2.899   4.958
 1912SOL     OW 6634   3.624   6.939   2.829
 1912SOL    HW1 6635   3.565   6.926   2.908
 1912SOL    HW2 6636   3.637   0.016   2.813
 1913SOL     OW 6637   1.802   5.610   5.572
 1913SOL    HW1 6638   1.774   5.703   5.598
 1913SOL    HW2 6639   1.819   5.607   5.474
 1914SOL     OW 6640   3.427   2.501   6.110
 1914SOL    HW1 6641   3.357   2.452   6.059
 1914SOL    HW2 6642   3.421   2.599   6.088
 1915SOL     OW 6643   3.436   0.096   5.880
 1915SOL    HW1 6644   3.460   0.003   5.855
 1915SOL    HW2 6645   3.455   0.158   5.804
 1916SOL     OW 6646   3.097   6.109   2.122
 1916SOL    HW1 6647   3.071   6.017   2.151
 1916SOL    HW2 6648   3.197   6.116   2.120
 1917SOL     OW 6649   2.983   3.190   4.167
 1917SOL    HW1 6650   2.990   3.258   4.241
 1917SOL    HW2 6651   2.931   3.230   4.091
 1918SOL     OW 6652   5.808   5.686   5.045
 1918SOL    HW1 6653   5.729   5.701   4.986
 1918SOL    HW2 6654   5.815   5.589   5.067
 1919SOL     OW 6655   0.212   6.135   1.643
 1919SOL    HW1 6656   0.126   6.142   1.693
 1919SOL    HW2 6657   0.255   6.047   1.662
 1920SOL     OW 6658   0.345   5.749   3.931
 1920SOL    HW1 6659   0.258   5.797   3.944
 1920SOL    HW2 6660   0.366   5.695   4.012
 1921SOL     OW 6661   1.277   6.403   6.665
 1921SOL    HW1 6662   1.198   6.446   6.708
 1921SOL    HW2 6663   1.257   6.384   6.569
 1922SOL     OW 6664   3.732   3.985   1.024
 1922SOL    HW1 6665   3.812   3.995   1.085
 1922SOL    HW2 6666   3.764   3.968   0.931
 1923SOL     OW 6667   1.818   0.912   0.656
 1923SOL    HW1 6668   1.792   0.939   0.749
 1923SOL    HW2 6669   1.745   0.940   0.592
 1924SOL     OW 6670   0.132   4.057   1.694
 1924SOL    HW1 6671   0.103   3.995   1.767
 1924SOL    HW2 6672   0.179   4.136   1.734
 1925SOL     OW 6673   3.410   4.289   1.627
 1925SOL    HW1 6674   3.423   4.381   1.662
 1925SOL    HW2 6675   3.325   4.251   1.663
 1926SOL     OW 6676   1.124   6.910   4.441
 1926SOL    HW1 6677   1.112   6.979   4.513
 1926SOL    HW2 6678   1.052   6.841   4.449
 1927SOL     OW 6679   3.680   4.106   6.962
 1927SOL    HW1 6680   3.588   4.067   6.948
 1927SOL    HW2 6681   3.748   4.035   6.947
 1928SOL     OW 6682   6.168   4.140   5.713
 1928SOL    HW1 6683   6.113   4.149   5.630
 1928SOL    HW2 6684   6.215   4.052   5.712
 1929SOL     OW 6685   0.869   5.939   1.311
 1929SOL    HW1 6686   0.904   5.919   1.219
 1929SOL    HW2 6687   0.777   5.901   1.320
 1930SOL     OW 6688   5.901   4.734   6.291
 1930SOL    HW1 6689   5.910   4.673   6.369
 1930SOL    HW2 6690   5.913   4.829   6.320
 1931SOL     OW 6691   0.594   3.327   4.386
 1931SOL    HW1 6692   0.515   3.365   4.338
 1931SOL    HW2 6693   0.574   3.233   4.413
 1932SOL     OW 6694   5.211   4.089   1.965
 1932SOL    HW1 6695   5.215   3.991   1.986
 1932SOL    HW2 6696   5.116   4.118   1.958
 1933SOL     OW 6697   2.734   4.409   0.555
 1933SOL    HW1 6698   2.807   4.434   0.619
 1933SOL    HW2 6699   2.687   4.327   0.589
 1934SOL     OW 6700   1.143   6.859   5.958
 1934SOL    HW1 6701   1.117   6.892   5.868
 1934SOL    HW2 6702   1.105   6.768   5.973
 1935SOL     OW 6703   2.456   0.198   3.650
 1935SOL    HW1 6704   2.358   0.197   3.631
 1935SOL    HW2 6705   2.506   0.176   3.567
 1936SOL     OW 6706   6.037   6.217   4.660
 1936SOL    HW1 6707   6.042   6.274   4.578
 1936SOL    HW2 6708   6.065   6.124   4.637
 1937SOL     OW 6709   3.982   6.464   2.287
 1937SOL    HW1 6710   3.967   6.554   2.248
 1937SOL    HW2 6711   4.007   6.399   2.215
 1938SOL     OW 6712   4.162   0.932   3.704
 1938SOL    HW1 6713   4.205   0.967   3.621
 1938SOL    HW2 6714   4.205   0.846   3.730
 1939SOL     OW 6715   1.465   1.237   3.636
 1939SOL    HW1 6716   1.443   1.299   3.561
 1939SOL    HW2 6717   1.411   1.153   3.627
 1940SOL     OW 6718   6.680   5.411   6.870
 1940SOL    HW1 6719   6.727   5.493   6.837
 1940SOL    HW2 6720   6.585   5.433   6.891
 1941SOL     OW 6721   5.547   3.550   2.329
 1941SOL    HW1 6722   5.630   3.542   2.274
 1941SOL    HW2 6723   5.569   3.586   2.420
 1942SOL     OW 6724   6.404   5.152   2.375
 1942SOL    HW1 6725   6.434   5.162   2.470
 1942SOL    HW2 6726   6.481   5.123   2.319
 1943SOL     OW 6727   2.227   4.173   3.466
 1943SOL    HW1 6728   2.285   4.170   3.385
 1943SOL    HW2 6729   2.252   4.253   3.521
 1944SOL     OW 6730   5.870   1.267   6.687
 1944SOL    HW1 6731   5.935   1.337   6.660
 1944SOL    HW2 6732   5.919   1.186   6.720
 1945SOL     OW 6733   4.263   5.436   4.024
 1945SOL    HW1 6734   4.180   5.423   3.971
 1945SOL    HW2 6735   4.240   5.445   4.121
 1946SOL     OW 6736   1.337   0.694   0.083
 1946SOL    HW1 6737   1.248   0.738   0.092
 1946SOL    HW2 6738   1.345   0.621   0.150
 1947SOL     OW 6739   5.191   6.657   3.629
 1947SOL    HW1 6740   5.109   6.639   3.683
 1947SOL    HW2 6741   5.260   6.588   3.649
 1948SOL     OW 6742   6.790   5.944   4.303
 1948SOL    HW1 6743   6.721   5.898   4.360
 1948SOL    HW2 6744   6.754   6.031   4.271
 1949SOL     OW 6745   4.573   4.363   6.443
 1949SOL    HW1 6746   4.582   4.326   6.351
 1949SOL    HW2 6747   4.652   4.421   6.464
 1950SOL     OW 6748   3.394   4.096   6.893
 1950SOL    HW1 6749   3.320   4.151   6.934
 1950SOL    HW2 6750   3.382   4.093   6.794
 1951SOL     OW 6751   5.370   1.531   0.418
 1951SOL    HW1 6752   5.336   1.510   0.509
 1951SOL    HW2 6753   5.392   1.629   0.412
 1952SOL     OW 6754   4.126   2.181   0.795
 1952SOL    HW1 6755   4.071   2.261   0.817
 1952SOL    HW2 6756   4.086   2.133   0.717
 1953SOL     OW 6757   0.123   2.039   6.542
 1953SOL    HW1 6758   0.084   2.070   6.629
 1953SOL    HW2 6759   0.138   1.940   6.546
 1954SOL     OW 6760   4.305   1.872   3.651
 1954SOL    HW1 6761   4.404   1.865   3.638
 1954SOL    HW2 6762   4.264   1.915   3.571
 1955SOL     OW 6763   0.678   6.709   2.425
 1955SOL    HW1 6764   0.604   6.676   2.366
 1955SOL    HW2 6765   0.663   6.806   2.446
 1956SOL     OW 6766   5.706   5.821   2.594
 1956SOL    HW1 6767   5.637   5.869   2.539
 1956SOL    HW2 6768   5.766   5.888   2.638
 1957SOL     OW 6769   0.555   5.552   4.529
 1957SOL    HW1 6770   0.495   5.632   4.522
 1957SOL    HW2 6771   0.604   5.554   4.616
 1958SOL     OW 6772   5.268   3.679   5.256
 1958SOL    HW1 6773   5.243   3.582   5.247
 1958SOL    HW2 6774   5.309   3.711   5.171
 1959SOL     OW 6775   1.226   2.232   6.032
 1959SOL    HW1 6776   1.178   2.175   6.100
 1959SOL    HW2 6777   1.176   2.318   6.020
 1960SOL     OW 6778   5.877   4.960   0.433
 1960SOL    HW1 6779   5.927   5.045   0.450
 1960SOL    HW2 6780   5.850   4.919   0.520
 1961SOL     OW 6781   6.184   4.527   3.899
 1961SOL    HW1 6782   6.280   4.502   3.889
 1961SOL    HW2 6783   6.128   4.445   3.903
 1962SOL     OW 6784   1.391   6.059   3.516
 1962SOL    HW1 6785   1.488   6.077   3.498
 1962SOL    HW2 6786   1.366   5.970   3.476
 1963SOL     OW 6787   0.613   0.318   2.569
 1963SOL    HW1 6788   0.637   0.316   2.666
 1963SOL    HW2 6789   0.687   0.360   2.517
 1964SOL     OW 6790   4.316   2.247   2.117
 1964SOL    HW1 6791   4.271   2.225   2.030
 1964SOL    HW2 6792   4.271   2.199   2.192
 1965SOL     OW 6793   0.804   3.657   2.240
 1965SOL    HW1 6794   0.831   3.633   2.147
 1965SOL    HW2 6795   0.865   3.612   2.305
 1966SOL     OW 6796   6.979   5.327   5.069
 1966SOL    HW1 6797   7.015   5.249   5.019
 1966SOL    HW2 6798   0.033   5.374   5.116
 1967SOL     OW 6799   4.692   2.803   5.821
 1967SOL    HW1 6800   4.713   2.825   5.917
 1967SOL    HW2 6801   4.765   2.745   5.784
 1968SOL     OW 6802   3.076   6.151   6.982
 1968SOL    HW1 6803   3.168   6.160   7.020
 1968SOL    HW2 6804   3.024   6.233   7.002
 1969SOL     OW 6805   6.682   2.285   1.561
 1969SOL    HW1 6806   6.654   2.189   1.551
 1969SOL    HW2 6807   6.646   2.321   1.648
 1970SOL     OW 6808   1.478   0.007   5.783
 1970SOL    HW1 6809   1.552   0.032   5.845
 1970SOL    HW2 6810   1.495   0.048   5.693
 1971SOL     OW 6811   0.446   6.476   6.379
 1971SOL    HW1 6812   0.391   6.550   6.416
 1971SOL    HW2 6813   0.474   6.415   6.453
 1972SOL     OW 6814   0.673   4.431   3.993
 1972SOL    HW1 6815   0.576   4.421   4.015
 1972SOL    HW2 6816   0.705   4.521   4.022
 1973SOL     OW 6817   3.648   2.838   1.446
 1973SOL    HW1 6818   3.722   2.787   1.490
 1973SOL    HW2 6819   3.678   2.872   1.357
 1974SOL     OW 6820   5.301   6.660   4.802
 1974SOL    HW1 6821   5.330   6.590   4.867
 1974SOL    HW2 6822   5.252   6.616   4.726
 1975SOL     OW 6823   2.583   0.594   4.102
 1975SOL    HW1 6824   2.654   0.608   4.170
 1975SOL    HW2 6825   2.605   0.648   4.020
 1976SOL     OW 6826   0.603   5.804   0.602
 1976SOL    HW1 6827   0.508   5.786   0.627
 1976SOL    HW2 6828   0.651   5.845   0.679
 1977SOL     OW 6829   0.986   2.487   4.432
 1977SOL    HW1 6830   0.986   2.435   4.346
 1977SOL    HW2 6831   1.077   2.523   4.449
 1978SOL     OW 6832   0.228   1.086   4.943
 1978SOL    HW1 6833   0.286   1.012   4.977
 1978SOL    HW2 6834   0.285   1.163   4.915
 1979SOL     OW 6835   0.084   4.211   4.880
 1979SOL    HW1 6836   0.109   4.151   4.956
 1979SOL    HW2 6837   0.069   4.304   4.913
 1980SOL     OW 6838   3.279   0.051   1.188
 1980SOL    HW1 6839   3.213   0.046   1.263
 1980SOL    HW2 6840   3.263   0.133   1.134
 1981SOL     OW 6841   5.262   2.988   2.160
 1981SOL    HW1 6842   5.346   2.936   2.149
 1981SOL    HW2 6843   5.221   3.005   2.070
 1982SOL     OW 6844   6.194   5.087   4.873
 1982SOL    HW1 6845   6.214   5.021   4.801
 1982SOL    HW2 6846   6.109   5.062   4.919
 1983SOL     OW 6847   1.226   2.406   3.110
 1983SOL    HW1 6848   1.142   2.441   3.151
 1983SOL    HW2 6849   1.288   2.375   3.182
 1984SOL     OW 6850   4.438   1.507   6.096
 1984SOL    HW1 6851   4.340   1.527   6.101
 1984SOL    HW2 6852   4.465   1.451   6.175
 1985SOL     OW 6853   1.026   1.075   2.180
 1985SOL    HW1 6854   1.089   1.041   2.249
 1985SOL    HW2 6855   1.045   1.029   2.093
 1986SOL     OW 6856   1.547   2.066   6.859
 1986SOL    HW1 6857   1.599   1.981   6.859
 1986SOL    HW2 6858   1.608   2.142   6.880
 1987SOL     OW 6859   2.626   3.162   1.655
 1987SOL    HW1 6860   2.614   3.080   1.599
 1987SOL    HW2 6861   2.722   3.190   1.653
 1988SOL     OW 6862   4.757   3.860   6.722
 1988SOL    HW1 6863   4.773   3.773   6.674
 1988SOL    HW2 6864   4.801   3.857   6.812
 1989SOL     OW 6865   2.085   0.159   4.433
 1989SOL    HW1 6866   2.046   0.095   4.499
 1989SOL    HW2 6867   2.157   0.213   4.478
 1990SOL     OW 6868   3.005   1.071   1.092
 1990SOL    HW1 6869   3.053   1.007   1.033
 1990SOL    HW2 6870   3.040   1.063   1.186
 1991SOL     OW 6871   3.479   5.498   5.142
 1991SOL    HW1 6872   3.455   5.586   5.102
 1991SOL    HW2 6873   3.428   5.485   5.227
 1992SOL     OW 6874   2.268   6.736   4.853
 1992SOL    HW1 6875   2.261   6.831   4.823
 1992SOL    HW2 6876   2.180   6.706   4.890
 1993SOL     OW 6877   3.611   3.915   5.194
 1993SOL    HW1 6878   3.524   3.937   5.151
 1993SOL    HW2 6879   3.625   3.816   5.194
 1994SOL     OW 6880   0.169   1.913   1.656
 1994SOL    HW1 6881   0.182   1.814   1.648
 1994SOL    HW2 6882   0.081   1.932   1.698
 1995SOL     OW 6883   6.119   1.954   1.515
 1995SOL    HW1 6884   6.032   1.979   1.473
 1995SOL    HW2 6885   6.147   1.863   1.483
 1996SOL     OW 6886   3.438   3.416   0.220
 1996SOL    HW1 6887   3.391   3.441   0.135
 1996SOL    HW2 6888   3.416   3.483   0.291
 1997SOL     OW 6889   5.978   1.027   5.359
 1997SOL    HW1 6890   6.007   0.931   5.359
 1997SOL    HW2 6891   5.880   1.032   5.381
 1998SOL     OW 6892   2.723   4.031   6.469
 1998SOL    HW1 6893   2.810   4.059   6.430
 1998SOL    HW2 6894   2.681   4.108   6.516
 1999SOL     OW 6895   2.295   0.140   2.360
 1999SOL    HW1 6896   2.296   0.040   2.356
 1999SOL    HW2 6897   2.244   0.176   2.282
 2000SOL     OW 6898   4.469   1.345   4.748
 2000SOL    HW1 6899   4.387   1.389   4.711
 2000SOL    HW2 6900   4.547   1.407   4.740
 2001SOL     OW 6901   3.682   1.916   1.043
 2001SOL    HW1 6902   3.625   1.869   0.976
 2001SOL    HW2 6903   3.743   1.851   1.088
 2002SOL     OW 6904   2.074   6.404   6.036
 2002SOL    HW1 6905   2.103   6.341   5.964
 2002SOL    HW2 6906   2.001   6.362   6.090
 2003SOL     OW 6907   5.570   0.404   3.354
 2003SOL    HW1 6908   5.566   0.479   3.420
 2003SOL    HW2 6909   5.480   0.360   3.349
 2004SOL     OW 6910   4.122   1.155   4.611
 2004SOL    HW1 6911   4.088   1.215   4.683
 2004SOL    HW2 6912   4.216   1.127   4.632
 2005SOL     OW 6913   2.214   6.174   6.302
 2005SOL    HW1 6914   2.282   6.247   6.296
 2005SOL    HW2 6915   2.243   6.107   6.370
 2006SOL     OW 6916   4.685   4.410   3.624
 2006SOL    HW1 6917   4.625   4.383   3.548
 2006SOL    HW2 6918   4.632   4.464   3.690
 2007SOL     OW 6919   4.987   5.270   6.582
 2007SOL    HW1 6920   5.052   5.339   6.551
 2007SOL    HW2 6921   4.943   5.302   6.666
 2008SOL     OW 6922   6.483   6.308   3.530
 2008SOL    HW1 6923   6.510   6.351   3.615
 2008SOL    HW2 6924   6.453   6.378   3.465
 2009SOL     OW 6925   0.082   0.308   1.938
 2009SOL    HW1 6926   0.145   0.244   1.980
 2009SOL    HW2 6927   0.082   0.297   1.839
 2010SOL     OW 6928   0.953   0.598   0.700
 2010SOL    HW1 6929   0.857   0.571   0.694
 2010SOL    HW2 6930   0.991   0.607   0.607
 2011SOL     OW 6931   6.652   2.418   4.738
 2011SOL    HW1 6932   6.639   2.421   4.837
 2011SOL    HW2 6933   6.616   2.332   4.702
 2012SOL     OW 6934   1.459   3.902   1.648
 2012SOL    HW1 6935   1.422   3.966   1.716
 2012SOL    HW2 6936   1.405   3.818   1.649
 2013SOL     OW 6937   5.610   1.773   3.047
 2013SOL    HW1 6938   5.601   1.686   3.094
 2013SOL    HW2 6939   5.526   1.827   3.060
 2014SOL     OW 6940   1.095   5.742   3.499
 2014SOL    HW1 6941   1.109   5.740   3.598
 2014SOL    HW2 6942   1.183   5.753   3.453
 2015SOL     OW 6943   3.865   0.796   0.323
 2015SOL    HW1 6944   3.827   0.889   0.322
 2015SOL    HW2 6945   3.957   0.798   0.283
 2016SOL     OW 6946   1.043   5.756   4.328
 2016SOL    HW1 6947   1.137   5.721   4.318
 2016SOL    HW2 6948   0.987   5.688   4.374
 2017SOL     OW 6949   2.387   5.965   3.483
 2017SOL    HW1 6950   2.397   6.005   3.392
 2017SOL    HW2 6951   2.302   5.913   3.488
 2018SOL     OW 6952   0.139   5.591   4.972
 2018SOL    HW1 6953   0.236   5.614   4.979
 2018SOL    HW2 6954   0.117   5.516   5.035
 2019SOL     OW 6955   5.324   2.856   0.709
 2019SOL    HW1 6956   5.257   2.927   0.686
 2019SOL    HW2 6957   5.367   2.877   0.797
 2020SOL     OW 6958   1.717   5.076   4.318
 2020SOL    HW1 6959   1.791   5.040   4.261
 2020SOL    HW2 6960   1.633   5.084   4.264
 2021SOL     OW 6961   1.477   0.708   1.952
 2021SOL    HW1 6962   1.466   0.794   2.003
 2021SOL    HW2 6963   1.550   0.719   1.884
 2022SOL     OW 6964   2.101   3.435   1.731
 2022SOL    HW1 6965   2.126   3.477   1.818
 2022SOL    HW2 6966   2.182   3.393   1.689
 2023SOL     OW 6967   6.737   0.747   0.155
 2023SOL    HW1 6968   6.732   0.846   0.152
 2023SOL    HW2 6969   6.657   0.707   0.108
 2024SOL     OW 6970   6.202   0.648   3.403
 2024SOL    HW1 6971   6.122   0.588   3.394
 2024SOL    HW2 6972   6.278   0.596   3.442
 2025SOL     OW 6973   1.045   2.338   1.209
 2025SOL    HW1 6974   1.032   2.388   1.123
 2025SOL    HW2 6975   1.037   2.240   1.192
 2026SOL     OW 6976   2.301   2.451   5.998
 2026SOL    HW1 6977   2.208   2.483   5.981
 2026SOL    HW2 6978   2.359   2.529   6.023
 2027SOL     OW 6979   0.425   0.956   2.475
 2027SOL    HW1 6980   0.434   0.968   2.376
 2027SOL    HW2 6981   0.512   0.973   2.520
 2028SOL     OW 6982   3.802   1.560   0.703
 2028SOL    HW1 6983   3.839   1.626   0.769
 2028SOL    HW2 6984   3.714   1.594   0.669
 2029SOL     OW 6985   1.343   0.831   6.370
 2029SOL    HW1 6986   1.397   0.908   6.404
 2029SOL    HW2 6987   1.400   0.772   6.313
 2030SOL     OW 6988   2.570   2.196   3.591
 2030SOL    HW1 6989   2.665   2.209   3.564
 2030SOL    HW2 6990   2.510   2.238   3.522
 2031SOL     OW 6991   5.501   5.942   2.125
 2031SOL    HW1 6992   5.467   5.850   2.145
 2031SOL    HW2 6993   5.567   5.969   2.195
 2032SOL     OW 6994   5.031   6.154   1.089
 2032SOL    HW1 6995   4.945   6.144   1.141
 2032SOL    HW2 6996   5.049   6.070   1.038
 2033SOL     OW 6997   4.531   4.658   6.497
 2033SOL    HW1 6998   4.603   4.599   6.534
 2033SOL    HW2 6999   4.508   4.728   6.564
 2034SOL     OW 7000   1.955   5.932   3.332
 2034SOL    HW1 7001   1.867   5.898   3.299
 2034SOL    HW2 7002   2.025   5.917   3.263
 2035SOL     OW 7003   0.027   1.538   2.364
 2035SOL    HW1 7004   0.080   1.527   2.448
 2035SOL    HW2 7005   6.980   1.611   2.378
 2036SOL     OW 7006   0.624   5.215   0.924
 2036SOL    HW1 7007   0.671   5.281   0.866
 2036SOL    HW2 7008   0.530   5.246   0.939
 2037SOL     OW 7009   6.720   2.458   5.601
 2037SOL    HW1 7010   6.679   2.478   5.690
 2037SOL    HW2 7011   6.667   2.503   5.529
 2038SOL     OW 7012   1.024   2.016   5.413
 2038SOL    HW1 7013   1.049   1.971   5.499
 2038SOL    HW2 7014   0.925   2.027   5.410
 2039SOL     OW 7015   0.050   5.995   3.916
 2039SOL    HW1 7016   0.031   5.935   3.838
 2039SOL    HW2 7017   0.106   6.072   3.886
 2040SOL     OW 7018   3.906   3.467   4.578
 2040SOL    HW1 7019   3.820   3.441   4.534
 2040SOL    HW2 7020   3.976   3.486   4.509
 2041SOL     OW 7021   5.566   4.594   6.026
 2041SOL    HW1 7022   5.610   4.561   6.110
 2041SOL    HW2 7023   5.560   4.694   6.030
 2042SOL     OW 7024   5.414   5.494   0.900
 2042SOL    HW1 7025   5.330   5.475   0.951
 2042SOL    HW2 7026   5.491   5.500   0.963
 2043SOL     OW 7027   6.295   5.378   2.351
 2043SOL    HW1 7028   6.311   5.438   2.430
 2043SOL    HW2 7029   6.326   5.286   2.372
 2044SOL     OW 7030   6.100   0.035   2.313
 2044SOL    HW1 7031   6.031   0.100   2.281
 2044SOL    HW2 7032   6.063   6.963   2.311
 2045SOL     OW 7033   2.510   4.929   5.941
 2045SOL    HW1 7034   2.574   4.901   5.869
 2045SOL    HW2 7035   2.450   4.852   5.963
 2046SOL     OW 7036   7.003   0.092   4.604
 2046SOL    HW1 7037   6.906   0.090   4.581
 2046SOL    HW2 7038   0.006   0.179   4.648
 2047SOL     OW 7039   4.862   1.968   1.382
 2047SOL    HW1 7040   4.931   1.896   1.394
 2047SOL    HW2 7041   4.896   2.054   1.421
 2048SOL     OW 7042   3.546   6.867   0.366
 2048SOL    HW1 7043   3.644   6.862   0.351
 2048SOL    HW2 7044   3.520   6.798   0.435
 2049SOL     OW 7045   4.669   1.554   6.471
 2049SOL    HW1 7046   4.735   1.569   6.544
 2049SOL    HW2 7047   4.639   1.642   6.435
 2050SOL     OW 7048   5.948   2.821   3.608
 2050SOL    HW1 7049   6.033   2.768   3.602
 2050SOL    HW2 7050   5.970   2.919   3.607
 2051SOL     OW 7051   0.713   4.998   6.849
 2051SOL    HW1 7052   0.748   4.955   6.765
 2051SOL    HW2 7053   0.741   4.944   6.928
 2052SOL     OW 7054   0.710   3.280   6.915
 2052SOL    HW1 7055   0.804   3.251   6.934
 2052SOL    HW2 7056   0.651   3.199   6.908
 2053SOL     OW 7057   6.056   0.219   0.535
 2053SOL    HW1 7058   5.972   0.248   0.581
 2053SOL    HW2 7059   6.128   0.205   0.603
 2054SOL     OW 7060   6.098   2.879   0.949
 2054SOL    HW1 7061   6.059   2.878   1.041
 2054SOL    HW2 7062   6.149   2.794   0.934
 2055SOL     OW 7063   5.619   2.266   3.397
 2055SOL    HW1 7064   5.689   2.201   3.368
 2055SOL    HW2 7065   5.637   2.296   3.490
 2056SOL     OW 7066   1.978   1.364   3.076
 2056SOL    HW1 7067   1.929   1.432   3.132
 2056SOL    HW2 7068   1.953   1.377   2.980
 2057SOL     OW 7069   5.816   2.134   3.605
 2057SOL    HW1 7070   5.831   2.229   3.632
 2057SOL    HW2 7071   5.721   2.108   3.625
 2058SOL     OW 7072   0.558   1.810   3.400
 2058SOL    HW1 7073   0.518   1.876   3.336
 2058SOL    HW2 7074   0.640   1.850   3.442
 2059SOL     OW 7075   2.296   0.450   0.070
 2059SOL    HW1 7076   2.364   0.391   0.028
 2059SOL    HW2 7077   2.205   0.418   0.047
 2060SOL     OW 7078   6.917   4.585   1.784
 2060SOL    HW1 7079   6.973   4.503   1.793
 2060SOL    HW2 7080   6.974   4.667   1.793
 2061SOL     OW 7081   6.858   1.219   2.509
 2061SOL    HW1 7082   6.857   1.258   2.601
 2061SOL    HW2 7083   6.912   1.278   2.449
 2062SOL     OW 7084   4.777   6.893   2.738
 2062SOL    HW1 7085   4.843   6.963   2.710
 2062SOL    HW2 7086   4.806   6.853   2.825
 2063SOL     OW 7087   1.345   1.621   6.164
 2063SOL    HW1 7088   1.319   1.576   6.078
 2063SOL    HW2 7089   1.428   1.675   6.150
 2064SOL     OW 7090   1.239   2.508   5.443
 2064SOL    HW1 7091   1.175   2.534   5.371
 2064SOL    HW2 7092   1.287   2.425   5.418
 2065SOL     OW 7093   5.770   3.485   2.205
 2065SOL    HW1 7094   5.780   3.395   2.162
 2065SOL    HW2 7095   5.861   3.522   2.226
 2066SOL     OW 7096   0.883   5.134   4.343
 2066SOL    HW1 7097   0.978   5.150   4.369
 2066SOL    HW2 7098   0.830   5.218   4.357
 2067SOL     OW 7099   6.797   6.742   0.601
 2067SOL    HW1 7100   6.704   6.718   0.630
 2067SOL    HW2 7101   6.793   6.812   0.530
 2068SOL     OW 7102   2.138   1.347   5.351
 2068SOL    HW1 7103   2.214   1.328   5.289
 2068SOL    HW2 7104   2.173   1.384   5.437
 2069SOL     OW 7105   0.653   2.999   2.413
 2069SOL    HW1 7106   0.728   3.054   2.376
 2069SOL    HW2 7107   0.654   2.908   2.371
 2070SOL     OW 7108   1.176   0.517   2.070
 2070SOL    HW1 7109   1.124   0.598   2.044
 2070SOL    HW2 7110   1.239   0.492   1.996
 2071SOL     OW 7111   0.909   6.190   4.118
 2071SOL    HW1 7112   0.865   6.147   4.196
 2071SOL    HW2 7113   0.902   6.130   4.038
 2072SOL     OW 7114   4.841   5.843   2.225
 2072SOL    HW1 7115   4.864   5.750   2.254
 2072SOL    HW2 7116   4.745   5.863   2.248
 2073SOL     OW 7117   4.031   0.249   4.538
 2073SOL    HW1 7118   3.953   0.236   4.478
 2073SOL    HW2 7119   4.045   0.346   4.555
 2074SOL     OW 7120   0.123   1.999   6.808
 2074SOL    HW1 7121   0.166   1.915   6.842
 2074SOL    HW2 7122   0.076   2.046   6.883
 2075SOL     OW 7123   4.870   3.525   1.419
 2075SOL    HW1 7124   4.808   3.465   1.370
 2075SOL    HW2 7125   4.955   3.476   1.438
 2076SOL     OW 7126   5.745   6.449   0.076
 2076SOL    HW1 7127   5.674   6.390   0.038
 2076SOL    HW2 7128   5.731   6.459   0.175
 2077SOL     OW 7129   5.439   2.621   2.182
 2077SOL    HW1 7130   5.521   2.566   2.167
 2077SOL    HW2 7131   5.443   2.665   2.271
 2078SOL     OW 7132   2.832   5.897   6.329
 2078SOL    HW1 7133   2.783   5.839   6.395
 2078SOL    HW2 7134   2.926   5.863   6.318
 2079SOL     OW 7135   5.536   0.711   3.846
 2079SOL    HW1 7136   5.542   0.619   3.806
 2079SOL    HW2 7137   5.474   0.767   3.790
 2080SOL     OW 7138   2.408   1.702   4.889
 2080SOL    HW1 7139   2.416   1.733   4.794
 2080SOL    HW2 7140   2.319   1.727   4.926
 2081SOL     OW 7141   1.118   6.035   5.426
 2081SOL    HW1 7142   1.168   6.011   5.509
 2081SOL    HW2 7143   1.177   6.024   5.346
 2082SOL     OW 7144   5.692   0.675   1.591
 2082SOL    HW1 7145   5.668   0.606   1.660
 2082SOL    HW2 7146   5.640   0.758   1.608
 2083SOL     OW 7147   4.238   5.096   6.678
 2083SOL    HW1 7148   4.164   5.035   6.707
 2083SOL    HW2 7149   4.243   5.174   6.740
 2084SOL     OW 7150   6.786   2.372   3.481
 2084SOL    HW1 7151   6.852   2.443   3.459
 2084SOL    HW2 7152   6.719   2.364   3.406
 2085SOL     OW 7153   5.446   0.931   6.738
 2085SOL    HW1 7154   5.455   0.998   6.812
 2085SOL    HW2 7155   5.363   0.877   6.752
 2086SOL     OW 7156   2.744   5.256   6.470
 2086SOL    HW1 7157   2.844   5.253   6.477
 2086SOL    HW2 7158   2.710   5.335   6.521
 2087SOL     OW 7159   4.777   6.534   2.147
 2087SOL    HW1 7160   4.687   6.564   2.179
 2087SOL    HW2 7161   4.848   6.591   2.187
 2088SOL     OW 7162   3.411   5.791   0.615
 2088SOL    HW1 7163   3.342   5.855   0.649
 2088SOL    HW2 7164   3.416   5.712   0.676
 2089SOL     OW 7165   4.923   1.349   0.098
 2089SOL    HW1 7166   4.855   1.355   0.025
 2089SOL    HW2 7167   5.008   1.391   0.067
 2090SOL     OW 7168   3.955   3.816   4.304
 2090SOL    HW1 7169   3.937   3.874   4.384
 2090SOL    HW2 7170   3.937   3.720   4.328
 2091SOL     OW 7171   0.560   5.809   0.239
 2091SOL    HW1 7172   0.595   5.769   0.323
 2091SOL    HW2 7173   0.612   5.892   0.217
 2092SOL     OW 7174   5.613   6.208   0.558
 2092SOL    HW1 7175   5.688   6.260   0.600
 2092SOL    HW2 7176   5.650   6.123   0.520
 2093SOL     OW 7177   1.295   2.019   1.684
 2093SOL    HW1 7178   1.371   2.051   1.627
 2093SOL    HW2 7179   1.216   2.078   1.668
 2094SOL     OW 7180   6.085   0.572   1.881
 2094SOL    HW1 7181   6.060   0.640   1.949
 2094SOL    HW2 7182   6.176   0.536   1.901
 2095SOL     OW 7183   5.114   6.923   3.546
 2095SOL    HW1 7184   5.146   6.835   3.581
 2095SOL    HW2 7185   5.054   6.907   3.467
 2096SOL     OW 7186   4.842   3.845   3.019
 2096SOL    HW1 7187   4.834   3.828   3.117
 2096SOL    HW2 7188   4.858   3.759   2.971
 2097SOL     OW 7189   0.992   2.932   6.464
 2097SOL    HW1 7190   1.007   2.930   6.563
 2097SOL    HW2 7191   0.951   2.845   6.435
 2098SOL     OW 7192   4.000   6.288   3.959
 2098SOL    HW1 7193   4.081   6.347   3.958
 2098SOL    HW2 7194   3.955   6.292   3.869
 2099SOL     OW 7195   2.650   0.890   4.730
 2099SOL    HW1 7196   2.553   0.881   4.750
 2099SOL    HW2 7197   2.663   0.950   4.650
 2100SOL     OW 7198   3.604   3.646   6.529
 2100SOL    HW1 7199   3.695   3.649   6.489
 2100SOL    HW2 7200   3.541   3.698   6.472
 2101SOL     OW 7201   0.718   6.702   2.050
 2101SOL    HW1 7202   0.693   6.749   2.134
 2101SOL    HW2 7203   0.815   6.717   2.031
 2102SOL     OW 7204   0.422   4.995   2.185
 2102SOL    HW1 7205   0.419   4.896   2.190
 2102SOL    HW2 7206   0.330   5.031   2.168
 2103SOL     OW 7207   2.505   3.881   0.014
 2103SOL    HW1 7208   2.511   3.960   6.973
 2103SOL    HW2 7209   2.563   3.896   0.094
 2104SOL     OW 7210   1.536   3.428   6.687
 2104SOL    HW1 7211   1.609   3.407   6.623
 2104SOL    HW2 7212   1.572   3.430   6.780
 2105SOL     OW 7213   5.608   5.368   3.146
 2105SOL    HW1 7214   5.541   5.315   3.093
 2105SOL    HW2 7215   5.561   5.430   3.208
 2106SOL     OW 7216   4.182   5.153   0.080
 2106SOL    HW1 7217   4.176   5.153   0.180
 2106SOL    HW2 7218   4.246   5.225   0.050
 2107SOL     OW 7219   3.984   3.503   5.843
 2107SOL    HW1 7220   3.994   3.562   5.763
 2107SOL    HW2 7221   4.048   3.427   5.836
 2108SOL     OW 7222   6.167   5.976   5.782
 2108SOL    HW1 7223   6.162   5.889   5.831
 2108SOL    HW2 7224   6.138   5.963   5.687
 2109SOL     OW 7225   4.926   6.860   3.308
 2109SOL    HW1 7226   4.864   6.938   3.299
 2109SOL    HW2 7227   4.873   6.775   3.306
 2110SOL     OW 7228   2.700   4.190   6.678
 2110SOL    HW1 7229   2.730   4.274   6.631
 2110SOL    HW2 7230   2.778   4.129   6.689
 2111SOL     OW 7231   0.739   1.948   6.350
 2111SOL    HW1 7232   0.676   2.022   6.372
 2111SOL    HW2 7233   0.800   1.930   6.427
 2112SOL     OW 7234   4.748   1.929   1.831
 2112SOL    HW1 7235   4.804   1.946   1.912
 2112SOL    HW2 7236   4.730   2.016   1.785
 2113SOL     OW 7237   1.193   6.963   3.795
 2113SOL    HW1 7238   1.192   7.000   3.702
 2113SOL    HW2 7239   1.288   6.943   3.821
 2114SOL     OW 7240   1.505   3.309   0.678
 2114SOL    HW1 7241   1.409   3.312   0.653
 2114SOL    HW2 7242   1.528   3.218   0.713
 2115SOL     OW 7243   1.983   4.104   3.060
 2115SOL    HW1 7244   1.950   4.168   3.130
 2115SOL    HW2 7245   1.914   4.096   2.987
 2116SOL     OW 7246   6.430   3.850   3.165
 2116SOL    HW1 7247   6.523   3.813   3.163
 2116SOL    HW2 7248   6.422   3.925   3.099
 2117SOL     OW 7249   0.295   4.878   1.849
 2117SOL    HW1 7250   0.367   4.941   1.819
 2117SOL    HW2 7251   0.337   4.795   1.887
 2118SOL     OW 7252   0.136   3.281   2.666
 2118SOL    HW1 7253   0.224   3.236   2.655
 2118SOL    HW2 7254   0.125   3.310   2.761
 2119SOL     OW 7255   2.457   5.932   0.954
 2119SOL    HW1 7256   2.386   5.993   0.990
 2119SOL    HW2 7257   2.547   5.972   0.972
 2120SOL     OW 7258   6.500   5.137   2.617
 2120SOL    HW1 7259   6.481   5.159   2.713
 2120SOL    HW2 7260   6.518   5.039   2.608
 2121SOL     OW 7261   0.955   4.707   5.067
 2121SOL    HW1 7262   0.906   4.620   5.065
 2121SOL    HW2 7263   0.914   4.765   5.138
 2122SOL     OW 7264   6.141   4.535   5.066
 2122SOL    HW1 7265   6.113   4.612   5.010
 2122SOL    HW2 7266   6.238   4.544   5.090
 2123SOL     OW 7267   0.628   4.516   2.706
 2123SOL    HW1 7268   0.563   4.443   2.732
 2123SOL    HW2 7269   0.622   4.591   2.771
 2124SOL     OW 7270   1.898   1.468   0.982
 2124SOL    HW1 7271   1.955   1.422   0.913
 2124SOL    HW2 7272   1.848   1.399   1.035
 2125SOL     OW 7273   1.450   1.065   0.612
 2125SOL    HW1 7274   1.541   1.100   0.587
 2125SOL    HW2 7275   1.402   1.037   0.529
 2126SOL     OW 7276   2.900   0.758   0.663
 2126SOL    HW1 7277   2.899   0.660   0.683
 2126SOL    HW2 7278   2.808   0.789   0.642
 2127SOL     OW 7279   6.137   2.928   4.486
 2127SOL    HW1 7280   6.153   2.829   4.484
 2127SOL    HW2 7281   6.043   2.946   4.515
 2128SOL     OW 7282   0.081   4.355   4.625
 2128SOL    HW1 7283   0.055   4.286   4.693
 2128SOL    HW2 7284   0.118   4.435   4.673
 2129SOL     OW 7285   4.417   2.981   5.691
 2129SOL    HW1 7286   4.400   3.062   5.748
 2129SOL    HW2 7287   4.510   2.948   5.706
 2130SOL     OW 7288   4.819   6.876   2.450
 2130SOL    HW1 7289   4.760   6.898   2.528
 2130SOL    HW2 7290   4.885   6.806   2.476
 2131SOL     OW 7291   0.179   0.841   0.601
 2131SOL    HW1 7292   0.217   0.835   0.693
 2131SOL    HW2 7293   0.225   0.912   0.550
 2132SOL     OW 7294   3.947   3.376   0.811
 2132SOL    HW1 7295   4.009   3.326   0.751
 2132SOL    HW2 7296   3.998   3.443   0.865
 2133SOL     OW 7297   2.942   2.456   5.320
 2133SOL    HW1 7298   3.018   2.422   5.266
 2133SOL    HW2 7299   2.862   2.398   5.305
 2134SOL     OW 7300   6.960   1.909   0.766
 2134SOL    HW1 7301   6.949   1.879   0.861
 2134SOL    HW2 7302   6.892   1.980   0.746
 2135SOL     OW 7303   0.356   4.323   4.458
 2135SOL    HW1 7304   0.263   4.360   4.446
 2135SOL    HW2 7305   0.388   4.342   4.551
 2136SOL     OW 7306   2.715   5.289   1.861
 2136SOL    HW1 7307   2.671   5.307   1.949
 2136SOL    HW2 7308   2.751   5.195   1.861
 2137SOL     OW 7309   3.309   5.055   4.763
 2137SOL    HW1 7310   3.253   5.130   4.800
 2137SOL    HW2 7311   3.302   4.976   4.823
 2138SOL     OW 7312   6.053   1.156   3.022
 2138SOL    HW1 7313   6.091   1.127   3.110
 2138SOL    HW2 7314   5.959   1.188   3.035
 2139SOL     OW 7315   3.755   0.333   4.659
 2139SOL    HW1 7316   3.844   0.350   4.701
 2139SOL    HW2 7317   3.744   0.235   4.642
 2140SOL     OW 7318   3.675   0.380   4.945
 2140SOL    HW1 7319   3.586   0.389   4.989
 2140SOL    HW2 7320   3.668   0.408   4.849
 2141SOL     OW 7321   6.417   4.101   2.406
 2141SOL    HW1 7322   6.354   4.093   2.483
 2141SOL    HW2 7323   6.374   4.066   2.323
 2142SOL     OW 7324   1.393   2.394   3.613
 2142SOL    HW1 7325   1.368   2.306   3.654
 2142SOL    HW2 7326   1.356   2.468   3.669
 2143SOL     OW 7327   1.937   5.627   1.026
 2143SOL    HW1 7328   2.005   5.664   0.963
 2143SOL    HW2 7329   1.974   5.545   1.070
 2144SOL     OW 7330   0.525   4.742   4.395
 2144SOL    HW1 7331   0.594   4.680   4.359
 2144SOL    HW2 7332   0.569   4.825   4.429
 2145SOL     OW 7333   4.136   6.748   4.118
 2145SOL    HW1 7334   4.229   6.718   4.097
 2145SOL    HW2 7335   4.097   6.795   4.039
 2146SOL     OW 7336   2.038   2.027   0.559
 2146SOL    HW1 7337   2.061   2.095   0.629
 2146SOL    HW2 7338   1.983   1.954   0.600
 2147SOL     OW 7339   6.626   1.944   5.752
 2147SOL    HW1 7340   6.650   1.862   5.701
 2147SOL    HW2 7341   6.571   1.920   5.831
 2148SOL     OW 7342   0.353   3.490   6.565
 2148SOL    HW1 7343   0.397   3.406   6.531
 2148SOL    HW2 7344   0.284   3.519   6.499
 2149SOL     OW 7345   1.042   1.089   0.785
 2149SOL    HW1 7346   1.089   1.137   0.859
 2149SOL    HW2 7347   1.064   1.133   0.697
 2150SOL     OW 7348   2.636   2.554   1.769
 2150SOL    HW1 7349   2.620   2.518   1.677
 2150SOL    HW2 7350   2.603   2.649   1.774
 2151SOL     OW 7351   0.675   6.260   6.740
 2151SOL    HW1 7352   0.582   6.259   6.702
 2151SOL    HW2 7353   0.740   6.286   6.668
 2152SOL     OW 7354   3.685   5.476   2.082
 2152SOL    HW1 7355   3.609   5.410   2.083
 2152SOL    HW2 7356   3.667   5.548   2.149
 2153SOL     OW 7357   4.775   1.421   2.519
 2153SOL    HW1 7358   4.683   1.455   2.542
 2153SOL    HW2 7359   4.767   1.338   2.464
 2154SOL     OW 7360   2.607   6.735   3.691
 2154SOL    HW1 7361   2.680   6.705   3.629
 2154SOL    HW2 7362   2.645   6.796   3.760
 2155SOL     OW 7363   4.258   6.812   1.040
 2155SOL    HW1 7364   4.338   6.782   0.988
 2155SOL    HW2 7365   4.238   6.908   1.017
 2156SOL     OW 7366   6.479   0.563   4.234
 2156SOL    HW1 7367   6.470   0.634   4.304
 2156SOL    HW2 7368   6.389   0.538   4.200
 2157SOL     OW 7369   4.549   6.080   3.875
 2157SOL    HW1 7370   4.549   6.179   3.888
 2157SOL    HW2 7371   4.465   6.041   3.912
 2158SOL     OW 7372   4.213   6.677   0.694
 2158SOL    HW1 7373   4.286   6.738   0.725
 2158SOL    HW2 7374   4.129   6.697   0.744
 2159SOL     OW 7375   1.682   0.604   5.357
 2159SOL    HW1 7376   1.603   0.662   5.336
 2159SOL    HW2 7377   1.651   0.517   5.394
 2160SOL     OW 7378   4.885   5.353   6.851
 2160SOL    HW1 7379   4.974   5.315   6.876
 2160SOL    HW2 7380   4.817   5.279   6.846
 2161SOL     OW 7381   0.293   3.997   2.395
 2161SOL    HW1 7382   0.367   4.052   2.432
 2161SOL    HW2 7383   0.206   4.043   2.411
 2162SOL     OW 7384   2.753   6.669   3.414
 2162SOL    HW1 7385   2.674   6.706   3.366
 2162SOL    HW2 7386   2.744   6.570   3.421
 2163SOL     OW 7387   1.885   3.404   0.499
 2163SOL    HW1 7388   1.799   3.371   0.459
 2163SOL    HW2 7389   1.884   3.388   0.598
 2164SOL     OW 7390   2.763   2.678   6.669
 2164SOL    HW1 7391   2.824   2.704   6.594
 2164SOL    HW2 7392   2.816   2.672   6.754
 2165SOL     OW 7393   0.914   1.620   4.292
 2165SOL    HW1 7394   0.909   1.706   4.241
 2165SOL    HW2 7395   1.008   1.607   4.325
 2166SOL     OW 7396   0.406   4.433   4.131
 2166SOL    HW1 7397   0.485   4.405   4.185
 2166SOL    HW2 7398   0.335   4.363   4.136
 2167SOL     OW 7399   1.201   2.685   3.488
 2167SOL    HW1 7400   1.206   2.627   3.569
 2167SOL    HW2 7401   1.120   2.744   3.494
 2168SOL     OW 7402   0.795   1.896   3.198
 2168SOL    HW1 7403   0.841   1.818   3.239
 2168SOL    HW2 7404   0.725   1.864   3.134
 2169SOL     OW 7405   0.407   0.158   1.043
 2169SOL    HW1 7406   0.344   0.223   1.002
 2169SOL    HW2 7407   0.379   0.139   1.137
 2170SOL     OW 7408   0.222   4.039   4.709
 2170SOL    HW1 7409   0.287   3.980   4.757
 2170SOL    HW2 7410   0.184   4.106   4.773
 2171SOL     OW 7411   0.546   5.975   0.991
 2171SOL    HW1 7412   0.506   6.063   0.967
 2171SOL    HW2 7413   0.476   5.904   0.982
 2172SOL     OW 7414   1.091   1.825   5.667
 2172SOL    HW1 7415   1.066   1.732   5.637
 2172SOL    HW2 7416   1.185   1.825   5.700
 2173SOL     OW 7417   5.592   0.064   5.527
 2173SOL    HW1 7418   5.575   0.077   5.625
 2173SOL    HW2 7419   5.505   0.065   5.478
 2174SOL     OW 7420   0.287   6.218   5.131
 2174SOL    HW1 7421   0.249   6.147   5.191
 2174SOL    HW2 7422   0.244   6.210   5.041
 2175SOL     OW 7423   1.926   2.911   5.034
 2175SOL    HW1 7424   1.985   2.953   5.104
 2175SOL    HW2 7425   1.904   2.979   4.964
 2176SOL     OW 7426   4.639   2.472   1.294
 2176SOL    HW1 7427   4.619   2.565   1.323
 2176SOL    HW2 7428   4.674   2.419   1.372
 2177SOL     OW 7429   6.427   0.500   2.693
 2177SOL    HW1 7430   6.374   0.578   2.726
 2177SOL    HW2 7431   6.507   0.486   2.750
 2178SOL     OW 7432   1.032   0.995   1.926
 2178SOL    HW1 7433   0.997   1.048   1.849
 2178SOL    HW2 7434   1.106   0.935   1.894
 2179SOL     OW 7435   1.915   3.809   6.163
 2179SOL    HW1 7436   1.994   3.764   6.206
 2179SOL    HW2 7437   1.846   3.829   6.232
 2180SOL     OW 7438   1.882   3.493   2.101
 2180SOL    HW1 7439   1.970   3.531   2.130
 2180SOL    HW2 7440   1.876   3.494   2.002
 2181SOL     OW 7441   4.905   4.989   4.498
 2181SOL    HW1 7442   4.876   5.079   4.466
 2181SOL    HW2 7443   4.836   4.951   4.559
 2182SOL     OW 7444   0.599   4.617   3.598
 2182SOL    HW1 7445   0.665   4.621   3.524
 2182SOL    HW2 7446   0.568   4.709   3.621
 2183SOL     OW 7447   2.592   3.814   0.487
 2183SOL    HW1 7448   2.512   3.801   0.430
 2183SOL    HW2 7449   2.663   3.748   0.462
 2184SOL     OW 7450   5.082   0.214   0.181
 2184SOL    HW1 7451   5.016   0.175   0.244
 2184SOL    HW2 7452   5.174   0.182   0.205
 2185SOL     OW 7453   1.023   1.216   6.629
 2185SOL    HW1 7454   1.039   1.196   6.533
 2185SOL    HW2 7455   1.008   1.130   6.679
 2186SOL     OW 7456   6.184   5.275   5.485
 2186SOL    HW1 7457   6.115   5.318   5.542
 2186SOL    HW2 7458   6.176   5.310   5.391
 2187SOL     OW 7459   6.976   5.813   2.667
 2187SOL    HW1 7460   6.925   5.850   2.745
 2187SOL    HW2 7461   0.045   5.858   2.662
 2188SOL     OW 7462   2.339   5.116   5.905
 2188SOL    HW1 7463   2.395   5.041   5.941
 2188SOL    HW2 7464   2.364   5.133   5.809
 2189SOL     OW 7465   2.257   1.148   2.318
 2189SOL    HW1 7466   2.295   1.129   2.408
 2189SOL    HW2 7467   2.252   1.247   2.303
 2190SOL     OW 7468   0.067   3.709   2.350
 2190SOL    HW1 7469   0.122   3.720   2.432
 2190SOL    HW2 7470   0.022   3.620   2.351
 2191SOL     OW 7471   2.791   1.397   5.139
 2191SOL    HW1 7472   2.842   1.335   5.198
 2191SOL    HW2 7473   2.845   1.419   5.058
 2192SOL     OW 7474   5.799   0.206   2.486
 2192SOL    HW1 7475   5.846   0.198   2.398
 2192SOL    HW2 7476   5.701   0.194   2.472
 2193SOL     OW 7477   6.133   6.838   6.044
 2193SOL    HW1 7478   6.227   6.859   6.017
 2193SOL    HW2 7479   6.100   6.909   6.106
 2194SOL     OW 7480   0.730   3.905   5.469
 2194SOL    HW1 7481   0.643   3.857   5.477
 2194SOL    HW2 7482   0.715   3.998   5.437
 2195SOL     OW 7483   6.736   6.122   5.233
 2195SOL    HW1 7484   6.753   6.130   5.331
 2195SOL    HW2 7485   6.717   6.026   5.210
 2196SOL     OW 7486   3.185   6.651   5.053
 2196SOL    HW1 7487   3.147   6.743   5.055
 2196SOL    HW2 7488   3.246   6.638   5.132
 2197SOL     OW 7489   2.814   3.137   6.262
 2197SOL    HW1 7490   2.850   3.197   6.190
 2197SOL    HW2 7491   2.855   3.161   6.350
 2198SOL     OW 7492   6.474   6.953   0.902
 2198SOL    HW1 7493   6.469   6.922   0.807
 2198SOL    HW2 7494   6.522   6.885   0.957
 2199SOL     OW 7495   5.257   6.950   4.945
 2199SOL    HW1 7496   5.245   0.007   5.007
 2199SOL    HW2 7497   5.327   6.888   4.982
 2200SOL     OW 7498   2.903   1.370   3.745
 2200SOL    HW1 7499   2.966   1.340   3.674
 2200SOL    HW2 7500   2.809   1.353   3.715
 2201SOL     OW 7501   6.115   3.186   3.002
 2201SOL    HW1 7502   6.107   3.237   2.916
 2201SOL    HW2 7503   6.212   3.183   3.029
 2202SOL     OW 7504   2.947   5.824   2.594
 2202SOL    HW1 7505   2.894   5.794   2.515
 2202SOL    HW2 7506   2.886   5.862   2.663
 2203SOL     OW 7507   2.462   3.373   1.344
 2203SOL    HW1 7508   2.417   3.341   1.428
 2203SOL    HW2 7509   2.476   3.472   1.349
 2204SOL     OW 7510   4.630   2.958   0.740
 2204SOL    HW1 7511   4.542   2.911   0.749
 2204SOL    HW2 7512   4.703   2.899   0.775
 2205SOL     OW 7513   1.329   0.208   0.060
 2205SOL    HW1 7514   1.371   0.119   0.045
 2205SOL    HW2 7515   1.278   0.207   0.147
 2206SOL     OW 7516   2.158   4.565   6.297
 2206SOL    HW1 7517   2.058   4.561   6.298
 2206SOL    HW2 7518   2.195   4.490   6.242
 2207SOL     OW 7519   3.238   5.239   0.088
 2207SOL    HW1 7520   3.335   5.219   0.091
 2207SOL    HW2 7521   3.197   5.217   0.177
 2208SOL     OW 7522   0.893   5.453   3.144
 2208SOL    HW1 7523   0.823   5.445   3.215
 2208SOL    HW2 7524   0.983   5.441   3.184
 2209SOL     OW 7525   2.736   6.072   5.039
 2209SOL    HW1 7526   2.746   5.980   5.001
 2209SOL    HW2 7527   2.760   6.139   4.970
 2210SOL     OW 7528   6.688   5.925   2.860
 2210SOL    HW1 7529   6.755   5.868   2.908
 2210SOL    HW2 7530   6.601   5.924   2.910
 2211SOL     OW 7531   6.196   0.650   0.648
 2211SOL    HW1 7532   6.185   0.749   0.658
 2211SOL    HW2 7533   6.108   0.606   0.662
 2212SOL     OW 7534   1.845   5.907   6.709
 2212SOL    HW1 7535   1.826   5.852   6.791
 2212SOL    HW2 7536   1.897   5.988   6.734
 2213SOL     OW 7537   4.432   2.669   5.547
 2213SOL    HW1 7538   4.370   2.693   5.621
 2213SOL    HW2 7539   4.522   2.646   5.584
 2214SOL     OW 7540   3.131   3.151   4.859
 2214SOL    HW1 7541   3.123   3.147   4.959
 2214SOL    HW2 7542   3.063   3.216   4.823
 2215SOL     OW 7543   5.480   1.793   6.540
 2215SOL    HW1 7544   5.442   1.751   6.458
 2215SOL    HW2 7545   5.484   1.724   6.613
 2216SOL     OW 7546   0.236   0.385   6.062
 2216SOL    HW1 7547   0.156   0.327   6.074
 2216SOL    HW2 7548   0.287   0.356   5.981
 2217SOL     OW 7549   4.450   0.296   3.318
 2217SOL    HW1 7550   4.459   0.336   3.227
 2217SOL    HW2 7551   4.431   0.198   3.310
 2218SOL     OW 7552   6.796   5.069   6.898
 2218SOL    HW1 7553   6.854   5.039   6.823
 2218SOL    HW2 7554   6.713   5.110   6.861
 2219SOL     OW 7555   6.175   2.264   1.171
 2219SOL    HW1 7556   6.138   2.305   1.087
 2219SOL    HW2 7557   6.153   2.166   1.172
 2220SOL     OW 7558   2.054   5.882   5.646
 2220SOL    HW1 7559   2.051   5.943   5.725
 2220SOL    HW2 7560   2.086   5.792   5.674
 2221SOL     OW 7561   6.769   1.963   4.941
 2221SOL    HW1 7562   6.762   1.870   4.904
 2221SOL    HW2 7563   6.706   1.974   5.017
 2222SOL     OW 7564   5.860   6.944   0.559
 2222SOL    HW1 7565   5.824   7.012   0.494
 2222SOL    HW2 7566   5.828   6.966   0.651
 2223SOL     OW 7567   6.316   1.617   6.174
 2223SOL    HW1 7568   6.224   1.581   6.160
 2223SOL    HW2 7569   6.316   1.716   6.159
 2224SOL     OW 7570   6.006   3.226   1.917
 2224SOL    HW1 7571   5.978   3.299   1.854
 2224SOL    HW2 7572   5.975   3.138   1.882
 2225SOL     OW 7573   0.220   6.729   3.069
 2225SOL    HW1 7574   0.312   6.706   3.101
 2225SOL    HW2 7575   0.222   6.818   3.024
 2226SOL     OW 7576   3.858   5.609   0.622
 2226SOL    HW1 7577   3.876   5.605   0.720
 2226SOL    HW2 7578   3.818   5.522   0.593
 2227SOL     OW 7579   4.825   2.588   1.582
 2227SOL    HW1 7580   4.896   2.565   1.649
 2227SOL    HW2 7581   4.746   2.529   1.597
 2228SOL     OW 7582   4.548   5.457   0.196
 2228SOL    HW1 7583   4.551   5.557   0.190
 2228SOL    HW2 7584   4.640   5.422   0.213
 2229SOL     OW 7585   4.018   3.905   4.776
 2229SOL    HW1 7586   4.033   3.881   4.681
 2229SOL    HW2 7587   4.106   3.915   4.823
 2230SOL     OW 7588   5.326   6.015   1.210
 2230SOL    HW1 7589   5.324   6.008   1.309
 2230SOL    HW2 7590   5.234   5.999   1.174
 2231SOL     OW 7591   0.833   0.284   6.836
 2231SOL    HW1 7592   0.874   0.277   6.927
 2231SOL    HW2 7593   0.857   0.204   6.782
 2232SOL     OW 7594   0.577   1.593   4.855
 2232SOL    HW1 7595   0.568   1.517   4.920
 2232SOL    HW2 7596   0.647   1.657   4.887
 2233SOL     OW 7597   2.597   2.836   0.951
 2233SOL    HW1 7598   2.565   2.744   0.930
 2233SOL    HW2 7599   2.619   2.884   0.866
 2234SOL     OW 7600   3.374   1.565   0.479
 2234SOL    HW1 7601   3.302   1.610   0.426
 2234SOL    HW2 7602   3.397   1.478   0.436
 2235SOL     OW 7603   2.552   0.172   2.410
 2235SOL    HW1 7604   2.462   0.146   2.374
 2235SOL    HW2 7605   2.585   0.253   2.363
 2236SOL     OW 7606   1.710   3.617   5.635
 2236SOL    HW1 7607   1.807   3.593   5.634
 2236SOL    HW2 7608   1.699   3.716   5.629
 2237SOL     OW 7609   5.701   4.391   4.855
 2237SOL    HW1 7610   5.791   4.388   4.812
 2237SOL    HW2 7611   5.709   4.433   4.946
 2238SOL     OW 7612   4.381   4.742   2.689
 2238SOL    HW1 7613   4.417   4.670   2.630
 2238SOL    HW2 7614   4.413   4.727   2.783
 2239SOL     OW 7615   4.570   5.645   3.994
 2239SOL    HW1 7616   4.552   5.709   3.920
 2239SOL    HW2 7617   4.588   5.554   3.957
 2240SOL     OW 7618   3.370   5.431   2.694
 2240SOL    HW1 7619   3.391   5.333   2.698
 2240SOL    HW2 7620   3.455   5.482   2.682
 2241SOL     OW 7621   6.892   6.721   2.194
 2241SOL    HW1 7622   6.974   6.743   2.141
 2241SOL    HW2 7623   6.867   6.799   2.251
 2242SOL     OW 7624   5.322   3.432   2.763
 2242SOL    HW1 7625   5.294   3.358   2.825
 2242SOL    HW2 7626   5.420   3.425   2.744
 2243SOL     OW 7627   2.007   6.888   0.102
 2243SOL    HW1 7628   1.987   6.802   0.054
 2243SOL    HW2 7629   2.070   6.870   0.177
 2244SOL     OW 7630   2.671   7.017   1.457
 2244SOL    HW1 7631   2.616   0.059   1.513
 2244SOL    HW2 7632   2.613   6.972   1.389
 2245SOL     OW 7633   0.305   1.528   1.192
 2245SOL    HW1 7634   0.292   1.545   1.095
 2245SOL    HW2 7635   0.256   1.445   1.218
 2246SOL     OW 7636   1.863   0.865   4.115
 2246SOL    HW1 7637   1.957   0.864   4.147
 2246SOL    HW2 7638   1.848   0.945   4.057
 2247SOL     OW 7639   2.998   3.068   2.712
 2247SOL    HW1 7640   3.016   3.165   2.731
 2247SOL    HW2 7641   2.907   3.044   2.747
 2248SOL     OW 7642   6.250   3.959   4.427
 2248SOL    HW1 7643   6.194   4.023   4.480
 2248SOL    HW2 7644   6.338   3.946   4.472
 2249SOL     OW 7645   4.733   6.946   3.654
 2249SOL    HW1 7646   4.692   6.934   3.744
 2249SOL    HW2 7647   4.679   7.012   3.601
 2250SOL     OW 7648   2.846   3.673   5.436
 2250SOL    HW1 7649   2.769   3.713   5.485
 2250SOL    HW2 7650   2.873   3.733   5.361
 2251SOL     OW 7651   5.402   0.106   6.174
 2251SOL    HW1 7652   5.477   0.052   6.214
 2251SOL    HW2 7653   5.367   0.170   6.243
 2252SOL     OW 7654   4.946   1.848   3.068
 2252SOL    HW1 7655   4.923   1.828   3.164
 2252SOL    HW2 7656   5.012   1.780   3.036
 2253SOL     OW 7657   0.175   3.805   0.438
 2253SOL    HW1 7658   0.174   3.706   0.423
 2253SOL    HW2 7659   0.181   3.851   0.349
 2254SOL     OW 7660   3.708   2.887   4.076
 2254SOL    HW1 7661   3.728   2.789   4.073
 2254SOL    HW2 7662   3.609   2.901   4.078
 2255SOL     OW 7663   3.364   3.915   5.800
 2255SOL    HW1 7664   3.421   3.943   5.724
 2255SOL    HW2 7665   3.268   3.932   5.778
 2256SOL     OW 7666   5.116   6.865   1.843
 2256SOL    HW1 7667   5.048   6.874   1.916
 2256SOL    HW2 7668   5.113   6.948   1.786
 2257SOL     OW 7669   0.849   0.828   4.812
 2257SOL    HW1 7670   0.860   0.742   4.862
 2257SOL    HW2 7671   0.914   0.830   4.736
 2258SOL     OW 7672   2.017   5.510   4.490
 2258SOL    HW1 7673   2.038   5.415   4.464
 2258SOL    HW2 7674   1.983   5.560   4.411
 2259SOL     OW 7675   5.129   2.800   5.304
 2259SOL    HW1 7676   5.112   2.784   5.401
 2259SOL    HW2 7677   5.194   2.876   5.294
 2260SOL     OW 7678   0.260   3.718   1.436
 2260SOL    HW1 7679   0.198   3.762   1.371
 2260SOL    HW2 7680   0.313   3.788   1.485
 2261SOL     OW 7681   6.348   5.226   0.158
 2261SOL    HW1 7682   6.390   5.310   0.192
 2261SOL    HW2 7683   6.416   5.153   0.156
 2262SOL     OW 7684   6.229   6.986   3.140
 2262SOL    HW1 7685   6.234   0.038   3.071
 2262SOL    HW2 7686   6.215   0.007   3.230
 2263SOL     OW 7687   2.450   6.172   0.199
 2263SOL    HW1 7688   2.359   6.131   0.189
 2263SOL    HW2 7689   2.450   6.235   0.276
 2264SOL     OW 7690   3.177   6.469   6.516
 2264SOL    HW1 7691   3.243   6.461   6.590
 2264SOL    HW2 7692   3.093   6.511   6.550
 2265SOL     OW 7693   1.965   0.524   4.303
 2265SOL    HW1 7694   2.019   0.590   4.355
 2265SOL    HW2 7695   1.979   0.541   4.205
 2266SOL     OW 7696   5.026   2.049   6.294
 2266SOL    HW1 7697   5.027   2.146   6.267
 2266SOL    HW2 7698   4.983   2.040   6.384
 2267SOL     OW 7699   4.733   3.106   5.349
 2267SOL    HW1 7700   4.734   3.203   5.374
 2267SOL    HW2 7701   4.639   3.077   5.333
 2268SOL     OW 7702   6.224   4.031   6.519
 2268SOL    HW1 7703   6.258   4.076   6.601
 2268SOL    HW2 7704   6.182   4.098   6.458
 2269SOL     OW 7705   0.794   3.454   5.384
 2269SOL    HW1 7706   0.832   3.545   5.369
 2269SOL    HW2 7707   0.859   3.385   5.351
 2270SOL     OW 7708   3.977   3.046   6.368
 2270SOL    HW1 7709   3.972   2.975   6.297
 2270SOL    HW2 7710   4.028   3.010   6.447
 2271SOL     OW 7711   5.689   4.549   0.172
 2271SOL    HW1 7712   5.690   4.456   0.135
 2271SOL    HW2 7713   5.745   4.553   0.255
 2272SOL     OW 7714   6.018   1.140   6.895
 2272SOL    HW1 7715   6.102   1.114   6.848
 2272SOL    HW2 7716   6.037   1.218   6.955
 2273SOL     OW 7717   1.070   2.183   1.702
 2273SOL    HW1 7718   0.970   2.178   1.698
 2273SOL    HW2 7719   1.097   2.239   1.780
 2274SOL     OW 7720   0.360   1.757   6.535
 2274SOL    HW1 7721   0.396   1.668   6.561
 2274SOL    HW2 7722   0.361   1.765   6.435
 2275SOL     OW 7723   5.800   6.618   2.989
 2275SOL    HW1 7724   5.875   6.651   2.932
 2275SOL    HW2 7725   5.835   6.592   3.079
 2276SOL     OW 7726   1.534   5.588   1.835
 2276SOL    HW1 7727   1.562   5.584   1.930
 2276SOL    HW2 7728   1.439   5.618   1.829
 2277SOL     OW 7729   3.435   4.108   5.009
 2277SOL    HW1 7730   3.410   4.021   4.968
 2277SOL    HW2 7731   3.525   4.136   4.976
 2278SOL     OW 7732   6.175   2.689   3.576
 2278SOL    HW1 7733   6.213   2.643   3.496
 2278SOL    HW2 7734   6.246   2.699   3.646
 2279SOL     OW 7735   5.875   0.261   5.250
 2279SOL    HW1 7736   5.974   0.280   5.251
 2279SOL    HW2 7737   5.860   0.163   5.240
 2280SOL     OW 7738   6.890   6.877   4.304
 2280SOL    HW1 7739   6.933   6.809   4.363
 2280SOL    HW2 7740   6.850   6.950   4.360
 2281SOL     OW 7741   3.023   0.628   1.889
 2281SOL    HW1 7742   3.017   0.567   1.968
 2281SOL    HW2 7743   3.014   0.723   1.919
 2282SOL     OW 7744   5.599   6.022   6.045
 2282SOL    HW1 7745   5.537   5.986   5.975
 2282SOL    HW2 7746   5.693   5.994   6.023
 2283SOL     OW 7747   1.726   0.376   1.722
 2283SOL    HW1 7748   1.799   0.345   1.662
 2283SOL    HW2 7749   1.674   0.297   1.755
 2284SOL     OW 7750   1.124   3.196   6.501
 2284SOL    HW1 7751   1.061   3.119   6.499
 2284SOL    HW2 7752   1.157   3.214   6.408
 2285SOL     OW 7753   1.053   3.147   0.435
 2285SOL    HW1 7754   1.091   3.085   0.503
 2285SOL    HW2 7755   1.088   3.239   0.450
 2286SOL     OW 7756   5.245   0.488   3.583
 2286SOL    HW1 7757   5.169   0.540   3.622
 2286SOL    HW2 7758   5.331   0.529   3.612
 2287SOL     OW 7759   1.911   0.611   3.452
 2287SOL    HW1 7760   1.989   0.670   3.474
 2287SOL    HW2 7761   1.897   0.545   3.526
 2288SOL     OW 7762   6.638   5.211   3.914
 2288SOL    HW1 7763   6.548   5.167   3.914
 2288SOL    HW2 7764   6.704   5.154   3.865
 2289SOL     OW 7765   0.077   5.216   0.545
 2289SOL    HW1 7766   7.020   5.277   0.559
 2289SOL    HW2 7767   0.150   5.266   0.498
 2290SOL     OW 7768   0.718   3.756   1.241
 2290SOL    HW1 7769   0.632   3.807   1.240
 2290SOL    HW2 7770   0.793   3.818   1.266
 2291SOL     OW 7771   2.488   2.557   5.595
 2291SOL    HW1 7772   2.436   2.642   5.605
 2291SOL    HW2 7773   2.535   2.557   5.507
 2292SOL     OW 7774   1.527   1.722   4.605
 2292SOL    HW1 7775   1.568   1.787   4.670
 2292SOL    HW2 7776   1.432   1.747   4.589
 2293SOL     OW 7777   5.074   6.202   1.901
 2293SOL    HW1 7778   4.979   6.189   1.928
 2293SOL    HW2 7779   5.133   6.142   1.955
 2294SOL     OW 7780   3.214   0.356   0.068
 2294SOL    HW1 7781   3.299   0.308   0.091
 2294SOL    HW2 7782   3.190   0.419   0.142
 2295SOL     OW 7783   0.244   1.903   2.431
 2295SOL    HW1 7784   0.278   1.815   2.464
 2295SOL    HW2 7785   0.162   1.929   2.481
 2296SOL     OW 7786   3.539   5.913   0.431
 2296SOL    HW1 7787   3.595   5.854   0.373
 2296SOL    HW2 7788   3.476   5.856   0.484
 2297SOL     OW 7789   3.641   4.248   5.421
 2297SOL    HW1 7790   3.682   4.158   5.432
 2297SOL    HW2 7791   3.712   4.318   5.429
 2298SOL     OW 7792   4.027   2.677   1.655
 2298SOL    HW1 7793   4.010   2.702   1.560
 2298SOL    HW2 7794   4.095   2.740   1.694
 2299SOL     OW 7795   5.084   0.255   6.659
 2299SOL    HW1 7796   5.166   0.199   6.645
 2299SOL    HW2 7797   5.086   0.293   6.751
 2300SOL     OW 7798   2.613   4.844   1.542
 2300SOL    HW1 7799   2.702   4.836   1.495
 2300SOL    HW2 7800   2.559   4.917   1.498
 2301SOL     OW 7801   3.172   2.977   3.213
 2301SOL    HW1 7802   3.138   3.020   3.130
 2301SOL    HW2 7803   3.104   2.911   3.246
 2302SOL     OW 7804   3.568   6.982   1.963
 2302SOL    HW1 7805   3.546   6.967   2.060
 2302SOL    HW2 7806   3.501   0.025   1.924
 2303SOL     OW 7807   1.587   3.277   6.028
 2303SOL    HW1 7808   1.660   3.225   5.983
 2303SOL    HW2 7809   1.558   3.351   5.967
 2304SOL     OW 7810   3.006   0.356   3.331
 2304SOL    HW1 7811   2.943   0.303   3.387
 2304SOL    HW2 7812   2.956   0.427   3.283
 2305SOL     OW 7813   3.231   5.968   3.188
 2305SOL    HW1 7814   3.195   6.061   3.179
 2305SOL    HW2 7815   3.331   5.971   3.186
 2306SOL     OW 7816   2.128   5.441   1.983
 2306SOL    HW1 7817   2.029   5.427   1.988
 2306SOL    HW2 7818   2.165   5.451   2.076
 2307SOL     OW 7819   2.112   4.506   2.777
 2307SOL    HW1 7820   2.212   4.506   2.779
 2307SOL    HW2 7821   2.080   4.424   2.729
 2308SOL     OW 7822   1.688   0.007   6.914
 2308SOL    HW1 7823   1.755   0.037   6.983
 2308SOL    HW2 7824   1.719   0.033   6.823
 2309SOL     OW 7825   3.003   0.023   0.223
 2309SOL    HW1 7826   2.993   0.110   0.175
 2309SOL    HW2 7827   2.974   6.968   0.164
 2310SOL     OW 7828   6.008   6.343   1.532
 2310SOL    HW1 7829   6.054   6.340   1.621
 2310SOL    HW2 7830   6.050   6.414   1.475
 2311SOL     OW 7831   2.602   6.561   2.364
 2311SOL    HW1 7832   2.621   6.521   2.275
 2311SOL    HW2 7833   2.638   6.502   2.436
 2312SOL     OW 7834   3.558   6.927   3.652
 2312SOL    HW1 7835   3.510   6.841   3.632
 2312SOL    HW2 7836   3.656   6.910   3.656
 2313SOL     OW 7837   5.023   5.389   2.472
 2313SOL    HW1 7838   5.081   5.351   2.400
 2313SOL    HW2 7839   5.048   5.485   2.487
 2314SOL     OW 7840   5.760   0.804   4.571
 2314SOL    HW1 7841   5.782   0.871   4.642
 2314SOL    HW2 7842   5.800   0.716   4.596
 2315SOL     OW 7843   5.088   3.490   5.075
 2315SOL    HW1 7844   4.994   3.518   5.059
 2315SOL    HW2 7845   5.149   3.543   5.016
 2316SOL     OW 7846   2.952   1.037   4.888
 2316SOL    HW1 7847   3.006   1.027   4.804
 2316SOL    HW2 7848   2.857   1.014   4.869
 2317SOL     OW 7849   6.388   6.519   3.334
 2317SOL    HW1 7850   6.340   6.546   3.418
 2317SOL    HW2 7851   6.456   6.588   3.311
 2318SOL     OW 7852   2.091   3.322   4.434
 2318SOL    HW1 7853   2.122   3.403   4.384
 2318SOL    HW2 7854   2.087   3.244   4.371
 2319SOL     OW 7855   3.100   5.806   5.215
 2319SOL    HW1 7856   3.169   5.845   5.154
 2319SOL    HW2 7857   3.012   5.851   5.199
 2320SOL     OW 7858   1.411   2.761   5.391
 2320SOL    HW1 7859   1.359   2.845   5.408
 2320SOL    HW2 7860   1.358   2.701   5.331
 2321SOL     OW 7861   1.806   5.319   7.014
 2321SOL    HW1 7862   1.796   5.230   0.039
 2321SOL    HW2 7863   1.823   5.305   6.917
 2322SOL     OW 7864   2.065   4.294   2.614
 2322SOL    HW1 7865   2.014   4.371   2.574
 2322SOL    HW2 7866   2.009   4.211   2.609
 2323SOL     OW 7867   3.570   4.898   1.663
 2323SOL    HW1 7868   3.603   4.808   1.692
 2323SOL    HW2 7869   3.474   4.909   1.691
 2324SOL     OW 7870   6.703   5.967   1.241
 2324SOL    HW1 7871   6.664   5.987   1.330
 2324SOL    HW2 7872   6.658   5.885   1.203
 2325SOL     OW 7873   0.537   4.225   1.257
 2325SOL    HW1 7874   0.467   4.290   1.227
 2325SOL    HW2 7875   0.615   4.229   1.194
 2326SOL     OW 7876   1.945   6.599   6.588
 2326SOL    HW1 7877   1.915   6.695   6.594
 2326SOL    HW2 7878   2.032   6.588   6.635
 2327SOL     OW 7879   0.100   1.614   3.000
 2327SOL    HW1 7880   0.171   1.681   3.020
 2327SOL    HW2 7881   0.018   1.637   3.053
 2328SOL     OW 7882   1.249   1.660   3.017
 2328SOL    HW1 7883   1.289   1.572   2.990
 2328SOL    HW2 7884   1.253   1.669   3.116
 2329SOL     OW 7885   1.002   4.363   5.275
 2329SOL    HW1 7886   0.952   4.299   5.217
 2329SOL    HW2 7887   1.098   4.363   5.250
 2330SOL     OW 7888   0.385   2.663   1.115
 2330SOL    HW1 7889   0.358   2.688   1.022
 2330SOL    HW2 7890   0.346   2.729   1.179
 2331SOL     OW 7891   3.805   4.761   0.175
 2331SOL    HW1 7892   3.767   4.692   0.235
 2331SOL    HW2 7893   3.874   4.719   0.116
 2332SOL     OW 7894   6.757   6.867   5.693
 2332SOL    HW1 7895   6.817   6.787   5.687
 2332SOL    HW2 7896   6.666   6.842   5.660
 2333SOL     OW 7897   7.005   4.104   3.374
 2333SOL    HW1 7898   0.063   4.103   3.312
 2333SOL    HW2 7899   0.003   4.045   3.452
 2334SOL     OW 7900   2.243   1.149   6.449
 2334SOL    HW1 7901   2.225   1.227   6.388
 2334SOL    HW2 7902   2.188   1.159   6.532
 2335SOL     OW 7903   5.915   0.843   4.188
 2335SOL    HW1 7904   5.954   0.778   4.123
 2335SOL    HW2 7905   5.817   0.855   4.169
 2336SOL     OW 7906   4.042   1.343   4.794
 2336SOL    HW1 7907   4.128   1.378   4.756
 2336SOL    HW2 7908   4.003   1.412   4.855
 2337SOL     OW 7909   3.849   0.017   1.278
 2337SOL    HW1 7910   3.931   0.039   1.225
 2337SOL    HW2 7911   3.867   6.960   1.338
 2338SOL     OW 7912   0.340   3.084   4.596
 2338SOL    HW1 7913   0.339   3.019   4.519
 2338SOL    HW2 7914   0.260   3.069   4.653
 2339SOL     OW 7915   3.101   3.979   3.179
 2339SOL    HW1 7916   3.063   4.057   3.127
 2339SOL    HW2 7917   3.185   3.949   3.135
 2340SOL     OW 7918   6.836   4.124   6.209
 2340SOL    HW1 7919   6.833   4.189   6.133
 2340SOL    HW2 7920   6.916   4.142   6.266
 2341SOL     OW 7921   3.020   4.811   1.978
 2341SOL    HW1 7922   2.980   4.719   1.970
 2341SOL    HW2 7923   2.958   4.870   2.029
 2342SOL     OW 7924   1.021   6.721   5.392
 2342SOL    HW1 7925   0.970   6.679   5.317
 2342SOL    HW2 7926   0.992   6.681   5.479
 2343SOL     OW 7927   1.593   5.358   2.587
 2343SOL    HW1 7928   1.574   5.260   2.590
 2343SOL    HW2 7929   1.664   5.381   2.654
 2344SOL     OW 7930   0.779   5.485   6.850
 2344SOL    HW1 7931   0.704   5.435   6.893
 2344SOL    HW2 7932   0.753   5.508   6.756
 2345SOL     OW 7933   2.824   5.962   5.280
 2345SOL    HW1 7934   2.796   6.031   5.213
 2345SOL    HW2 7935   2.774   5.877   5.262
 2346SOL     OW 7936   3.359   3.442   5.399
 2346SOL    HW1 7937   3.336   3.352   5.362
 2346SOL    HW2 7938   3.276   3.498   5.405
 2347SOL     OW 7939   2.949   2.397   1.244
 2347SOL    HW1 7940   2.920   2.422   1.336
 2347SOL    HW2 7941   3.006   2.470   1.206
 2348SOL     OW 7942   2.359   6.592   3.606
 2348SOL    HW1 7943   2.329   6.652   3.533
 2348SOL    HW2 7944   2.439   6.631   3.651
 2349SOL     OW 7945   1.334   5.051   5.908
 2349SOL    HW1 7946   1.430   5.025   5.891
 2349SOL    HW2 7947   1.318   5.143   5.873
 2350SOL     OW 7948   6.393   5.902   6.079
 2350SOL    HW1 7949   6.485   5.879   6.049
 2350SOL    HW2 7950   6.388   6.000   6.099
 2351SOL     OW 7951   2.930   5.314   4.507
 2351SOL    HW1 7952   2.943   5.404   4.549
 2351SOL    HW2 7953   3.018   5.270   4.492
 2352SOL     OW 7954   0.497   4.187   2.467
 2352SOL    HW1 7955   0.579   4.173   2.412
 2352SOL    HW2 7956   0.473   4.285   2.468
 2353SOL     OW 7957   3.478   5.281   4.928
 2353SOL    HW1 7958   3.450   5.338   5.005
 2353SOL    HW2 7959   3.534   5.205   4.961
 2354SOL     OW 7960   2.873   1.909   5.287
 2354SOL    HW1 7961   2.881   1.815   5.319
 2354SOL    HW2 7962   2.937   1.925   5.212
 2355SOL     OW 7963   2.276   6.669   6.272
 2355SOL    HW1 7964   2.234   6.667   6.182
 2355SOL    HW2 7965   2.275   6.762   6.308
 2356SOL     OW 7966   1.447   3.128   6.458
 2356SOL    HW1 7967   1.361   3.077   6.463
 2356SOL    HW2 7968   1.438   3.202   6.392
 2357SOL     OW 7969   4.323   0.015   2.529
 2357SOL    HW1 7970   4.389   6.993   2.591
 2357SOL    HW2 7971   4.243   6.975   2.521
 2358SOL     OW 7972   3.974   5.239   4.883
 2358SOL    HW1 7973   4.074   5.240   4.871
 2358SOL    HW2 7974   3.943   5.144   4.891
 2359SOL     OW 7975   6.613   0.890   5.315
 2359SOL    HW1 7976   6.607   0.933   5.405
 2359SOL    HW2 7977   6.522   0.877   5.277
 2360SOL     OW 7978   5.610   3.670   6.995
 2360SOL    HW1 7979   5.573   3.660   6.902
 2360SOL    HW2 7980   5.552   3.620   0.039
 2361SOL     OW 7981   2.860   1.125   5.303
 2361SOL    HW1 7982   2.909   1.071   5.235
 2361SOL    HW2 7983   2.913   1.207   5.326
 2362SOL     OW 7984   2.251   6.024   3.995
 2362SOL    HW1 7985   2.203   6.088   3.935
 2362SOL    HW2 7986   2.239   6.052   4.090
 2363SOL     OW 7987   4.630   2.127   4.993
 2363SOL    HW1 7988   4.641   2.225   4.976
 2363SOL    HW2 7989   4.705   2.078   4.950
 2364SOL     OW 7990   0.522   2.226   2.480
 2364SOL    HW1 7991   0.548   2.265   2.392
 2364SOL    HW2 7992   0.424   2.242   2.496
 2365SOL     OW 7993   6.138   2.337   6.485
 2365SOL    HW1 7994   6.185   2.349   6.573
 2365SOL    HW2 7995   6.061   2.274   6.498
 2366SOL     OW 7996   2.667   5.481   6.256
 2366SOL    HW1 7997   2.647   5.389   6.223
 2366SOL    HW2 7998   2.624   5.493   6.346
 2367SOL     OW 7999   2.623   3.889   1.027
 2367SOL    HW1 8000   2.689   3.815   1.014
 2367SOL    HW2 8001   2.567   3.869   1.108
 2368SOL     OW 8002   4.301   0.191   4.554
 2368SOL    HW1 8003   4.207   0.195   4.518
 2368SOL    HW2 8004   4.358   0.137   4.492
 2369SOL     OW 8005   1.790   0.844   5.196
 2369SOL    HW1 8006   1.791   0.775   5.269
 2369SOL    HW2 8007   1.884   0.860   5.165
 2370SOL     OW 8008   4.847   3.227   6.729
 2370SOL    HW1 8009   4.800   3.291   6.790
 2370SOL    HW2 8010   4.781   3.182   6.669
 2371SOL     OW 8011   0.733   6.571   1.521
 2371SOL    HW1 8012   0.687   6.630   1.587
 2371SOL    HW2 8013   0.813   6.618   1.483
 2372SOL     OW 8014   0.331   2.785   2.314
 2372SOL    HW1 8015   0.344   2.847   2.237
 2372SOL    HW2 8016   0.291   2.835   2.391
 2373SOL     OW 8017   0.931   1.931   6.524
 2373SOL    HW1 8018   1.030   1.944   6.515
 2373SOL    HW2 8019   0.894   2.003   6.584
 2374SOL     OW 8020   6.183   2.037   3.485
 2374SOL    HW1 8021   6.160   1.953   3.437
 2374SOL    HW2 8022   6.118   2.054   3.559
 2375SOL     OW 8023   2.967   6.525   4.927
 2375SOL    HW1 8024   2.920   6.603   4.886
 2375SOL    HW2 8025   3.058   6.553   4.957
 2376SOL     OW 8026   6.813   2.390   4.465
 2376SOL    HW1 8027   6.747   2.381   4.391
 2376SOL    HW2 8028   6.818   2.305   4.517
 2377SOL     OW 8029   3.840   3.989   3.231
 2377SOL    HW1 8030   3.916   3.990   3.167
 2377SOL    HW2 8031   3.872   3.959   3.321
 2378SOL     OW 8032   4.808   1.436   0.808
 2378SOL    HW1 8033   4.709   1.432   0.818
 2378SOL    HW2 8034   4.847   1.344   0.820
 2379SOL     OW 8035   6.134   1.567   0.218
 2379SOL    HW1 8036   6.149   1.534   0.312
 2379SOL    HW2 8037   6.128   1.667   0.219
 2380SOL     OW 8038   0.489   1.371   6.929
 2380SOL    HW1 8039   0.513   1.404   0.001
 2380SOL    HW2 8040   0.573   1.353   6.877
 2381SOL     OW 8041   2.106   4.337   4.380
 2381SOL    HW1 8042   2.041   4.323   4.456
 2381SOL    HW2 8043   2.198   4.350   4.417
 2382SOL     OW 8044   1.829   3.918   4.241
 2382SOL    HW1 8045   1.860   4.012   4.256
 2382SOL    HW2 8046   1.882   3.877   4.166
 2383SOL     OW 8047   4.975   6.375   1.435
 2383SOL    HW1 8048   4.913   6.401   1.360
 2383SOL    HW2 8049   4.967   6.277   1.453
 2384SOL     OW 8050   5.611   0.839   3.140
 2384SOL    HW1 8051   5.594   0.741   3.152
 2384SOL    HW2 8052   5.538   0.891   3.183
 2385SOL     OW 8053   1.114   0.080   0.592
 2385SOL    HW1 8054   1.108   0.055   0.688
 2385SOL    HW2 8055   1.201   0.127   0.575
 2386SOL     OW 8056   6.136   5.895   4.389
 2386SOL    HW1 8057   6.084   5.809   4.394
 2386SOL    HW2 8058   6.161   5.913   4.294
 2387SOL     OW 8059   1.331   2.228   3.861
 2387SOL    HW1 8060   1.402   2.168   3.898
 2387SOL    HW2 8061   1.291   2.186   3.779
 2388SOL     OW 8062   1.052   2.245   4.593
 2388SOL    HW1 8063   1.063   2.335   4.635
 2388SOL    HW2 8064   0.964   2.242   4.545
 2389SOL     OW 8065   4.753   4.099   3.113
 2389SOL    HW1 8066   4.826   4.097   3.181
 2389SOL    HW2 8067   4.729   4.006   3.086
 2390SOL     OW 8068   4.059   3.126   3.558
 2390SOL    HW1 8069   4.033   3.031   3.574
 2390SOL    HW2 8070   4.068   3.173   3.646
 2391SOL     OW 8071   4.878   3.791   5.948
 2391SOL    HW1 8072   4.934   3.744   5.880
 2391SOL    HW2 8073   4.781   3.779   5.926
 2392SOL     OW 8074   4.660   6.200   5.411
 2392SOL    HW1 8075   4.622   6.253   5.336
 2392SOL    HW2 8076   4.756   6.178   5.391
 2393SOL     OW 8077   5.288   3.724   5.700
 2393SOL    HW1 8078   5.349   3.703   5.777
 2393SOL    HW2 8079   5.287   3.823   5.685
 2394SOL     OW 8080   1.426   3.563   4.914
 2394SOL    HW1 8081   1.497   3.546   4.982
 2394SOL    HW2 8082   1.465   3.609   4.835
 2395SOL     OW 8083   5.218   2.480   6.222
 2395SOL    HW1 8084   5.169   2.560   6.188
 2395SOL    HW2 8085   5.182   2.453   6.311
 2396SOL     OW 8086   3.456   5.622   1.325
 2396SOL    HW1 8087   3.387   5.611   1.254
 2396SOL    HW2 8088   3.414   5.606   1.414
 2397SOL     OW 8089   6.541   4.108   5.707
 2397SOL    HW1 8090   6.555   4.022   5.656
 2397SOL    HW2 8091   6.490   4.172   5.650
 2398SOL     OW 8092   2.863   3.698   0.081
 2398SOL    HW1 8093   2.813   3.642   0.014
 2398SOL    HW2 8094   2.798   3.751   0.135
 2399SOL     OW 8095   4.859   1.384   1.890
 2399SOL    HW1 8096   4.955   1.382   1.864
 2399SOL    HW2 8097   4.829   1.292   1.917
 2400SOL     OW 8098   3.398   4.016   0.769
 2400SOL    HW1 8099   3.340   3.962   0.707
 2400SOL    HW2 8100   3.494   4.001   0.747
 2401SOL     OW 8101   4.536   6.405   6.589
 2401SOL    HW1 8102   4.543   6.471   6.515
 2401SOL    HW2 8103   4.455   6.349   6.576
 2402SOL     OW 8104   6.902   0.567   3.723
 2402SOL    HW1 8105   6.985   0.591   3.673
 2402SOL    HW2 8106   6.894   0.625   3.804
 2403SOL     OW 8107   2.415   2.370   6.524
 2403SOL    HW1 8108   2.460   2.329   6.445
 2403SOL    HW2 8109   2.483   2.412   6.584
 2404SOL     OW 8110   3.441   1.548   1.089
 2404SOL    HW1 8111   3.352   1.539   1.133
 2404SOL    HW2 8112   3.513   1.521   1.152
 2405SOL     OW 8113   3.547   3.461   2.587
 2405SOL    HW1 8114   3.542   3.382   2.526
 2405SOL    HW2 8115   3.622   3.449   2.652
 2406SOL     OW 8116   2.544   6.852   2.338
 2406SOL    HW1 8117   2.609   6.903   2.395
 2406SOL    HW2 8118   2.563   6.754   2.347
 2407SOL     OW 8119   5.650   2.127   2.600
 2407SOL    HW1 8120   5.642   2.039   2.646
 2407SOL    HW2 8121   5.586   2.192   2.640
 2408SOL     OW 8122   4.236   4.767   3.199
 2408SOL    HW1 8123   4.232   4.751   3.297
 2408SOL    HW2 8124   4.324   4.736   3.163
 2409SOL     OW 8125   1.927   4.936   2.364
 2409SOL    HW1 8126   1.875   4.934   2.449
 2409SOL    HW2 8127   2.024   4.944   2.385
 2410SOL     OW 8128   4.211   3.426   5.559
 2410SOL    HW1 8129   4.235   3.439   5.655
 2410SOL    HW2 8130   4.133   3.485   5.536
 2411SOL     OW 8131   4.537   5.666   5.056
 2411SOL    HW1 8132   4.588   5.601   4.999
 2411SOL    HW2 8133   4.474   5.719   4.997
 2412SOL     OW 8134   4.958   4.914   0.709
 2412SOL    HW1 8135   4.998   4.825   0.728
 2412SOL    HW2 8136   4.964   4.971   0.791
 2413SOL     OW 8137   6.056   1.656   0.985
 2413SOL    HW1 8138   5.996   1.736   0.985
 2413SOL    HW2 8139   6.051   1.611   1.074
 2414SOL     OW 8140   4.706   4.604   2.883
 2414SOL    HW1 8141   4.776   4.549   2.928
 2414SOL    HW2 8142   4.626   4.547   2.865
 2415SOL     OW 8143   6.340   0.752   2.796
 2415SOL    HW1 8144   6.367   0.705   2.879
 2415SOL    HW2 8145   6.348   0.851   2.809
 2416SOL     OW 8146   4.658   2.317   5.422
 2416SOL    HW1 8147   4.689   2.371   5.500
 2416SOL    HW2 8148   4.711   2.231   5.419
 2417SOL     OW 8149   3.801   3.501   5.261
 2417SOL    HW1 8150   3.784   3.412   5.304
 2417SOL    HW2 8151   3.855   3.489   5.178
 2418SOL     OW 8152   3.262   2.950   4.403
 2418SOL    HW1 8153   3.210   2.947   4.317
 2418SOL    HW2 8154   3.212   3.003   4.470
 2419SOL     OW 8155   6.866   6.936   4.809
 2419SOL    HW1 8156   6.953   6.899   4.842
 2419SOL    HW2 8157   6.840   6.889   4.725
 2420SOL     OW 8158   2.939   0.852   2.776
 2420SOL    HW1 8159   2.916   0.837   2.680
 2420SOL    HW2 8160   2.894   0.783   2.833
 2421SOL     OW 8161   2.296   2.289   4.822
 2421SOL    HW1 8162   2.381   2.283   4.873
 2421SOL    HW2 8163   2.235   2.215   4.850
 2422SOL     OW 8164   5.692   1.507   1.234
 2422SOL    HW1 8165   5.711   1.536   1.140
 2422SOL    HW2 8166   5.777   1.509   1.287
 2423SOL     OW 8167   1.197   5.476   2.479
 2423SOL    HW1 8168   1.139   5.552   2.448
 2423SOL    HW2 8169   1.291   5.508   2.489
 2424SOL     OW 8170   5.894   0.219   6.203
 2424SOL    HW1 8171   5.959   0.196   6.130
 2424SOL    HW2 8172   5.869   0.135   6.252
 2425SOL     OW 8173   5.703   0.531   4.131
 2425SOL    HW1 8174   5.717   0.458   4.065
 2425SOL    HW2 8175   5.692   0.492   4.223
 2426SOL     OW 8176   0.893   6.229   4.914
 2426SOL    HW1 8177   0.880   6.130   4.906
 2426SOL    HW2 8178   0.960   6.248   4.985
 2427SOL     OW 8179   5.630   5.891   5.403
 2427SOL    HW1 8180   5.693   5.908   5.328
 2427SOL    HW2 8181   5.563   5.822   5.375
 2428SOL     OW 8182   6.807   0.369   2.333
 2428SOL    HW1 8183   6.769   0.306   2.401
 2428SOL    HW2 8184   6.899   0.397   2.361
 2429SOL     OW 8185   5.667   5.731   3.051
 2429SOL    HW1 8186   5.624   5.698   2.967
 2429SOL    HW2 8187   5.654   5.830   3.059
 2430SOL     OW 8188   5.944   0.913   1.672
 2430SOL    HW1 8189   5.894   0.931   1.587
 2430SOL    HW2 8190   5.974   0.818   1.674
 2431SOL     OW 8191   4.064   1.092   1.587
 2431SOL    HW1 8192   3.994   1.145   1.539
 2431SOL    HW2 8193   4.069   1.122   1.682
 2432SOL     OW 8194   3.331   6.181   2.675
 2432SOL    HW1 8195   3.287   6.271   2.667
 2432SOL    HW2 8196   3.430   6.193   2.678
 2433SOL     OW 8197   4.127   1.826   0.301
 2433SOL    HW1 8198   4.055   1.780   0.353
 2433SOL    HW2 8199   4.099   1.921   0.283
 2434SOL     OW 8200   3.678   1.312   5.749
 2434SOL    HW1 8201   3.778   1.312   5.752
 2434SOL    HW2 8202   3.648   1.350   5.661
 2435SOL     OW 8203   4.572   5.264   5.825
 2435SOL    HW1 8204   4.634   5.265   5.746
 2435SOL    HW2 8205   4.559   5.170   5.856
 2436SOL     OW 8206   1.512   5.245   0.558
 2436SOL    HW1 8207   1.532   5.167   0.498
 2436SOL    HW2 8208   1.533   5.330   0.511
 2437SOL     OW 8209   5.274   6.429   6.671
 2437SOL    HW1 8210   5.367   6.402   6.697
 2437SOL    HW2 8211   5.261   6.416   6.573
 2438SOL     OW 8212   3.125   1.400   6.395
 2438SOL    HW1 8213   3.038   1.395   6.346
 2438SOL    HW2 8214   3.151   1.496   6.406
 2439SOL     OW 8215   0.596   4.651   6.540
 2439SOL    HW1 8216   0.655   4.589   6.592
 2439SOL    HW2 8217   0.627   4.654   6.445
 2440SOL     OW 8218   4.502   6.035   5.884
 2440SOL    HW1 8219   4.504   6.112   5.948
 2440SOL    HW2 8220   4.506   6.070   5.790
 2441SOL     OW 8221   0.306   1.779   6.940
 2441SOL    HW1 8222   0.307   1.783   0.020
 2441SOL    HW2 8223   0.231   1.721   6.910
 2442SOL     OW 8224   0.955   3.709   5.803
 2442SOL    HW1 8225   1.035   3.674   5.753
 2442SOL    HW2 8226   0.872   3.676   5.758
 2443SOL     OW 8227   3.553   4.899   5.720
 2443SOL    HW1 8228   3.536   4.968   5.650
 2443SOL    HW2 8229   3.479   4.832   5.720
 2444SOL     OW 8230   2.427   4.476   6.587
 2444SOL    HW1 8231   2.423   4.391   6.536
 2444SOL    HW2 8232   2.512   4.481   6.639
 2445SOL     OW 8233   6.876   1.591   1.117
 2445SOL    HW1 8234   6.828   1.619   1.034
 2445SOL    HW2 8235   6.835   1.507   1.152
 2446SOL     OW 8236   6.448   4.477   4.052
 2446SOL    HW1 8237   6.525   4.480   4.116
 2446SOL    HW2 8238   6.378   4.414   4.087
 2447SOL     OW 8239   2.350   2.811   0.121
 2447SOL    HW1 8240   2.430   2.839   0.174
 2447SOL    HW2 8241   2.376   2.741   0.054
 2448SOL     OW 8242   0.277   0.884   4.670
 2448SOL    HW1 8243   0.362   0.855   4.713
 2448SOL    HW2 8244   0.293   0.965   4.615
 2449SOL     OW 8245   6.772   4.274   0.282
 2449SOL    HW1 8246   6.797   4.223   0.200
 2449SOL    HW2 8247   6.755   4.209   0.357
 2450SOL     OW 8248   2.386   4.571   2.724
 2450SOL    HW1 8249   2.384   4.547   2.627
 2450SOL    HW2 8250   2.385   4.671   2.733
 2451SOL     OW 8251   1.336   0.203   4.428
 2451SOL    HW1 8252   1.415   0.166   4.379
 2451SOL    HW2 8253   1.261   0.219   4.363
 2452SOL     OW 8254   1.848   3.745   2.977
 2452SOL    HW1 8255   1.943   3.739   2.947
 2452SOL    HW2 8256   1.793   3.677   2.928
 2453SOL     OW 8257   6.429   4.885   1.095
 2453SOL    HW1 8258   6.513   4.840   1.127
 2453SOL    HW2 8259   6.413   4.967   1.150
 2454SOL     OW 8260   3.727   0.995   1.945
 2454SOL    HW1 8261   3.781   0.918   1.979
 2454SOL    HW2 8262   3.785   1.075   1.933
 2455SOL     OW 8263   4.896   5.496   0.458
 2455SOL    HW1 8264   4.842   5.412   0.452
 2455SOL    HW2 8265   4.942   5.513   0.371
 2456SOL     OW 8266   5.109   6.605   1.764
 2456SOL    HW1 8267   5.111   6.704   1.776
 2456SOL    HW2 8268   5.175   6.562   1.827
 2457SOL     OW 8269   5.351   6.357   0.139
 2457SOL    HW1 8270   5.264   6.408   0.140
 2457SOL    HW2 8271   5.406   6.384   0.218
 2458SOL     OW 8272   2.245   5.447   3.216
 2458SOL    HW1 8273   2.185   5.367   3.203
 2458SOL    HW2 8274   2.339   5.416   3.230
 2459SOL     OW 8275   1.703   6.841   0.645
 2459SOL    HW1 8276   1.748   6.893   0.573
 2459SOL    HW2 8277   1.739   6.747   0.645
 2460SOL     OW 8278   2.293   6.468   2.296
 2460SOL    HW1 8279   2.372   6.513   2.338
 2460SOL    HW2 8280   2.209   6.506   2.334
 2461SOL     OW 8281   5.594   0.502   2.284
 2461SOL    HW1 8282   5.633   0.443   2.214
 2461SOL    HW2 8283   5.522   0.559   2.244
 2462SOL     OW 8284   1.873   5.386   0.385
 2462SOL    HW1 8285   1.926   5.451   0.330
 2462SOL    HW2 8286   1.907   5.293   0.368
 2463SOL     OW 8287   0.084   1.900   3.601
 2463SOL    HW1 8288   0.067   1.867   3.694
 2463SOL    HW2 8289   0.121   1.993   3.605
 2464SOL     OW 8290   0.714   4.192   0.827
 2464SOL    HW1 8291   0.793   4.167   0.772
 2464SOL    HW2 8292   0.717   4.290   0.848
 2465SOL     OW 8293   6.776   5.688   1.762
 2465SOL    HW1 8294   6.831   5.665   1.682
 2465SOL    HW2 8295   6.790   5.619   1.833
 2466SOL     OW 8296   4.362   1.363   2.969
 2466SOL    HW1 8297   4.336   1.306   2.891
 2466SOL    HW2 8298   4.282   1.415   3.000
 2467SOL     OW 8299   6.623   0.934   5.778
 2467SOL    HW1 8300   6.620   0.953   5.877
 2467SOL    HW2 8301   6.597   1.016   5.728
 2468SOL     OW 8302   6.930   6.267   2.076
 2468SOL    HW1 8303   6.958   6.172   2.065
 2468SOL    HW2 8304   6.843   6.270   2.126
 2469SOL     OW 8305   3.112   3.955   5.684
 2469SOL    HW1 8306   3.018   3.989   5.688
 2469SOL    HW2 8307   3.156   3.989   5.601
 2470SOL     OW 8308   2.683   3.714   5.917
 2470SOL    HW1 8309   2.616   3.781   5.950
 2470SOL    HW2 8310   2.772   3.731   5.959
 2471SOL     OW 8311   0.809   6.452   2.302
 2471SOL    HW1 8312   0.803   6.550   2.321
 2471SOL    HW2 8313   0.722   6.408   2.323
 2472SOL     OW 8314   5.249   2.088   4.022
 2472SOL    HW1 8315   5.336   2.095   3.972
 2472SOL    HW2 8316   5.210   1.997   4.008
 2473SOL     OW 8317   1.183   5.564   4.612
 2473SOL    HW1 8318   1.222   5.650   4.645
 2473SOL    HW2 8319   1.185   5.563   4.512
 2474SOL     OW 8320   0.171   5.460   5.208
 2474SOL    HW1 8321   0.123   5.491   5.290
 2474SOL    HW2 8322   0.269   5.475   5.219
 2475SOL     OW 8323   4.423   2.591   0.346
 2475SOL    HW1 8324   4.509   2.562   0.306
 2475SOL    HW2 8325   4.411   2.690   0.331
 2476SOL     OW 8326   1.225   1.422   4.120
 2476SOL    HW1 8327   1.179   1.449   4.036
 2476SOL    HW2 8328   1.206   1.489   4.191
 2477SOL     OW 8329   5.695   6.220   1.299
 2477SOL    HW1 8330   5.659   6.313   1.294
 2477SOL    HW2 8331   5.704   6.183   1.206
 2478SOL     OW 8332   6.495   6.634   2.781
 2478SOL    HW1 8333   6.503   6.546   2.734
 2478SOL    HW2 8334   6.462   6.703   2.716
 2479SOL     OW 8335   0.042   2.445   0.979
 2479SOL    HW1 8336   0.136   2.434   0.946
 2479SOL    HW2 8337   7.014   2.358   0.969
 2480SOL     OW 8338   6.493   3.367   1.939
 2480SOL    HW1 8339   6.532   3.438   1.997
 2480SOL    HW2 8340   6.393   3.370   1.945
 2481SOL     OW 8341   4.318   5.590   1.708
 2481SOL    HW1 8342   4.374   5.548   1.779
 2481SOL    HW2 8343   4.321   5.689   1.718
 2482SOL     OW 8344   5.140   3.257   5.201
 2482SOL    HW1 8345   5.217   3.214   5.154
 2482SOL    HW2 8346   5.123   3.347   5.162
 2483SOL     OW 8347   0.984   0.941   0.347
 2483SOL    HW1 8348   0.890   0.920   0.321
 2483SOL    HW2 8349   0.984   0.997   0.430
 2484SOL     OW 8350   2.842   0.959   0.862
 2484SOL    HW1 8351   2.916   0.900   0.828
 2484SOL    HW2 8352   2.874   1.010   0.942
 2485SOL     OW 8353   0.088   5.309   2.395
 2485SOL    HW1 8354   0.040   5.299   2.307
 2485SOL    HW2 8355   0.048   5.385   2.446
 2486SOL     OW 8356   1.875   5.575   3.000
 2486SOL    HW1 8357   1.945   5.554   2.931
 2486SOL    HW2 8358   1.821   5.653   2.970
 2487SOL     OW 8359   3.906   0.010   0.533
 2487SOL    HW1 8360   3.824   0.065   0.547
 2487SOL    HW2 8361   3.964   0.013   0.614
 2488SOL     OW 8362   2.862   4.394   1.197
 2488SOL    HW1 8363   2.868   4.350   1.286
 2488SOL    HW2 8364   2.952   4.395   1.153
 2489SOL     OW 8365   1.490   5.065   5.370
 2489SOL    HW1 8366   1.540   5.015   5.299
 2489SOL    HW2 8367   1.553   5.125   5.419
 2490SOL     OW 8368   6.230   3.777   1.050
 2490SOL    HW1 8369   6.280   3.752   1.133
 2490SOL    HW2 8370   6.239   3.875   1.034
 2491SOL     OW 8371   2.851   4.999   3.284
 2491SOL    HW1 8372   2.880   4.904   3.295
 2491SOL    HW2 8373   2.790   5.006   3.205
 2492SOL     OW 8374   4.542   2.996   6.368
 2492SOL    HW1 8375   4.515   2.961   6.278
 2492SOL    HW2 8376   4.640   2.981   6.382
 2493SOL     OW 8377   5.835   1.881   3.020
 2493SOL    HW1 8378   5.760   1.815   3.019
 2493SOL    HW2 8379   5.878   1.885   2.929
 2494SOL     OW 8380   4.971   2.662   2.147
 2494SOL    HW1 8381   4.959   2.585   2.085
 2494SOL    HW2 8382   4.947   2.633   2.240
 2495SOL     OW 8383   5.475   1.143   5.268
 2495SOL    HW1 8384   5.380   1.138   5.299
 2495SOL    HW2 8385   5.483   1.098   5.179
 2496SOL     OW 8386   0.903   5.468   0.076
 2496SOL    HW1 8387   0.950   5.380   0.080
 2496SOL    HW2 8388   0.887   5.493   7.001
 2497SOL     OW 8389   6.681   1.797   6.993
 2497SOL    HW1 8390   6.736   1.725   0.015
 2497SOL    HW2 8391   6.607   1.824   0.035
 2498SOL     OW 8392   1.888   2.627   3.797
 2498SOL    HW1 8393   1.925   2.534   3.792
 2498SOL    HW2 8394   1.961   2.692   3.776
 2499SOL     OW 8395   5.140   0.542   4.554
 2499SOL    HW1 8396   5.124   0.606   4.629
 2499SOL    HW2 8397   5.231   0.558   4.516
 2500SOL     OW 8398   4.715   3.186   6.156
 2500SOL    HW1 8399   4.737   3.203   6.059
 2500SOL    HW2 8400   4.695   3.090   6.169
 2501SOL     OW 8401   6.217   4.790   0.443
 2501SOL    HW1 8402   6.146   4.788   0.373
 2501SOL    HW2 8403   6.186   4.843   0.521
 2502SOL     OW 8404   1.904   6.963   2.856
 2502SOL    HW1 8405   1.896   6.893   2.927
 2502SOL    HW2 8406   1.979   0.005   2.878
 2503SOL     OW 8407   3.884   5.003   5.710
 2503SOL    HW1 8408   3.787   4.987   5.696
 2503SOL    HW2 8409   3.902   5.102   5.714
 2504SOL     OW 8410   1.713   4.798   4.657
 2504SOL    HW1 8411   1.796   4.804   4.601
 2504SOL    HW2 8412   1.659   4.881   4.646
 2505SOL     OW 8413   4.565   5.631   4.452
 2505SOL    HW1 8414   4.538   5.683   4.371
 2505SOL    HW2 8415   4.539   5.535   4.439
 2506SOL     OW 8416   6.257   2.761   6.202
 2506SOL    HW1 8417   6.331   2.754   6.135
 2506SOL    HW2 8418   6.169   2.749   6.155
 2507SOL     OW 8419   6.289   5.766   0.728
 2507SOL    HW1 8420   6.364   5.832   0.733
 2507SOL    HW2 8421   6.221   5.799   0.663
 2508SOL     OW 8422   2.489   2.172   2.304
 2508SOL    HW1 8423   2.481   2.250   2.365
 2508SOL    HW2 8424   2.538   2.199   2.221
 2509SOL     OW 8425   5.230   2.473   3.274
 2509SOL    HW1 8426   5.297   2.546   3.290
 2509SOL    HW2 8427   5.173   2.497   3.195
 2510SOL     OW 8428   3.132   5.158   0.360
 2510SOL    HW1 8429   3.136   5.192   0.454
 2510SOL    HW2 8430   3.042   5.119   0.341
 2511SOL     OW 8431   1.079   0.787   5.284
 2511SOL    HW1 8432   1.104   0.712   5.222
 2511SOL    HW2 8433   1.149   0.797   5.354
 2512SOL     OW 8434   4.879   4.055   4.838
 2512SOL    HW1 8435   4.824   4.055   4.755
 2512SOL    HW2 8436   4.940   4.134   4.838
 2513SOL     OW 8437   0.727   2.799   6.694
 2513SOL    HW1 8438   0.639   2.839   6.670
 2513SOL    HW2 8439   0.739   2.713   6.645
 2514SOL     OW 8440   1.438   0.757   4.348
 2514SOL    HW1 8441   1.463   0.763   4.445
 2514SOL    HW2 8442   1.447   0.847   4.306
 2515SOL     OW 8443   0.931   5.605   0.642
 2515SOL    HW1 8444   1.027   5.613   0.617
 2515SOL    HW2 8445   0.879   5.573   0.563
 2516SOL     OW 8446   6.097   6.838   3.689
 2516SOL    HW1 8447   6.177   6.885   3.724
 2516SOL    HW2 8448   6.040   6.807   3.766
 2517SOL     OW 8449   2.093   4.703   0.386
 2517SOL    HW1 8450   2.154   4.775   0.420
 2517SOL    HW2 8451   2.136   4.614   0.400
 2518SOL     OW 8452   2.340   3.130   6.450
 2518SOL    HW1 8453   2.430   3.174   6.444
 2518SOL    HW2 8454   2.289   3.148   6.367
 2519SOL     OW 8455   4.819   4.873   4.875
 2519SOL    HW1 8456   4.805   4.774   4.872
 2519SOL    HW2 8457   4.768   4.916   4.801
 2520SOL     OW 8458   2.176   3.632   1.268
 2520SOL    HW1 8459   2.132   3.557   1.317
 2520SOL    HW2 8460   2.266   3.602   1.236
 2521SOL     OW 8461   6.296   0.297   5.677
 2521SOL    HW1 8462   6.278   0.216   5.731
 2521SOL    HW2 8463   6.276   0.279   5.581
 2522SOL     OW 8464   1.093   3.336   4.706
 2522SOL    HW1 8465   1.009   3.389   4.717
 2522SOL    HW2 8466   1.150   3.347   4.788
 2523SOL     OW 8467   0.158   4.080   0.539
 2523SOL    HW1 8468   0.068   4.115   0.566
 2523SOL    HW2 8469   0.150   3.984   0.514
 2524SOL     OW 8470   1.261   6.596   3.755
 2524SOL    HW1 8471   1.320   6.518   3.737
 2524SOL    HW2 8472   1.231   6.594   3.850
 2525SOL     OW 8473   0.792   3.413   3.489
 2525SOL    HW1 8474   0.829   3.496   3.447
 2525SOL    HW2 8475   0.696   3.402   3.463
 2526SOL     OW 8476   7.013   1.777   4.163
 2526SOL    HW1 8477   7.003   1.877   4.165
 2526SOL    HW2 8478   0.080   1.752   4.204
 2527SOL     OW 8479   5.442   6.262   4.549
 2527SOL    HW1 8480   5.413   6.231   4.640
 2527SOL    HW2 8481   5.538   6.288   4.552
 2528SOL     OW 8482   6.396   5.410   0.635
 2528SOL    HW1 8483   6.330   5.482   0.613
 2528SOL    HW2 8484   6.425   5.419   0.730
 2529SOL     OW 8485   5.312   4.847   4.693
 2529SOL    HW1 8486   5.300   4.911   4.617
 2529SOL    HW2 8487   5.223   4.821   4.729
 2530SOL     OW 8488   1.185   0.299   3.469
 2530SOL    HW1 8489   1.209   0.331   3.377
 2530SOL    HW2 8490   1.176   0.377   3.531
 2531SOL     OW 8491   4.024   0.945   5.588
 2531SOL    HW1 8492   4.085   1.015   5.551
 2531SOL    HW2 8493   4.032   0.862   5.534
 2532SOL     OW 8494   1.218   5.103   6.795
 2532SOL    HW1 8495   1.217   5.091   6.895
 2532SOL    HW2 8496   1.232   5.014   6.751
 2533SOL     OW 8497   5.806   6.611   5.705
 2533SOL    HW1 8498   5.804   6.512   5.689
 2533SOL    HW2 8499   5.898   6.639   5.733
 2534SOL     OW 8500   1.715   0.866   3.734
 2534SOL    HW1 8501   1.615   0.870   3.742
 2534SOL    HW2 8502   1.756   0.926   3.802
 2535SOL     OW 8503   1.791   1.068   3.928
 2535SOL    HW1 8504   1.879   1.112   3.942
 2535SOL    HW2 8505   1.730   1.130   3.879
 2536SOL     OW 8506   5.765   1.521   4.416
 2536SOL    HW1 8507   5.783   1.525   4.514
 2536SOL    HW2 8508   5.686   1.463   4.398
 2537SOL     OW 8509   5.151   5.850   1.437
 2537SOL    HW1 8510   5.152   5.752   1.458
 2537SOL    HW2 8511   5.232   5.894   1.476
 2538SOL     OW 8512   1.915   4.835   4.466
 2538SOL    HW1 8513   2.015   4.828   4.469
 2538SOL    HW2 8514   1.887   4.889   4.387
 2539SOL     OW 8515   4.132   0.410   5.449
 2539SOL    HW1 8516   4.096   0.317   5.463
 2539SOL    HW2 8517   4.151   0.423   5.351
 2540SOL     OW 8518   5.491   1.396   2.162
 2540SOL    HW1 8519   5.412   1.452   2.137
 2540SOL    HW2 8520   5.566   1.455   2.192
 2541SOL     OW 8521   1.414   6.524   6.039
 2541SOL    HW1 8522   1.420   6.564   6.131
 2541SOL    HW2 8523   1.459   6.584   5.973
 2542SOL     OW 8524   3.311   1.925   4.485
 2542SOL    HW1 8525   3.392   1.983   4.498
 2542SOL    HW2 8526   3.244   1.946   4.556
 2543SOL     OW 8527   0.727   1.542   2.664
 2543SOL    HW1 8528   0.788   1.589   2.729
 2543SOL    HW2 8529   0.633   1.571   2.681
 2544SOL     OW 8530   6.417   5.201   0.932
 2544SOL    HW1 8531   6.370   5.115   0.952
 2544SOL    HW2 8532   6.457   5.197   0.840
 2545SOL     OW 8533   0.510   1.762   1.567
 2545SOL    HW1 8534   0.490   1.678   1.617
 2545SOL    HW2 8535   0.527   1.740   1.471
 2546SOL     OW 8536   6.596   3.600   2.024
 2546SOL    HW1 8537   6.540   3.659   1.967
 2546SOL    HW2 8538   6.596   3.634   2.118
 2547SOL     OW 8539   5.619   4.199   0.776
 2547SOL    HW1 8540   5.590   4.277   0.832
 2547SOL    HW2 8541   5.572   4.202   0.688
 2548SOL     OW 8542   0.140   6.795   5.728
 2548SOL    HW1 8543   0.213   6.751   5.676
 2548SOL    HW2 8544   0.052   6.770   5.689
 2549SOL     OW 8545   2.409   1.856   1.113
 2549SOL    HW1 8546   2.356   1.859   1.028
 2549SOL    HW2 8547   2.465   1.774   1.115
 2550SOL     OW 8548   4.690   6.996   6.510
 2550SOL    HW1 8549   4.733   0.064   6.526
 2550SOL    HW2 8550   4.631   7.002   6.429
 2551SOL     OW 8551   2.697   5.379   6.809
 2551SOL    HW1 8552   2.641   5.299   6.790
 2551SOL    HW2 8553   2.713   5.385   6.908
 2552SOL     OW 8554   2.130   6.182   0.171
 2552SOL    HW1 8555   2.079   6.112   0.221
 2552SOL    HW2 8556   2.140   6.263   0.228
 2553SOL     OW 8557   4.306   1.762   6.720
 2553SOL    HW1 8558   4.207   1.770   6.731
 2553SOL    HW2 8559   4.352   1.817   6.789
 2554SOL     OW 8560   1.906   5.899   1.147
 2554SOL    HW1 8561   1.926   5.830   1.078
 2554SOL    HW2 8562   1.891   5.855   1.235
 2555SOL     OW 8563   6.015   5.951   5.489
 2555SOL    HW1 8564   5.953   6.024   5.460
 2555SOL    HW2 8565   6.063   5.915   5.409
 2556SOL     OW 8566   3.145   6.791   1.501
 2556SOL    HW1 8567   3.116   6.745   1.418
 2556SOL    HW2 8568   3.140   6.890   1.488
 2557SOL     OW 8569   3.650   0.656   0.455
 2557SOL    HW1 8570   3.725   0.694   0.402
 2557SOL    HW2 8571   3.612   0.727   0.515
 2558SOL     OW 8572   5.616   4.717   6.948
 2558SOL    HW1 8573   5.626   4.817   6.944
 2558SOL    HW2 8574   5.652   4.684   0.014
 2559SOL     OW 8575   1.007   3.495   4.074
 2559SOL    HW1 8576   0.930   3.451   4.120
 2559SOL    HW2 8577   0.974   3.569   4.016
 2560SOL     OW 8578   4.791   2.522   2.849
 2560SOL    HW1 8579   4.826   2.615   2.851
 2560SOL    HW2 8580   4.707   2.518   2.794
 2561SOL     OW 8581   3.356   0.563   4.221
 2561SOL    HW1 8582   3.401   0.623   4.155
 2561SOL    HW2 8583   3.389   0.584   4.313
 2562SOL     OW 8584   2.984   6.425   3.404
 2562SOL    HW1 8585   2.934   6.355   3.456
 2562SOL    HW2 8586   2.968   6.515   3.444
 2563SOL     OW 8587   2.949   1.387   0.036
 2563SOL    HW1 8588   3.019   1.365   0.104
 2563SOL    HW2 8589   2.929   1.485   0.040
 2564SOL     OW 8590   1.683   1.113   0.496
 2564SOL    HW1 8591   1.752   1.184   0.506
 2564SOL    HW2 8592   1.704   1.057   0.415
 2565SOL     OW 8593   1.177   2.038   6.564
 2565SOL    HW1 8594   1.257   1.987   6.531
 2565SOL    HW2 8595   1.196   2.074   6.655
 2566SOL     OW 8596   3.091   0.755   1.190
 2566SOL    HW1 8597   3.115   0.764   1.094
 2566SOL    HW2 8598   3.089   0.845   1.233
 2567SOL     OW 8599   1.738   0.022   6.655
 2567SOL    HW1 8600   1.820   0.078   6.664
 2567SOL    HW2 8601   1.719   0.004   6.559
 2568SOL     OW 8602   2.837   5.965   1.246
 2568SOL    HW1 8603   2.784   6.047   1.225
 2568SOL    HW2 8604   2.779   5.900   1.296
 2569SOL     OW 8605   1.451   1.261   1.093
 2569SOL    HW1 8606   1.390   1.315   1.151
 2569SOL    HW2 8607   1.425   1.271   0.997
 2570SOL     OW 8608   5.217   6.136   0.000
 2570SOL    HW1 8609   5.231   6.041   0.029
 2570SOL    HW2 8610   5.262   6.197   0.066
 2571SOL     OW 8611   4.144   3.471   4.412
 2571SOL    HW1 8612   4.124   3.459   4.315
 2571SOL    HW2 8613   4.147   3.381   4.456
 2572SOL     OW 8614   2.178   5.909   1.606
 2572SOL    HW1 8615   2.092   5.922   1.656
 2572SOL    HW2 8616   2.217   5.820   1.631
 2573SOL     OW 8617   6.794   2.414   4.098
 2573SOL    HW1 8618   6.889   2.395   4.072
 2573SOL    HW2 8619   6.786   2.510   4.124
 2574SOL     OW 8620   6.713   3.902   1.414
 2574SOL    HW1 8621   6.695   3.888   1.316
 2574SOL    HW2 8622   6.809   3.884   1.434
 2575SOL     OW 8623   5.868   4.160   0.646
 2575SOL    HW1 8624   5.854   4.065   0.618
 2575SOL    HW2 8625   5.791   4.190   0.702
 2576SOL     OW 8626   2.130   6.634   2.979
 2576SOL    HW1 8627   2.047   6.580   2.965
 2576SOL    HW2 8628   2.105   6.729   2.999
 2577SOL     OW 8629   2.963   6.773   3.296
 2577SOL    HW1 8630   2.974   6.865   3.334
 2577SOL    HW2 8631   2.887   6.727   3.343
 2578SOL     OW 8632   4.688   2.733   4.010
 2578SOL    HW1 8633   4.625   2.810   4.018
 2578SOL    HW2 8634   4.682   2.694   3.918
 2579SOL     OW 8635   0.518   2.540   6.398
 2579SOL    HW1 8636   0.486   2.485   6.475
 2579SOL    HW2 8637   0.451   2.536   6.324
 2580SOL     OW 8638   1.995   2.532   6.436
 2580SOL    HW1 8639   2.018   2.607   6.373
 2580SOL    HW2 8640   2.068   2.523   6.504
 2581SOL     OW 8641   5.482   5.698   2.268
 2581SOL    HW1 8642   5.484   5.766   2.342
 2581SOL    HW2 8643   5.516   5.610   2.302
 2582SOL     OW 8644   0.765   5.253   2.644
 2582SOL    HW1 8645   0.832   5.306   2.696
 2582SOL    HW2 8646   0.760   5.160   2.680
 2583SOL     OW 8647   1.015   0.029   0.847
 2583SOL    HW1 8648   0.960   6.966   0.854
 2583SOL    HW2 8649   1.086   0.028   0.917
 2584SOL     OW 8650   3.572   6.145   1.129
 2584SOL    HW1 8651   3.482   6.147   1.174
 2584SOL    HW2 8652   3.567   6.086   1.049
 2585SOL     OW 8653   3.174   0.121   0.669
 2585SOL    HW1 8654   3.131   0.079   0.750
 2585SOL    HW2 8655   3.219   0.050   0.615
 2586SOL     OW 8656   6.146   1.687   4.452
 2586SOL    HW1 8657   6.150   1.785   4.432
 2586SOL    HW2 8658   6.167   1.635   4.370
 2587SOL     OW 8659   6.138   6.668   4.563
 2587SOL    HW1 8660   6.127   6.736   4.636
 2587SOL    HW2 8661   6.188   6.589   4.599
 2588SOL     OW 8662   5.768   0.582   1.992
 2588SOL    HW1 8663   5.847   0.627   2.033
 2588SOL    HW2 8664   5.749   0.497   2.041
 2589SOL     OW 8665   6.267   0.032   5.834
 2589SOL    HW1 8666   6.291   7.016   5.744
 2589SOL    HW2 8667   6.322   7.008   5.905
 2590SOL     OW 8668   4.114   6.794   2.581
 2590SOL    HW1 8669   4.034   6.734   2.587
 2590SOL    HW2 8670   4.189   6.754   2.634
 2591SOL     OW 8671   5.216   6.111   1.688
 2591SOL    HW1 8672   5.211   6.187   1.624
 2591SOL    HW2 8673   5.159   6.130   1.768
 2592SOL     OW 8674   2.932   5.595   1.309
 2592SOL    HW1 8675   2.842   5.553   1.306
 2592SOL    HW2 8676   2.997   5.539   1.258
 2593SOL     OW 8677   3.662   6.117   2.991
 2593SOL    HW1 8678   3.659   6.215   2.975
 2593SOL    HW2 8679   3.756   6.084   2.982
 2594SOL     OW 8680   0.199   0.030   6.851
 2594SOL    HW1 8681   0.279   0.087   6.869
 2594SOL    HW2 8682   0.125   0.054   6.914
 2595SOL     OW 8683   6.714   3.307   4.723
 2595SOL    HW1 8684   6.805   3.346   4.708
 2595SOL    HW2 8685   6.665   3.302   4.637
 2596SOL     OW 8686   4.183   2.122   2.401
 2596SOL    HW1 8687   4.192   2.062   2.480
 2596SOL    HW2 8688   4.089   2.118   2.367
 2597SOL     OW 8689   2.780   3.311   1.321
 2597SOL    HW1 8690   2.800   3.242   1.391
 2597SOL    HW2 8691   2.695   3.358   1.345
 2598SOL     OW 8692   7.006   2.623   3.635
 2598SOL    HW1 8693   0.032   2.611   3.547
 2598SOL    HW2 8694   6.987   2.720   3.650
 2599SOL     OW 8695   4.173   5.606   6.727
 2599SOL    HW1 8696   4.159   5.651   6.816
 2599SOL    HW2 8697   4.251   5.649   6.681
 2600SOL     OW 8698   5.830   3.828   4.210
 2600SOL    HW1 8699   5.863   3.741   4.247
 2600SOL    HW2 8700   5.731   3.835   4.225
 2601SOL     OW 8701   3.627   3.223   6.027
 2601SOL    HW1 8702   3.659   3.309   5.986
 2601SOL    HW2 8703   3.557   3.244   6.096
 2602SOL     OW 8704   0.159   4.711   4.646
 2602SOL    HW1 8705   0.223   4.788   4.643
 2602SOL    HW2 8706   0.137   4.683   4.553
 2603SOL     OW 8707   2.328   2.279   0.968
 2603SOL    HW1 8708   2.415   2.253   1.009
 2603SOL    HW2 8709   2.296   2.205   0.909
 2604SOL     OW 8710   5.224   0.364   1.130
 2604SOL    HW1 8711   5.171   0.334   1.209
 2604SOL    HW2 8712   5.219   0.295   1.058
 2605SOL     OW 8713   4.138   4.794   3.982
 2605SOL    HW1 8714   4.219   4.816   3.927
 2605SOL    HW2 8715   4.166   4.779   4.077
 2606SOL     OW 8716   6.181   4.194   1.242
 2606SOL    HW1 8717   6.220   4.133   1.173
 2606SOL    HW2 8718   6.152   4.279   1.198
 2607SOL     OW 8719   1.355   0.912   2.762
 2607SOL    HW1 8720   1.313   0.971   2.831
 2607SOL    HW2 8721   1.312   0.822   2.764
 2608SOL     OW 8722   5.490   0.298   1.793
 2608SOL    HW1 8723   5.481   0.241   1.875
 2608SOL    HW2 8724   5.411   0.285   1.734
 2609SOL     OW 8725   0.596   1.975   2.610
 2609SOL    HW1 8726   0.578   2.044   2.540
 2609SOL    HW2 8727   0.616   2.020   2.697
 2610SOL     OW 8728   6.459   5.690   4.828
 2610SOL    HW1 8729   6.503   5.601   4.814
 2610SOL    HW2 8730   6.522   5.751   4.876
 2611SOL     OW 8731   5.369   6.611   1.180
 2611SOL    HW1 8732   5.307   6.603   1.257
 2611SOL    HW2 8733   5.410   6.702   1.179
 2612SOL     OW 8734   5.217   6.347   4.003
 2612SOL    HW1 8735   5.254   6.389   4.086
 2612SOL    HW2 8736   5.285   6.351   3.931
 2613SOL     OW 8737   3.520   6.868   2.278
 2613SOL    HW1 8738   3.494   6.784   2.324
 2613SOL    HW2 8739   3.616   6.889   2.299
 2614SOL     OW 8740   6.347   6.656   5.730
 2614SOL    HW1 8741   6.440   6.661   5.694
 2614SOL    HW2 8742   6.349   6.610   5.820
 2615SOL     OW 8743   5.307   5.520   3.061
 2615SOL    HW1 8744   5.333   5.613   3.036
 2615SOL    HW2 8745   5.295   5.466   2.978
 2616SOL     OW 8746   4.051   3.193   3.040
 2616SOL    HW1 8747   4.061   3.228   2.947
 2616SOL    HW2 8748   3.984   3.118   3.040
 2617SOL     OW 8749   3.883   5.316   0.909
 2617SOL    HW1 8750   3.868   5.269   0.822
 2617SOL    HW2 8751   3.981   5.327   0.924
 2618SOL     OW 8752   0.116   0.281   1.625
 2618SOL    HW1 8753   0.104   0.186   1.653
 2618SOL    HW2 8754   0.213   0.304   1.621
 2619SOL     OW 8755   4.308   1.834   2.229
 2619SOL    HW1 8756   4.222   1.873   2.263
 2619SOL    HW2 8757   4.308   1.837   2.129
 2620SOL     OW 8758   1.206   4.777   3.197
 2620SOL    HW1 8759   1.154   4.859   3.223
 2620SOL    HW2 8760   1.224   4.722   3.278
 2621SOL     OW 8761   0.573   5.413   4.171
 2621SOL    HW1 8762   0.604   5.360   4.092
 2621SOL    HW2 8763   0.473   5.407   4.178
 2622SOL     OW 8764   2.020   3.319   6.001
 2622SOL    HW1 8765   2.120   3.315   5.989
 2622SOL    HW2 8766   1.999   3.327   6.098
 2623SOL     OW 8767   3.631   1.528   4.308
 2623SOL    HW1 8768   3.595   1.617   4.336
 2623SOL    HW2 8769   3.565   1.457   4.331
 2624SOL     OW 8770   6.068   2.715   3.087
 2624SOL    HW1 8771   6.017   2.733   3.171
 2624SOL    HW2 8772   6.012   2.737   3.007
 2625SOL     OW 8773   2.359   2.813   5.589
 2625SOL    HW1 8774   2.303   2.751   5.534
 2625SOL    HW2 8775   2.366   2.901   5.542
 2626SOL     OW 8776   1.410   6.380   3.855
 2626SOL    HW1 8777   1.385   6.288   3.825
 2626SOL    HW2 8778   1.457   6.375   3.944
 2627SOL     OW 8779   0.572   0.689   4.683
 2627SOL    HW1 8780   0.661   0.729   4.704
 2627SOL    HW2 8781   0.575   0.591   4.698
 2628SOL     OW 8782   3.965   6.478   6.399
 2628SOL    HW1 8783   3.906   6.542   6.349
 2628SOL    HW2 8784   3.913   6.435   6.473
 2629SOL     OW 8785   3.672   4.164   1.635
 2629SOL    HW1 8786   3.587   4.207   1.605
 2629SOL    HW2 8787   3.651   4.087   1.695
 2630SOL     OW 8788   3.698   1.401   2.401
 2630SOL    HW1 8789   3.643   1.327   2.439
 2630SOL    HW2 8790   3.638   1.467   2.356
 2631SOL     OW 8791   4.810   6.648   4.403
 2631SOL    HW1 8792   4.871   6.583   4.447
 2631SOL    HW2 8793   4.725   6.655   4.455
 2632SOL     OW 8794   3.316   1.942   6.919
 2632SOL    HW1 8795   3.254   1.941   6.997
 2632SOL    HW2 8796   3.388   2.010   6.933
 2633SOL     OW 8797   5.990   2.410   6.806
 2633SOL    HW1 8798   5.929   2.424   6.728
 2633SOL    HW2 8799   6.083   2.394   6.773
 2634SOL     OW 8800   2.156   4.283   1.825
 2634SOL    HW1 8801   2.232   4.339   1.859
 2634SOL    HW2 8802   2.134   4.212   1.892
 2635SOL     OW 8803   5.636   5.915   4.329
 2635SOL    HW1 8804   5.612   5.895   4.234
 2635SOL    HW2 8805   5.569   5.873   4.390
 2636SOL     OW 8806   5.645   6.981   5.963
 2636SOL    HW1 8807   5.593   0.046   5.964
 2636SOL    HW2 8808   5.643   6.940   6.054
 2637SOL     OW 8809   5.654   0.143   3.347
 2637SOL    HW1 8810   5.747   0.107   3.356
 2637SOL    HW2 8811   5.650   0.236   3.384
 2638SOL     OW 8812   5.222   6.322   1.519
 2638SOL    HW1 8813   5.274   6.405   1.542
 2638SOL    HW2 8814   5.128   6.348   1.497
 2639SOL     OW 8815   5.968   6.831   2.033
 2639SOL    HW1 8816   6.017   6.752   1.995
 2639SOL    HW2 8817   5.971   6.827   2.133
 2640SOL     OW 8818   0.357   6.466   5.143
 2640SOL    HW1 8819   0.334   6.370   5.161
 2640SOL    HW2 8820   0.371   6.479   5.045
 2641SOL     OW 8821   5.236   3.708   6.901
 2641SOL    HW1 8822   5.301   3.666   6.837
 2641SOL    HW2 8823   5.151   3.730   6.853
 2642SOL     OW 8824   5.097   0.377   4.299
 2642SOL    HW1 8825   5.020   0.346   4.242
 2642SOL    HW2 8826   5.114   0.310   4.371
 2643SOL     OW 8827   0.122   6.245   2.983
 2643SOL    HW1 8828   0.121   6.207   2.891
 2643SOL    HW2 8829   0.083   6.337   2.982
 2644SOL     OW 8830   1.399   5.068   5.640
 2644SOL    HW1 8831   1.418   5.050   5.544
 2644SOL    HW2 8832   1.473   5.030   5.696
 2645SOL     OW 8833   5.113   6.632   5.806
 2645SOL    HW1 8834   5.141   6.714   5.755
 2645SOL    HW2 8835   5.181   6.613   5.877
 2646SOL     OW 8836   6.898   0.558   6.162
 2646SOL    HW1 8837   6.865   0.551   6.257
 2646SOL    HW2 8838   6.940   0.647   6.147
 2647SOL     OW 8839   4.853   1.156   0.837
 2647SOL    HW1 8840   4.905   1.121   0.759
 2647SOL    HW2 8841   4.892   1.121   0.922
 2648SOL     OW 8842   6.651   0.219   2.499
 2648SOL    HW1 8843   6.705   0.204   2.582
 2648SOL    HW2 8844   6.604   0.134   2.474
 2649SOL     OW 8845   3.242   1.235   6.104
 2649SOL    HW1 8846   3.235   1.282   6.016
 2649SOL    HW2 8847   3.154   1.195   6.128
 2650SOL     OW 8848   0.490   4.988   3.503
 2650SOL    HW1 8849   0.396   4.976   3.469
 2650SOL    HW2 8850   0.502   4.934   3.586
 2651SOL     OW 8851   0.417   1.257   1.419
 2651SOL    HW1 8852   0.505   1.291   1.453
 2651SOL    HW2 8853   0.426   1.160   1.397
 2652SOL     OW 8854   3.181   3.215   3.399
 2652SOL    HW1 8855   3.249   3.142   3.393
 2652SOL    HW2 8856   3.211   3.294   3.346
 2653SOL     OW 8857   5.537   6.870   6.227
 2653SOL    HW1 8858   5.574   6.847   6.317
 2653SOL    HW2 8859   5.458   6.812   6.207
 2654SOL     OW 8860   5.170   2.579   5.916
 2654SOL    HW1 8861   5.224   2.656   5.883
 2654SOL    HW2 8862   5.217   2.494   5.894
 2655SOL     OW 8863   4.174   6.163   4.485
 2655SOL    HW1 8864   4.169   6.262   4.472
 2655SOL    HW2 8865   4.082   6.124   4.481
 2656SOL     OW 8866   5.433   4.588   4.103
 2656SOL    HW1 8867   5.378   4.636   4.035
 2656SOL    HW2 8868   5.374   4.527   4.156
 2657SOL     OW 8869   2.017   4.279   6.735
 2657SOL    HW1 8870   1.967   4.346   6.680
 2657SOL    HW2 8871   1.968   4.192   6.733
 2658SOL     OW 8872   6.131   4.517   6.272
 2658SOL    HW1 8873   6.165   4.540   6.363
 2658SOL    HW2 8874   6.043   4.563   6.258
 2659SOL     OW 8875   6.646   2.657   4.624
 2659SOL    HW1 8876   6.631   2.645   4.526
 2659SOL    HW2 8877   6.674   2.570   4.664
 2660SOL     OW 8878   6.606   2.552   2.347
 2660SOL    HW1 8879   6.669   2.494   2.295
 2660SOL    HW2 8880   6.650   2.581   2.432
 2661SOL     OW 8881   3.258   5.678   1.139
 2661SOL    HW1 8882   3.168   5.721   1.134
 2661SOL    HW2 8883   3.317   5.715   1.067
 2662SOL     OW 8884   4.686   6.308   4.856
 2662SOL    HW1 8885   4.620   6.379   4.831
 2662SOL    HW2 8886   4.739   6.338   4.935
 2663SOL     OW 8887   1.972   4.746   1.449
 2663SOL    HW1 8888   1.942   4.816   1.514
 2663SOL    HW2 8889   1.939   4.657   1.479
 2664SOL     OW 8890   3.638   4.048   3.060
 2664SOL    HW1 8891   3.563   3.984   3.070
 2664SOL    HW2 8892   3.683   4.061   3.148
 2665SOL     OW 8893   3.274   1.506   4.701
 2665SOL    HW1 8894   3.323   1.449   4.636
 2665SOL    HW2 8895   3.323   1.592   4.714
 2666SOL     OW 8896   5.007   4.622   0.826
 2666SOL    HW1 8897   5.087   4.569   0.797
 2666SOL    HW2 8898   4.977   4.591   0.917
 2667SOL     OW 8899   1.675   6.125   5.504
 2667SOL    HW1 8900   1.743   6.150   5.436
 2667SOL    HW2 8901   1.583   6.134   5.465
 2668SOL     OW 8902   6.771   3.434   4.310
 2668SOL    HW1 8903   6.858   3.394   4.279
 2668SOL    HW2 8904   6.758   3.522   4.265
 2669SOL     OW 8905   3.809   4.856   5.354
 2669SOL    HW1 8906   3.856   4.822   5.436
 2669SOL    HW2 8907   3.711   4.838   5.362
 2670SOL     OW 8908   0.024   0.817   6.847
 2670SOL    HW1 8909   7.006   0.750   6.910
 2670SOL    HW2 8910   0.123   0.804   6.840
 2671SOL     OW 8911   2.368   3.776   6.541
 2671SOL    HW1 8912   2.421   3.837   6.481
 2671SOL    HW2 8913   2.407   3.684   6.537
 2672SOL     OW 8914   1.858   5.563   0.100
 2672SOL    HW1 8915   1.831   5.472   0.070
 2672SOL    HW2 8916   1.933   5.556   0.166
 2673SOL     OW 8917   4.262   2.334   3.183
 2673SOL    HW1 8918   4.312   2.256   3.220
 2673SOL    HW2 8919   4.165   2.312   3.175
 2674SOL     OW 8920   1.109   4.864   4.362
 2674SOL    HW1 8921   1.012   4.847   4.379
 2674SOL    HW2 8922   1.157   4.776   4.359
 2675SOL     OW 8923   0.692   4.333   5.652
 2675SOL    HW1 8924   0.729   4.267   5.718
 2675SOL    HW2 8925   0.758   4.405   5.636
 2676SOL     OW 8926   5.239   1.898   2.782
 2676SOL    HW1 8927   5.190   1.974   2.825
 2676SOL    HW2 8928   5.184   1.815   2.788
 2677SOL     OW 8929   2.013   4.723   1.845
 2677SOL    HW1 8930   1.978   4.809   1.808
 2677SOL    HW2 8931   2.098   4.740   1.893
 2678SOL     OW 8932   1.237   4.842   6.695
 2678SOL    HW1 8933   1.284   4.806   6.615
 2678SOL    HW2 8934   1.230   4.771   6.765
 2679SOL     OW 8935   3.495   4.908   0.949
 2679SOL    HW1 8936   3.583   4.939   0.987
 2679SOL    HW2 8937   3.435   4.878   1.024
 2680SOL     OW 8938   2.014   1.711   0.443
 2680SOL    HW1 8939   1.986   1.647   0.515
 2680SOL    HW2 8940   1.950   1.787   0.439
 2681SOL     OW 8941   1.594   3.192   3.958
 2681SOL    HW1 8942   1.532   3.263   3.927
 2681SOL    HW2 8943   1.557   3.148   4.041
 2682SOL     OW 8944   5.494   2.848   2.039
 2682SOL    HW1 8945   5.465   2.762   2.080
 2682SOL    HW2 8946   5.553   2.829   1.961
 2683SOL     OW 8947   0.536   4.580   1.286
 2683SOL    HW1 8948   0.488   4.653   1.237
 2683SOL    HW2 8949   0.496   4.491   1.260
 2684SOL     OW 8950   4.324   6.404   2.662
 2684SOL    HW1 8951   4.258   6.361   2.600
 2684SOL    HW2 8952   4.398   6.340   2.682
 2685SOL     OW 8953   5.598   6.277   4.199
 2685SOL    HW1 8954   5.511   6.247   4.239
 2685SOL    HW2 8955   5.674   6.239   4.251
 2686SOL     OW 8956   2.169   2.463   4.254
 2686SOL    HW1 8957   2.170   2.377   4.204
 2686SOL    HW2 8958   2.131   2.535   4.196
 2687SOL     OW 8959   3.795   4.899   2.602
 2687SOL    HW1 8960   3.808   4.998   2.610
 2687SOL    HW2 8961   3.843   4.853   2.677
 2688SOL     OW 8962   4.038   5.287   5.930
 2688SOL    HW1 8963   3.999   5.232   5.856
 2688SOL    HW2 8964   3.972   5.358   5.956
 2689SOL     OW 8965   1.378   1.740   3.685
 2689SOL    HW1 8966   1.399   1.685   3.765
 2689SOL    HW2 8967   1.442   1.817   3.680
 2690SOL     OW 8968   4.163   3.419   3.962
 2690SOL    HW1 8969   4.138   3.325   3.939
 2690SOL    HW2 8970   4.210   3.421   4.050
 2691SOL     OW 8971   1.268   5.702   1.868
 2691SOL    HW1 8972   1.248   5.652   1.952
 2691SOL    HW2 8973   1.274   5.800   1.887
 2692SOL     OW 8974   6.823   5.278   4.166
 2692SOL    HW1 8975   6.771   5.362   4.150
 2692SOL    HW2 8976   6.896   5.271   4.099
 2693SOL     OW 8977   2.183   3.726   3.548
 2693SOL    HW1 8978   2.190   3.650   3.612
 2693SOL    HW2 8979   2.160   3.810   3.598
 2694SOL     OW 8980   2.746   0.318   2.951
 2694SOL    HW1 8981   2.761   0.416   2.941
 2694SOL    HW2 8982   2.764   0.272   2.864
 2695SOL     OW 8983   4.642   2.286   2.348
 2695SOL    HW1 8984   4.567   2.350   2.330
 2695SOL    HW2 8985   4.711   2.295   2.277
 2696SOL     OW 8986   3.758   3.754   5.565
 2696SOL    HW1 8987   3.742   3.841   5.518
 2696SOL    HW2 8988   3.674   3.700   5.564
 2697SOL     OW 8989   4.150   2.264   3.846
 2697SOL    HW1 8990   4.219   2.306   3.905
 2697SOL    HW2 8991   4.106   2.188   3.894
 2698SOL     OW 8992   1.238   4.512   0.991
 2698SOL    HW1 8993   1.211   4.481   0.899
 2698SOL    HW2 8994   1.185   4.462   1.059
 2699SOL     OW 8995   3.739   5.325   0.586
 2699SOL    HW1 8996   3.649   5.342   0.627
 2699SOL    HW2 8997   3.772   5.235   0.614
 2700SOL     OW 8998   2.022   3.311   3.009
 2700SOL    HW1 8999   2.085   3.233   2.998
 2700SOL    HW2 9000   2.050   3.365   3.088
 2701SOL     OW 9001   3.685   0.284   6.830
 2701SOL    HW1 9002   3.669   0.300   6.927
 2701SOL    HW2 9003   3.723   0.367   6.788
 2702SOL     OW 9004   6.780   1.849   3.354
 2702SOL    HW1 9005   6.736   1.851   3.444
 2702SOL    HW2 9006   6.865   1.901   3.357
 2703SOL     OW 9007   2.700   1.609   2.749
 2703SOL    HW1 9008   2.672   1.685   2.807
 2703SOL    HW2 9009   2.648   1.611   2.664
 2704SOL     OW 9010   2.163   5.640   2.287
 2704SOL    HW1 9011   2.097   5.609   2.355
 2704SOL    HW2 9012   2.144   5.736   2.264
 2705SOL     OW 9013   6.941   5.521   3.671
 2705SOL    HW1 9014   6.937   5.608   3.721
 2705SOL    HW2 9015   6.856   5.508   3.619
 2706SOL     OW 9016   6.442   1.500   1.786
 2706SOL    HW1 9017   6.438   1.433   1.711
 2706SOL    HW2 9018   6.481   1.457   1.867
 2707SOL     OW 9019   2.275   1.717   6.638
 2707SOL    HW1 9020   2.308   1.810   6.660
 2707SOL    HW2 9021   2.347   1.651   6.659
 2708SOL     OW 9022   2.416   2.761   1.993
 2708SOL    HW1 9023   2.485   2.691   2.011
 2708SOL    HW2 9024   2.363   2.778   2.076
 2709SOL     OW 9025   4.940   6.039   1.489
 2709SOL    HW1 9026   5.024   5.987   1.479
 2709SOL    HW2 9027   4.894   6.014   1.574
 2710SOL     OW 9028   6.885   3.443   2.773
 2710SOL    HW1 9029   6.851   3.424   2.681
 2710SOL    HW2 9030   6.836   3.522   2.811
 2711SOL     OW 9031   1.590   0.038   2.108
 2711SOL    HW1 9032   1.573   0.114   2.171
 2711SOL    HW2 9033   1.596   0.073   2.014
 2712SOL     OW 9034   2.735   4.838   0.279
 2712SOL    HW1 9035   2.779   4.749   0.291
 2712SOL    HW2 9036   2.702   4.848   0.185
 2713SOL     OW 9037   2.249   2.995   4.773
 2713SOL    HW1 9038   2.316   3.013   4.844
 2713SOL    HW2 9039   2.194   2.915   4.798
 2714SOL     OW 9040   5.633   1.695   6.201
 2714SOL    HW1 9041   5.662   1.787   6.227
 2714SOL    HW2 9042   5.614   1.693   6.103
 2715SOL     OW 9043   5.361   1.078   0.307
 2715SOL    HW1 9044   5.457   1.104   0.305
 2715SOL    HW2 9045   5.353   0.981   0.332
 2716SOL     OW 9046   6.879   5.207   1.448
 2716SOL    HW1 9047   6.846   5.288   1.495
 2716SOL    HW2 9048   6.806   5.138   1.445
 2717SOL     OW 9049   0.853   6.199   2.133
 2717SOL    HW1 9050   0.874   6.141   2.211
 2717SOL    HW2 9051   0.875   6.294   2.155
 2718SOL     OW 9052   1.916   3.722   4.442
 2718SOL    HW1 9053   1.933   3.678   4.354
 2718SOL    HW2 9054   1.880   3.814   4.427
 2719SOL     OW 9055   4.304   4.912   2.289
 2719SOL    HW1 9056   4.282   4.820   2.256
 2719SOL    HW2 9057   4.399   4.914   2.321
 2720SOL     OW 9058   2.043   6.109   3.782
 2720SOL    HW1 9059   2.035   6.200   3.822
 2720SOL    HW2 9060   2.022   6.114   3.684
 2721SOL     OW 9061   2.662   0.214   4.367
 2721SOL    HW1 9062   2.618   0.244   4.452
 2721SOL    HW2 9063   2.715   0.132   4.383
 2722SOL     OW 9064   0.464   5.351   2.900
 2722SOL    HW1 9065   0.560   5.323   2.905
 2722SOL    HW2 9066   0.446   5.420   2.969
 2723SOL     OW 9067   2.035   1.346   5.748
 2723SOL    HW1 9068   2.093   1.390   5.679
 2723SOL    HW2 9069   1.949   1.396   5.756
 2724SOL     OW 9070   3.546   4.869   6.170
 2724SOL    HW1 9071   3.472   4.935   6.177
 2724SOL    HW2 9072   3.608   4.879   6.247
 2725SOL     OW 9073   4.993   4.615   3.012
 2725SOL    HW1 9074   5.046   4.530   3.019
 2725SOL    HW2 9075   4.924   4.617   3.084
 2726SOL     OW 9076   4.906   4.634   1.976
 2726SOL    HW1 9077   4.854   4.592   1.901
 2726SOL    HW2 9078   4.881   4.730   1.984
 2727SOL     OW 9079   0.588   5.055   2.382
 2727SOL    HW1 9080   0.534   5.041   2.299
 2727SOL    HW2 9081   0.570   4.981   2.447
 2728SOL     OW 9082   3.003   0.311   5.070
 2728SOL    HW1 9083   3.035   0.290   5.163
 2728SOL    HW2 9084   3.059   0.385   5.032
 2729SOL     OW 9085   6.759   5.543   3.311
 2729SOL    HW1 9086   6.736   5.514   3.404
 2729SOL    HW2 9087   6.808   5.470   3.264
 2730SOL     OW 9088   2.404   0.108   0.255
 2730SOL    HW1 9089   2.376   0.013   0.238
 2730SOL    HW2 9090   2.323   0.165   0.266
 2731SOL     OW 9091   2.658   3.635   1.383
 2731SOL    HW1 9092   2.753   3.661   1.399
 2731SOL    HW2 9093   2.597   3.691   1.440
 2732SOL     OW 9094   5.866   3.184   2.536
 2732SOL    HW1 9095   5.805   3.246   2.585
 2732SOL    HW2 9096   5.927   3.238   2.477
 2733SOL     OW 9097   0.938   0.099   5.856
 2733SOL    HW1 9098   0.854   0.050   5.831
 2733SOL    HW2 9099   1.002   0.097   5.779
 2734SOL     OW 9100   1.584   6.564   3.757
 2734SOL    HW1 9101   1.519   6.517   3.817
 2734SOL    HW2 9102   1.571   6.534   3.663
 2735SOL     OW 9103   1.180   4.198   2.664
 2735SOL    HW1 9104   1.137   4.263   2.727
 2735SOL    HW2 9105   1.110   4.138   2.625
 2736SOL     OW 9106   4.865   0.641   5.954
 2736SOL    HW1 9107   4.819   0.622   6.041
 2736SOL    HW2 9108   4.955   0.681   5.973
 2737SOL     OW 9109   3.410   3.387   6.429
 2737SOL    HW1 9110   3.488   3.450   6.428
 2737SOL    HW2 9111   3.405   3.341   6.518
 2738SOL     OW 9112   5.034   5.394   4.027
 2738SOL    HW1 9113   5.078   5.378   3.939
 2738SOL    HW2 9114   5.104   5.407   4.097
 2739SOL     OW 9115   5.573   4.837   0.887
 2739SOL    HW1 9116   5.482   4.816   0.852
 2739SOL    HW2 9117   5.579   4.810   0.983
 2740SOL     OW 9118   6.198   2.278   2.615
 2740SOL    HW1 9119   6.105   2.247   2.598
 2740SOL    HW2 9120   6.257   2.249   2.539
 2741SOL     OW 9121   0.068   2.218   5.589
 2741SOL    HW1 9122   0.105   2.240   5.499
 2741SOL    HW2 9123   0.068   2.118   5.601
 2742SOL     OW 9124   1.585   5.543   6.296
 2742SOL    HW1 9125   1.615   5.564   6.203
 2742SOL    HW2 9126   1.485   5.547   6.301
 2743SOL     OW 9127   5.346   5.328   1.465
 2743SOL    HW1 9128   5.317   5.233   1.476
 2743SOL    HW2 9129   5.353   5.372   1.555
 2744SOL     OW 9130   4.109   2.402   6.722
 2744SOL    HW1 9131   4.130   2.315   6.766
 2744SOL    HW2 9132   4.038   2.388   6.652
 2745SOL     OW 9133   2.184   6.639   0.998
 2745SOL    HW1 9134   2.184   6.558   1.057
 2745SOL    HW2 9135   2.256   6.701   1.027
 2746SOL     OW 9136   2.091   2.781   4.860
 2746SOL    HW1 9137   2.175   2.732   4.885
 2746SOL    HW2 9138   2.049   2.818   4.943
 2747SOL     OW 9139   6.070   5.557   4.755
 2747SOL    HW1 9140   6.055   5.465   4.789
 2747SOL    HW2 9141   6.069   5.557   4.655
 2748SOL     OW 9142   3.915   1.353   3.584
 2748SOL    HW1 9143   3.897   1.255   3.581
 2748SOL    HW2 9144   3.999   1.370   3.635
 2749SOL     OW 9145   4.956   4.580   4.050
 2749SOL    HW1 9146   4.962   4.613   4.144
 2749SOL    HW2 9147   4.866   4.539   4.035
 2750SOL     OW 9148   0.316   5.864   2.056
 2750SOL    HW1 9149   0.346   5.958   2.045
 2750SOL    HW2 9150   0.395   5.802   2.052
 2751SOL     OW 9151   2.116   0.157   0.230
 2751SOL    HW1 9152   2.088   0.069   0.268
 2751SOL    HW2 9153   2.036   0.207   0.198
 2752SOL     OW 9154   5.249   6.524   5.193
 2752SOL    HW1 9155   5.216   6.617   5.177
 2752SOL    HW2 9156   5.179   6.472   5.242
 2753SOL     OW 9157   3.463   6.042   6.144
 2753SOL    HW1 9158   3.459   6.139   6.168
 2753SOL    HW2 9159   3.549   6.023   6.097
 2754SOL     OW 9160   0.337   0.124   4.489
 2754SOL    HW1 9161   0.273   0.173   4.430
 2754SOL    HW2 9162   0.409   0.187   4.519
 2755SOL     OW 9163   2.906   6.141   2.478
 2755SOL    HW1 9164   3.001   6.111   2.481
 2755SOL    HW2 9165   2.851   6.072   2.431
 2756SOL     OW 9166   5.396   3.461   4.963
 2756SOL    HW1 9167   5.348   3.462   4.875
 2756SOL    HW2 9168   5.390   3.369   5.003
 2757SOL     OW 9169   4.502   1.923   6.832
 2757SOL    HW1 9170   4.494   1.911   6.931
 2757SOL    HW2 9171   4.598   1.917   6.805
 2758SOL     OW 9172   5.207   5.068   3.407
 2758SOL    HW1 9173   5.241   5.141   3.348
 2758SOL    HW2 9174   5.263   5.061   3.489
 2759SOL     OW 9175   3.488   4.302   6.355
 2759SOL    HW1 9176   3.523   4.346   6.272
 2759SOL    HW2 9177   3.390   4.321   6.363
 2760SOL     OW 9178   5.773   6.180   3.503
 2760SOL    HW1 9179   5.721   6.099   3.476
 2760SOL    HW2 9180   5.755   6.254   3.438
 2761SOL     OW 9181   1.918   4.066   2.660
 2761SOL    HW1 9182   2.008   4.030   2.638
 2761SOL    HW2 9183   1.883   4.020   2.742
 2762SOL     OW 9184   1.770   2.034   0.098
 2762SOL    HW1 9185   1.804   1.960   0.040
 2762SOL    HW2 9186   1.797   2.017   0.193
 2763SOL     OW 9187   4.669   1.415   5.771
 2763SOL    HW1 9188   4.747   1.380   5.823
 2763SOL    HW2 9189   4.686   1.509   5.742
 2764SOL     OW 9190   0.670   4.401   1.838
 2764SOL    HW1 9191   0.647   4.452   1.756
 2764SOL    HW2 9192   0.622   4.313   1.838
 2765SOL     OW 9193   6.349   7.001   6.926
 2765SOL    HW1 9194   6.418   6.941   6.967
 2765SOL    HW2 9195   6.260   6.980   6.966
 2766SOL     OW 9196   5.023   1.325   6.731
 2766SOL    HW1 9197   5.009   1.300   6.635
 2766SOL    HW2 9198   5.068   1.249   6.778
 2767SOL     OW 9199   6.003   5.143   6.109
 2767SOL    HW1 9200   6.015   5.096   6.197
 2767SOL    HW2 9201   6.093   5.158   6.067
 2768SOL     OW 9202   4.254   0.301   1.149
 2768SOL    HW1 9203   4.256   0.395   1.113
 2768SOL    HW2 9204   4.340   0.282   1.195
 2769SOL     OW 9205   1.619   4.273   5.610
 2769SOL    HW1 9206   1.641   4.178   5.632
 2769SOL    HW2 9207   1.686   4.310   5.546
 2770SOL     OW 9208   2.976   6.647   6.552
 2770SOL    HW1 9209   3.036   6.710   6.600
 2770SOL    HW2 9210   2.965   6.677   6.457
 2771SOL     OW 9211   4.704   0.297   4.887
 2771SOL    HW1 9212   4.659   0.290   4.798
 2771SOL    HW2 9213   4.639   0.270   4.959
 2772SOL     OW 9214   4.004   0.807   2.832
 2772SOL    HW1 9215   4.084   0.776   2.882
 2772SOL    HW2 9216   4.029   0.827   2.737
 2773SOL     OW 9217   0.056   2.917   4.313
 2773SOL    HW1 9218   0.023   3.007   4.343
 2773SOL    HW2 9219   0.156   2.914   4.321
 2774SOL     OW 9220   5.019   2.004   3.313
 2774SOL    HW1 9221   4.992   1.950   3.233
 2774SOL    HW2 9222   5.026   2.100   3.287
 2775SOL     OW 9223   0.284   4.058   4.430
 2775SOL    HW1 9224   0.309   4.148   4.396
 2775SOL    HW2 9225   0.265   4.063   4.528
 2776SOL     OW 9226   4.838   4.854   6.009
 2776SOL    HW1 9227   4.749   4.868   6.053
 2776SOL    HW2 9228   4.823   4.825   5.914
 2777SOL     OW 9229   3.274   2.389   5.943
 2777SOL    HW1 9230   3.284   2.295   5.909
 2777SOL    HW2 9231   3.211   2.439   5.884
 2778SOL     OW 9232   2.293   6.034   6.514
 2778SOL    HW1 9233   2.357   6.096   6.558
 2778SOL    HW2 9234   2.320   5.939   6.533
 2779SOL     OW 9235   6.011   6.149   2.207
 2779SOL    HW1 9236   6.073   6.156   2.129
 2779SOL    HW2 9237   6.050   6.089   2.277
 2780SOL     OW 9238   0.042   1.058   6.108
 2780SOL    HW1 9239   0.128   1.101   6.080
 2780SOL    HW2 9240   0.022   1.082   6.203
 2781SOL     OW 9241   6.759   0.612   2.444
 2781SOL    HW1 9242   6.761   0.539   2.374
 2781SOL    HW2 9243   6.666   0.620   2.481
 2782SOL     OW 9244   4.327   1.061   6.668
 2782SOL    HW1 9245   4.270   1.120   6.611
 2782SOL    HW2 9246   4.303   1.075   6.764
 2783SOL     OW 9247   5.645   3.638   2.025
 2783SOL    HW1 9248   5.701   3.582   2.086
 2783SOL    HW2 9249   5.602   3.579   1.957
 2784SOL     OW 9250   1.846   1.724   1.104
 2784SOL    HW1 9251   1.860   1.633   1.064
 2784SOL    HW2 9252   1.933   1.773   1.107
 2785SOL     OW 9253   4.937   2.751   1.385
 2785SOL    HW1 9254   5.035   2.733   1.374
 2785SOL    HW2 9255   4.903   2.701   1.466
 2786SOL     OW 9256   6.954   5.503   0.265
 2786SOL    HW1 9257   0.019   5.533   0.223
 2786SOL    HW2 9258   6.924   5.418   0.221
 2787SOL     OW 9259   6.048   5.582   5.795
 2787SOL    HW1 9260   6.070   5.665   5.846
 2787SOL    HW2 9261   6.106   5.576   5.714
 2788SOL     OW 9262   3.451   6.470   5.394
 2788SOL    HW1 9263   3.510   6.397   5.428
 2788SOL    HW2 9264   3.386   6.432   5.327
 2789SOL     OW 9265   0.062   2.386   4.725
 2789SOL    HW1 9266   0.052   2.306   4.666
 2789SOL    HW2 9267   0.013   2.463   4.684
 2790SOL     OW 9268   2.123   5.603   0.625
 2790SOL    HW1 9269   2.130   5.683   0.685
 2790SOL    HW2 9270   2.044   5.547   0.652
 2791SOL     OW 9271   6.970   3.519   3.082
 2791SOL    HW1 9272   7.004   3.486   2.995
 2791SOL    HW2 9273   6.926   3.445   3.132
 2792SOL     OW 9274   3.383   1.076   4.877
 2792SOL    HW1 9275   3.461   1.125   4.915
 2792SOL    HW2 9276   3.413   1.020   4.799
 2793SOL     OW 9277   3.773   4.399   1.161
 2793SOL    HW1 9278   3.777   4.425   1.258
 2793SOL    HW2 9279   3.755   4.480   1.105
 2794SOL     OW 9280   6.971   1.557   6.038
 2794SOL    HW1 9281   6.928   1.525   6.122
 2794SOL    HW2 9282   6.980   1.657   6.041
 2795SOL     OW 9283   0.593   4.610   1.674
 2795SOL    HW1 9284   0.663   4.584   1.608
 2795SOL    HW2 9285   0.537   4.684   1.636
 2796SOL     OW 9286   0.663   6.054   5.618
 2796SOL    HW1 9287   0.563   6.047   5.626
 2796SOL    HW2 9288   0.692   6.009   5.533
 2797SOL     OW 9289   5.105   6.724   4.451
 2797SOL    HW1 9290   5.081   6.714   4.354
 2797SOL    HW2 9291   5.189   6.777   4.459
 2798SOL     OW 9292   6.175   6.605   2.093
 2798SOL    HW1 9293   6.208   6.515   2.121
 2798SOL    HW2 9294   6.133   6.598   2.002
 2799SOL     OW 9295   4.032   6.396   4.771
 2799SOL    HW1 9296   4.064   6.306   4.801
 2799SOL    HW2 9297   3.990   6.388   4.680
 2800SOL     OW 9298   5.824   0.937   6.928
 2800SOL    HW1 9299   5.796   0.964   6.836
 2800SOL    HW2 9300   5.913   0.977   6.948
 2801SOL     OW 9301   0.681   5.036   6.040
 2801SOL    HW1 9302   0.687   5.124   6.088
 2801SOL    HW2 9303   0.751   4.975   6.075
 2802SOL     OW 9304   6.511   5.977   5.137
 2802SOL    HW1 9305   6.507   6.051   5.070
 2802SOL    HW2 9306   6.439   5.990   5.205
 2803SOL     OW 9307   3.417   3.205   6.205
 2803SOL    HW1 9308   3.409   3.117   6.251
 2803SOL    HW2 9309   3.416   3.279   6.272
 2804SOL     OW 9310   0.774   2.947   4.211
 2804SOL    HW1 9311   0.867   2.912   4.200
 2804SOL    HW2 9312   0.730   2.902   4.288
 2805SOL     OW 9313   4.211   3.750   1.613
 2805SOL    HW1 9314   4.143   3.705   1.672
 2805SOL    HW2 9315   4.203   3.849   1.623
 2806SOL     OW 9316   0.852   4.557   5.637
 2806SOL    HW1 9317   0.826   4.646   5.675
 2806SOL    HW2 9318   0.920   4.571   5.564
 2807SOL     OW 9319   2.915   0.597   3.163
 2807SOL    HW1 9320   2.971   0.576   3.083
 2807SOL    HW2 9321   2.819   0.576   3.144
 2808SOL     OW 9322   6.241   5.608   0.511
 2808SOL    HW1 9323   6.281   5.610   0.419
 2808SOL    HW2 9324   6.202   5.697   0.532
 2809SOL     OW 9325   6.671   5.068   2.272
 2809SOL    HW1 9326   6.770   5.078   2.280
 2809SOL    HW2 9327   6.646   5.051   2.177
 2810SOL     OW 9328   2.354   5.475   3.619
 2810SOL    HW1 9329   2.408   5.559   3.608
 2810SOL    HW2 9330   2.278   5.475   3.554
 2811SOL     OW 9331   0.858   0.160   2.473
 2811SOL    HW1 9332   0.765   0.163   2.510
 2811SOL    HW2 9333   0.854   0.151   2.374
 2812SOL     OW 9334   0.441   3.270   1.062
 2812SOL    HW1 9335   0.510   3.332   1.100
 2812SOL    HW2 9336   0.413   3.303   0.972
 2813SOL     OW 9337   0.621   2.194   1.502
 2813SOL    HW1 9338   0.548   2.167   1.564
 2813SOL    HW2 9339   0.584   2.249   1.428
 2814SOL     OW 9340   2.231   3.713   0.308
 2814SOL    HW1 9341   2.318   3.673   0.276
 2814SOL    HW2 9342   2.173   3.735   0.230
 2815SOL     OW 9343   0.595   5.792   4.824
 2815SOL    HW1 9344   0.668   5.860   4.824
 2815SOL    HW2 9345   0.634   5.701   4.832
 2816SOL     OW 9346   7.013   6.200   5.666
 2816SOL    HW1 9347   0.025   6.167   5.577
 2816SOL    HW2 9348   6.914   6.206   5.666
 2817SOL     OW 9349   3.935   0.829   2.030
 2817SOL    HW1 9350   3.924   0.785   2.119
 2817SOL    HW2 9351   4.029   0.862   2.020
 2818SOL     OW 9352   1.702   1.021   1.255
 2818SOL    HW1 9353   1.740   0.975   1.335
 2818SOL    HW2 9354   1.606   0.998   1.244
 2819SOL     OW 9355   0.606   6.826   0.953
 2819SOL    HW1 9356   0.580   6.877   0.871
 2819SOL    HW2 9357   0.705   6.811   0.952
 2820SOL     OW 9358   1.287   2.423   1.608
 2820SOL    HW1 9359   1.330   2.510   1.631
 2820SOL    HW2 9360   1.240   2.431   1.520
 2821SOL     OW 9361   3.322   4.548   6.668
 2821SOL    HW1 9362   3.277   4.609   6.602
 2821SOL    HW2 9363   3.421   4.553   6.656
 2822SOL     OW 9364   4.359   2.512   0.617
 2822SOL    HW1 9365   4.391   2.542   0.527
 2822SOL    HW2 9366   4.267   2.548   0.634
 2823SOL     OW 9367   4.820   1.811   0.568
 2823SOL    HW1 9368   4.730   1.843   0.540
 2823SOL    HW2 9369   4.890   1.861   0.518
 2824SOL     OW 9370   1.109   3.668   5.158
 2824SOL    HW1 9371   1.038   3.664   5.229
 2824SOL    HW2 9372   1.195   3.633   5.195
 2825SOL     OW 9373   5.358   1.440   6.455
 2825SOL    HW1 9374   5.381   1.505   6.383
 2825SOL    HW2 9375   5.431   1.437   6.523
 2826SOL     OW 9376   1.396   3.908   6.292
 2826SOL    HW1 9377   1.339   3.960   6.228
 2826SOL    HW2 9378   1.424   3.822   6.249
 2827SOL     OW 9379   0.029   0.953   6.589
 2827SOL    HW1 9380   0.017   0.931   6.685
 2827SOL    HW2 9381   0.077   0.879   6.543
 2828SOL     OW 9382   1.363   3.675   0.664
 2828SOL    HW1 9383   1.397   3.737   0.594
 2828SOL    HW2 9384   1.280   3.630   0.631
 2829SOL     OW 9385   3.552   4.179   3.307
 2829SOL    HW1 9386   3.545   4.199   3.209
 2829SOL    HW2 9387   3.469   4.132   3.337
 2830SOL     OW 9388   3.649   5.506   5.703
 2830SOL    HW1 9389   3.561   5.521   5.747
 2830SOL    HW2 9390   3.676   5.587   5.651
 2831SOL     OW 9391   6.593   2.036   1.663
 2831SOL    HW1 9392   6.493   2.039   1.663
 2831SOL    HW2 9393   6.625   2.023   1.757
 2832SOL     OW 9394   0.653   3.120   1.224
 2832SOL    HW1 9395   0.571   3.175   1.210
 2832SOL    HW2 9396   0.724   3.176   1.267
 2833SOL     OW 9397   1.985   2.082   1.804
 2833SOL    HW1 9398   2.003   2.063   1.708
 2833SOL    HW2 9399   1.974   1.996   1.854
 2834SOL     OW 9400   4.347   6.209   4.834
 2834SOL    HW1 9401   4.255   6.188   4.869
 2834SOL    HW2 9402   4.406   6.129   4.846
 2835SOL     OW 9403   1.212   6.516   0.479
 2835SOL    HW1 9404   1.115   6.516   0.506
 2835SOL    HW2 9405   1.258   6.439   0.522
 2836SOL     OW 9406   3.545   5.829   3.654
 2836SOL    HW1 9407   3.614   5.881   3.704
 2836SOL    HW2 9408   3.518   5.749   3.708
 2837SOL     OW 9409   5.547   4.080   2.298
 2837SOL    HW1 9410   5.551   3.999   2.240
 2837SOL    HW2 9411   5.467   4.135   2.274
 2838SOL     OW 9412   5.132   3.746   6.201
 2838SOL    HW1 9413   5.230   3.759   6.193
 2838SOL    HW2 9414   5.084   3.821   6.156
 2839SOL     OW 9415   6.120   3.305   4.981
 2839SOL    HW1 9416   6.151   3.361   5.058
 2839SOL    HW2 9417   6.199   3.280   4.924
 2840SOL     OW 9418   0.252   6.046   2.824
 2840SOL    HW1 9419   0.231   5.973   2.888
 2840SOL    HW2 9420   0.339   6.089   2.849
 2841SOL     OW 9421   5.942   2.689   1.486
 2841SOL    HW1 9422   5.902   2.781   1.492
 2841SOL    HW2 9423   6.038   2.693   1.514
 2842SOL     OW 9424   1.620   6.407   4.042
 2842SOL    HW1 9425   1.621   6.502   4.074
 2842SOL    HW2 9426   1.704   6.361   4.071
 2843SOL     OW 9427   2.336   2.793   3.644
 2843SOL    HW1 9428   2.308   2.774   3.738
 2843SOL    HW2 9429   2.263   2.768   3.582
 2844SOL     OW 9430   4.913   4.514   1.067
 2844SOL    HW1 9431   4.826   4.466   1.053
 2844SOL    HW2 9432   4.970   4.462   1.131
 2845SOL     OW 9433   3.990   2.175   2.900
 2845SOL    HW1 9434   4.081   2.171   2.942
 2845SOL    HW2 9435   4.000   2.204   2.804
 2846SOL     OW 9436   4.681   0.664   0.624
 2846SOL    HW1 9437   4.775   0.683   0.598
 2846SOL    HW2 9438   4.678   0.639   0.721
 2847SOL     OW 9439   4.684   4.344   2.363
 2847SOL    HW1 9440   4.683   4.282   2.441
 2847SOL    HW2 9441   4.774   4.388   2.356
 2848SOL     OW 9442   0.760   3.243   4.810
 2848SOL    HW1 9443   0.823   3.274   4.880
 2848SOL    HW2 9444   0.764   3.144   4.802
 2849SOL     OW 9445   4.020   0.463   2.530
 2849SOL    HW1 9446   4.090   0.496   2.593
 2849SOL    HW2 9447   3.970   0.541   2.493
 2850SOL     OW 9448   2.428   6.925   2.821
 2850SOL    HW1 9449   2.460   6.980   2.899
 2850SOL    HW2 9450   2.345   6.877   2.847
 2851SOL     OW 9451   4.341   3.169   1.052
 2851SOL    HW1 9452   4.335   3.269   1.055
 2851SOL    HW2 9453   4.310   3.131   1.139
 2852SOL     OW 9454   6.808   4.283   5.998
 2852SOL    HW1 9455   6.740   4.327   5.940
 2852SOL    HW2 9456   6.896   4.329   5.986
 2853SOL     OW 9457   0.878   3.714   0.068
 2853SOL    HW1 9458   0.798   3.772   0.084
 2853SOL    HW2 9459   0.887   3.695   6.990
 2854SOL     OW 9460   3.491   1.523   5.810
 2854SOL    HW1 9461   3.553   1.601   5.803
 2854SOL    HW2 9462   3.544   1.440   5.828
 2855SOL     OW 9463   1.730   1.452   4.529
 2855SOL    HW1 9464   1.698   1.533   4.480
 2855SOL    HW2 9465   1.667   1.376   4.513
 2856SOL     OW 9466   1.301   4.393   3.021
 2856SOL    HW1 9467   1.298   4.319   3.089
 2856SOL    HW2 9468   1.389   4.389   2.973
 2857SOL     OW 9469   0.079   3.168   0.934
 2857SOL    HW1 9470   0.174   3.138   0.941
 2857SOL    HW2 9471   0.018   3.089   0.948
 2858SOL     OW 9472   4.495   4.699   3.132
 2858SOL    HW1 9473   4.576   4.759   3.127
 2858SOL    HW2 9474   4.517   4.611   3.091
 2859SOL     OW 9475   5.685   4.878   1.756
 2859SOL    HW1 9476   5.657   4.867   1.851
 2859SOL    HW2 9477   5.608   4.913   1.703
 2860SOL     OW 9478   1.600   5.975   1.530
 2860SOL    HW1 9479   1.526   6.039   1.550
 2860SOL    HW2 9480   1.577   5.923   1.447
 2861SOL     OW 9481   4.414   4.813   6.672
 2861SOL    HW1 9482   4.437   4.799   6.769
 2861SOL    HW2 9483   4.428   4.909   6.648
 2862SOL     OW 9484   4.483   3.206   1.503
 2862SOL    HW1 9485   4.407   3.267   1.482
 2862SOL    HW2 9486   4.463   3.154   1.586
 2863SOL     OW 9487   5.865   0.024   5.546
 2863SOL    HW1 9488   5.783   0.075   5.521
 2863SOL    HW2 9489   5.873   0.022   5.646
 2864SOL     OW 9490   3.797   3.637   0.419
 2864SOL    HW1 9491   3.830   3.717   0.368
 2864SOL    HW2 9492   3.754   3.668   0.504
 2865SOL     OW 9493   5.350   6.217   4.303
 2865SOL    HW1 9494   5.287   6.145   4.271
 2865SOL    HW2 9495   5.349   6.219   4.403
 2866SOL     OW 9496   4.861   4.248   6.604
 2866SOL    HW1 9497   4.869   4.177   6.535
 2866SOL    HW2 9498   4.814   4.327   6.565
 2867SOL     OW 9499   5.809   6.540   2.032
 2867SOL    HW1 9500   5.829   6.510   2.125
 2867SOL    HW2 9501   5.832   6.636   2.021
 2868SOL     OW 9502   1.612   0.584   5.820
 2868SOL    HW1 9503   1.663   0.620   5.899
 2868SOL    HW2 9504   1.545   0.517   5.852
 2869SOL     OW 9505   5.279   5.859   3.660
 2869SOL    HW1 9506   5.312   5.915   3.737
 2869SOL    HW2 9507   5.230   5.779   3.695
 2870SOL     OW 9508   0.738   1.501   1.665
 2870SOL    HW1 9509   0.645   1.537   1.672
 2870SOL    HW2 9510   0.801   1.576   1.644
 2871SOL     OW 9511   6.016   1.767   1.287
 2871SOL    HW1 9512   5.927   1.758   1.333
 2871SOL    HW2 9513   6.081   1.703   1.328
 2872SOL     OW 9514   2.476   2.020   2.558
 2872SOL    HW1 9515   2.557   2.066   2.521
 2872SOL    HW2 9516   2.394   2.050   2.510
 2873SOL     OW 9517   0.778   6.382   1.339
 2873SOL    HW1 9518   0.686   6.350   1.314
 2873SOL    HW2 9519   0.770   6.460   1.401
 2874SOL     OW 9520   2.004   0.461   3.255
 2874SOL    HW1 9521   1.952   0.514   3.322
 2874SOL    HW2 9522   1.942   0.424   3.186
 2875SOL     OW 9523   3.179   6.761   2.838
 2875SOL    HW1 9524   3.100   6.811   2.802
 2875SOL    HW2 9525   3.259   6.780   2.781
 2876SOL     OW 9526   1.337   6.115   2.064
 2876SOL    HW1 9527   1.289   6.190   2.109
 2876SOL    HW2 9528   1.388   6.149   1.986
 2877SOL     OW 9529   1.999   0.890   5.863
 2877SOL    HW1 9530   1.904   0.922   5.871
 2877SOL    HW2 9531   2.059   0.968   5.847
 2878SOL     OW 9532   3.597   3.546   4.746
 2878SOL    HW1 9533   3.658   3.539   4.668
 2878SOL    HW2 9534   3.540   3.464   4.752
 2879SOL     OW 9535   4.281   4.670   6.080
 2879SOL    HW1 9536   4.317   4.724   6.004
 2879SOL    HW2 9537   4.249   4.582   6.046
 2880SOL     OW 9538   1.689   1.513   4.859
 2880SOL    HW1 9539   1.719   1.536   4.766
 2880SOL    HW2 9540   1.748   1.442   4.897
 2881SOL     OW 9541   3.791   6.303   6.630
 2881SOL    HW1 9542   3.794   6.402   6.613
 2881SOL    HW2 9543   3.716   6.262   6.577
 2882SOL     OW 9544   4.533   6.044   0.475
 2882SOL    HW1 9545   4.530   5.954   0.432
 2882SOL    HW2 9546   4.441   6.072   0.501
 2883SOL     OW 9547   6.234   6.612   3.561
 2883SOL    HW1 9548   6.195   6.521   3.577
 2883SOL    HW2 9549   6.162   6.681   3.571
 2884SOL     OW 9550   0.208   5.464   2.721
 2884SOL    HW1 9551   0.111   5.449   2.703
 2884SOL    HW2 9552   0.256   5.377   2.719
 2885SOL     OW 9553   0.907   3.406   2.695
 2885SOL    HW1 9554   0.982   3.345   2.720
 2885SOL    HW2 9555   0.824   3.380   2.746
 2886SOL     OW 9556   2.811   4.417   6.543
 2886SOL    HW1 9557   2.778   4.399   6.450
 2886SOL    HW2 9558   2.910   4.421   6.543
 2887SOL     OW 9559   1.175   6.279   4.023
 2887SOL    HW1 9560   1.186   6.231   3.937
 2887SOL    HW2 9561   1.081   6.269   4.056
 2888SOL     OW 9562   6.543   6.297   0.709
 2888SOL    HW1 9563   6.561   6.297   0.808
 2888SOL    HW2 9564   6.452   6.332   0.691
 2889SOL     OW 9565   2.993   6.307   3.149
 2889SOL    HW1 9566   3.079   6.359   3.138
 2889SOL    HW2 9567   2.949   6.335   3.234
 2890SOL     OW 9568   1.705   6.918   0.914
 2890SOL    HW1 9569   1.790   6.870   0.938
 2890SOL    HW2 9570   1.679   6.893   0.820
 2891SOL     OW 9571   0.369   3.218   3.676
 2891SOL    HW1 9572   0.305   3.141   3.683
 2891SOL    HW2 9573   0.425   3.207   3.593
 2892SOL     OW 9574   6.392   3.711   1.259
 2892SOL    HW1 9575   6.444   3.627   1.246
 2892SOL    HW2 9576   6.448   3.789   1.231
 2893SOL     OW 9577   0.169   5.041   4.318
 2893SOL    HW1 9578   0.235   5.032   4.392
 2893SOL    HW2 9579   0.080   5.007   4.349
 2894SOL     OW 9580   1.259   5.136   2.145
 2894SOL    HW1 9581   1.295   5.148   2.237
 2894SOL    HW2 9582   1.335   5.116   2.083
 2895SOL     OW 9583   3.963   6.949   5.979
 2895SOL    HW1 9584   3.904   0.008   5.998
 2895SOL    HW2 9585   4.045   6.955   6.035
 2896SOL     OW 9586   5.410   6.235   4.845
 2896SOL    HW1 9587   5.411   6.315   4.904
 2896SOL    HW2 9588   5.320   6.191   4.848
 2897SOL     OW 9589   3.424   4.916   2.811
 2897SOL    HW1 9590   3.478   4.979   2.868
 2897SOL    HW2 9591   3.474   4.895   2.727
 2898SOL     OW 9592   5.642   4.310   2.672
 2898SOL    HW1 9593   5.672   4.365   2.749
 2898SOL    HW2 9594   5.722   4.268   2.628
 2899SOL     OW 9595   6.769   2.940   0.860
 2899SOL    HW1 9596   6.726   3.029   0.877
 2899SOL    HW2 9597   6.717   2.869   0.909
 2900SOL     OW 9598   3.108   3.663   0.198
 2900SOL    HW1 9599   3.020   3.657   0.151
 2900SOL    HW2 9600   3.154   3.748   0.172
 2901SOL     OW 9601   1.592   3.561   3.320
 2901SOL    HW1 9602   1.620   3.501   3.395
 2901SOL    HW2 9603   1.664   3.629   3.304
 2902SOL     OW 9604   1.268   5.603   4.259
 2902SOL    HW1 9605   1.318   5.517   4.249
 2902SOL    HW2 9606   1.325   5.679   4.228
 2903SOL     OW 9607   4.209   5.986   0.977
 2903SOL    HW1 9608   4.179   6.059   0.916
 2903SOL    HW2 9609   4.135   5.920   0.989
 2904SOL     OW 9610   2.393   4.363   5.167
 2904SOL    HW1 9611   2.310   4.325   5.126
 2904SOL    HW2 9612   2.403   4.458   5.139
 2905SOL     OW 9613   0.981   4.415   1.862
 2905SOL    HW1 9614   0.881   4.408   1.867
 2905SOL    HW2 9615   1.006   4.491   1.801
 2906SOL     OW 9616   5.841   5.761   3.503
 2906SOL    HW1 9617   5.821   5.670   3.467
 2906SOL    HW2 9618   5.938   5.781   3.489
 2907SOL     OW 9619   0.864   0.297   3.505
 2907SOL    HW1 9620   0.957   0.329   3.485
 2907SOL    HW2 9621   0.813   0.288   3.420
 2908SOL     OW 9622   4.421   0.235   2.663
 2908SOL    HW1 9623   4.419   0.190   2.752
 2908SOL    HW2 9624   4.384   0.172   2.594
 2909SOL     OW 9625   1.196   5.966   1.893
 2909SOL    HW1 9626   1.247   6.033   1.947
 2909SOL    HW2 9627   1.100   5.994   1.886
 2910SOL     OW 9628   0.138   0.659   3.690
 2910SOL    HW1 9629   0.235   0.636   3.681
 2910SOL    HW2 9630   0.104   0.695   3.604
 2911SOL     OW 9631   6.711   3.902   4.247
 2911SOL    HW1 9632   6.729   3.809   4.215
 2911SOL    HW2 9633   6.613   3.919   4.245
 2912SOL     OW 9634   6.888   6.557   0.811
 2912SOL    HW1 9635   6.977   6.530   0.773
 2912SOL    HW2 9636   6.838   6.610   0.743
 2913SOL     OW 9637   2.086   5.815   0.885
 2913SOL    HW1 9638   2.044   5.905   0.899
 2913SOL    HW2 9639   2.173   5.827   0.836
 2914SOL     OW 9640   5.439   5.171   0.323
 2914SOL    HW1 9641   5.408   5.242   0.387
 2914SOL    HW2 9642   5.515   5.205   0.269
 2915SOL     OW 9643   3.217   1.392   3.275
 2915SOL    HW1 9644   3.164   1.409   3.192
 2915SOL    HW2 9645   3.313   1.380   3.251
 2916SOL     OW 9646   1.480   6.110   0.298
 2916SOL    HW1 9647   1.403   6.069   0.347
 2916SOL    HW2 9648   1.461   6.107   0.199
 2917SOL     OW 9649   2.536   6.761   3.270
 2917SOL    HW1 9650   2.575   6.768   3.179
 2917SOL    HW2 9651   2.441   6.729   3.264
 2918SOL     OW 9652   6.195   3.521   0.922
 2918SOL    HW1 9653   6.176   3.524   0.824
 2918SOL    HW2 9654   6.179   3.611   0.962
 2919SOL     OW 9655   0.917   6.330   4.626
 2919SOL    HW1 9656   0.872   6.316   4.538
 2919SOL    HW2 9657   0.873   6.273   4.695
 2920SOL     OW 9658   1.636   1.110   1.625
 2920SOL    HW1 9659   1.594   1.162   1.551
 2920SOL    HW2 9660   1.570   1.097   1.699
 2921SOL     OW 9661   0.632   0.010   5.826
 2921SOL    HW1 9662   0.595   0.005   5.733
 2921SOL    HW2 9663   0.581   0.077   5.879
 2922SOL     OW 9664   3.935   0.842   3.353
 2922SOL    HW1 9665   3.928   0.940   3.370
 2922SOL    HW2 9666   3.888   0.819   3.268
 2923SOL     OW 9667   6.239   4.852   5.183
 2923SOL    HW1 9668   6.166   4.906   5.142
 2923SOL    HW2 9669   6.309   4.833   5.115
 2924SOL     OW 9670   6.341   2.971   5.401
 2924SOL    HW1 9671   6.266   2.993   5.339
 2924SOL    HW2 9672   6.426   3.009   5.365
 2925SOL     OW 9673   5.446   0.613   5.736
 2925SOL    HW1 9674   5.460   0.675   5.812
 2925SOL    HW2 9675   5.355   0.626   5.698
 2926SOL     OW 9676   0.412   1.490   4.676
 2926SOL    HW1 9677   0.469   1.542   4.739
 2926SOL    HW2 9678   0.399   1.541   4.591
 2927SOL     OW 9679   1.774   2.837   1.480
 2927SOL    HW1 9680   1.830   2.836   1.562
 2927SOL    HW2 9681   1.718   2.919   1.478
 2928SOL     OW 9682   6.767   2.191   7.017
 2928SOL    HW1 9683   6.738   2.192   0.092
 2928SOL    HW2 9684   6.858   2.149   7.011
 2929SOL     OW 9685   1.820   2.318   4.668
 2929SOL    HW1 9686   1.905   2.344   4.622
 2929SOL    HW2 9687   1.795   2.389   4.734
 2930SOL     OW 9688   0.469   5.242   5.104
 2930SOL    HW1 9689   0.414   5.222   5.023
 2930SOL    HW2 9690   0.471   5.161   5.163
 2931SOL     OW 9691   4.110   4.155   6.087
 2931SOL    HW1 9692   4.013   4.172   6.106
 2931SOL    HW2 9693   4.147   4.094   6.157
 2932SOL     OW 9694   6.558   5.671   0.660
 2932SOL    HW1 9695   6.612   5.725   0.724
 2932SOL    HW2 9696   6.469   5.650   0.699
 2933SOL     OW 9697   1.315   0.068   0.927
 2933SOL    HW1 9698   1.323   0.141   0.995
 2933SOL    HW2 9699   1.357   0.097   0.841
 2934SOL     OW 9700   3.879   3.840   0.265
 2934SOL    HW1 9701   3.834   3.824   0.178
 2934SOL    HW2 9702   3.978   3.847   0.251
 2935SOL     OW 9703   0.167   2.779   6.437
 2935SOL    HW1 9704   0.123   2.822   6.516
 2935SOL    HW2 9705   0.250   2.830   6.414
 2936SOL     OW 9706   4.788   0.140   0.844
 2936SOL    HW1 9707   4.840   0.167   0.764
 2936SOL    HW2 9708   4.721   0.211   0.866
 2937SOL     OW 9709   4.393   5.488   2.149
 2937SOL    HW1 9710   4.306   5.534   2.165
 2937SOL    HW2 9711   4.458   5.512   2.221
 2938SOL     OW 9712   6.592   5.615   6.300
 2938SOL    HW1 9713   6.493   5.632   6.307
 2938SOL    HW2 9714   6.641   5.682   6.356
 2939SOL     OW 9715   0.210   5.703   1.570
 2939SOL    HW1 9716   0.172   5.617   1.604
 2939SOL    HW2 9717   0.135   5.764   1.543
 2940SOL     OW 9718   5.375   5.830   3.392
 2940SOL    HW1 9719   5.331   5.862   3.476
 2940SOL    HW2 9720   5.305   5.797   3.328
 2941SOL     OW 9721   2.166   3.231   3.773
 2941SOL    HW1 9722   2.072   3.200   3.760
 2941SOL    HW2 9723   2.168   3.309   3.836
 2942SOL     OW 9724   3.093   1.705   0.743
 2942SOL    HW1 9725   3.078   1.719   0.840
 2942SOL    HW2 9726   3.009   1.672   0.700
 2943SOL     OW 9727   5.818   4.069   3.548
 2943SOL    HW1 9728   5.840   4.162   3.519
 2943SOL    HW2 9729   5.769   4.022   3.475
 2944SOL     OW 9730   2.189   5.855   3.768
 2944SOL    HW1 9731   2.147   5.946   3.758
 2944SOL    HW2 9732   2.212   5.819   3.678
 2945SOL     OW 9733   5.185   4.312   1.595
 2945SOL    HW1 9734   5.232   4.384   1.646
 2945SOL    HW2 9735   5.244   4.281   1.520
 2946SOL     OW 9736   2.955   4.176   6.356
 2946SOL    HW1 9737   3.010   4.259   6.362
 2946SOL    HW2 9738   3.012   4.101   6.321
 2947SOL     OW 9739   5.643   6.510   0.682
 2947SOL    HW1 9740   5.720   6.459   0.643
 2947SOL    HW2 9741   5.601   6.455   0.754
 2948SOL     OW 9742   5.852   4.176   2.557
 2948SOL    HW1 9743   5.903   4.177   2.471
 2948SOL    HW2 9744   5.882   4.100   2.614
 2949SOL     OW 9745   1.664   0.147   1.020
 2949SOL    HW1 9746   1.581   0.194   0.988
 2949SOL    HW2 9747   1.668   0.056   0.979
 2950SOL     OW 9748   4.920   4.466   2.441
 2950SOL    HW1 9749   4.867   4.539   2.484
 2950SOL    HW2 9750   4.976   4.420   2.510
 2951SOL     OW 9751   5.858   1.217   1.534
 2951SOL    HW1 9752   5.771   1.186   1.571
 2951SOL    HW2 9753   5.926   1.220   1.608
 2952SOL     OW 9754   5.800   1.173   4.198
 2952SOL    HW1 9755   5.882   1.217   4.235
 2952SOL    HW2 9756   5.773   1.096   4.256
 2953SOL     OW 9757   0.822   5.827   3.443
 2953SOL    HW1 9758   0.798   5.880   3.362
 2953SOL    HW2 9759   0.920   5.803   3.439
 2954SOL     OW 9760   0.269   4.625   6.189
 2954SOL    HW1 9761   0.268   4.539   6.138
 2954SOL    HW2 9762   0.236   4.609   6.282
 2955SOL     OW 9763   1.947   3.877   6.893
 2955SOL    HW1 9764   1.876   3.944   6.873
 2955SOL    HW2 9765   1.997   3.855   6.809
 2956SOL     OW 9766   6.386   4.272   3.353
 2956SOL    HW1 9767   6.333   4.294   3.435
 2956SOL    HW2 9768   6.455   4.203   3.375
 2957SOL     OW 9769   3.049   5.562   1.579
 2957SOL    HW1 9770   3.044   5.629   1.505
 2957SOL    HW2 9771   2.971   5.499   1.573
 2958SOL     OW 9772   2.157   4.920   3.268
 2958SOL    HW1 9773   2.231   4.946   3.331
 2958SOL    HW2 9774   2.135   4.997   3.208
 2959SOL     OW 9775   6.331   2.029   2.775
 2959SOL    HW1 9776   6.257   2.070   2.720
 2959SOL    HW2 9777   6.352   2.089   2.852
 2960SOL     OW 9778   4.544   0.275   0.879
 2960SOL    HW1 9779   4.485   0.221   0.818
 2960SOL    HW2 9780   4.545   0.233   0.969
 2961SOL     OW 9781   5.231   4.133   2.689
 2961SOL    HW1 9782   5.317   4.129   2.639
 2961SOL    HW2 9783   5.201   4.041   2.713
 2962SOL     OW 9784   6.787   6.556   2.405
 2962SOL    HW1 9785   6.802   6.619   2.330
 2962SOL    HW2 9786   6.844   6.582   2.483
 2963SOL     OW 9787   1.745   1.289   5.195
 2963SOL    HW1 9788   1.677   1.216   5.189
 2963SOL    HW2 9789   1.700   1.378   5.191
 2964SOL     OW 9790   1.005   2.623   6.979
 2964SOL    HW1 9791   1.026   2.627   6.881
 2964SOL    HW2 9792   0.918   2.576   6.991
 2965SOL     OW 9793   0.398   0.546   5.381
 2965SOL    HW1 9794   0.442   0.635   5.390
 2965SOL    HW2 9795   0.317   0.542   5.440
 2966SOL     OW 9796   4.328   5.608   3.727
 2966SOL    HW1 9797   4.417   5.654   3.725
 2966SOL    HW2 9798   4.255   5.676   3.722
 2967SOL     OW 9799   6.265   1.051   5.722
 2967SOL    HW1 9800   6.301   1.095   5.804
 2967SOL    HW2 9801   6.249   0.954   5.740
 2968SOL     OW 9802   1.510   1.950   1.026
 2968SOL    HW1 9803   1.469   1.859   1.030
 2968SOL    HW2 9804   1.461   2.006   0.959
 2969SOL     OW 9805   5.909   3.584   4.308
 2969SOL    HW1 9806   5.913   3.624   4.400
 2969SOL    HW2 9807   5.835   3.518   4.304
 2970SOL     OW 9808   2.302   2.725   4.265
 2970SOL    HW1 9809   2.273   2.635   4.298
 2970SOL    HW2 9810   2.308   2.788   4.343
 2971SOL     OW 9811   5.626   3.797   6.428
 2971SOL    HW1 9812   5.556   3.809   6.498
 2971SOL    HW2 9813   5.679   3.881   6.418
 2972SOL     OW 9814   5.430   4.748   6.741
 2972SOL    HW1 9815   5.337   4.724   6.769
 2972SOL    HW2 9816   5.496   4.701   6.800
 2973SOL     OW 9817   5.048   7.017   2.319
 2973SOL    HW1 9818   5.044   0.097   2.321
 2973SOL    HW2 9819   4.959   6.980   2.345
 2974SOL     OW 9820   5.119   5.594   3.525
 2974SOL    HW1 9821   5.166   5.614   3.439
 2974SOL    HW2 9822   5.140   5.500   3.553
 2975SOL     OW 9823   4.719   4.831   4.127
 2975SOL    HW1 9824   4.760   4.810   4.215
 2975SOL    HW2 9825   4.621   4.810   4.130
 2976SOL     OW 9826   4.826   2.242   2.163
 2976SOL    HW1 9827   4.923   2.217   2.159
 2976SOL    HW2 9828   4.770   2.161   2.147
 2977SOL     OW 9829   0.982   0.480   1.617
 2977SOL    HW1 9830   0.998   0.573   1.649
 2977SOL    HW2 9831   0.884   0.460   1.622
 2978SOL     OW 9832   4.194   4.397   6.005
 2978SOL    HW1 9833   4.117   4.439   5.957
 2978SOL    HW2 9834   4.161   4.322   6.062
 2979SOL     OW 9835   2.518   1.429   4.327
 2979SOL    HW1 9836   2.467   1.398   4.407
 2979SOL    HW2 9837   2.613   1.398   4.334
 2980SOL     OW 9838   3.917   3.841   6.187
 2980SOL    HW1 9839   3.980   3.798   6.122
 2980SOL    HW2 9840   3.859   3.906   6.138
 2981SOL     OW 9841   2.010   1.134   0.614
 2981SOL    HW1 9842   1.948   1.059   0.637
 2981SOL    HW2 9843   2.087   1.099   0.561
 2982SOL     OW 9844   1.018   0.250   2.060
 2982SOL    HW1 9845   1.000   0.346   2.083
 2982SOL    HW2 9846   1.053   0.245   1.966
 2983SOL     OW 9847   6.247   3.211   6.589
 2983SOL    HW1 9848   6.161   3.169   6.617
 2983SOL    HW2 9849   6.237   3.310   6.589
 2984SOL     OW 9850   6.535   5.006   0.238
 2984SOL    HW1 9851   6.592   4.982   0.159
 2984SOL    HW2 9852   6.556   4.944   0.313
 2985SOL     OW 9853   0.273   0.510   5.140
 2985SOL    HW1 9854   0.204   0.580   5.118
 2985SOL    HW2 9855   0.324   0.538   5.221
 2986SOL     OW 9856   3.749   4.106   2.776
 2986SOL    HW1 9857   3.827   4.064   2.729
 2986SOL    HW2 9858   3.744   4.070   2.869
 2987SOL     OW 9859   1.028   1.247   4.375
 2987SOL    HW1 9860   1.002   1.271   4.282
 2987SOL    HW2 9861   0.945   1.238   4.431
 2988SOL     OW 9862   0.582   1.858   0.411
 2988SOL    HW1 9863   0.574   1.758   0.405
 2988SOL    HW2 9864   0.603   1.883   0.506
 2989SOL     OW 9865   5.164   3.243   4.469
 2989SOL    HW1 9866   5.221   3.211   4.545
 2989SOL    HW2 9867   5.068   3.222   4.487
 2990SOL     OW 9868   5.017   1.895   4.336
 2990SOL    HW1 9869   4.936   1.949   4.315
 2990SOL    HW2 9870   5.084   1.952   4.383
 2991SOL     OW 9871   5.502   3.095   0.524
 2991SOL    HW1 9872   5.589   3.133   0.491
 2991SOL    HW2 9873   5.451   3.058   0.447
 2992SOL     OW 9874   0.414   3.436   5.842
 2992SOL    HW1 9875   0.453   3.346   5.861
 2992SOL    HW2 9876   0.453   3.503   5.904
 2993SOL     OW 9877   1.091   4.404   0.238
 2993SOL    HW1 9878   1.129   4.489   0.202
 2993SOL    HW2 9879   1.025   4.425   0.310
 2994SOL     OW 9880   4.576   6.824   0.450
 2994SOL    HW1 9881   4.572   6.846   0.352
 2994SOL    HW2 9882   4.670   6.832   0.482
 2995SOL     OW 9883   4.834   6.880   0.504
 2995SOL    HW1 9884   4.883   6.877   0.592
 2995SOL    HW2 9885   4.883   6.823   0.438
 2996SOL     OW 9886   0.962   1.885   4.802
 2996SOL    HW1 9887   0.910   1.889   4.716
 2996SOL    HW2 9888   1.013   1.971   4.813
 2997SOL     OW 9889   5.031   0.513   3.877
 2997SOL    HW1 9890   4.968   0.453   3.927
 2997SOL    HW2 9891   4.997   0.527   3.784
 2998SOL     OW 9892   2.527   1.269   2.882
 2998SOL    HW1 9893   2.516   1.177   2.844
 2998SOL    HW2 9894   2.502   1.337   2.813
 2999SOL     OW 9895   2.939   4.222   0.635
 2999SOL    HW1 9896   3.034   4.209   0.665
 2999SOL    HW2 9897   2.895   4.291   0.693
 3000SOL     OW 9898   2.877   3.787   5.195
 3000SOL    HW1 9899   2.895   3.697   5.155
 3000SOL    HW2 9900   2.927   3.856   5.144
 3001SOL     OW 9901   6.483   1.882   6.251
 3001SOL    HW1 9902   6.531   1.943   6.313
 3001SOL    HW2 9903   6.385   1.884   6.270
 3002SOL     OW 9904   2.501   0.984   2.034
 3002SOL    HW1 9905   2.575   0.964   1.970
 3002SOL    HW2 9906   2.494   0.909   2.101
 3003SOL     OW 9907   1.077   6.178   0.239
 3003SOL    HW1 9908   1.075   6.102   0.174
 3003SOL    HW2 9909   1.155   6.167   0.301
 3004SOL     OW 9910   2.674   5.618   4.473
 3004SOL    HW1 9911   2.579   5.638   4.451
 3004SOL    HW2 9912   2.696   5.525   4.444
 3005SOL     OW 9913   0.993   2.870   5.465
 3005SOL    HW1 9914   0.952   2.874   5.373
 3005SOL    HW2 9915   1.081   2.917   5.464
 3006SOL     OW 9916   5.239   1.886   5.074
 3006SOL    HW1 9917   5.198   1.897   5.165
 3006SOL    HW2 9918   5.284   1.971   5.047
 3007SOL     OW 9919   5.476   5.242   6.654
 3007SOL    HW1 9920   5.420   5.264   6.574
 3007SOL    HW2 9921   5.509   5.148   6.647
 3008SOL     OW 9922   4.287   2.380   5.763
 3008SOL    HW1 9923   4.205   2.365   5.709
 3008SOL    HW2 9924   4.356   2.426   5.707
 3009SOL     OW 9925   0.509   3.019   2.638
 3009SOL    HW1 9926   0.569   3.006   2.558
 3009SOL    HW2 9927   0.561   3.004   2.722
 3010SOL     OW 9928   4.209   6.190   6.018
 3010SOL    HW1 9929   4.300   6.231   6.029
 3010SOL    HW2 9930   4.179   6.151   6.105
 3011SOL     OW 9931   5.967   0.319   1.139
 3011SOL    HW1 9932   5.966   0.414   1.105
 3011SOL    HW2 9933   6.022   0.315   1.222
 3012SOL     OW 9934   2.761   2.870   6.210
 3012SOL    HW1 9935   2.793   2.883   6.116
 3012SOL    HW2 9936   2.746   2.960   6.252
 3013SOL     OW 9937   0.784   5.854   4.454
 3013SOL    HW1 9938   0.859   5.920   4.462
 3013SOL    HW2 9939   0.815   5.776   4.398
 3014SOL     OW 9940   4.992   0.880   5.496
 3014SOL    HW1 9941   5.049   0.883   5.578
 3014SOL    HW2 9942   4.916   0.817   5.510
 3015SOL     OW 9943   1.285   1.184   0.321
 3015SOL    HW1 9944   1.358   1.251   0.309
 3015SOL    HW2 9945   1.285   1.121   0.244
 3016SOL     OW 9946   2.797   6.274   4.869
 3016SOL    HW1 9947   2.712   6.322   4.845
 3016SOL    HW2 9948   2.872   6.340   4.875
 3017SOL     OW 9949   6.428   5.950   1.576
 3017SOL    HW1 9950   6.371   5.885   1.526
 3017SOL    HW2 9951   6.410   6.042   1.543
 3018SOL     OW 9952   3.457   0.243   0.114
 3018SOL    HW1 9953   3.446   0.196   0.202
 3018SOL    HW2 9954   3.542   0.294   0.114
 3019SOL     OW 9955   1.644   0.137   5.966
 3019SOL    HW1 9956   1.642   0.059   6.029
 3019SOL    HW2 9957   1.638   0.222   6.017
 3020SOL     OW 9958   5.157   3.842   0.277
 3020SOL    HW1 9959   5.119   3.751   0.260
 3020SOL    HW2 9960   5.162   3.892   0.191
 3021SOL     OW 9961   3.676   6.476   4.745
 3021SOL    HW1 9962   3.602   6.520   4.695
 3021SOL    HW2 9963   3.703   6.392   4.697
 3022SOL     OW 9964   4.494   6.249   3.505
 3022SOL    HW1 9965   4.413   6.202   3.470
 3022SOL    HW2 9966   4.574   6.192   3.491
 3023SOL     OW 9967   3.974   7.009   2.754
 3023SOL    HW1 9968   3.880   7.006   2.789
 3023SOL    HW2 9969   4.010   6.915   2.748
 3024SOL     OW 9970   0.227   6.258   6.408
 3024SOL    HW1 9971   0.326   6.273   6.406
 3024SOL    HW2 9972   0.190   6.266   6.315
 3025SOL     OW 9973   3.760   5.910   0.870
 3025SOL    HW1 9974   3.667   5.935   0.895
 3025SOL    HW2 9975   3.774   5.927   0.772
 3026SOL     OW 9976   5.788   1.260   0.277
 3026SOL    HW1 9977   5.831   1.349   0.264
 3026SOL    HW2 9978   5.858   1.190   0.284
 3027SOL     OW 9979   4.987   1.140   1.478
 3027SOL    HW1 9980   4.978   1.121   1.576
 3027SOL    HW2 9981   5.075   1.185   1.461
 3028SOL     OW 9982   2.654   4.392   6.314
 3028SOL    HW1 9983   2.704   4.347   6.240
 3028SOL    HW2 9984   2.606   4.324   6.368
 3029SOL     OW 9985   0.908   1.888   4.181
 3029SOL    HW1 9986   0.822   1.937   4.200
 3029SOL    HW2 9987   0.985   1.945   4.209
 3030SOL     OW 9988   1.436   3.679   1.256
 3030SOL    HW1 9989   1.443   3.605   1.189
 3030SOL    HW2 9990   1.518   3.735   1.254
 3031SOL     OW 9991   1.256   5.774   1.177
 3031SOL    HW1 9992   1.158   5.764   1.192
 3031SOL    HW2 9993   1.280   5.871   1.169
 3032SOL     OW 9994   1.427   0.566   2.631
 3032SOL    HW1 9995   1.508   0.595   2.683
 3032SOL    HW2 9996   1.446   0.572   2.533
 3033SOL     OW 9997   0.179   2.229   4.366
 3033SOL    HW1 9998   0.236   2.197   4.290
 3033SOL    HW2 9999   0.236   2.240   4.448
 3034SOL     OW10000   0.537   5.823   3.760
 3034SOL    HW110001   0.485   5.841   3.677
 3034SOL    HW210002   0.475   5.793   3.833
 3035SOL     OW10003   1.437   2.713   6.690
 3035SOL    HW110004   1.534   2.723   6.708
 3035SOL    HW210005   1.413   2.759   6.605
 3036SOL     OW10006   2.540   1.969   6.299
 3036SOL    HW110007   2.446   1.986   6.330
 3036SOL    HW210008   2.601   2.039   6.336
 3037SOL     OW10009   0.471   5.520   6.544
 3037SOL    HW110010   0.467   5.448   6.475
 3037SOL    HW210011   0.429   5.603   6.508
 3038SOL     OW10012   5.120   4.770   6.523
 3038SOL    HW110013   5.212   4.770   6.483
 3038SOL    HW210014   5.097   4.678   6.555
 3039SOL     OW10015   6.442   4.276   0.045
 3039SOL    HW110016   6.460   4.183   0.012
 3039SOL    HW210017   6.520   4.309   0.098
 3040SOL     OW10018   4.070   4.409   6.289
 3040SOL    HW110019   4.028   4.497   6.309
 3040SOL    HW210020   4.168   4.423   6.271
 3041SOL     OW10021   2.281   4.395   4.783
 3041SOL    HW110022   2.184   4.376   4.793
 3041SOL    HW210023   2.321   4.329   4.719
 3042SOL     OW10024   0.057   5.170   2.955
 3042SOL    HW110025   0.101   5.182   2.866
 3042SOL    HW210026   0.126   5.158   3.025
 3043SOL     OW10027   2.975   4.512   0.696
 3043SOL    HW110028   3.068   4.512   0.735
 3043SOL    HW210029   2.928   4.596   0.722
 3044SOL     OW10030   3.119   3.587   5.331
 3044SOL    HW110031   3.059   3.549   5.401
 3044SOL    HW210032   3.089   3.555   5.241
 3045SOL     OW10033   5.175   1.484   2.563
 3045SOL    HW110034   5.270   1.489   2.595
 3045SOL    HW210035   5.113   1.490   2.642
 3046SOL     OW10036   5.692   5.588   0.513
 3046SOL    HW110037   5.684   5.489   0.518
 3046SOL    HW210038   5.699   5.626   0.606
 3047SOL     OW10039   6.326   0.577   6.495
 3047SOL    HW110040   6.366   0.520   6.424
 3047SOL    HW210041   6.289   0.518   6.567
 3048SOL     OW10042   3.998   3.509   1.352
 3048SOL    HW110043   3.987   3.521   1.450
 3048SOL    HW210044   4.075   3.564   1.320
 3049SOL     OW10045   0.967   0.330   4.379
 3049SOL    HW110046   0.898   0.385   4.331
 3049SOL    HW210047   0.985   0.246   4.328
 3050SOL     OW10048   2.998   2.733   1.414
 3050SOL    HW110049   2.918   2.790   1.431
 3050SOL    HW210050   3.060   2.740   1.492
 3051SOL     OW10051   2.474   6.899   4.521
 3051SOL    HW110052   2.491   6.841   4.601
 3051SOL    HW210053   2.560   6.913   4.472
 3052SOL     OW10054   6.099   6.173   2.562
 3052SOL    HW110055   6.147   6.260   2.565
 3052SOL    HW210056   6.166   6.099   2.552
 3053SOL     OW10057   1.713   4.091   0.495
 3053SOL    HW110058   1.784   4.108   0.563
 3053SOL    HW210059   1.756   4.068   0.408
 3054SOL     OW10060   5.770   1.501   2.938
 3054SOL    HW110061   5.820   1.514   3.024
 3054SOL    HW210062   5.672   1.506   2.955
 3055SOL     OW10063   6.257   5.837   6.556
 3055SOL    HW110064   6.299   5.825   6.466
 3055SOL    HW210065   6.158   5.832   6.547
 3056SOL     OW10066   5.105   1.497   6.085
 3056SOL    HW110067   5.203   1.480   6.094
 3056SOL    HW210068   5.070   1.535   6.171
 3057SOL     OW10069   6.369   5.758   3.273
 3057SOL    HW110070   6.325   5.789   3.357
 3057SOL    HW210071   6.416   5.671   3.290
 3058SOL     OW10072   6.265   4.473   0.008
 3058SOL    HW110073   6.304   4.553   0.054
 3058SOL    HW210074   6.331   4.397   0.012
 3059SOL     OW10075   2.535   2.567   4.605
 3059SOL    HW110076   2.583   2.631   4.545
 3059SOL    HW210077   2.490   2.497   4.550
 3060SOL     OW10078   4.462   5.106   5.354
 3060SOL    HW110079   4.493   5.109   5.449
 3060SOL    HW210080   4.451   5.200   5.320
 3061SOL     OW10081   5.017   4.779   5.409
 3061SOL    HW110082   5.040   4.719   5.332
 3061SOL    HW210083   4.961   4.855   5.376
 3062SOL     OW10084   4.660   4.220   1.716
 3062SOL    HW110085   4.563   4.231   1.738
 3062SOL    HW210086   4.716   4.251   1.794
 3063SOL     OW10087   6.886   4.291   1.415
 3063SOL    HW110088   6.829   4.242   1.480
 3063SOL    HW210089   6.975   4.312   1.456
 3064SOL     OW10090   3.961   1.799   6.759
 3064SOL    HW110091   3.913   1.843   6.683
 3064SOL    HW210092   3.955   1.856   6.841
 3065SOL     OW10093   1.089   0.881   6.914
 3065SOL    HW110094   1.061   0.947   6.845
 3065SOL    HW210095   1.106   0.793   6.871
 3066SOL     OW10096   5.432   6.291   6.368
 3066SOL    HW110097   5.367   6.230   6.322
 3066SOL    HW210098   5.518   6.243   6.382
 3067SOL     OW10099   2.664   2.564   6.991
 3067SOL    HW110100   2.662   2.590   0.067
 3067SOL    HW210101   2.750   2.593   6.949
 3068SOL     OW10102   0.498   0.759   1.107
 3068SOL    HW110103   0.555   0.841   1.117
 3068SOL    HW210104   0.548   0.690   1.055
 3069SOL     OW10105   5.166   0.218   2.622
 3069SOL    HW110106   5.228   0.253   2.552
 3069SOL    HW210107   5.103   0.290   2.650
 3070SOL     OW10108   3.195   1.666   1.223
 3070SOL    HW110109   3.121   1.638   1.285
 3070SOL    HW210110   3.157   1.693   1.135
 3071SOL     OW10111   0.215   2.910   3.415
 3071SOL    HW110112   0.204   2.922   3.513
 3071SOL    HW210113   0.229   2.999   3.371
 3072SOL     OW10114   2.438   6.640   6.649
 3072SOL    HW110115   2.354   6.615   6.697
 3072SOL    HW210116   2.501   6.683   6.714
 3073SOL     OW10117   6.072   4.787   0.737
 3073SOL    HW110118   5.997   4.814   0.798
 3073SOL    HW210119   6.156   4.778   0.790
 3074SOL     OW10120   1.881   3.686   1.287
 3074SOL    HW110121   1.929   3.693   1.375
 3074SOL    HW210122   1.884   3.591   1.255
 3075SOL     OW10123   2.138   5.187   3.175
 3075SOL    HW110124   2.056   5.220   3.223
 3075SOL    HW210125   2.137   5.222   3.081
 3076SOL     OW10126   0.064   0.613   4.691
 3076SOL    HW110127   0.026   0.702   4.663
 3076SOL    HW210128   7.009   0.549   4.706
 3077SOL     OW10129   6.489   4.057   1.715
 3077SOL    HW110130   6.406   4.084   1.665
 3077SOL    HW210131   6.492   4.106   1.802
 3078SOL     OW10132   6.519   2.659   1.471
 3078SOL    HW110133   6.571   2.723   1.414
 3078SOL    HW210134   6.493   2.579   1.417
 3079SOL     OW10135   2.151   3.028   5.141
 3079SOL    HW110136   2.155   2.995   5.235
 3079SOL    HW210137   2.238   3.009   5.095
 3080SOL     OW10138   4.455   5.185   1.023
 3080SOL    HW110139   4.515   5.106   1.034
 3080SOL    HW210140   4.507   5.269   1.036
 3081SOL     OW10141   1.840   3.730   0.554
 3081SOL    HW110142   1.778   3.764   0.625
 3081SOL    HW210143   1.787   3.686   0.481
 3082SOL     OW10144   3.965   4.962   4.896
 3082SOL    HW110145   4.039   4.901   4.926
 3082SOL    HW210146   3.907   4.983   4.975
 3083SOL     OW10147   2.408   5.700   2.525
 3083SOL    HW110148   2.437   5.795   2.514
 3083SOL    HW210149   2.354   5.691   2.608
 3084SOL     OW10150   0.799   3.451   3.789
 3084SOL    HW110151   0.817   3.428   3.694
 3084SOL    HW210152   0.846   3.536   3.812
 3085SOL     OW10153   4.730   4.750   0.831
 3085SOL    HW110154   4.764   4.783   0.743
 3085SOL    HW210155   4.800   4.696   0.877
 3086SOL     OW10156   6.554   1.293   6.385
 3086SOL    HW110157   6.529   1.334   6.298
 3086SOL    HW210158   6.596   1.204   6.369
 3087SOL     OW10159   2.961   6.780   1.919
 3087SOL    HW110160   3.044   6.754   1.869
 3087SOL    HW210161   2.943   6.877   1.904
 3088SOL     OW10162   0.932   2.871   5.203
 3088SOL    HW110163   0.875   2.948   5.174
 3088SOL    HW210164   0.943   2.806   5.128
 3089SOL     OW10165   4.953   6.991   5.125
 3089SOL    HW110166   4.999   6.905   5.148
 3089SOL    HW210167   4.966   7.012   5.028
 3090SOL     OW10168   0.817   2.108   1.708
 3090SOL    HW110169   0.762   2.156   1.641
 3090SOL    HW210170   0.789   2.012   1.713
 3091SOL     OW10171   1.301   1.808   0.739
 3091SOL    HW110172   1.393   1.822   0.703
 3091SOL    HW210173   1.306   1.764   0.829
 3092SOL     OW10174   6.442   6.870   2.651
 3092SOL    HW110175   6.427   6.948   2.712
 3092SOL    HW210176   6.540   6.850   2.646
 3093SOL     OW10177   5.729   5.195   6.368
 3093SOL    HW110178   5.800   5.124   6.368
 3093SOL    HW210179   5.767   5.280   6.403
 3094SOL     OW10180   2.466   1.410   5.839
 3094SOL    HW110181   2.381   1.388   5.790
 3094SOL    HW210182   2.496   1.502   5.814
 3095SOL     OW10183   2.042   3.300   5.089
 3095SOL    HW110184   2.090   3.323   5.173
 3095SOL    HW210185   2.072   3.210   5.057
 3096SOL     OW10186   0.863   3.498   4.729
 3096SOL    HW110187   0.787   3.438   4.754
 3096SOL    HW210188   0.857   3.583   4.781
 3097SOL     OW10189   5.286   3.016   6.644
 3097SOL    HW110190   5.206   2.958   6.627
 3097SOL    HW210191   5.369   2.959   6.647
 3098SOL     OW10192   1.556   1.930   1.921
 3098SOL    HW110193   1.473   1.983   1.905
 3098SOL    HW210194   1.533   1.847   1.973
 3099SOL     OW10195   0.627   6.085   3.777
 3099SOL    HW110196   0.593   6.162   3.723
 3099SOL    HW210197   0.612   6.000   3.726
 3100SOL     OW10198   6.535   5.792   2.153
 3100SOL    HW110199   6.447   5.830   2.178
 3100SOL    HW210200   6.536   5.770   2.055
 3101SOL     OW10201   4.221   6.602   6.023
 3101SOL    HW110202   4.254   6.575   5.933
 3101SOL    HW210203   4.126   6.635   6.015
 3102SOL     OW10204   0.474   4.977   0.817
 3102SOL    HW110205   0.542   4.988   0.889
 3102SOL    HW210206   0.410   5.054   0.818
 3103SOL     OW10207   3.148   0.239   1.021
 3103SOL    HW110208   3.214   0.300   0.977
 3103SOL    HW210209   3.114   0.282   1.105
 3104SOL     OW10210   4.675   0.368   6.162
 3104SOL    HW110211   4.696   0.312   6.081
 3104SOL    HW210212   4.719   0.457   6.153
 3105SOL     OW10213   5.328   3.301   0.278
 3105SOL    HW110214   5.242   3.315   0.228
 3105SOL    HW210215   5.316   3.331   0.373
 3106SOL     OW10216   6.192   0.802   4.927
 3106SOL    HW110217   6.192   0.902   4.922
 3106SOL    HW210218   6.134   0.772   5.003
 3107SOL     OW10219   4.143   0.990   5.217
 3107SOL    HW110220   4.220   0.993   5.281
 3107SOL    HW210221   4.060   1.022   5.264
 3108SOL     OW10222   1.894   4.168   4.285
 3108SOL    HW110223   1.889   4.206   4.377
 3108SOL    HW210224   1.933   4.236   4.223
 3109SOL     OW10225   6.732   6.522   3.540
 3109SOL    HW110226   6.697   6.494   3.630
 3109SOL    HW210227   6.773   6.612   3.547
 3110SOL     OW10228   1.924   4.666   3.791
 3110SOL    HW110229   1.857   4.740   3.795
 3110SOL    HW210230   1.877   4.579   3.775
 3111SOL     OW10231   6.435   4.266   4.739
 3111SOL    HW110232   6.365   4.312   4.793
 3111SOL    HW210233   6.524   4.275   4.784
 3112SOL     OW10234   3.420   2.194   6.996
 3112SOL    HW110235   3.425   2.193   0.076
 3112SOL    HW210236   3.391   2.285   6.965
 3113SOL     OW10237   1.620   5.614   3.351
 3113SOL    HW110238   1.564   5.613   3.434
 3113SOL    HW210239   1.617   5.524   3.308
 3114SOL     OW10240   4.160   1.448   6.964
 3114SOL    HW110241   4.225   1.379   6.934
 3114SOL    HW210242   4.067   1.413   6.954
 3115SOL     OW10243   4.302   4.752   5.700
 3115SOL    HW110244   4.208   4.752   5.734
 3115SOL    HW210245   4.336   4.658   5.694
 3116SOL     OW10246   0.343   2.196   0.643
 3116SOL    HW110247   0.300   2.277   0.603
 3116SOL    HW210248   0.441   2.197   0.621
 3117SOL     OW10249   4.886   2.157   5.532
 3117SOL    HW110250   4.908   2.085   5.597
 3117SOL    HW210251   4.959   2.225   5.531
 3118SOL     OW10252   2.074   1.129   2.848
 3118SOL    HW110253   1.989   1.086   2.879
 3118SOL    HW210254   2.055   1.225   2.824
 3119SOL     OW10255   4.059   3.711   5.991
 3119SOL    HW110256   4.125   3.767   5.941
 3119SOL    HW210257   4.051   3.621   5.947
 3120SOL     OW10258   2.534   6.928   5.234
 3120SOL    HW110259   2.616   6.888   5.194
 3120SOL    HW210260   2.476   6.964   5.161
 3121SOL     OW10261   5.125   1.571   4.365
 3121SOL    HW110262   5.166   1.662   4.372
 3121SOL    HW210263   5.031   1.574   4.399
 3122SOL     OW10264   4.239   5.248   4.674
 3122SOL    HW110265   4.272   5.342   4.663
 3122SOL    HW210266   4.180   5.224   4.598
 3123SOL     OW10267   2.567   2.091   3.247
 3123SOL    HW110268   2.644   2.044   3.291
 3123SOL    HW210269   2.499   2.023   3.219
 3124SOL     OW10270   5.322   6.666   4.160
 3124SOL    HW110271   5.318   6.671   4.060
 3124SOL    HW210272   5.292   6.753   4.199
 3125SOL     OW10273   1.402   2.754   4.898
 3125SOL    HW110274   1.439   2.813   4.827
 3125SOL    HW210275   1.462   2.756   4.979
 3126SOL     OW10276   5.397   5.401   4.357
 3126SOL    HW110277   5.484   5.433   4.393
 3126SOL    HW210278   5.412   5.350   4.272
 3127SOL     OW10279   0.667   1.969   4.296
 3127SOL    HW110280   0.588   1.951   4.354
 3127SOL    HW210281   0.652   2.052   4.242
 3128SOL     OW10282   4.472   0.087   6.986
 3128SOL    HW110283   4.486   0.181   7.019
 3128SOL    HW210284   4.547   0.063   6.924
 3129SOL     OW10285   4.741   3.529   1.058
 3129SOL    HW110286   4.662   3.494   1.009
 3129SOL    HW210287   4.731   3.511   1.156
 3130SOL     OW10288   1.645   4.408   1.380
 3130SOL    HW110289   1.605   4.328   1.334
 3130SOL    HW210290   1.741   4.416   1.354
 3131SOL     OW10291   6.661   3.791   2.242
 3131SOL    HW110292   6.721   3.807   2.321
 3131SOL    HW210293   6.684   3.856   2.169
 3132SOL     OW10294   3.973   4.185   0.271
 3132SOL    HW110295   4.006   4.210   0.180
 3132SOL    HW210296   4.045   4.137   0.321
 3133SOL     OW10297   4.389   0.534   3.471
 3133SOL    HW110298   4.294   0.557   3.449
 3133SOL    HW210299   4.416   0.452   3.420
 3134SOL     OW10300   3.354   5.154   2.638
 3134SOL    HW110301   3.384   5.124   2.547
 3134SOL    HW210302   3.318   5.075   2.688
 3135SOL     OW10303   5.417   6.463   5.933
 3135SOL    HW110304   5.328   6.502   5.958
 3135SOL    HW210305   5.461   6.522   5.865
 3136SOL     OW10306   6.121   1.377   2.703
 3136SOL    HW110307   6.159   1.304   2.645
 3136SOL    HW210308   6.043   1.419   2.656
 3137SOL     OW10309   6.405   6.927   0.391
 3137SOL    HW110310   6.434   6.894   0.481
 3137SOL    HW210311   6.377   6.849   0.335
 3138SOL     OW10312   5.465   5.232   4.140
 3138SOL    HW110313   5.507   5.147   4.172
 3138SOL    HW210314   5.448   5.226   4.041
 3139SOL     OW10315   2.514   5.656   0.991
 3139SOL    HW110316   2.504   5.750   0.956
 3139SOL    HW210317   2.424   5.620   1.014
 3140SOL     OW10318   6.695   6.579   5.918
 3140SOL    HW110319   6.712   6.662   5.972
 3140SOL    HW210320   6.711   6.599   5.822
 3141SOL     OW10321   6.977   2.731   6.634
 3141SOL    HW110322   6.909   2.799   6.661
 3141SOL    HW210323   6.948   2.641   6.665
 3142SOL     OW10324   5.392   0.899   2.122
 3142SOL    HW110325   5.359   0.953   2.199
 3142SOL    HW210326   5.488   0.921   2.104
 3143SOL     OW10327   6.085   1.429   7.008
 3143SOL    HW110328   6.096   1.473   0.077
 3143SOL    HW210329   6.024   1.484   6.951
 3144SOL     OW10330   4.215   4.124   6.623
 3144SOL    HW110331   4.211   4.025   6.636
 3144SOL    HW210332   4.188   4.170   6.708
 3145SOL     OW10333   1.792   6.093   1.717
 3145SOL    HW110334   1.746   6.038   1.648
 3145SOL    HW210335   1.747   6.182   1.723
 3146SOL     OW10336   0.487   0.809   5.331
 3146SOL    HW110337   0.481   0.864   5.414
 3146SOL    HW210338   0.510   0.868   5.254
 3147SOL     OW10339   3.966   4.920   6.710
 3147SOL    HW110340   3.898   4.993   6.717
 3147SOL    HW210341   3.993   4.891   6.802
 3148SOL     OW10342   0.509   5.356   2.622
 3148SOL    HW110343   0.475   5.361   2.716
 3148SOL    HW210344   0.598   5.311   2.622
 3149SOL     OW10345   2.975   1.318   0.981
 3149SOL    HW110346   2.988   1.226   1.019
 3149SOL    HW210347   3.045   1.336   0.913
 3150SOL     OW10348   6.578   6.402   4.998
 3150SOL    HW110349   6.521   6.444   5.069
 3150SOL    HW210350   6.611   6.473   4.936
 3151SOL     OW10351   5.688   2.126   6.038
 3151SOL    HW110352   5.733   2.095   5.955
 3151SOL    HW210353   5.717   2.220   6.059
 3152SOL     OW10354   1.556   3.367   6.280
 3152SOL    HW110355   1.633   3.312   6.312
 3152SOL    HW210356   1.565   3.381   6.181
 3153SOL     OW10357   6.719   5.410   0.710
 3153SOL    HW110358   6.663   5.491   0.728
 3153SOL    HW210359   6.660   5.330   0.700
 3154SOL     OW10360   5.705   1.590   1.547
 3154SOL    HW110361   5.697   1.684   1.513
 3154SOL    HW210362   5.798   1.557   1.531
 3155SOL     OW10363   0.072   4.814   0.474
 3155SOL    HW110364   0.131   4.823   0.554
 3155SOL    HW210365   0.033   4.903   0.451
 3156SOL     OW10366   3.538   4.153   2.038
 3156SOL    HW110367   3.621   4.110   2.073
 3156SOL    HW210368   3.545   4.252   2.046
 3157SOL     OW10369   0.776   1.908   5.451
 3157SOL    HW110370   0.772   1.809   5.464
 3157SOL    HW210371   0.714   1.952   5.516
 3158SOL     OW10372   2.991   1.524   5.596
 3158SOL    HW110373   2.981   1.427   5.618
 3158SOL    HW210374   2.901   1.567   5.590
 3159SOL     OW10375   5.171   6.855   0.249
 3159SOL    HW110376   5.251   6.902   0.211
 3159SOL    HW210377   5.201   6.792   0.321
 3160SOL     OW10378   2.505   6.844   5.980
 3160SOL    HW110379   2.604   6.858   5.973
 3160SOL    HW210380   2.464   6.919   6.031
 3161SOL     OW10381   1.838   2.807   3.065
 3161SOL    HW110382   1.748   2.770   3.085
 3161SOL    HW210383   1.830   2.900   3.029
 3162SOL     OW10384   1.795   5.689   0.562
 3162SOL    HW110385   1.785   5.681   0.463
 3162SOL    HW210386   1.797   5.786   0.588
 3163SOL     OW10387   4.656   3.775   0.361
 3163SOL    HW110388   4.726   3.846   0.361
 3163SOL    HW210389   4.567   3.816   0.382
 3164SOL     OW10390   2.834   5.271   3.578
 3164SOL    HW110391   2.923   5.313   3.594
 3164SOL    HW210392   2.825   5.190   3.636
 3165SOL     OW10393   0.942   5.178   0.069
 3165SOL    HW110394   0.845   5.199   0.057
 3165SOL    HW210395   0.957   5.081   0.050
 3166SOL     OW10396   4.071   0.923   4.944
 3166SOL    HW110397   4.106   0.967   5.026
 3166SOL    HW210398   4.008   0.849   4.969
 3167SOL     OW10399   4.763   4.293   0.817
 3167SOL    HW110400   4.708   4.331   0.892
 3167SOL    HW210401   4.739   4.341   0.732
 3168SOL     OW10402   4.612   2.226   0.754
 3168SOL    HW110403   4.567   2.222   0.664
 3168SOL    HW210404   4.543   2.222   0.826
 3169SOL     OW10405   1.118   4.915   2.307
 3169SOL    HW110406   1.068   5.001   2.305
 3169SOL    HW210407   1.191   4.917   2.238
 3170SOL     OW10408   3.792   5.656   3.098
 3170SOL    HW110409   3.723   5.729   3.101
 3170SOL    HW210410   3.856   5.674   3.023
 3171SOL     OW10411   5.540   2.561   3.009
 3171SOL    HW110412   5.466   2.495   2.992
 3171SOL    HW210413   5.625   2.525   2.971
 3172SOL     OW10414   7.010   5.046   0.332
 3172SOL    HW110415   6.918   5.038   0.293
 3172SOL    HW210416   7.005   5.098   0.417
 3173SOL     OW10417   3.510   1.323   0.072
 3173SOL    HW110418   3.442   1.377   0.121
 3173SOL    HW210419   3.601   1.361   0.086
 3174SOL     OW10420   2.331   3.568   5.764
 3174SOL    HW110421   2.343   3.597   5.669
 3174SOL    HW210422   2.300   3.646   5.819
 3175SOL     OW10423   6.431   1.386   3.720
 3175SOL    HW110424   6.359   1.361   3.784
 3175SOL    HW210425   6.511   1.328   3.735
 3176SOL     OW10426   0.460   4.100   4.916
 3176SOL    HW110427   0.414   4.187   4.897
 3176SOL    HW210428   0.552   4.102   4.876
 3177SOL     OW10429   5.802   3.685   3.445
 3177SOL    HW110430   5.740   3.755   3.410
 3177SOL    HW210431   5.865   3.726   3.511
 3178SOL     OW10432   6.018   1.078   0.266
 3178SOL    HW110433   6.032   0.979   0.256
 3178SOL    HW210434   6.104   1.126   0.247
 3179SOL     OW10435   0.903   1.833   2.157
 3179SOL    HW110436   0.922   1.930   2.146
 3179SOL    HW210437   0.842   1.819   2.235
 3180SOL     OW10438   6.589   6.044   6.443
 3180SOL    HW110439   6.546   6.105   6.509
 3180SOL    HW210440   6.609   6.094   6.359
 3181SOL     OW10441   0.741   1.441   4.646
 3181SOL    HW110442   0.666   1.431   4.711
 3181SOL    HW210443   0.736   1.532   4.603
 3182SOL     OW10444   2.847   0.330   0.291
 3182SOL    HW110445   2.829   0.252   0.350
 3182SOL    HW210446   2.886   0.298   0.204
 3183SOL     OW10447   4.485   4.434   2.242
 3183SOL    HW110448   4.568   4.396   2.281
 3183SOL    HW210449   4.476   4.404   2.147
 3184SOL     OW10450   0.733   2.328   4.164
 3184SOL    HW110451   0.718   2.405   4.226
 3184SOL    HW210452   0.826   2.331   4.129
 3185SOL     OW10453   0.207   6.495   5.992
 3185SOL    HW110454   0.116   6.498   5.951
 3185SOL    HW210455   0.238   6.589   6.010
 3186SOL     OW10456   1.238   1.079   6.264
 3186SOL    HW110457   1.316   1.141   6.276
 3186SOL    HW210458   1.255   0.994   6.313
 3187SOL     OW10459   4.104   5.735   2.470
 3187SOL    HW110460   4.151   5.787   2.540
 3187SOL    HW210461   4.058   5.656   2.512
 3188SOL     OW10462   2.423   4.826   5.551
 3188SOL    HW110463   2.395   4.801   5.459
 3188SOL    HW210464   2.382   4.764   5.617
 3189SOL     OW10465   2.641   1.419   0.159
 3189SOL    HW110466   2.602   1.336   0.198
 3189SOL    HW210467   2.583   1.450   0.083
 3190SOL     OW10468   6.639   6.157   4.979
 3190SOL    HW110469   6.617   6.255   4.981
 3190SOL    HW210470   6.671   6.128   5.069
 3191SOL     OW10471   4.862   5.595   2.301
 3191SOL    HW110472   4.888   5.567   2.208
 3191SOL    HW210473   4.931   5.561   2.365
 3192SOL     OW10474   6.568   2.108   1.279
 3192SOL    HW110475   6.481   2.069   1.249
 3192SOL    HW210476   6.623   2.036   1.322
 3193SOL     OW10477   4.684   1.022   5.181
 3193SOL    HW110478   4.658   1.113   5.148
 3193SOL    HW210479   4.605   0.977   5.222
 3194SOL     OW10480   1.387   1.120   5.451
 3194SOL    HW110481   1.405   1.213   5.484
 3194SOL    HW210482   1.313   1.122   5.384
 3195SOL     OW10483   0.147   0.989   1.883
 3195SOL    HW110484   0.161   1.080   1.922
 3195SOL    HW210485   0.233   0.938   1.887
 3196SOL     OW10486   6.774   0.706   5.425
 3196SOL    HW110487   6.849   0.653   5.386
 3196SOL    HW210488   6.740   0.772   5.357
 3197SOL     OW10489   2.365   0.008   6.143
 3197SOL    HW110490   2.268   0.025   6.122
 3197SOL    HW210491   2.393   0.067   6.218
 3198SOL     OW10492   6.780   2.549   3.796
 3198SOL    HW110493   6.696   2.537   3.744
 3198SOL    HW210494   6.857   2.563   3.733
 3199SOL     OW10495   5.650   4.645   3.050
 3199SOL    HW110496   5.582   4.714   3.028
 3199SOL    HW210497   5.724   4.686   3.105
 3200SOL     OW10498   5.924   3.140   3.963
 3200SOL    HW110499   5.874   3.163   3.879
 3200SOL    HW210500   6.022   3.136   3.944
 3201SOL     OW10501   6.130   4.328   2.566
 3201SOL    HW110502   6.171   4.272   2.638
 3201SOL    HW210503   6.093   4.412   2.607
 3202SOL     OW10504   0.977   4.979   0.367
 3202SOL    HW110505   1.024   4.943   0.286
 3202SOL    HW210506   1.032   5.051   0.408
 3203SOL     OW10507   4.385   7.003   1.714
 3203SOL    HW110508   4.371   6.993   1.812
 3203SOL    HW210509   4.303   6.974   1.665
 3204SOL     OW10510   2.661   1.296   3.647
 3204SOL    HW110511   2.603   1.214   3.649
 3204SOL    HW210512   2.620   1.363   3.586
 3205SOL     OW10513   5.778   3.353   5.777
 3205SOL    HW110514   5.698   3.361   5.836
 3205SOL    HW210515   5.855   3.400   5.818
 3206SOL     OW10516   2.562   2.804   1.700
 3206SOL    HW110517   2.563   2.857   1.615
 3206SOL    HW210518   2.477   2.823   1.750
 3207SOL     OW10519   0.751   0.537   5.554
 3207SOL    HW110520   0.746   0.465   5.624
 3207SOL    HW210521   0.713   0.622   5.591
 3208SOL     OW10522   6.121   5.861   5.255
 3208SOL    HW110523   6.125   5.761   5.259
 3208SOL    HW210524   6.106   5.890   5.160
 3209SOL     OW10525   4.686   5.452   5.980
 3209SOL    HW110526   4.637   5.376   5.936
 3209SOL    HW210527   4.684   5.439   6.079
 3210SOL     OW10528   0.284   5.236   1.450
 3210SOL    HW110529   0.363   5.266   1.504
 3210SOL    HW210530   0.267   5.302   1.377
 3211SOL     OW10531   1.478   5.635   0.600
 3211SOL    HW110532   1.491   5.588   0.687
 3211SOL    HW210533   1.545   5.601   0.534
 3212SOL     OW10534   3.245   0.108   2.565
 3212SOL    HW110535   3.155   0.100   2.524
 3212SOL    HW210536   3.282   0.016   2.583
 3213SOL     OW10537   2.273   0.629   6.393
 3213SOL    HW110538   2.205   0.702   6.382
 3213SOL    HW210539   2.232   0.554   6.444
 3214SOL     OW10540   3.811   0.255   3.133
 3214SOL    HW110541   3.841   0.163   3.108
 3214SOL    HW210542   3.891   0.315   3.141
 3215SOL     OW10543   1.167   3.406   0.357
 3215SOL    HW110544   1.115   3.440   0.279
 3215SOL    HW210545   1.184   3.481   0.421
 3216SOL     OW10546   5.217   4.582   1.212
 3216SOL    HW110547   5.212   4.483   1.222
 3216SOL    HW210548   5.254   4.605   1.122
 3217SOL     OW10549   6.860   4.990   2.969
 3217SOL    HW110550   6.931   5.060   2.962
 3217SOL    HW210551   6.772   5.034   2.987
 3218SOL     OW10552   6.529   2.024   3.211
 3218SOL    HW110553   6.549   2.048   3.306
 3218SOL    HW210554   6.470   1.943   3.208
 3219SOL     OW10555   6.869   0.800   4.994
 3219SOL    HW110556   6.771   0.787   4.987
 3219SOL    HW210557   6.896   0.883   4.945
 3220SOL     OW10558   6.931   5.826   6.614
 3220SOL    HW110559   7.017   5.870   6.587
 3220SOL    HW210560   6.884   5.884   6.680
 3221SOL     OW10561   3.994   0.549   2.210
 3221SOL    HW110562   4.072   0.489   2.194
 3221SOL    HW210563   4.011   0.606   2.290
 3222SOL     OW10564   3.078   1.508   3.067
 3222SOL    HW110565   3.140   1.540   2.994
 3222SOL    HW210566   2.985   1.535   3.045
 3223SOL     OW10567   1.860   6.614   0.690
 3223SOL    HW110568   1.907   6.593   0.775
 3223SOL    HW210569   1.863   6.534   0.629
 3224SOL     OW10570   4.591   2.711   5.212
 3224SOL    HW110571   4.539   2.785   5.254
 3224SOL    HW210572   4.684   2.743   5.192
 3225SOL     OW10573   4.088   1.033   3.955
 3225SOL    HW110574   3.988   1.031   3.964
 3225SOL    HW210575   4.113   1.011   3.860
 3226SOL     OW10576   1.356   0.078   1.884
 3226SOL    HW110577   1.285   0.149   1.889
 3226SOL    HW210578   1.370   0.052   1.789
 3227SOL     OW10579   3.928   2.436   6.536
 3227SOL    HW110580   3.992   2.391   6.473
 3227SOL    HW210581   3.950   2.533   6.541
 3228SOL     OW10582   0.945   4.124   0.662
 3228SOL    HW110583   0.976   4.036   0.696
 3228SOL    HW210584   0.963   4.130   0.564
 3229SOL     OW10585   2.825   0.733   5.732
 3229SOL    HW110586   2.881   0.711   5.652
 3229SOL    HW210587   2.736   0.689   5.723
 3230SOL     OW10588   2.602   5.320   5.871
 3230SOL    HW110589   2.571   5.230   5.839
 3230SOL    HW210590   2.609   5.319   5.970
 3231SOL     OW10591   3.393   0.983   2.701
 3231SOL    HW110592   3.407   1.067   2.648
 3231SOL    HW210593   3.434   0.994   2.792
 3232SOL     OW10594   4.368   5.906   4.013
 3232SOL    HW110595   4.286   5.851   3.993
 3232SOL    HW210596   4.350   5.964   4.093
 3233SOL     OW10597   0.385   2.436   6.612
 3233SOL    HW110598   0.311   2.417   6.548
 3233SOL    HW210599   0.358   2.507   6.676
 3234SOL     OW10600   1.892   3.082   0.644
 3234SOL    HW110601   1.840   3.106   0.726
 3234SOL    HW210602   1.973   3.141   0.637
 3235SOL     OW10603   6.795   5.493   1.928
 3235SOL    HW110604   6.881   5.442   1.931
 3235SOL    HW210605   6.754   5.496   2.019
 3236SOL     OW10606   2.534   4.188   0.559
 3236SOL    HW110607   2.459   4.195   0.492
 3236SOL    HW210608   2.504   4.129   0.635
 3237SOL     OW10609   6.592   1.423   4.428
 3237SOL    HW110610   6.521   1.392   4.365
 3237SOL    HW210611   6.589   1.366   4.511
 3238SOL     OW10612   6.023   5.262   0.465
 3238SOL    HW110613   6.038   5.238   0.369
 3238SOL    HW210614   6.087   5.210   0.522
 3239SOL     OW10615   0.147   0.119   4.074
 3239SOL    HW110616   0.116   0.154   4.162
 3239SOL    HW210617   0.247   0.117   4.073
 3240SOL     OW10618   0.286   0.565   6.345
 3240SOL    HW110619   0.224   0.497   6.308
 3240SOL    HW210620   0.375   0.559   6.299
 3241SOL     OW10621   4.746   1.554   6.073
 3241SOL    HW110622   4.648   1.534   6.083
 3241SOL    HW210623   4.788   1.484   6.016
 3242SOL     OW10624   5.253   3.993   5.702
 3242SOL    HW110625   5.307   4.077   5.707
 3242SOL    HW210626   5.164   4.008   5.745
 3243SOL     OW10627   4.060   5.462   6.221
 3243SOL    HW110628   3.994   5.399   6.263
 3243SOL    HW210629   4.149   5.416   6.215
 3244SOL     OW10630   5.979   6.315   6.860
 3244SOL    HW110631   5.956   6.412   6.868
 3244SOL    HW210632   5.985   6.289   6.764
 3245SOL     OW10633   4.467   2.064   4.128
 3245SOL    HW110634   4.547   2.004   4.134
 3245SOL    HW210635   4.436   2.087   4.220
 3246SOL     OW10636   0.208   6.893   2.253
 3246SOL    HW110637   0.111   6.885   2.275
 3246SOL    HW210638   0.230   6.988   2.231
 3247SOL     OW10639   0.187   4.233   2.867
 3247SOL    HW110640   0.142   4.299   2.806
 3247SOL    HW210641   0.120   4.197   2.932
 3248SOL     OW10642   5.360   2.380   2.962
 3248SOL    HW110643   5.385   2.293   3.004
 3248SOL    HW210644   5.261   2.394   2.970
 3249SOL     OW10645   4.004   3.208   3.862
 3249SOL    HW110646   3.956   3.295   3.853
 3249SOL    HW210647   3.939   3.136   3.888
 3250SOL     OW10648   5.125   5.909   3.069
 3250SOL    HW110649   5.056   5.896   2.997
 3250SOL    HW210650   5.119   6.003   3.104
 3251SOL     OW10651   2.380   0.737   4.512
 3251SOL    HW110652   2.385   0.637   4.516
 3251SOL    HW210653   2.370   0.774   4.604
 3252SOL     OW10654   2.586   1.128   3.390
 3252SOL    HW110655   2.627   1.169   3.309
 3252SOL    HW210656   2.652   1.066   3.434
 3253SOL     OW10657   5.627   3.544   0.930
 3253SOL    HW110658   5.717   3.586   0.929
 3253SOL    HW210659   5.609   3.504   1.020
 3254SOL     OW10660   5.112   0.496   0.203
 3254SOL    HW110661   5.200   0.529   0.168
 3254SOL    HW210662   5.103   0.399   0.184
 3255SOL     OW10663   5.906   5.521   0.893
 3255SOL    HW110664   5.843   5.592   0.860
 3255SOL    HW210665   5.958   5.485   0.816
 3256SOL     OW10666   4.580   2.036   1.507
 3256SOL    HW110667   4.519   2.108   1.477
 3256SOL    HW210668   4.656   2.028   1.442
 3257SOL     OW10669   3.034   2.142   2.246
 3257SOL    HW110670   3.053   2.047   2.223
 3257SOL    HW210671   2.975   2.183   2.176
 3258SOL     OW10672   3.726   5.552   3.914
 3258SOL    HW110673   3.738   5.453   3.914
 3258SOL    HW210674   3.770   5.591   3.833
 3259SOL     OW10675   5.648   5.050   4.226
 3259SOL    HW110676   5.701   5.022   4.306
 3259SOL    HW210677   5.636   4.972   4.165
 3260SOL     OW10678   1.600   4.408   2.070
 3260SOL    HW110679   1.669   4.384   2.139
 3260SOL    HW210680   1.610   4.346   1.992
 3261SOL     OW10681   5.469   0.868   2.564
 3261SOL    HW110682   5.523   0.797   2.518
 3261SOL    HW210683   5.522   0.906   2.640
 3262SOL     OW10684   4.110   1.949   2.623
 3262SOL    HW110685   4.128   1.910   2.714
 3262SOL    HW210686   4.055   2.032   2.633
 3263SOL     OW10687   2.852   0.857   3.276
 3263SOL    HW110688   2.847   0.905   3.364
 3263SOL    HW210689   2.819   0.917   3.203
 3264SOL     OW10690   1.749   4.900   0.469
 3264SOL    HW110691   1.741   4.825   0.404
 3264SOL    HW210692   1.666   4.955   0.468
 3265SOL     OW10693   6.130   6.231   5.659
 3265SOL    HW110694   6.053   6.256   5.718
 3265SOL    HW210695   6.156   6.136   5.678
 3266SOL     OW10696   2.802   4.183   0.286
 3266SOL    HW110697   2.785   4.221   0.377
 3266SOL    HW210698   2.724   4.201   0.227
 3267SOL     OW10699   4.108   0.807   1.602
 3267SOL    HW110700   4.177   0.835   1.668
 3267SOL    HW210701   4.088   0.883   1.540
 3268SOL     OW10702   0.911   4.863   1.385
 3268SOL    HW110703   0.893   4.961   1.381
 3268SOL    HW210704   1.010   4.847   1.391
 3269SOL     OW10705   0.287   5.391   2.124
 3269SOL    HW110706   0.305   5.357   2.217
 3269SOL    HW210707   0.255   5.486   2.130
 3270SOL     OW10708   0.941   2.981   5.903
 3270SOL    HW110709   0.896   2.897   5.932
 3270SOL    HW210710   0.905   3.009   5.814
 3271SOL     OW10711   0.000   3.441   1.751
 3271SOL    HW110712   7.000   3.445   1.848
 3271SOL    HW210713   0.009   3.534   1.715
 3272SOL     OW10714   4.043   5.728   6.976
 3272SOL    HW110715   4.047   5.791   0.034
 3272SOL    HW210716   4.063   5.635   7.006
 3273SOL     OW10717   4.658   3.731   6.229
 3273SOL    HW110718   4.565   3.725   6.193
 3273SOL    HW210719   4.714   3.657   6.191
 3274SOL     OW10720   6.218   1.062   6.726
 3274SOL    HW110721   6.288   1.131   6.707
 3274SOL    HW210722   6.262   0.976   6.753
 3275SOL     OW10723   4.453   0.696   0.924
 3275SOL    HW110724   4.380   0.664   0.984
 3275SOL    HW210725   4.504   0.769   0.969
 3276SOL     OW10726   4.701   6.342   0.038
 3276SOL    HW110727   4.606   6.350   0.008
 3276SOL    HW210728   4.704   6.318   0.135
 3277SOL     OW10729   3.318   1.467   1.552
 3277SOL    HW110730   3.219   1.470   1.571
 3277SOL    HW210731   3.363   1.543   1.598
 3278SOL     OW10732   0.061   0.696   6.481
 3278SOL    HW110733   0.033   0.621   6.542
 3278SOL    HW210734   0.140   0.666   6.427
 3279SOL     OW10735   4.349   6.491   1.390
 3279SOL    HW110736   4.388   6.479   1.481
 3279SOL    HW210737   4.253   6.465   1.390
 3280SOL     OW10738   5.575   3.667   4.103
 3280SOL    HW110739   5.544   3.684   4.009
 3280SOL    HW210740   5.594   3.570   4.114
 3281SOL     OW10741   6.750   4.696   1.585
 3281SOL    HW110742   6.839   4.653   1.599
 3281SOL    HW210743   6.681   4.626   1.567
 3282SOL     OW10744   0.604   3.799   5.140
 3282SOL    HW110745   0.671   3.760   5.204
 3282SOL    HW210746   0.653   3.844   5.065
 3283SOL     OW10747   3.606   1.484   1.714
 3283SOL    HW110748   3.530   1.449   1.771
 3283SOL    HW210749   3.651   1.559   1.762
 3284SOL     OW10750   1.543   5.458   4.794
 3284SOL    HW110751   1.596   5.540   4.817
 3284SOL    HW210752   1.536   5.450   4.694
 3285SOL     OW10753   5.475   1.417   4.703
 3285SOL    HW110754   5.456   1.496   4.644
 3285SOL    HW210755   5.416   1.421   4.783
 3286SOL     OW10756   3.377   1.904   1.872
 3286SOL    HW110757   3.472   1.932   1.886
 3286SOL    HW210758   3.322   1.983   1.847
 3287SOL     OW10759   1.131   0.192   6.435
 3287SOL    HW110760   1.114   0.101   6.397
 3287SOL    HW210761   1.196   0.184   6.511
 3288SOL     OW10762   1.823   6.591   0.333
 3288SOL    HW110763   1.868   6.669   0.377
 3288SOL    HW210764   1.740   6.622   0.287
 3289SOL     OW10765   3.206   1.738   6.782
 3289SOL    HW110766   3.240   1.821   6.827
 3289SOL    HW210767   3.280   1.694   6.732
 3290SOL     OW10768   6.460   5.408   0.343
 3290SOL    HW110769   6.548   5.362   0.339
 3290SOL    HW210770   6.431   5.414   0.439
 3291SOL     OW10771   4.299   0.270   6.457
 3291SOL    HW110772   4.372   0.215   6.417
 3291SOL    HW210773   4.330   0.308   6.544
 3292SOL     OW10774   0.518   1.524   0.964
 3292SOL    HW110775   0.529   1.621   0.985
 3292SOL    HW210776   0.420   1.503   0.954
 3293SOL     OW10777   6.859   4.466   2.797
 3293SOL    HW110778   6.846   4.520   2.880
 3293SOL    HW210779   6.770   4.438   2.761
 3294SOL     OW10780   5.517   2.391   5.674
 3294SOL    HW110781   5.595   2.374   5.615
 3294SOL    HW210782   5.467   2.471   5.641
 3295SOL     OW10783   1.542   3.054   0.788
 3295SOL    HW110784   1.620   2.993   0.805
 3295SOL    HW210785   1.464   3.024   0.844
 3296SOL     OW10786   6.518   6.795   5.458
 3296SOL    HW110787   6.578   6.840   5.393
 3296SOL    HW210788   6.461   6.863   5.504
 3297SOL     OW10789   3.206   1.869   5.346
 3297SOL    HW110790   3.174   1.796   5.407
 3297SOL    HW210791   3.154   1.952   5.365
 3298SOL     OW10792   6.497   3.793   5.232
 3298SOL    HW110793   6.565   3.730   5.272
 3298SOL    HW210794   6.544   3.870   5.190
 3299SOL     OW10795   4.079   5.414   3.476
 3299SOL    HW110796   4.133   5.397   3.558
 3299SOL    HW210797   4.132   5.472   3.414
 3300SOL     OW10798   2.398   0.098   5.458
 3300SOL    HW110799   2.464   0.107   5.384
 3300SOL    HW210800   2.326   0.034   5.432
 3301SOL     OW10801   1.354   3.027   2.773
 3301SOL    HW110802   1.442   3.052   2.814
 3301SOL    HW210803   1.367   2.948   2.713
 3302SOL     OW10804   1.359   4.702   6.470
 3302SOL    HW110805   1.414   4.639   6.524
 3302SOL    HW210806   1.273   4.657   6.445
 3303SOL     OW10807   3.638   2.952   0.411
 3303SOL    HW110808   3.678   3.003   0.487
 3303SOL    HW210809   3.540   2.973   0.405
 3304SOL     OW10810   1.917   4.469   6.588
 3304SOL    HW110811   1.861   4.544   6.622
 3304SOL    HW210812   1.895   4.451   6.492
 3305SOL     OW10813   3.626   0.800   1.109
 3305SOL    HW110814   3.612   0.872   1.177
 3305SOL    HW210815   3.596   0.833   1.020
 3306SOL     OW10816   1.577   6.075   6.648
 3306SOL    HW110817   1.652   6.040   6.705
 3306SOL    HW210818   1.610   6.152   6.593
 3307SOL     OW10819   1.330   0.001   6.049
 3307SOL    HW110820   1.421   7.014   6.008
 3307SOL    HW210821   1.271   6.951   6.010
 3308SOL     OW10822   3.805   4.519   1.408
 3308SOL    HW110823   3.764   4.469   1.485
 3308SOL    HW210824   3.878   4.579   1.442
 3309SOL     OW10825   5.216   4.676   3.942
 3309SOL    HW110826   5.225   4.771   3.970
 3309SOL    HW210827   5.135   4.635   3.984
 3310SOL     OW10828   0.893   4.725   4.788
 3310SOL    HW110829   0.880   4.739   4.886
 3310SOL    HW210830   0.890   4.812   4.740
 3311SOL     OW10831   3.849   3.717   1.220
 3311SOL    HW110832   3.912   3.664   1.277
 3311SOL    HW210833   3.883   3.810   1.210
 3312SOL     OW10834   4.278   2.718   5.761
 3312SOL    HW110835   4.308   2.712   5.857
 3312SOL    HW210836   4.312   2.803   5.721
 3313SOL     OW10837   0.680   0.580   3.431
 3313SOL    HW110838   0.736   0.601   3.512
 3313SOL    HW210839   0.738   0.536   3.362
 3314SOL     OW10840   2.455   0.311   3.175
 3314SOL    HW110841   2.399   0.349   3.249
 3314SOL    HW210842   2.403   0.312   3.090
 3315SOL     OW10843   0.805   4.470   5.036
 3315SOL    HW110844   0.853   4.389   5.069
 3315SOL    HW210845   0.803   4.469   4.936
 3316SOL     OW10846   3.163   0.707   6.057
 3316SOL    HW110847   3.064   0.717   6.061
 3316SOL    HW210848   3.186   0.612   6.034
 3317SOL     OW10849   5.618   2.251   2.292
 3317SOL    HW110850   5.578   2.293   2.373
 3317SOL    HW210851   5.718   2.259   2.296
 3318SOL     OW10852   2.801   1.715   6.573
 3318SOL    HW110853   2.756   1.705   6.484
 3318SOL    HW210854   2.850   1.802   6.576
 3319SOL     OW10855   0.193   6.938   2.867
 3319SOL    HW110856   0.184   6.922   2.769
 3319SOL    HW210857   0.111   6.985   2.901
 3320SOL     OW10858   6.359   0.506   0.403
 3320SOL    HW110859   6.363   0.577   0.474
 3320SOL    HW210860   6.268   0.466   0.402
 3321SOL     OW10861   5.497   1.504   0.857
 3321SOL    HW110862   5.436   1.506   0.778
 3321SOL    HW210863   5.456   1.558   0.931
 3322SOL     OW10864   6.844   3.486   0.626
 3322SOL    HW110865   6.908   3.414   0.652
 3322SOL    HW210866   6.885   3.575   0.646
 3323SOL     OW10867   3.040   1.650   1.930
 3323SOL    HW110868   2.971   1.710   1.972
 3323SOL    HW210869   3.002   1.558   1.918
 3324SOL     OW10870   4.646   5.650   5.822
 3324SOL    HW110871   4.655   5.564   5.871
 3324SOL    HW210872   4.659   5.726   5.886
 3325SOL     OW10873   0.623   3.550   6.810
 3325SOL    HW110874   0.607   3.463   6.858
 3325SOL    HW210875   0.662   3.531   6.720
 3326SOL     OW10876   4.906   0.963   2.693
 3326SOL    HW110877   4.809   0.947   2.711
 3326SOL    HW210878   4.954   0.876   2.690
 3327SOL     OW10879   2.057   6.169   1.776
 3327SOL    HW110880   1.969   6.129   1.749
 3327SOL    HW210881   2.117   6.096   1.810
 3328SOL     OW10882   3.690   2.163   1.281
 3328SOL    HW110883   3.653   2.189   1.192
 3328SOL    HW210884   3.614   2.146   1.344
 3329SOL     OW10885   6.118   6.918   5.559
 3329SOL    HW110886   6.110   6.837   5.617
 3329SOL    HW210887   6.032   6.969   5.561
 3330SOL     OW10888   0.213   3.567   2.104
 3330SOL    HW110889   0.249   3.640   2.162
 3330SOL    HW210890   0.257   3.569   2.015
 3331SOL     OW10891   1.822   2.451   1.295
 3331SOL    HW110892   1.894   2.512   1.326
 3331SOL    HW210893   1.835   2.360   1.335
 3332SOL     OW10894   5.463   5.462   0.336
 3332SOL    HW110895   5.477   5.443   0.239
 3332SOL    HW210896   5.545   5.505   0.374
 3333SOL     OW10897   4.240   5.044   6.391
 3333SOL    HW110898   4.248   5.088   6.481
 3333SOL    HW210899   4.209   5.111   6.324
 3334SOL     OW10900   3.610   3.562   1.248
 3334SOL    HW110901   3.675   3.636   1.233
 3334SOL    HW210902   3.535   3.569   1.182
 3335SOL     OW10903   4.962   5.041   5.768
 3335SOL    HW110904   5.004   5.075   5.852
 3335SOL    HW210905   5.032   5.032   5.697
 3336SOL     OW10906   2.922   5.583   5.892
 3336SOL    HW110907   2.961   5.600   5.801
 3336SOL    HW210908   2.916   5.484   5.906
 3337SOL     OW10909   3.813   2.412   1.389
 3337SOL    HW110910   3.768   2.324   1.377
 3337SOL    HW210911   3.841   2.422   1.485
 3338SOL     OW10912   6.242   3.545   1.439
 3338SOL    HW110913   6.312   3.494   1.489
 3338SOL    HW210914   6.286   3.607   1.374
 3339SOL     OW10915   6.754   6.259   6.655
 3339SOL    HW110916   6.783   6.238   6.561
 3339SOL    HW210917   6.793   6.191   6.718
 3340SOL     OW10918   3.627   6.776   1.795
 3340SOL    HW110919   3.593   6.848   1.855
 3340SOL    HW210920   3.572   6.773   1.712
 3341SOL     OW10921   0.469   6.807   2.913
 3341SOL    HW110922   0.519   6.806   2.999
 3341SOL    HW210923   0.473   6.899   2.873
 3342SOL     OW10924   2.012   6.688   4.060
 3342SOL    HW110925   2.092   6.680   4.000
 3342SOL    HW210926   2.042   6.704   4.154
 3343SOL     OW10927   5.070   3.169   0.918
 3343SOL    HW110928   5.050   3.088   0.864
 3343SOL    HW210929   5.024   3.249   0.878
 3344SOL     OW10930   5.150   3.625   4.806
 3344SOL    HW110931   5.157   3.534   4.766
 3344SOL    HW210932   5.056   3.657   4.800
 3345SOL     OW10933   2.909   3.313   6.075
 3345SOL    HW110934   2.877   3.320   5.981
 3345SOL    HW210935   3.000   3.353   6.083
 3346SOL     OW10936   0.517   1.339   2.203
 3346SOL    HW110937   0.525   1.371   2.298
 3346SOL    HW210938   0.598   1.366   2.152
 3347SOL     OW10939   6.832   4.375   3.479
 3347SOL    HW110940   6.848   4.290   3.530
 3347SOL    HW210941   6.811   4.353   3.384
 3348SOL     OW10942   3.676   3.319   3.693
 3348SOL    HW110943   3.604   3.291   3.757
 3348SOL    HW210944   3.742   3.376   3.742
 3349SOL     OW10945   0.095   4.654   4.381
 3349SOL    HW110946   0.027   4.601   4.329
 3349SOL    HW210947   0.173   4.673   4.322
 3350SOL     OW10948   2.104   1.234   6.791
 3350SOL    HW110949   2.054   1.201   6.871
 3350SOL    HW210950   2.153   1.158   6.748
 3351SOL     OW10951   5.853   0.571   1.137
 3351SOL    HW110952   5.857   0.632   1.058
 3351SOL    HW210953   5.897   0.616   1.215
 3352SOL     OW10954   0.674   3.900   0.088
 3352SOL    HW110955   0.648   3.991   0.054
 3352SOL    HW210956   0.620   3.878   0.169
 3353SOL     OW10957   1.680   0.245   0.370
 3353SOL    HW110958   1.621   0.315   0.329
 3353SOL    HW210959   1.673   0.251   0.470
 3354SOL     OW10960   6.426   2.146   3.468
 3354SOL    HW110961   6.393   2.221   3.525
 3354SOL    HW210962   6.350   2.088   3.441
 3355SOL     OW10963   0.163   1.971   0.608
 3355SOL    HW110964   0.107   1.944   0.687
 3355SOL    HW210965   0.232   2.037   0.638
 3356SOL     OW10966   3.035   2.845   0.299
 3356SOL    HW110967   3.034   2.916   0.229
 3356SOL    HW210968   3.001   2.883   0.385
 3357SOL     OW10969   2.191   4.673   1.279
 3357SOL    HW110970   2.127   4.695   1.353
 3357SOL    HW210971   2.225   4.758   1.239
 3358SOL     OW10972   5.081   6.433   2.060
 3358SOL    HW110973   5.093   6.370   1.983
 3358SOL    HW210974   5.012   6.501   2.037
 3359SOL     OW10975   0.526   0.538   2.980
 3359SOL    HW110976   0.559   0.589   3.060
 3359SOL    HW210977   0.451   0.587   2.937
 3360SOL     OW10978   0.347   0.923   0.412
 3360SOL    HW110979   0.429   0.965   0.372
 3360SOL    HW210980   0.287   0.893   0.338
 3361SOL     OW10981   6.434   5.854   3.002
 3361SOL    HW110982   6.482   5.803   3.074
 3361SOL    HW210983   6.362   5.909   3.043
 3362SOL     OW10984   2.974   1.496   4.946
 3362SOL    HW110985   3.048   1.432   4.966
 3362SOL    HW210986   3.001   1.556   4.871
 3363SOL     OW10987   0.727   1.142   6.461
 3363SOL    HW110988   0.655   1.138   6.393
 3363SOL    HW210989   0.811   1.176   6.419
 3364SOL     OW10990   1.152   5.955   5.971
 3364SOL    HW110991   1.075   6.018   5.984
 3364SOL    HW210992   1.162   5.935   5.874
 3365SOL     OW10993   0.762   1.965   4.588
 3365SOL    HW110994   0.694   1.991   4.657
 3365SOL    HW210995   0.775   2.041   4.524
 3366SOL     OW10996   5.711   1.251   5.100
 3366SOL    HW110997   5.666   1.166   5.074
 3366SOL    HW210998   5.669   1.287   5.183
 3367SOL     OW10999   2.016   2.501   1.816
 3367SOL    HW111000   1.981   2.531   1.905
 3367SOL    HW211001   2.084   2.430   1.829
 3368SOL     OW11002   6.714   5.272   5.887
 3368SOL    HW111003   6.680   5.348   5.832
 3368SOL    HW211004   6.694   5.290   5.984
 3369SOL     OW11005   3.626   1.381   0.439
 3369SOL    HW111006   3.637   1.394   0.538
 3369SOL    HW211007   3.536   1.342   0.420
 3370SOL     OW11008   6.614   7.001   4.959
 3370SOL    HW111009   6.569   0.061   4.920
 3370SOL    HW211010   6.694   6.978   4.903
 3371SOL     OW11011   1.393   4.066   2.308
 3371SOL    HW111012   1.308   4.013   2.311
 3371SOL    HW211013   1.459   4.020   2.249
 3372SOL     OW11014   0.241   1.465   2.137
 3372SOL    HW111015   0.191   1.487   2.221
 3372SOL    HW211016   0.328   1.421   2.159
 3373SOL     OW11017   6.220   0.963   4.066
 3373SOL    HW111018   6.126   0.991   4.051
 3373SOL    HW211019   6.257   1.009   4.147
 3374SOL     OW11020   3.582   6.064   5.294
 3374SOL    HW111021   3.590   6.130   5.369
 3374SOL    HW211022   3.646   6.089   5.222
 3375SOL     OW11023   4.525   4.693   4.985
 3375SOL    HW111024   4.588   4.705   5.061
 3375SOL    HW211025   4.438   4.657   5.019
 3376SOL     OW11026   4.060   3.321   2.794
 3376SOL    HW111027   4.104   3.287   2.710
 3376SOL    HW211028   4.088   3.416   2.809
 3377SOL     OW11029   1.364   6.317   4.916
 3377SOL    HW111030   1.323   6.231   4.886
 3377SOL    HW211031   1.420   6.355   4.843
 3378SOL     OW11032   6.936   1.041   0.804
 3378SOL    HW111033   6.929   1.104   0.881
 3378SOL    HW211034   0.012   1.029   0.778
 3379SOL     OW11035   0.320   4.394   6.096
 3379SOL    HW111036   0.269   4.309   6.086
 3379SOL    HW211037   0.405   4.389   6.044
 3380SOL     OW11038   6.885   4.962   5.830
 3380SOL    HW111039   6.803   4.942   5.883
 3380SOL    HW211040   6.863   5.024   5.755
 3381SOL     OW11041   2.525   1.949   0.373
 3381SOL    HW111042   2.521   1.875   0.306
 3381SOL    HW211043   2.432   1.981   0.393
 3382SOL     OW11044   0.010   1.398   0.082
 3382SOL    HW111045   0.044   1.385   7.009
 3382SOL    HW211046   0.029   1.316   0.137
 3383SOL     OW11047   6.165   4.876   2.658
 3383SOL    HW111048   6.124   4.964   2.637
 3383SOL    HW211049   6.206   4.879   2.750
 3384SOL     OW11050   3.315   2.913   4.833
 3384SOL    HW111051   3.249   2.984   4.856
 3384SOL    HW211052   3.300   2.833   4.891
 3385SOL     OW11053   6.576   4.125   3.922
 3385SOL    HW111054   6.630   4.151   4.002
 3385SOL    HW211055   6.483   4.163   3.931
 3386SOL     OW11056   6.013   4.034   5.221
 3386SOL    HW111057   6.093   3.975   5.229
 3386SOL    HW211058   5.934   3.990   5.263
 3387SOL     OW11059   2.512   2.390   2.476
 3387SOL    HW111060   2.523   2.434   2.565
 3387SOL    HW211061   2.600   2.354   2.446
 3388SOL     OW11062   5.720   3.283   0.795
 3388SOL    HW111063   5.687   3.368   0.837
 3388SOL    HW211064   5.766   3.304   0.709
 3389SOL     OW11065   4.590   4.361   4.361
 3389SOL    HW111066   4.608   4.394   4.453
 3389SOL    HW211067   4.650   4.283   4.342
 3390SOL     OW11068   5.090   3.051   5.957
 3390SOL    HW111069   5.113   3.143   5.926
 3390SOL    HW211070   5.089   3.049   6.057
 3391SOL     OW11071   4.229   1.632   4.951
 3391SOL    HW111072   4.130   1.619   4.944
 3391SOL    HW211073   4.273   1.596   4.868
 3392SOL     OW11074   2.438   0.890   4.017
 3392SOL    HW111075   2.432   0.811   4.078
 3392SOL    HW211076   2.432   0.859   3.922
 3393SOL     OW11077   6.569   6.652   0.719
 3393SOL    HW111078   6.489   6.707   0.696
 3393SOL    HW211079   6.545   6.585   0.789
 3394SOL     OW11080   5.572   3.157   1.019
 3394SOL    HW111081   5.484   3.201   1.038
 3394SOL    HW211082   5.619   3.207   0.946
 3395SOL     OW11083   6.133   3.568   3.809
 3395SOL    HW111084   6.222   3.612   3.818
 3395SOL    HW211085   6.119   3.507   3.887
 3396SOL     OW11086   0.672   3.008   3.526
 3396SOL    HW111087   0.651   3.026   3.622
 3396SOL    HW211088   0.593   2.968   3.481
 3397SOL     OW11089   3.715   1.120   5.387
 3397SOL    HW111090   3.806   1.154   5.363
 3397SOL    HW211091   3.725   1.045   5.453
 3398SOL     OW11092   0.889   0.261   4.035
 3398SOL    HW111093   0.791   0.274   4.026
 3398SOL    HW211094   0.918   0.186   3.976
 3399SOL     OW11095   4.447   4.760   4.099
 3399SOL    HW111096   4.434   4.786   4.004
 3399SOL    HW211097   4.366   4.785   4.152
 3400SOL     OW11098   4.544   1.802   6.110
 3400SOL    HW111099   4.598   1.741   6.051
 3400SOL    HW211100   4.565   1.781   6.206
 3401SOL     OW11101   6.978   4.166   0.749
 3401SOL    HW111102   0.025   4.103   0.788
 3401SOL    HW211103   6.937   4.220   0.823
 3402SOL     OW11104   5.571   5.790   1.427
 3402SOL    HW111105   5.520   5.844   1.494
 3402SOL    HW211106   5.549   5.694   1.438
 3403SOL     OW11107   3.907   0.424   5.061
 3403SOL    HW111108   3.826   0.389   5.014
 3403SOL    HW211109   3.987   0.416   5.000
 3404SOL     OW11110   4.299   1.714   0.479
 3404SOL    HW111111   4.350   1.631   0.458
 3404SOL    HW211112   4.227   1.727   0.411
 3405SOL     OW11113   6.633   3.657   5.763
 3405SOL    HW111114   6.558   3.661   5.697
 3405SOL    HW211115   6.713   3.703   5.726
 3406SOL     OW11116   2.230   4.691   2.017
 3406SOL    HW111117   2.242   4.597   2.049
 3406SOL    HW211118   2.310   4.746   2.043
 3407SOL     OW11119   1.287   5.520   1.638
 3407SOL    HW111120   1.346   5.593   1.603
 3407SOL    HW211121   1.225   5.558   1.707
 3408SOL     OW11122   4.844   4.204   3.997
 3408SOL    HW111123   4.821   4.142   3.922
 3408SOL    HW211124   4.833   4.157   4.085
 3409SOL     OW11125   4.203   0.229   5.794
 3409SOL    HW111126   4.217   0.153   5.731
 3409SOL    HW211127   4.171   0.309   5.743
 3410SOL     OW11128   6.212   5.774   6.888
 3410SOL    HW111129   6.268   5.855   6.866
 3410SOL    HW211130   6.262   5.714   6.950
 3411SOL     OW11131   6.211   2.701   2.261
 3411SOL    HW111132   6.194   2.620   2.318
 3411SOL    HW211133   6.224   2.673   2.166
 3412SOL     OW11134   4.199   3.260   0.137
 3412SOL    HW111135   4.138   3.323   0.089
 3412SOL    HW211136   4.251   3.207   0.071
 3413SOL     OW11137   3.963   1.326   2.601
 3413SOL    HW111138   3.942   1.301   2.507
 3413SOL    HW211139   4.061   1.346   2.609
 3414SOL     OW11140   3.152   1.769   4.859
 3414SOL    HW111141   3.227   1.796   4.799
 3414SOL    HW211142   3.188   1.715   4.936
 3415SOL     OW11143   1.256   4.527   4.099
 3415SOL    HW111144   1.282   4.542   4.195
 3415SOL    HW211145   1.215   4.436   4.090
 3416SOL     OW11146   0.026   4.437   5.926
 3416SOL    HW111147   0.042   4.420   5.829
 3416SOL    HW211148   0.083   4.375   5.980
 3417SOL     OW11149   6.378   6.131   2.743
 3417SOL    HW111150   6.369   6.163   2.837
 3417SOL    HW211151   6.353   6.035   2.738
 3418SOL     OW11152   4.411   0.979   3.934
 3418SOL    HW111153   4.438   0.930   4.017
 3418SOL    HW211154   4.319   1.016   3.946
 3419SOL     OW11155   3.600   5.347   6.087
 3419SOL    HW111156   3.589   5.262   6.036
 3419SOL    HW211157   3.676   5.399   6.048
 3420SOL     OW11158   5.129   1.748   3.340
 3420SOL    HW111159   5.084   1.838   3.341
 3420SOL    HW211160   5.222   1.758   3.304
 3421SOL     OW11161   6.516   0.755   5.546
 3421SOL    HW111162   6.552   0.827   5.605
 3421SOL    HW211163   6.592   0.710   5.499
 3422SOL     OW11164   3.613   0.550   1.199
 3422SOL    HW111165   3.621   0.648   1.181
 3422SOL    HW211166   3.639   0.499   1.117
 3423SOL     OW11167   2.204   0.895   0.093
 3423SOL    HW111168   2.204   0.828   0.167
 3423SOL    HW211169   2.160   0.856   0.013
 3424SOL     OW11170   3.887   0.695   2.453
 3424SOL    HW111171   3.788   0.703   2.442
 3424SOL    HW211172   3.920   0.770   2.510
 3425SOL     OW11173   4.765   4.060   2.205
 3425SOL    HW111174   4.842   4.124   2.206
 3425SOL    HW211175   4.680   4.111   2.220
 3426SOL     OW11176   3.337   3.627   0.346
 3426SOL    HW111177   3.346   3.717   0.389
 3426SOL    HW211178   3.250   3.622   0.297
 3427SOL     OW11179   6.400   6.709   0.177
 3427SOL    HW111180   6.452   6.775   0.123
 3427SOL    HW211181   6.451   6.622   0.182
 3428SOL     OW11182   4.020   5.104   2.092
 3428SOL    HW111183   3.974   5.175   2.039
 3428SOL    HW211184   3.971   5.017   2.080
 3429SOL     OW11185   0.798   2.069   6.735
 3429SOL    HW111186   0.750   2.155   6.717
 3429SOL    HW211187   0.759   2.024   6.815
 3430SOL     OW11188   1.221   6.581   6.367
 3430SOL    HW111189   1.211   6.483   6.383
 3430SOL    HW211190   1.260   6.624   6.448
 3431SOL     OW11191   2.312   6.873   1.118
 3431SOL    HW111192   2.298   6.972   1.112
 3431SOL    HW211193   2.400   6.849   1.076
 3432SOL     OW11194   2.679   2.315   5.344
 3432SOL    HW111195   2.721   2.263   5.269
 3432SOL    HW211196   2.635   2.252   5.407
 3433SOL     OW11197   2.233   1.011   6.737
 3433SOL    HW111198   2.274   0.923   6.712
 3433SOL    HW211199   2.290   1.056   6.806
 3434SOL     OW11200   3.297   2.465   0.614
 3434SOL    HW111201   3.332   2.379   0.577
 3434SOL    HW211202   3.289   2.532   0.541
 3435SOL     OW11203   6.844   2.282   1.212
 3435SOL    HW111204   6.821   2.211   1.278
 3435SOL    HW211205   6.940   2.275   1.187
 3436SOL     OW11206   4.426   0.136   5.524
 3436SOL    HW111207   4.496   0.197   5.488
 3436SOL    HW211208   4.364   0.109   5.451
 3437SOL     OW11209   4.146   0.707   6.260
 3437SOL    HW111210   4.216   0.637   6.247
 3437SOL    HW211211   4.189   0.792   6.290
 3438SOL     OW11212   1.500   2.829   6.431
 3438SOL    HW111213   1.594   2.816   6.399
 3438SOL    HW211214   1.483   2.927   6.445
 3439SOL     OW11215   2.741   7.007   4.954
 3439SOL    HW111216   2.794   6.981   5.035
 3439SOL    HW211217   2.706   0.080   4.965
 3440SOL     OW11218   4.746   3.513   1.667
 3440SOL    HW111219   4.671   3.579   1.665
 3440SOL    HW211220   4.803   3.525   1.585
 3441SOL     OW11221   4.993   0.436   3.014
 3441SOL    HW111222   5.084   0.426   2.975
 3441SOL    HW211223   4.943   0.506   2.965
 3442SOL     OW11224   2.356   4.455   3.425
 3442SOL    HW111225   2.384   4.412   3.339
 3442SOL    HW211226   2.414   4.534   3.443
 3443SOL     OW11227   5.345   0.913   3.217
 3443SOL    HW111228   5.259   0.923   3.268
 3443SOL    HW211229   5.326   0.880   3.125
 3444SOL     OW11230   5.198   5.540   6.744
 3444SOL    HW111231   5.199   5.555   6.645
 3444SOL    HW211232   5.108   5.504   6.771
 3445SOL     OW11233   6.308   4.207   3.903
 3445SOL    HW111234   6.277   4.242   3.992
 3445SOL    HW211235   6.253   4.127   3.878
 3446SOL     OW11236   5.318   0.313   2.887
 3446SOL    HW111237   5.398   0.274   2.932
 3446SOL    HW211238   5.236   0.264   2.916
 3447SOL     OW11239   5.295   5.045   6.992
 3447SOL    HW111240   5.279   4.973   6.925
 3447SOL    HW211241   5.282   5.008   0.064
 3448SOL     OW11242   3.798   6.688   1.146
 3448SOL    HW111243   3.882   6.668   1.197
 3448SOL    HW211244   3.782   6.615   1.079
 3449SOL     OW11245   6.151   6.461   2.593
 3449SOL    HW111246   6.210   6.480   2.671
 3449SOL    HW211247   6.072   6.522   2.595
 3450SOL     OW11248   0.764   2.451   0.669
 3450SOL    HW111249   0.684   2.508   0.684
 3450SOL    HW211250   0.774   2.385   0.744
 3451SOL     OW11251   0.699   5.374   3.356
 3451SOL    HW111252   0.732   5.442   3.421
 3451SOL    HW211253   0.702   5.283   3.399
 3452SOL     OW11254   6.381   1.146   0.031
 3452SOL    HW111255   6.320   1.076   7.013
 3452SOL    HW211256   6.472   1.106   0.044
 3453SOL     OW11257   5.826   5.669   5.395
 3453SOL    HW111258   5.795   5.610   5.320
 3453SOL    HW211259   5.753   5.732   5.420
 3454SOL     OW11260   2.081   0.860   6.395
 3454SOL    HW111261   1.994   0.859   6.445
 3454SOL    HW211262   2.120   0.952   6.398
 3455SOL     OW11263   1.187   2.859   4.482
 3455SOL    HW111264   1.170   2.766   4.449
 3455SOL    HW211265   1.286   2.877   4.480
 3456SOL     OW11266   6.105   5.745   1.914
 3456SOL    HW111267   6.013   5.783   1.911
 3456SOL    HW211268   6.104   5.652   1.878
 3457SOL     OW11269   2.697   5.263   4.352
 3457SOL    HW111270   2.786   5.286   4.391
 3457SOL    HW211271   2.679   5.166   4.365
 3458SOL     OW11272   5.297   6.626   6.889
 3458SOL    HW111273   5.298   6.562   6.812
 3458SOL    HW211274   5.245   6.585   6.965
 3459SOL     OW11275   0.440   3.813   2.973
 3459SOL    HW111276   0.538   3.829   2.960
 3459SOL    HW211277   0.389   3.893   2.941
 3460SOL     OW11278   3.528   3.448   0.717
 3460SOL    HW111279   3.441   3.434   0.669
 3460SOL    HW211280   3.510   3.470   0.813
 3461SOL     OW11281   4.231   5.538   4.699
 3461SOL    HW111282   4.274   5.600   4.765
 3461SOL    HW211283   4.139   5.514   4.732
 3462SOL     OW11284   5.993   3.615   2.284
 3462SOL    HW111285   6.055   3.568   2.347
 3462SOL    HW211286   5.990   3.712   2.306
 3463SOL     OW11287   0.680   3.312   2.815
 3463SOL    HW111288   0.692   3.287   2.911
 3463SOL    HW211289   0.584   3.333   2.798
 3464SOL     OW11290   5.497   2.397   6.835
 3464SOL    HW111291   5.586   2.367   6.869
 3464SOL    HW211292   5.493   2.497   6.836
 3465SOL     OW11293   1.548   3.182   2.255
 3465SOL    HW111294   1.575   3.147   2.165
 3465SOL    HW211295   1.611   3.254   2.283
 3466SOL     OW11296   5.604   5.160   5.830
 3466SOL    HW111297   5.514   5.120   5.847
 3466SOL    HW211298   5.662   5.145   5.910
 3467SOL     OW11299   2.861   1.601   0.954
 3467SOL    HW111300   2.886   1.505   0.941
 3467SOL    HW211301   2.762   1.610   0.957
 3468SOL     OW11302   5.553   1.886   2.774
 3468SOL    HW111303   5.589   1.934   2.854
 3468SOL    HW211304   5.454   1.897   2.771
 3469SOL     OW11305   5.305   1.053   5.988
 3469SOL    HW111306   5.248   0.982   6.029
 3469SOL    HW211307   5.247   1.121   5.943
 3470SOL     OW11308   0.420   2.553   2.125
 3470SOL    HW111309   0.381   2.639   2.157
 3470SOL    HW211310   0.346   2.489   2.103
 3471SOL     OW11311   4.957   4.502   3.588
 3471SOL    HW111312   4.866   4.478   3.620
 3471SOL    HW211313   5.024   4.440   3.628
 3472SOL     OW11314   3.505   1.260   2.142
 3472SOL    HW111315   3.424   1.257   2.199
 3472SOL    HW211316   3.499   1.189   2.071
 3473SOL     OW11317   6.802   3.336   3.746
 3473SOL    HW111318   6.762   3.424   3.772
 3473SOL    HW211319   6.891   3.352   3.703
 3474SOL     OW11320   0.555   4.398   3.746
 3474SOL    HW111321   0.575   4.465   3.674
 3474SOL    HW211322   0.625   4.403   3.817
 3475SOL     OW11323   1.041   4.746   3.978
 3475SOL    HW111324   1.094   4.822   4.016
 3475SOL    HW211325   1.069   4.661   4.022
 3476SOL     OW11326   1.054   1.385   3.382
 3476SOL    HW111327   1.139   1.405   3.431
 3476SOL    HW211328   1.020   1.469   3.339
 3477SOL     OW11329   0.749   3.426   0.210
 3477SOL    HW111330   0.840   3.428   0.169
 3477SOL    HW211331   0.734   3.510   0.261
 3478SOL     OW11332   3.039   6.782   0.052
 3478SOL    HW111333   3.003   6.853   7.012
 3478SOL    HW211334   2.967   6.717   0.075
 3479SOL     OW11335   0.861   1.146   3.723
 3479SOL    HW111336   0.901   1.224   3.676
 3479SOL    HW211337   0.811   1.090   3.658
 3480SOL     OW11338   0.927   6.132   5.927
 3480SOL    HW111339   0.861   6.064   5.895
 3480SOL    HW211340   0.928   6.209   5.864
 3481SOL     OW11341   5.118   0.596   0.646
 3481SOL    HW111342   5.099   0.499   0.632
 3481SOL    HW211343   5.044   0.651   0.608
 3482SOL     OW11344   6.201   1.664   2.656
 3482SOL    HW111345   6.297   1.690   2.664
 3482SOL    HW211346   6.193   1.564   2.660
 3483SOL     OW11347   5.579   2.092   3.005
 3483SOL    HW111348   5.496   2.132   3.042
 3483SOL    HW211349   5.637   2.061   3.080
 3484SOL     OW11350   1.411   3.167   6.777
 3484SOL    HW111351   1.471   3.096   6.741
 3484SOL    HW211352   1.393   3.235   6.706
 3485SOL     OW11353   0.934   2.017   5.114
 3485SOL    HW111354   0.957   2.021   5.017
 3485SOL    HW211355   0.837   1.996   5.124
 3486SOL     OW11356   1.751   0.139   3.683
 3486SOL    HW111357   1.779   0.135   3.779
 3486SOL    HW211358   1.655   0.166   3.677
 3487SOL     OW11359   6.405   2.642   0.182
 3487SOL    HW111360   6.377   2.669   0.090
 3487SOL    HW211361   6.344   2.685   0.249
 3488SOL     OW11362   5.575   1.021   5.002
 3488SOL    HW111363   5.537   1.024   4.909
 3488SOL    HW211364   5.630   0.938   5.013
 3489SOL     OW11365   3.488   0.359   1.949
 3489SOL    HW111366   3.577   0.402   1.959
 3489SOL    HW211367   3.495   0.281   1.887
 3490SOL     OW11368   3.159   4.690   1.628
 3490SOL    HW111369   3.153   4.782   1.589
 3490SOL    HW211370   3.077   4.638   1.604
 3491SOL     OW11371   3.853   3.095   5.814
 3491SOL    HW111372   3.929   3.110   5.751
 3491SOL    HW211373   3.826   3.181   5.856
 3492SOL     OW11374   6.084   3.946   1.547
 3492SOL    HW111375   6.114   3.885   1.474
 3492SOL    HW211376   6.025   3.897   1.610
 3493SOL     OW11377   6.416   3.832   4.201
 3493SOL    HW111378   6.363   3.880   4.271
 3493SOL    HW211379   6.360   3.822   4.119
 3494SOL     OW11380   2.645   1.203   1.686
 3494SOL    HW111381   2.706   1.261   1.631
 3494SOL    HW211382   2.578   1.260   1.732
 3495SOL     OW11383   0.912   3.841   2.628
 3495SOL    HW111384   0.940   3.937   2.619
 3495SOL    HW211385   0.823   3.829   2.585
 3496SOL     OW11386   5.600   5.229   1.146
 3496SOL    HW111387   5.571   5.167   1.218
 3496SOL    HW211388   5.685   5.274   1.173
 3497SOL     OW11389   2.751   1.287   4.047
 3497SOL    HW111390   2.720   1.242   3.963
 3497SOL    HW211391   2.697   1.370   4.062
 3498SOL     OW11392   2.808   1.318   2.572
 3498SOL    HW111393   2.863   1.392   2.611
 3498SOL    HW211394   2.812   1.238   2.633
 3499SOL     OW11395   6.758   4.800   4.276
 3499SOL    HW111396   6.737   4.872   4.210
 3499SOL    HW211397   6.680   4.738   4.285
 3500SOL     OW11398   1.831   3.034   3.415
 3500SOL    HW111399   1.750   3.030   3.474
 3500SOL    HW211400   1.861   3.129   3.408
 3501SOL     OW11401   3.190   0.140   6.549
 3501SOL    HW111402   3.193   0.094   6.637
 3501SOL    HW211403   3.280   0.177   6.527
 3502SOL     OW11404   6.658   2.860   1.343
 3502SOL    HW111405   6.701   2.943   1.376
 3502SOL    HW211406   6.690   2.841   1.250
 3503SOL     OW11407   0.143   6.448   5.485
 3503SOL    HW111408   0.142   6.524   5.420
 3503SOL    HW211409   0.208   6.467   5.558
 3504SOL     OW11410   2.000   1.121   2.265
 3504SOL    HW111411   2.013   1.129   2.166
 3504SOL    HW211412   2.089   1.116   2.310
 3505SOL     OW11413   5.700   5.199   4.787
 3505SOL    HW111414   5.722   5.230   4.694
 3505SOL    HW211415   5.656   5.273   4.838
 3506SOL     OW11416   5.598   4.749   4.931
 3506SOL    HW111417   5.565   4.698   4.852
 3506SOL    HW211418   5.590   4.847   4.914
 3507SOL     OW11419   2.584   0.435   0.410
 3507SOL    HW111420   2.552   0.344   0.437
 3507SOL    HW211421   2.653   0.426   0.338
 3508SOL     OW11422   2.850   2.108   6.338
 3508SOL    HW111423   2.908   2.132   6.259
 3508SOL    HW211424   2.791   2.185   6.360
 3509SOL     OW11425   5.867   6.934   6.833
 3509SOL    HW111426   5.908   6.951   6.743
 3509SOL    HW211427   5.806   6.855   6.827
 3510SOL     OW11428   1.357   0.720   1.622
 3510SOL    HW111429   1.312   0.674   1.545
 3510SOL    HW211430   1.448   0.681   1.635
 3511SOL     OW11431   1.932   4.384   1.698
 3511SOL    HW111432   2.015   4.358   1.748
 3511SOL    HW211433   1.852   4.356   1.750
 3512SOL     OW11434   0.659   3.873   0.939
 3512SOL    HW111435   0.699   3.935   0.871
 3512SOL    HW211436   0.732   3.828   0.991
 3513SOL     OW11437   6.037   2.017   1.155
 3513SOL    HW111438   6.039   1.927   1.199
 3513SOL    HW211439   5.987   2.009   1.068
 3514SOL     OW11440   6.332   1.021   2.112
 3514SOL    HW111441   6.238   1.056   2.105
 3514SOL    HW211442   6.372   1.015   2.021
 3515SOL     OW11443   5.274   6.396   3.148
 3515SOL    HW111444   5.256   6.494   3.157
 3515SOL    HW211445   5.344   6.381   3.079
 3516SOL     OW11446   4.426   6.197   1.471
 3516SOL    HW111447   4.503   6.254   1.501
 3516SOL    HW211448   4.366   6.177   1.548
 3517SOL     OW11449   0.227   1.863   0.978
 3517SOL    HW111450   0.171   1.839   1.058
 3517SOL    HW211451   0.228   1.962   0.968
 3518SOL     OW11452   4.836   2.781   5.159
 3518SOL    HW111453   4.890   2.792   5.076
 3518SOL    HW211454   4.889   2.734   5.228
 3519SOL     OW11455   1.994   0.450   5.908
 3519SOL    HW111456   2.053   0.369   5.909
 3519SOL    HW211457   2.051   0.532   5.899
 3520SOL     OW11458   3.191   6.629   0.255
 3520SOL    HW111459   3.193   6.592   0.162
 3520SOL    HW211460   3.193   6.554   0.321
 3521SOL     OW11461   4.152   2.829   0.392
 3521SOL    HW111462   4.120   2.919   0.363
 3521SOL    HW211463   4.251   2.828   0.399
 3522SOL     OW11464   6.428   5.542   6.891
 3522SOL    HW111465   6.358   5.489   6.938
 3522SOL    HW211466   6.389   5.582   6.808
 3523SOL     OW11467   2.000   4.640   4.986
 3523SOL    HW111468   1.916   4.587   4.995
 3523SOL    HW211469   2.059   4.599   4.916
 3524SOL     OW11470   5.263   1.990   1.966
 3524SOL    HW111471   5.345   1.946   2.004
 3524SOL    HW211472   5.276   2.089   1.965
 3525SOL     OW11473   6.279   3.374   4.179
 3525SOL    HW111474   6.306   3.315   4.103
 3525SOL    HW211475   6.266   3.319   4.261
 3526SOL     OW11476   1.926   6.968   3.589
 3526SOL    HW111477   1.876   0.027   3.624
 3526SOL    HW211478   1.954   6.910   3.665
 3527SOL     OW11479   5.422   3.586   6.436
 3527SOL    HW111480   5.433   3.607   6.339
 3527SOL    HW211481   5.341   3.527   6.448
 3528SOL     OW11482   1.916   6.094   4.832
 3528SOL    HW111483   2.008   6.080   4.869
 3528SOL    HW211484   1.920   6.161   4.758
 3529SOL     OW11485   4.421   6.443   0.929
 3529SOL    HW111486   4.325   6.445   0.901
 3529SOL    HW211487   4.430   6.395   1.016
 3530SOL     OW11488   6.706   5.098   1.768
 3530SOL    HW111489   6.643   5.035   1.721
 3530SOL    HW211490   6.661   5.186   1.781
 3531SOL     OW11491   5.210   2.497   0.583
 3531SOL    HW111492   5.282   2.555   0.545
 3531SOL    HW211493   5.226   2.484   0.681
 3532SOL     OW11494   3.016   0.335   1.223
 3532SOL    HW111495   2.981   0.427   1.206
 3532SOL    HW211496   2.949   0.268   1.193
 3533SOL     OW11497   0.631   1.038   2.713
 3533SOL    HW111498   0.552   1.100   2.703
 3533SOL    HW211499   0.601   0.953   2.756
 3534SOL     OW11500   0.687   2.111   1.089
 3534SOL    HW111501   0.687   2.206   1.056
 3534SOL    HW211502   0.593   2.081   1.102
 3535SOL     OW11503   2.312   5.346   6.057
 3535SOL    HW111504   2.377   5.299   5.997
 3535SOL    HW211505   2.242   5.281   6.087
 3536SOL     OW11506   3.253   2.098   3.010
 3536SOL    HW111507   3.254   2.125   2.914
 3536SOL    HW211508   3.173   2.040   3.027
 3537SOL     OW11509   2.405   5.525   2.295
 3537SOL    HW111510   2.310   5.554   2.280
 3537SOL    HW211511   2.441   5.573   2.375
 3538SOL     OW11512   2.577   5.719   5.496
 3538SOL    HW111513   2.571   5.636   5.552
 3538SOL    HW211514   2.553   5.799   5.552
 3539SOL     OW11515   3.390   3.875   4.868
 3539SOL    HW111516   3.406   3.833   4.778
 3539SOL    HW211517   3.305   3.927   4.865
 3540SOL     OW11518   2.413   2.398   4.412
 3540SOL    HW111519   2.324   2.394   4.367
 3540SOL    HW211520   2.428   2.314   4.464
 3541SOL     OW11521   2.673   2.677   5.783
 3541SOL    HW111522   2.615   2.640   5.710
 3541SOL    HW211523   2.765   2.693   5.747
 3542SOL     OW11524   1.186   4.997   2.891
 3542SOL    HW111525   1.266   5.038   2.848
 3542SOL    HW211526   1.199   4.898   2.896
 3543SOL     OW11527   6.606   2.601   4.355
 3543SOL    HW111528   6.696   2.632   4.323
 3543SOL    HW211529   6.605   2.502   4.361
 3544SOL     OW11530   1.531   4.239   6.072
 3544SOL    HW111531   1.456   4.208   6.013
 3544SOL    HW211532   1.610   4.179   6.060
 3545SOL     OW11533   3.708   6.044   0.027
 3545SOL    HW111534   3.623   6.058   6.998
 3545SOL    HW211535   3.776   6.002   6.987
 3546SOL     OW11536   0.835   4.721   3.422
 3546SOL    HW111537   0.764   4.753   3.360
 3546SOL    HW211538   0.896   4.658   3.374
 3547SOL     OW11539   5.261   4.572   3.684
 3547SOL    HW111540   5.314   4.641   3.635
 3547SOL    HW211541   5.247   4.602   3.779
 3548SOL     OW11542   5.528   1.567   5.952
 3548SOL    HW111543   5.466   1.581   5.875
 3548SOL    HW211544   5.623   1.576   5.920
 3549SOL     OW11545   6.712   4.545   4.700
 3549SOL    HW111546   6.667   4.544   4.611
 3549SOL    HW211547   6.735   4.451   4.727
 3550SOL     OW11548   5.462   2.711   2.460
 3550SOL    HW111549   5.479   2.649   2.537
 3550SOL    HW211550   5.384   2.769   2.482
 3551SOL     OW11551   4.341   6.109   2.699
 3551SOL    HW111552   4.378   6.126   2.790
 3551SOL    HW211553   4.308   6.015   2.693
 3552SOL     OW11554   5.234   5.985   1.998
 3552SOL    HW111555   5.331   6.006   2.009
 3552SOL    HW211556   5.224   5.899   1.948
 3553SOL     OW11557   5.720   2.994   1.219
 3553SOL    HW111558   5.695   3.078   1.172
 3553SOL    HW211559   5.651   2.923   1.202
 3554SOL     OW11560   3.711   3.314   1.021
 3554SOL    HW111561   3.750   3.342   0.934
 3554SOL    HW211562   3.621   3.357   1.033
 3555SOL     OW11563   1.200   3.185   3.080
 3555SOL    HW111564   1.148   3.214   3.160
 3555SOL    HW211565   1.206   3.261   3.015
 3556SOL     OW11566   3.920   0.684   4.710
 3556SOL    HW111567   3.887   0.671   4.803
 3556SOL    HW211568   3.910   0.780   4.684
 3557SOL     OW11569   0.448   0.426   3.466
 3557SOL    HW111570   0.357   0.459   3.490
 3557SOL    HW211571   0.510   0.504   3.456
 3558SOL     OW11572   0.603   5.842   1.275
 3558SOL    HW111573   0.575   5.870   1.183
 3558SOL    HW211574   0.553   5.897   1.342
 3559SOL     OW11575   0.238   6.774   4.805
 3559SOL    HW111576   0.201   6.828   4.880
 3559SOL    HW211577   0.247   6.832   4.723
 3560SOL     OW11578   1.378   5.252   0.821
 3560SOL    HW111579   1.405   5.251   0.724
 3560SOL    HW211580   1.302   5.315   0.833
 3561SOL     OW11581   4.081   5.069   5.342
 3561SOL    HW111582   4.155   5.016   5.383
 3561SOL    HW211583   3.994   5.041   5.383
 3562SOL     OW11584   4.960   1.077   4.429
 3562SOL    HW111585   4.918   1.030   4.507
 3562SOL    HW211586   4.905   1.157   4.405
 3563SOL     OW11587   5.427   0.788   1.431
 3563SOL    HW111588   5.497   0.809   1.364
 3563SOL    HW211589   5.355   0.733   1.388
 3564SOL     OW11590   1.413   4.676   3.921
 3564SOL    HW111591   1.461   4.753   3.964
 3564SOL    HW211592   1.369   4.621   3.991
 3565SOL     OW11593   3.678   6.804   4.529
 3565SOL    HW111594   3.703   6.816   4.625
 3565SOL    HW211595   3.752   6.836   4.470
 3566SOL     OW11596   7.020   3.299   6.563
 3566SOL    HW111597   0.068   3.235   6.527
 3566SOL    HW211598   0.013   3.389   6.521
 3567SOL     OW11599   1.454   2.282   0.124
 3567SOL    HW111600   1.453   2.184   0.105
 3567SOL    HW211601   1.380   2.326   0.073
 3568SOL     OW11602   5.431   5.140   3.065
 3568SOL    HW111603   5.444   5.041   3.076
 3568SOL    HW211604   5.380   5.158   2.981
 3569SOL     OW11605   2.916   2.729   5.423
 3569SOL    HW111606   2.818   2.738   5.405
 3569SOL    HW211607   2.949   2.643   5.385
 3570SOL     OW11608   5.526   0.279   5.155
 3570SOL    HW111609   5.457   0.298   5.224
 3570SOL    HW211610   5.580   0.200   5.183
 3571SOL     OW11611   1.850   0.856   4.848
 3571SOL    HW111612   1.847   0.955   4.832
 3571SOL    HW211613   1.905   0.837   4.929
 3572SOL     OW11614   5.473   3.707   2.840
 3572SOL    HW111615   5.415   3.759   2.778
 3572SOL    HW211616   5.424   3.626   2.872
 3573SOL     OW11617   6.482   4.552   2.374
 3573SOL    HW111618   6.525   4.524   2.459
 3573SOL    HW211619   6.408   4.488   2.351
 3574SOL     OW11620   1.843   3.354   6.994
 3574SOL    HW111621   1.917   3.290   6.972
 3574SOL    HW211622   1.765   3.303   0.012
 3575SOL     OW11623   5.127   5.758   1.855
 3575SOL    HW111624   5.053   5.822   1.836
 3575SOL    HW211625   5.123   5.682   1.790
 3576SOL     OW11626   7.008   2.316   6.972
 3576SOL    HW111627   0.003   2.303   6.874
 3576SOL    HW211628   6.941   2.389   6.986
 3577SOL     OW11629   2.658   2.957   5.612
 3577SOL    HW111630   2.747   2.933   5.652
 3577SOL    HW211631   2.644   2.905   5.528
 3578SOL     OW11632   4.213   2.944   1.389
 3578SOL    HW111633   4.180   3.023   1.337
 3578SOL    HW211634   4.313   2.946   1.392
 3579SOL     OW11635   0.250   3.131   3.265
 3579SOL    HW111636   0.158   3.115   3.229
 3579SOL    HW211637   0.267   3.229   3.271
 3580SOL     OW11638   6.846   3.802   1.115
 3580SOL    HW111639   6.801   3.713   1.126
 3580SOL    HW211640   6.841   3.830   1.019
 3581SOL     OW11641   0.604   6.524   2.946
 3581SOL    HW111642   0.530   6.523   3.013
 3581SOL    HW211643   0.639   6.617   2.935
 3582SOL     OW11644   3.187   5.098   5.827
 3582SOL    HW111645   3.261   5.165   5.831
 3582SOL    HW211646   3.104   5.143   5.792
 3583SOL     OW11647   1.612   4.328   0.112
 3583SOL    HW111648   1.576   4.246   0.158
 3583SOL    HW211649   1.692   4.361   0.162
 3584SOL     OW11650   5.638   4.942   5.645
 3584SOL    HW111651   5.556   4.915   5.696
 3584SOL    HW211652   5.658   5.038   5.663
 3585SOL     OW11653   3.364   2.062   4.778
 3585SOL    HW111654   3.283   2.073   4.722
 3585SOL    HW211655   3.446   2.080   4.723
 3586SOL     OW11656   6.739   2.779   4.873
 3586SOL    HW111657   6.761   2.869   4.834
 3586SOL    HW211658   6.735   2.711   4.799
 3587SOL     OW11659   3.229   5.315   6.378
 3587SOL    HW111660   3.270   5.382   6.440
 3587SOL    HW211661   3.268   5.327   6.286
 3588SOL     OW11662   6.937   4.026   4.324
 3588SOL    HW111663   6.852   3.976   4.304
 3588SOL    HW211664   7.008   3.961   4.349
 3589SOL     OW11665   6.348   6.941   6.361
 3589SOL    HW111666   6.369   6.861   6.305
 3589SOL    HW211667   6.430   6.970   6.411
 3590SOL     OW11668   0.187   3.592   1.015
 3590SOL    HW111669   0.165   3.606   0.919
 3590SOL    HW211670   0.286   3.600   1.028
 3591SOL     OW11671   5.671   2.994   0.708
 3591SOL    HW111672   5.694   3.061   0.779
 3591SOL    HW211673   5.600   3.032   0.649
 3592SOL     OW11674   0.424   0.200   2.423
 3592SOL    HW111675   0.479   0.230   2.501
 3592SOL    HW211676   0.409   0.101   2.430
 3593SOL     OW11677   0.432   4.686   5.779
 3593SOL    HW111678   0.477   4.770   5.809
 3593SOL    HW211679   0.339   4.683   5.816
 3594SOL     OW11680   4.757   7.016   4.740
 3594SOL    HW111681   4.851   0.004   4.774
 3594SOL    HW211682   4.699   0.063   4.787
 3595SOL     OW11683   6.298   6.292   0.238
 3595SOL    HW111684   6.214   6.340   0.209
 3595SOL    HW211685   6.300   6.201   0.198
 3596SOL     OW11686   4.413   2.174   3.367
 3596SOL    HW111687   4.319   2.167   3.399
 3596SOL    HW211688   4.475   2.152   3.442
 3597SOL     OW11689   2.049   3.662   5.383
 3597SOL    HW111690   2.131   3.704   5.344
 3597SOL    HW211691   1.968   3.696   5.335
 3598SOL     OW11692   2.242   6.160   5.449
 3598SOL    HW111693   2.286   6.201   5.369
 3598SOL    HW211694   2.220   6.065   5.429
 3599SOL     OW11695   4.923   1.631   6.276
 3599SOL    HW111696   4.870   1.630   6.361
 3599SOL    HW211697   4.864   1.603   6.200
 3600SOL     OW11698   1.660   3.315   1.304
 3600SOL    HW111699   1.598   3.296   1.227
 3600SOL    HW211700   1.744   3.356   1.269
 3601SOL     OW11701   5.517   2.043   5.347
 3601SOL    HW111702   5.494   2.099   5.428
 3601SOL    HW211703   5.489   1.948   5.364
 3602SOL     OW11704   2.349   2.827   1.144
 3602SOL    HW111705   2.296   2.837   1.228
 3602SOL    HW211706   2.425   2.892   1.144
 3603SOL     OW11707   3.348   0.864   6.232
 3603SOL    HW111708   3.364   0.769   6.259
 3603SOL    HW211709   3.334   0.869   6.133
 3604SOL     OW11710   6.223   0.852   3.589
 3604SOL    HW111711   6.321   0.862   3.574
 3604SOL    HW211712   6.186   0.788   3.522
 3605SOL     OW11713   0.859   5.056   4.079
 3605SOL    HW111714   0.867   5.090   4.172
 3605SOL    HW211715   0.944   5.071   4.029
 3606SOL     OW11716   1.721   6.497   2.032
 3606SOL    HW111717   1.776   6.577   2.059
 3606SOL    HW211718   1.626   6.512   2.059
 3607SOL     OW11719   5.013   2.837   2.573
 3607SOL    HW111720   4.919   2.869   2.583
 3607SOL    HW211721   5.017   2.767   2.502
 3608SOL     OW11722   5.364   1.676   4.250
 3608SOL    HW111723   5.281   1.720   4.216
 3608SOL    HW211724   5.341   1.586   4.287
 3609SOL     OW11725   2.265   6.332   4.366
 3609SOL    HW111726   2.286   6.335   4.463
 3609SOL    HW211727   2.271   6.424   4.327
 3610SOL     OW11728   2.145   0.363   5.533
 3610SOL    HW111729   2.175   0.457   5.551
 3610SOL    HW211730   2.226   0.305   5.522
 3611SOL     OW11731   4.520   4.482   4.094
 3611SOL    HW111732   4.487   4.576   4.099
 3611SOL    HW211733   4.524   4.443   4.186
 3612SOL     OW11734   6.251   1.629   6.586
 3612SOL    HW111735   6.283   1.599   6.676
 3612SOL    HW211736   6.317   1.603   6.516
 3613SOL     OW11737   4.864   5.268   1.935
 3613SOL    HW111738   4.783   5.234   1.886
 3613SOL    HW211739   4.928   5.193   1.948
 3614SOL     OW11740   3.400   3.275   6.689
 3614SOL    HW111741   3.304   3.279   6.714
 3614SOL    HW211742   3.448   3.353   6.730
 3615SOL     OW11743   6.104   3.146   5.870
 3615SOL    HW111744   6.072   3.231   5.911
 3615SOL    HW211745   6.178   3.108   5.925
 3616SOL     OW11746   1.698   1.832   5.889
 3616SOL    HW111747   1.681   1.873   5.800
 3616SOL    HW211748   1.779   1.773   5.884
 3617SOL     OW11749   4.808   6.871   5.730
 3617SOL    HW111750   4.750   6.864   5.811
 3617SOL    HW211751   4.829   6.779   5.696
 3618SOL     OW11752   2.180   3.546   5.018
 3618SOL    HW111753   2.166   3.541   4.919
 3618SOL    HW211754   2.110   3.491   5.064
 3619SOL     OW11755   5.301   3.463   0.507
 3619SOL    HW111756   5.201   3.464   0.505
 3619SOL    HW211757   5.333   3.490   0.598
 3620SOL     OW11758   6.449   5.925   4.513
 3620SOL    HW111759   6.510   6.004   4.505
 3620SOL    HW211760   6.372   5.948   4.573
 3621SOL     OW11761   3.813   3.096   4.238
 3621SOL    HW111762   3.804   3.023   4.171
 3621SOL    HW211763   3.811   3.056   4.330
 3622SOL     OW11764   0.933   0.553   1.258
 3622SOL    HW111765   0.900   0.633   1.208
 3622SOL    HW211766   0.963   0.581   1.349
 3623SOL     OW11767   0.820   5.831   5.185
 3623SOL    HW111768   0.783   5.893   5.254
 3623SOL    HW211769   0.868   5.755   5.229
 3624SOL     OW11770   1.643   0.077   1.540
 3624SOL    HW111771   1.701   0.046   1.616
 3624SOL    HW211772   1.550   0.044   1.554
 3625SOL     OW11773   6.813   2.984   0.060
 3625SOL    HW111774   6.793   2.892   0.093
 3625SOL    HW211775   6.814   3.048   0.137
 3626SOL     OW11776   0.196   3.787   4.469
 3626SOL    HW111777   0.138   3.815   4.545
 3626SOL    HW211778   0.241   3.867   4.429
 3627SOL     OW11779   5.006   3.015   1.492
 3627SOL    HW111780   4.948   3.092   1.520
 3627SOL    HW211781   4.948   2.939   1.463
 3628SOL     OW11782   1.181   1.658   1.818
 3628SOL    HW111783   1.083   1.657   1.840
 3628SOL    HW211784   1.224   1.576   1.857
 3629SOL     OW11785   1.155   0.537   3.640
 3629SOL    HW111786   1.155   0.531   3.740
 3629SOL    HW211787   1.247   0.561   3.608
 3630SOL     OW11788   0.029   2.790   3.087
 3630SOL    HW111789   0.090   2.747   3.021
 3630SOL    HW211790   0.033   2.889   3.077
 3631SOL     OW11791   2.193   6.917   3.496
 3631SOL    HW111792   2.113   6.973   3.518
 3631SOL    HW211793   2.241   6.893   3.580
 3632SOL     OW11794   4.389   4.139   0.891
 3632SOL    HW111795   4.334   4.081   0.832
 3632SOL    HW211796   4.458   4.084   0.939
 3633SOL     OW11797   3.394   2.527   5.543
 3633SOL    HW111798   3.357   2.552   5.453
 3633SOL    HW211799   3.324   2.480   5.596
 3634SOL     OW11800   2.376   6.395   6.028
 3634SOL    HW111801   2.290   6.349   6.004
 3634SOL    HW211802   2.405   6.453   5.952
 3635SOL     OW11803   2.500   1.185   1.332
 3635SOL    HW111804   2.518   1.182   1.234
 3635SOL    HW211805   2.543   1.106   1.376
 3636SOL     OW11806   6.939   5.431   0.538
 3636SOL    HW111807   6.865   5.431   0.605
 3636SOL    HW211808   6.901   5.444   0.446
 3637SOL     OW11809   1.177   3.045   0.181
 3637SOL    HW111810   1.143   2.955   0.153
 3637SOL    HW211811   1.118   3.082   0.253
 3638SOL     OW11812   6.709   4.038   2.879
 3638SOL    HW111813   6.656   3.999   2.954
 3638SOL    HW211814   6.686   3.991   2.793
 3639SOL     OW11815   3.777   4.084   5.040
 3639SOL    HW111816   3.713   4.029   5.095
 3639SOL    HW211817   3.793   4.038   4.952
 3640SOL     OW11818   5.378   2.709   0.500
 3640SOL    HW111819   5.345   2.757   0.419
 3640SOL    HW211820   5.351   2.759   0.582
 3641SOL     OW11821   5.855   4.025   1.211
 3641SOL    HW111822   5.787   3.967   1.167
 3641SOL    HW211823   5.943   3.980   1.211
 3642SOL     OW11824   5.553   2.544   6.278
 3642SOL    HW111825   5.603   2.549   6.364
 3642SOL    HW211826   5.476   2.608   6.281
 3643SOL     OW11827   4.244   6.592   6.463
 3643SOL    HW111828   4.226   6.539   6.380
 3643SOL    HW211829   4.206   6.543   6.542
 3644SOL     OW11830   2.877   0.870   1.441
 3644SOL    HW111831   2.787   0.911   1.453
 3644SOL    HW211832   2.889   0.797   1.508
 3645SOL     OW11833   1.241   3.637   4.130
 3645SOL    HW111834   1.304   3.562   4.153
 3645SOL    HW211835   1.147   3.607   4.148
 3646SOL     OW11836   2.928   4.993   4.758
 3646SOL    HW111837   2.969   4.976   4.669
 3646SOL    HW211838   2.980   4.946   4.829
 3647SOL     OW11839   2.643   6.999   6.934
 3647SOL    HW111840   2.544   6.997   6.952
 3647SOL    HW211841   2.664   0.056   6.875
 3648SOL     OW11842   5.096   6.056   3.402
 3648SOL    HW111843   5.112   6.109   3.319
 3648SOL    HW211844   5.138   6.103   3.480
 3649SOL     OW11845   5.480   3.882   6.657
 3649SOL    HW111846   5.553   3.930   6.706
 3649SOL    HW211847   5.408   3.947   6.632
 3650SOL     OW11848   5.201   3.916   0.558
 3650SOL    HW111849   5.134   3.988   0.572
 3650SOL    HW211850   5.200   3.888   0.462
 3651SOL     OW11851   2.062   2.216   5.481
 3651SOL    HW111852   2.010   2.299   5.463
 3651SOL    HW211853   2.004   2.150   5.529
 3652SOL     OW11854   5.257   1.060   2.298
 3652SOL    HW111855   5.276   1.152   2.332
 3652SOL    HW211856   5.180   1.022   2.348
 3653SOL     OW11857   0.770   0.492   2.398
 3653SOL    HW111858   0.867   0.469   2.408
 3653SOL    HW211859   0.734   0.523   2.486
 3654SOL     OW11860   4.593   5.895   1.259
 3654SOL    HW111861   4.599   5.905   1.358
 3654SOL    HW211862   4.522   5.955   1.223
 3655SOL     OW11863   3.082   1.085   3.963
 3655SOL    HW111864   3.081   1.046   3.871
 3655SOL    HW211865   3.073   1.185   3.957
 3656SOL     OW11866   0.915   5.801   2.195
 3656SOL    HW111867   0.939   5.782   2.099
 3656SOL    HW211868   0.818   5.780   2.210
 3657SOL     OW11869   4.452   5.996   5.355
 3657SOL    HW111870   4.526   6.050   5.395
 3657SOL    HW211871   4.395   5.958   5.428
 3658SOL     OW11872   1.790   5.536   6.476
 3658SOL    HW111873   1.854   5.460   6.488
 3658SOL    HW211874   1.751   5.532   6.384
 3659SOL     OW11875   0.041   1.576   6.355
 3659SOL    HW111876   0.077   1.488   6.386
 3659SOL    HW211877   6.970   1.563   6.316
 3660SOL     OW11878   5.615   5.988   5.662
 3660SOL    HW111879   5.609   5.967   5.564
 3660SOL    HW211880   5.710   5.978   5.692
 3661SOL     OW11881   6.910   0.772   4.368
 3661SOL    HW111882   6.938   0.829   4.445
 3661SOL    HW211883   6.860   0.826   4.301
 3662SOL     OW11884   3.758   0.890   5.602
 3662SOL    HW111885   3.857   0.891   5.619
 3662SOL    HW211886   3.709   0.893   5.689
 3663SOL     OW11887   2.072   2.576   0.178
 3663SOL    HW111888   2.168   2.574   0.207
 3663SOL    HW211889   2.040   2.671   0.174
 3664SOL     OW11890   4.491   1.671   2.287
 3664SOL    HW111891   4.425   1.746   2.284
 3664SOL    HW211892   4.570   1.695   2.230
 3665SOL     OW11893   0.592   6.301   5.493
 3665SOL    HW111894   0.572   6.354   5.411
 3665SOL    HW211895   0.621   6.363   5.566
 3666SOL     OW11896   1.401   2.307   3.327
 3666SOL    HW111897   1.353   2.221   3.343
 3666SOL    HW211898   1.402   2.362   3.411
 3667SOL     OW11899   1.104   1.710   2.790
 3667SOL    HW111900   1.020   1.665   2.821
 3667SOL    HW211901   1.166   1.723   2.868
 3668SOL     OW11902   1.106   0.276   1.807
 3668SOL    HW111903   1.191   0.327   1.817
 3668SOL    HW211904   1.052   0.315   1.733
 3669SOL     OW11905   6.124   2.178   4.459
 3669SOL    HW111906   6.123   2.081   4.436
 3669SOL    HW211907   6.204   2.198   4.516
 3670SOL     OW11908   3.353   5.303   1.605
 3670SOL    HW111909   3.362   5.401   1.589
 3670SOL    HW211910   3.312   5.288   1.695
 3671SOL     OW11911   6.281   1.096   3.201
 3671SOL    HW111912   6.358   1.126   3.146
 3671SOL    HW211913   6.292   1.000   3.226
 3672SOL     OW11914   5.252   1.324   2.360
 3672SOL    HW111915   5.186   1.353   2.430
 3672SOL    HW211916   5.320   1.397   2.347
 3673SOL     OW11917   5.055   6.026   0.430
 3673SOL    HW111918   5.133   5.975   0.467
 3673SOL    HW211919   4.979   6.022   0.495
 3674SOL     OW11920   1.622   6.160   6.096
 3674SOL    HW111921   1.552   6.088   6.091
 3674SOL    HW211922   1.653   6.170   6.191
 3675SOL     OW11923   0.480   2.020   3.846
 3675SOL    HW111924   0.471   1.921   3.839
 3675SOL    HW211925   0.557   2.050   3.789
 3676SOL     OW11926   4.736   2.842   3.188
 3676SOL    HW111927   4.802   2.890   3.129
 3676SOL    HW211928   4.645   2.848   3.146
 3677SOL     OW11929   2.100   1.147   4.244
 3677SOL    HW111930   2.174   1.173   4.181
 3677SOL    HW211931   2.102   1.048   4.258
 3678SOL     OW11932   1.256   0.311   3.834
 3678SOL    HW111933   1.262   0.403   3.871
 3678SOL    HW211934   1.179   0.305   3.771
 3679SOL     OW11935   5.916   0.192   3.155
 3679SOL    HW111936   5.901   0.245   3.071
 3679SOL    HW211937   5.890   0.096   3.139
 3680SOL     OW11938   4.728   1.188   3.246
 3680SOL    HW111939   4.729   1.287   3.259
 3680SOL    HW211940   4.643   1.161   3.202
 3681SOL     OW11941   1.277   0.818   5.471
 3681SOL    HW111942   1.301   0.909   5.504
 3681SOL    HW211943   1.348   0.753   5.496
 3682SOL     OW11944   5.343   2.533   1.138
 3682SOL    HW111945   5.315   2.602   1.071
 3682SOL    HW211946   5.440   2.513   1.127
 3683SOL     OW11947   0.181   0.332   4.643
 3683SOL    HW111948   0.272   0.370   4.622
 3683SOL    HW211949   0.116   0.407   4.654
 3684SOL     OW11950   2.160   6.827   5.687
 3684SOL    HW111951   2.115   6.880   5.758
 3684SOL    HW211952   2.232   6.771   5.729
 3685SOL     OW11953   2.639   5.731   5.234
 3685SOL    HW111954   2.610   5.714   5.329
 3685SOL    HW211955   2.579   5.682   5.172
 3686SOL     OW11956   6.529   3.573   3.460
 3686SOL    HW111957   6.466   3.624   3.519
 3686SOL    HW211958   6.572   3.636   3.396
 3687SOL     OW11959   4.856   6.327   3.382
 3687SOL    HW111960   4.902   6.281   3.458
 3687SOL    HW211961   4.810   6.259   3.325
 3688SOL     OW11962   5.850   3.066   0.008
 3688SOL    HW111963   5.914   2.997   0.042
 3688SOL    HW211964   5.898   3.151   7.010
 3689SOL     OW11965   2.363   1.252   5.175
 3689SOL    HW111966   2.442   1.203   5.138
 3689SOL    HW211967   2.339   1.327   5.114
 3690SOL     OW11968   5.060   5.310   0.879
 3690SOL    HW111969   5.034   5.377   0.948
 3690SOL    HW211970   5.027   5.219   0.907
 3691SOL     OW11971   2.901   1.802   5.866
 3691SOL    HW111972   2.912   1.737   5.942
 3691SOL    HW211973   2.805   1.829   5.859
 3692SOL     OW11974   0.030   4.013   5.893
 3692SOL    HW111975   6.955   4.003   5.865
 3692SOL    HW211976   0.061   3.927   5.935
 3693SOL     OW11977   0.375   1.961   2.748
 3693SOL    HW111978   0.451   1.945   2.684
 3693SOL    HW211979   0.317   2.034   2.713
 3694SOL     OW11980   0.815   0.778   1.486
 3694SOL    HW111981   0.727   0.756   1.527
 3694SOL    HW211982   0.804   0.851   1.418
 3695SOL     OW11983   6.759   2.707   2.587
 3695SOL    HW111984   6.826   2.761   2.535
 3695SOL    HW211985   6.804   2.664   2.665
 3696SOL     OW11986   5.129   1.085   5.042
 3696SOL    HW111987   5.160   1.112   5.133
 3696SOL    HW211988   5.033   1.058   5.046
 3697SOL     OW11989   6.529   6.090   3.269
 3697SOL    HW111990   6.612   6.088   3.325
 3697SOL    HW211991   6.449   6.095   3.329
 3698SOL     OW11992   1.661   0.731   3.507
 3698SOL    HW111993   1.699   0.767   3.593
 3698SOL    HW211994   1.734   0.692   3.452
 3699SOL     OW11995   2.185   2.212   4.124
 3699SOL    HW111996   2.197   2.169   4.214
 3699SOL    HW211997   2.265   2.195   4.068
 3700SOL     OW11998   1.694   5.154   5.134
 3700SOL    HW111999   1.779   5.149   5.186
 3700SOL    HW212000   1.715   5.176   5.038
 3701SOL     OW12001   1.170   6.405   2.617
 3701SOL    HW112002   1.246   6.467   2.600
 3701SOL    HW212003   1.146   6.356   2.533
 3702SOL     OW12004   5.866   5.736   4.151
 3702SOL    HW112005   5.783   5.769   4.105
 3702SOL    HW212006   5.853   5.741   4.250
 3703SOL     OW12007   1.009   1.190   5.970
 3703SOL    HW112008   1.012   1.251   6.050
 3703SOL    HW212009   1.100   1.185   5.928
 3704SOL     OW12010   5.870   2.751   0.805
 3704SOL    HW112011   5.951   2.767   0.862
 3704SOL    HW212012   5.819   2.837   0.796
 3705SOL     OW12013   5.365   5.061   3.633
 3705SOL    HW112014   5.370   5.105   3.723
 3705SOL    HW212015   5.452   5.074   3.584
 3706SOL     OW12016   0.867   3.571   0.601
 3706SOL    HW112017   0.784   3.597   0.551
 3706SOL    HW212018   0.844   3.546   0.694
 3707SOL     OW12019   3.276   4.919   3.972
 3707SOL    HW112020   3.284   4.942   3.875
 3707SOL    HW212021   3.366   4.925   4.016
 3708SOL     OW12022   3.616   6.736   1.373
 3708SOL    HW112023   3.653   6.775   1.288
 3708SOL    HW212024   3.564   6.806   1.422
 3709SOL     OW12025   1.865   0.539   1.926
 3709SOL    HW112026   1.791   0.493   1.876
 3709SOL    HW212027   1.844   0.637   1.934
 3710SOL     OW12028   0.736   5.298   5.017
 3710SOL    HW112029   0.642   5.311   5.048
 3710SOL    HW212030   0.752   5.201   5.000
 3711SOL     OW12031   1.765   6.271   5.272
 3711SOL    HW112032   1.853   6.224   5.264
 3711SOL    HW212033   1.691   6.209   5.246
 3712SOL     OW12034   2.496   5.451   6.498
 3712SOL    HW112035   2.464   5.485   6.586
 3712SOL    HW212036   2.460   5.359   6.483
 3713SOL     OW12037   6.743   6.706   4.694
 3713SOL    HW112038   6.835   6.679   4.723
 3713SOL    HW212039   6.704   6.635   4.635
 3714SOL     OW12040   0.910   4.730   6.841
 3714SOL    HW112041   0.832   4.715   6.902
 3714SOL    HW212042   0.888   4.803   6.776
 3715SOL     OW12043   7.015   6.076   3.549
 3715SOL    HW112044   0.029   6.142   3.615
 3715SOL    HW212045   0.015   6.108   3.456
 3716SOL     OW12046   6.347   5.788   4.090
 3716SOL    HW112047   6.258   5.813   4.054
 3716SOL    HW212048   6.365   5.692   4.069
 3717SOL     OW12049   4.982   1.038   0.608
 3717SOL    HW112050   4.895   1.055   0.561
 3717SOL    HW212051   5.047   1.109   0.581
 3718SOL     OW12052   0.556   6.775   6.613
 3718SOL    HW112053   0.472   6.819   6.645
 3718SOL    HW212054   0.555   6.679   6.640
 3719SOL     OW12055   3.927   3.234   6.176
 3719SOL    HW112056   3.952   3.165   6.243
 3719SOL    HW212057   3.831   3.222   6.149
 3720SOL     OW12058   5.757   3.708   1.189
 3720SOL    HW112059   5.857   3.698   1.191
 3720SOL    HW212060   5.715   3.617   1.191
 3721SOL     OW12061   6.212   5.408   7.011
 3721SOL    HW112062   6.274   5.339   0.029
 3721SOL    HW212063   6.143   5.432   0.059
 3722SOL     OW12064   4.594   6.889   1.596
 3722SOL    HW112065   4.590   6.800   1.640
 3722SOL    HW212066   4.502   6.930   1.596
 3723SOL     OW12067   4.453   5.288   0.442
 3723SOL    HW112068   4.480   5.217   0.377
 3723SOL    HW212069   4.443   5.375   0.394
 3724SOL     OW12070   1.732   5.226   5.470
 3724SOL    HW112071   1.786   5.147   5.498
 3724SOL    HW212072   1.791   5.293   5.425
 3725SOL     OW12073   0.302   6.386   0.219
 3725SOL    HW112074   0.333   6.312   0.280
 3725SOL    HW212075   0.374   6.455   0.211
 3726SOL     OW12076   5.099   4.618   4.289
 3726SOL    HW112077   5.154   4.535   4.282
 3726SOL    HW212078   5.158   4.695   4.312
 3727SOL     OW12079   0.367   3.040   4.297
 3727SOL    HW112080   0.434   3.093   4.244
 3727SOL    HW212081   0.352   2.952   4.252
 3728SOL     OW12082   3.200   3.161   0.490
 3728SOL    HW112083   3.246   3.242   0.525
 3728SOL    HW212084   3.133   3.129   0.558
 3729SOL     OW12085   0.463   0.263   5.421
 3729SOL    HW112086   0.418   0.352   5.422
 3729SOL    HW212087   0.538   0.264   5.355
 3730SOL     OW12088   4.502   6.696   5.796
 3730SOL    HW112089   4.478   6.721   5.890
 3730SOL    HW212090   4.420   6.699   5.739
 3731SOL     OW12091   0.137   1.359   6.491
 3731SOL    HW112092   0.073   1.284   6.482
 3731SOL    HW212093   0.154   1.379   6.587
 3732SOL     OW12094   1.850   1.635   0.200
 3732SOL    HW112095   1.950   1.631   0.207
 3732SOL    HW212096   1.818   1.567   0.134
 3733SOL     OW12097   1.664   2.755   3.902
 3733SOL    HW112098   1.600   2.766   3.826
 3733SOL    HW212099   1.737   2.692   3.875
 3734SOL     OW12100   4.030   0.446   1.435
 3734SOL    HW112101   3.983   0.487   1.513
 3734SOL    HW212102   4.047   0.349   1.453
 3735SOL     OW12103   4.146   6.958   2.207
 3735SOL    HW112104   4.119   6.959   2.304
 3735SOL    HW212105   4.065   6.938   2.151
 3736SOL     OW12106   6.407   0.912   0.888
 3736SOL    HW112107   6.346   0.857   0.946
 3736SOL    HW212108   6.364   0.925   0.798
 3737SOL     OW12109   6.141   2.425   3.400
 3737SOL    HW112110   6.043   2.444   3.387
 3737SOL    HW212111   6.194   2.485   3.340
 3738SOL     OW12112   6.668   5.831   0.907
 3738SOL    HW112113   6.714   5.891   0.841
 3738SOL    HW212114   6.732   5.760   0.936
 3739SOL     OW12115   2.699   4.802   1.811
 3739SOL    HW112116   2.700   4.792   1.712
 3739SOL    HW212117   2.751   4.727   1.853
 3740SOL     OW12118   5.941   5.803   6.569
 3740SOL    HW112119   5.950   5.724   6.509
 3740SOL    HW212120   5.848   5.840   6.562
 3741SOL     OW12121   5.380   2.770   0.136
 3741SOL    HW112122   5.288   2.731   0.136
 3741SOL    HW212123   5.446   2.701   0.167
 3742SOL     OW12124   4.702   5.697   0.433
 3742SOL    HW112125   4.760   5.627   0.474
 3742SOL    HW212126   4.730   5.712   0.338
 3743SOL     OW12127   4.323   4.169   1.193
 3743SOL    HW112128   4.281   4.254   1.227
 3743SOL    HW212129   4.355   4.183   1.099
 3744SOL     OW12130   1.355   6.650   1.893
 3744SOL    HW112131   1.312   6.625   1.806
 3744SOL    HW212132   1.329   6.744   1.917
 3745SOL     OW12133   4.917   3.495   2.282
 3745SOL    HW112134   4.889   3.420   2.222
 3745SOL    HW212135   4.942   3.459   2.372
 3746SOL     OW12136   6.510   0.198   3.272
 3746SOL    HW112137   6.443   0.255   3.321
 3746SOL    HW212138   6.558   0.140   3.338
 3747SOL     OW12139   4.462   6.749   6.077
 3747SOL    HW112140   4.378   6.695   6.071
 3747SOL    HW212141   4.446   6.830   6.134
 3748SOL     OW12142   5.655   1.185   2.320
 3748SOL    HW112143   5.578   1.245   2.297
 3748SOL    HW212144   5.665   1.115   2.248
 3749SOL     OW12145   0.940   5.379   2.441
 3749SOL    HW112146   0.924   5.469   2.481
 3749SOL    HW212147   1.037   5.368   2.421
 3750SOL     OW12148   5.721   4.527   0.732
 3750SOL    HW112149   5.759   4.477   0.654
 3750SOL    HW212150   5.786   4.597   0.761
 3751SOL     OW12151   1.349   3.227   1.028
 3751SOL    HW112152   1.305   3.164   0.964
 3751SOL    HW212153   1.292   3.308   1.040
 3752SOL     OW12154   0.336   0.580   6.617
 3752SOL    HW112155   0.315   0.588   6.519
 3752SOL    HW212156   0.268   0.522   6.661
 3753SOL     OW12157   0.951   6.709   4.761
 3753SOL    HW112158   0.940   6.809   4.762
 3753SOL    HW212159   1.043   6.686   4.730
 3754SOL     OW12160   5.555   6.414   1.182
 3754SOL    HW112161   5.498   6.495   1.164
 3754SOL    HW212162   5.503   6.347   1.234
 3755SOL     OW12163   5.345   5.543   4.014
 3755SOL    HW112164   5.331   5.591   4.100
 3755SOL    HW212165   5.440   5.514   4.006
 3756SOL     OW12166   1.930   1.356   6.177
 3756SOL    HW112167   1.866   1.400   6.240
 3756SOL    HW212168   1.894   1.267   6.151
 3757SOL     OW12169   3.542   5.802   5.360
 3757SOL    HW112170   3.535   5.901   5.352
 3757SOL    HW212171   3.461   5.766   5.408
 3758SOL     OW12172   2.443   1.095   4.412
 3758SOL    HW112173   2.387   1.168   4.451
 3758SOL    HW212174   2.386   1.016   4.391
 3759SOL     OW12175   4.797   5.324   5.629
 3759SOL    HW112176   4.754   5.239   5.601
 3759SOL    HW212177   4.896   5.312   5.632
 3760SOL     OW12178   1.189   3.295   3.647
 3760SOL    HW112179   1.194   3.312   3.745
 3760SOL    HW212180   1.282   3.283   3.610
 3761SOL     OW12181   0.607   6.722   5.465
 3761SOL    HW112182   0.628   6.791   5.396
 3761SOL    HW212183   0.583   6.636   5.421
 3762SOL     OW12184   1.240   4.203   0.099
 3762SOL    HW112185   1.307   4.166   0.164
 3762SOL    HW212186   1.216   4.297   0.126
 3763SOL     OW12187   6.802   4.298   6.874
 3763SOL    HW112188   6.732   4.363   6.843
 3763SOL    HW212189   6.758   4.225   6.928
 3764SOL     OW12190   2.130   0.716   4.447
 3764SOL    HW112191   2.074   0.685   4.524
 3764SOL    HW212192   2.225   0.692   4.463
 3765SOL     OW12193   4.903   0.999   3.358
 3765SOL    HW112194   4.967   0.989   3.282
 3765SOL    HW212195   4.819   1.044   3.326
 3766SOL     OW12196   0.505   0.746   3.884
 3766SOL    HW112197   0.499   0.809   3.962
 3766SOL    HW212198   0.592   0.759   3.837
 3767SOL     OW12199   1.569   5.054   0.354
 3767SOL    HW112200   1.643   5.064   0.288
 3767SOL    HW212201   1.482   5.043   0.306
 3768SOL     OW12202   4.094   6.325   6.686
 3768SOL    HW112203   4.110   6.273   6.769
 3768SOL    HW212204   3.999   6.313   6.657
 3769SOL     OW12205   5.813   5.925   5.196
 3769SOL    HW112206   5.899   5.909   5.244
 3769SOL    HW212207   5.805   5.861   5.119
 3770SOL     OW12208   2.319   1.033   5.973
 3770SOL    HW112209   2.315   0.936   5.995
 3770SOL    HW212210   2.246   1.081   6.023
 3771SOL     OW12211   5.342   2.161   0.459
 3771SOL    HW112212   5.310   2.236   0.401
 3771SOL    HW212213   5.421   2.117   0.417
 3772SOL     OW12214   6.478   1.158   1.006
 3772SOL    HW112215   6.490   1.154   1.105
 3772SOL    HW212216   6.426   1.079   0.976
 3773SOL     OW12217   5.462   2.993   5.743
 3773SOL    HW112218   5.518   3.019   5.664
 3773SOL    HW212219   5.519   2.996   5.825
 3774SOL     OW12220   1.371   7.006   6.355
 3774SOL    HW112221   1.380   0.026   6.264
 3774SOL    HW212222   1.279   6.968   6.366
 3775SOL     OW12223   5.371   4.119   3.071
 3775SOL    HW112224   5.272   4.109   3.081
 3775SOL    HW212225   5.390   4.178   2.992
 3776SOL     OW12226   2.299   1.971   2.048
 3776SOL    HW112227   2.260   1.880   2.030
 3776SOL    HW212228   2.391   1.960   2.085
 3777SOL     OW12229   3.084   4.841   4.982
 3777SOL    HW112230   3.102   4.863   5.078
 3777SOL    HW212231   3.044   4.749   4.976
 3778SOL     OW12232   2.553   5.944   2.561
 3778SOL    HW112233   2.629   5.935   2.497
 3778SOL    HW212234   2.573   5.892   2.644
 3779SOL     OW12235   2.462   4.606   0.197
 3779SOL    HW112236   2.450   4.544   0.276
 3779SOL    HW212237   2.558   4.608   0.171
 3780SOL     OW12238   3.972   5.501   4.777
 3780SOL    HW112239   3.930   5.475   4.689
 3780SOL    HW212240   3.974   5.421   4.837
 3781SOL     OW12241   2.093   6.367   4.035
 3781SOL    HW112242   2.027   6.396   3.966
 3781SOL    HW212243   2.185   6.392   4.005
 3782SOL     OW12244   2.671   2.254   4.500
 3782SOL    HW112245   2.733   2.311   4.445
 3782SOL    HW212246   2.672   2.286   4.595
 3783SOL     OW12247   6.719   6.909   5.313
 3783SOL    HW112248   6.704   7.006   5.298
 3783SOL    HW212249   6.768   6.870   5.234
 3784SOL     OW12250   5.455   1.581   3.803
 3784SOL    HW112251   5.514   1.500   3.806
 3784SOL    HW212252   5.505   1.657   3.760
 3785SOL     OW12253   2.590   1.629   0.853
 3785SOL    HW112254   2.501   1.659   0.886
 3785SOL    HW212255   2.630   1.699   0.795
 3786SOL     OW12256   3.029   4.822   3.835
 3786SOL    HW112257   3.114   4.864   3.868
 3786SOL    HW212258   3.033   4.812   3.736
 3787SOL     OW12259   5.493   0.760   4.527
 3787SOL    HW112260   5.471   0.673   4.483
 3787SOL    HW212261   5.592   0.773   4.526
 3788SOL     OW12262   6.266   3.274   3.442
 3788SOL    HW112263   6.300   3.223   3.521
 3788SOL    HW212264   6.170   3.252   3.427
 3789SOL     OW12265   1.180   4.133   4.367
 3789SOL    HW112266   1.228   4.047   4.349
 3789SOL    HW212267   1.247   4.205   4.385
 3790SOL     OW12268   2.149   3.690   4.589
 3790SOL    HW112269   2.069   3.677   4.530
 3790SOL    HW212270   2.174   3.787   4.591
 3791SOL     OW12271   5.469   6.889   1.176
 3791SOL    HW112272   5.403   6.960   1.201
 3791SOL    HW212273   5.448   6.853   1.085
 3792SOL     OW12274   6.704   0.425   5.056
 3792SOL    HW112275   6.789   0.387   5.093
 3792SOL    HW212276   6.698   0.522   5.079
 3793SOL     OW12277   2.215   0.975   2.692
 3793SOL    HW112278   2.295   1.033   2.677
 3793SOL    HW212279   2.160   1.014   2.766
 3794SOL     OW12280   3.900   5.661   2.140
 3794SOL    HW112281   3.872   5.656   2.236
 3794SOL    HW212282   3.858   5.585   2.089
 3795SOL     OW12283   4.804   0.017   6.980
 3795SOL    HW112284   4.902   0.009   6.963
 3795SOL    HW212285   4.754   0.004   6.894
 3796SOL     OW12286   1.328   1.765   1.641
 3796SOL    HW112287   1.312   1.863   1.653
 3796SOL    HW212288   1.279   1.714   1.712
 3797SOL     OW12289   6.887   5.498   2.286
 3797SOL    HW112290   6.806   5.548   2.318
 3797SOL    HW212291   6.968   5.533   2.333
 3798SOL     OW12292   2.638   4.716   3.223
 3798SOL    HW112293   2.671   4.690   3.132
 3798SOL    HW212294   2.538   4.716   3.224
 3799SOL     OW12295   1.296   1.411   5.071
 3799SOL    HW112296   1.368   1.480   5.075
 3799SOL    HW212297   1.327   1.335   5.014
 3800SOL     OW12298   5.028   2.530   4.964
 3800SOL    HW112299   5.102   2.571   5.018
 3800SOL    HW212300   4.979   2.601   4.914
 3801SOL     OW12301   6.336   5.992   5.362
 3801SOL    HW112302   6.315   6.090   5.371
 3801SOL    HW212303   6.253   5.943   5.333
 3802SOL     OW12304   1.146   2.218   5.269
 3802SOL    HW112305   1.076   2.152   5.295
 3802SOL    HW212306   1.219   2.219   5.337
 3803SOL     OW12307   4.554   0.599   2.138
 3803SOL    HW112308   4.612   0.666   2.184
 3803SOL    HW212309   4.566   0.607   2.039
 3804SOL     OW12310   4.598   1.819   4.817
 3804SOL    HW112311   4.603   1.913   4.784
 3804SOL    HW212312   4.523   1.771   4.772
 3805SOL     OW12313   3.174   4.113   1.647
 3805SOL    HW112314   3.227   4.058   1.712
 3805SOL    HW212315   3.085   4.069   1.632
 3806SOL     OW12316   2.942   2.614   6.877
 3806SOL    HW112317   2.943   2.635   6.974
 3806SOL    HW212318   3.036   2.610   6.843
 3807SOL     OW12319   1.233   0.420   4.567
 3807SOL    HW112320   1.139   0.388   4.565
 3807SOL    HW212321   1.292   0.354   4.520
 3808SOL     OW12322   3.182   0.526   2.337
 3808SOL    HW112323   3.241   0.457   2.294
 3808SOL    HW212324   3.224   0.557   2.422
 3809SOL     OW12325   5.895   2.139   6.768
 3809SOL    HW112326   5.983   2.145   6.816
 3809SOL    HW212327   5.826   2.100   6.829
 3810SOL     OW12328   3.553   3.557   5.679
 3810SOL    HW112329   3.596   3.513   5.600
 3810SOL    HW212330   3.467   3.510   5.701
 3811SOL     OW12331   0.658   4.065   4.481
 3811SOL    HW112332   0.630   4.002   4.408
 3811SOL    HW212333   0.585   4.070   4.549
 3812SOL     OW12334   6.139   2.005   6.163
 3812SOL    HW112335   6.187   2.061   6.231
 3812SOL    HW212336   6.105   1.922   6.207
 3813SOL     OW12337   3.894   4.959   1.322
 3813SOL    HW112338   3.992   4.940   1.323
 3813SOL    HW212339   3.843   4.873   1.321
 3814SOL     OW12340   0.063   5.976   1.165
 3814SOL    HW112341   0.145   6.033   1.171
 3814SOL    HW212342   0.062   5.911   1.242
 3815SOL     OW12343   4.930   2.123   1.142
 3815SOL    HW112344   4.954   2.131   1.239
 3815SOL    HW212345   4.831   2.109   1.134
 3816SOL     OW12346   6.402   6.369   2.058
 3816SOL    HW112347   6.495   6.406   2.058
 3816SOL    HW212348   6.373   6.352   2.152
 3817SOL     OW12349   4.525   2.358   4.275
 3817SOL    HW112350   4.571   2.401   4.353
 3817SOL    HW212351   4.586   2.357   4.196
 3818SOL     OW12352   4.459   6.613   2.505
 3818SOL    HW112353   4.420   6.699   2.538
 3818SOL    HW212354   4.422   6.537   2.558
 3819SOL     OW12355   5.849   5.601   0.271
 3819SOL    HW112356   5.800   5.595   0.358
 3819SOL    HW212357   5.791   5.649   0.204
 3820SOL     OW12358   5.933   5.978   3.802
 3820SOL    HW112359   5.980   6.010   3.720
 3820SOL    HW212360   5.886   6.055   3.845
 3821SOL     OW12361   1.814   3.505   1.845
 3821SOL    HW112362   1.728   3.489   1.798
 3821SOL    HW212363   1.868   3.573   1.795
 3822SOL     OW12364   1.865   5.384   2.048
 3822SOL    HW112365   1.841   5.299   2.001
 3822SOL    HW212366   1.843   5.377   2.145
 3823SOL     OW12367   3.760   2.186   5.108
 3823SOL    HW112368   3.694   2.114   5.132
 3823SOL    HW212369   3.760   2.256   5.179
 3824SOL     OW12370   6.107   2.133   5.687
 3824SOL    HW112371   6.127   2.189   5.767
 3824SOL    HW212372   6.159   2.048   5.692
 3825SOL     OW12373   6.687   0.251   7.004
 3825SOL    HW112374   6.691   0.248   0.084
 3825SOL    HW212375   6.619   0.318   6.975
 3826SOL     OW12376   0.236   3.758   0.742
 3826SOL    HW112377   0.334   3.741   0.729
 3826SOL    HW212378   0.223   3.847   0.785
 3827SOL     OW12379   3.815   4.579   0.751
 3827SOL    HW112380   3.751   4.518   0.703
 3827SOL    HW212381   3.890   4.604   0.690
 3828SOL     OW12382   4.673   2.076   1.086
 3828SOL    HW112383   4.606   2.149   1.100
 3828SOL    HW212384   4.648   2.022   1.006
 3829SOL     OW12385   2.337   5.017   3.459
 3829SOL    HW112386   2.262   5.035   3.523
 3829SOL    HW212387   2.423   5.013   3.510
 3830SOL     OW12388   1.726   0.276   5.183
 3830SOL    HW112389   1.714   0.318   5.273
 3830SOL    HW212390   1.815   0.303   5.146
 3831SOL     OW12391   3.844   1.635   2.515
 3831SOL    HW112392   3.829   1.543   2.477
 3831SOL    HW212393   3.909   1.684   2.457
 3832SOL     OW12394   6.251   1.149   1.669
 3832SOL    HW112395   6.337   1.185   1.633
 3832SOL    HW212396   6.270   1.091   1.748
 3833SOL     OW12397   0.680   4.646   0.387
 3833SOL    HW112398   0.615   4.621   0.458
 3833SOL    HW212399   0.630   4.676   0.306
 3834SOL     OW12400   2.750   1.818   0.711
 3834SOL    HW112401   2.726   1.890   0.646
 3834SOL    HW212402   2.826   1.764   0.674
 3835SOL     OW12403   3.718   5.723   5.541
 3835SOL    HW112404   3.663   5.763   5.468
 3835SOL    HW212405   3.811   5.706   5.508
 3836SOL     OW12406   1.923   4.043   5.873
 3836SOL    HW112407   1.960   3.952   5.856
 3836SOL    HW212408   1.990   4.112   5.844
 3837SOL     OW12409   4.444   3.461   0.097
 3837SOL    HW112410   4.344   3.467   0.108
 3837SOL    HW212411   4.481   3.396   0.163
 3838SOL     OW12412   5.226   2.212   4.260
 3838SOL    HW112413   5.197   2.154   4.336
 3838SOL    HW212414   5.229   2.158   4.176
 3839SOL     OW12415   5.952   0.003   5.296
 3839SOL    HW112416   5.908   6.997   5.382
 3839SOL    HW212417   6.037   6.971   5.286
 3840SOL     OW12418   1.179   0.986   4.944
 3840SOL    HW112419   1.262   1.026   4.980
 3840SOL    HW212420   1.197   0.892   4.913
 3841SOL     OW12421   1.132   4.134   4.937
 3841SOL    HW112422   1.116   4.084   4.852
 3841SOL    HW212423   1.181   4.075   5.001
 3842SOL     OW12424   0.583   5.288   6.939
 3842SOL    HW112425   0.485   5.308   6.941
 3842SOL    HW212426   0.607   5.233   7.019
 3843SOL     OW12427   6.574   3.436   0.515
 3843SOL    HW112428   6.655   3.457   0.570
 3843SOL    HW212429   6.573   3.338   0.494
 3844SOL     OW12430   1.781   5.399   5.749
 3844SOL    HW112431   1.809   5.449   5.667
 3844SOL    HW212432   1.702   5.342   5.728
 3845SOL     OW12433   3.941   3.164   3.314
 3845SOL    HW112434   3.979   3.158   3.406
 3845SOL    HW212435   4.009   3.205   3.253
 3846SOL     OW12436   6.933   4.446   4.217
 3846SOL    HW112437   6.979   4.380   4.276
 3846SOL    HW212438   6.948   4.421   4.121
 3847SOL     OW12439   6.664   0.671   6.365
 3847SOL    HW112440   6.630   0.647   6.456
 3847SOL    HW212441   6.706   0.762   6.369
 3848SOL     OW12442   2.146   5.148   2.188
 3848SOL    HW112443   2.107   5.147   2.280
 3848SOL    HW212444   2.080   5.107   2.125
 3849SOL     OW12445   0.705   1.660   5.460
 3849SOL    HW112446   0.607   1.649   5.479
 3849SOL    HW212447   0.737   1.583   5.405
 3850SOL     OW12448   2.904   3.775   1.948
 3850SOL    HW112449   2.960   3.700   1.913
 3850SOL    HW212450   2.863   3.747   2.035
 3851SOL     OW12451   2.097   3.758   3.290
 3851SOL    HW112452   2.155   3.824   3.240
 3851SOL    HW212453   2.143   3.730   3.374
 3852SOL     OW12454   4.778   1.038   4.860
 3852SOL    HW112455   4.694   1.075   4.901
 3852SOL    HW212456   4.840   1.007   4.932
 3853SOL     OW12457   1.265   3.207   2.123
 3853SOL    HW112458   1.171   3.195   2.093
 3853SOL    HW212459   1.277   3.166   2.213
 3854SOL     OW12460   1.178   3.139   4.268
 3854SOL    HW112461   1.206   3.228   4.305
 3854SOL    HW212462   1.093   3.110   4.311
 3855SOL     OW12463   6.218   4.379   5.817
 3855SOL    HW112464   6.191   4.287   5.787
 3855SOL    HW212465   6.138   4.438   5.821
 3856SOL     OW12466   6.727   0.170   6.008
 3856SOL    HW112467   6.746   0.127   5.921
 3856SOL    HW212468   6.707   0.267   5.994
 3857SOL     OW12469   0.924   6.498   4.958
 3857SOL    HW112470   0.896   6.569   4.894
 3857SOL    HW212471   0.897   6.408   4.923
 3858SOL     OW12472   1.441   5.820   6.271
 3858SOL    HW112473   1.463   5.902   6.218
 3858SOL    HW212474   1.516   5.754   6.263
 3859SOL     OW12475   0.140   2.642   3.417
 3859SOL    HW112476   0.184   2.575   3.357
 3859SOL    HW212477   0.187   2.730   3.409
 3860SOL     OW12478   2.414   5.757   5.787
 3860SOL    HW112479   2.454   5.684   5.842
 3860SOL    HW212480   2.324   5.728   5.754
 3861SOL     OW12481   4.867   4.602   1.533
 3861SOL    HW112482   4.862   4.613   1.633
 3861SOL    HW212483   4.880   4.506   1.511
 3862SOL     OW12484   0.903   6.612   5.901
 3862SOL    HW112485   0.973   6.573   5.960
 3862SOL    HW212486   0.846   6.675   5.954
 3863SOL     OW12487   3.370   3.596   1.131
 3863SOL    HW112488   3.340   3.668   1.069
 3863SOL    HW212489   3.322   3.604   1.218
 3864SOL     OW12490   3.632   1.622   6.548
 3864SOL    HW112491   3.657   1.709   6.506
 3864SOL    HW212492   3.710   1.588   6.601
 3865SOL     OW12493   4.041   0.367   1.933
 3865SOL    HW112494   4.080   0.460   1.938
 3865SOL    HW212495   4.064   0.318   2.017
 3866SOL     OW12496   3.797   6.923   0.915
 3866SOL    HW112497   3.798   6.898   1.012
 3866SOL    HW212498   3.702   6.938   0.886
 3867SOL     OW12499   2.144   3.499   3.204
 3867SOL    HW112500   2.125   3.584   3.253
 3867SOL    HW212501   2.178   3.431   3.268
 3868SOL     OW12502   2.774   7.019   1.823
 3868SOL    HW112503   2.717   6.969   1.888
 3868SOL    HW212504   2.762   0.097   1.837
 3869SOL     OW12505   0.477   2.804   3.394
 3869SOL    HW112506   0.389   2.849   3.382
 3869SOL    HW212507   0.473   2.741   3.471
 3870SOL     OW12508   2.985   5.355   0.078
 3870SOL    HW112509   3.049   5.280   0.065
 3870SOL    HW212510   3.022   5.438   0.036
 3871SOL     OW12511   3.044   0.050   3.201
 3871SOL    HW112512   3.103   0.054   3.120
 3871SOL    HW212513   3.060   0.131   3.258
 3872SOL     OW12514   3.948   3.982   1.222
 3872SOL    HW112515   3.951   4.081   1.213
 3872SOL    HW212516   4.002   3.954   1.302
 3873SOL     OW12517   5.472   4.945   1.573
 3873SOL    HW112518   5.477   4.848   1.552
 3873SOL    HW212519   5.379   4.978   1.559
 3874SOL     OW12520   3.917   6.521   0.376
 3874SOL    HW112521   3.994   6.475   0.332
 3874SOL    HW212522   3.888   6.468   0.456
 3875SOL     OW12523   1.591   4.032   1.428
 3875SOL    HW112524   1.542   3.976   1.496
 3875SOL    HW212525   1.660   4.087   1.474
 3876SOL     OW12526   5.628   4.434   4.480
 3876SOL    HW112527   5.545   4.388   4.511
 3876SOL    HW212528   5.621   4.452   4.382
 3877SOL     OW12529   6.281   1.233   2.533
 3877SOL    HW112530   6.370   1.240   2.579
 3877SOL    HW212531   6.271   1.142   2.494
 3878SOL     OW12532   4.149   6.844   6.460
 3878SOL    HW112533   4.161   6.744   6.459
 3878SOL    HW212534   4.195   6.884   6.381
 3879SOL     OW12535   4.079   5.240   1.696
 3879SOL    HW112536   3.986   5.215   1.726
 3879SOL    HW212537   4.074   5.321   1.638
 3880SOL     OW12538   5.800   3.015   3.282
 3880SOL    HW112539   5.819   3.023   3.184
 3880SOL    HW212540   5.824   2.923   3.313
 3881SOL     OW12541   1.115   4.632   0.639
 3881SOL    HW112542   1.066   4.676   0.714
 3881SOL    HW212543   1.178   4.564   0.675
 3882SOL     OW12544   6.623   1.357   5.468
 3882SOL    HW112545   6.678   1.424   5.518
 3882SOL    HW212546   6.526   1.370   5.492
 3883SOL     OW12547   4.058   0.534   4.528
 3883SOL    HW112548   4.017   0.562   4.441
 3883SOL    HW212549   4.014   0.583   4.603
 3884SOL     OW12550   1.788   5.906   5.651
 3884SOL    HW112551   1.888   5.904   5.646
 3884SOL    HW212552   1.752   5.971   5.584
 3885SOL     OW12553   6.628   1.134   3.683
 3885SOL    HW112554   6.582   1.051   3.654
 3885SOL    HW212555   6.646   1.130   3.782
 3886SOL     OW12556   6.910   6.832   5.129
 3886SOL    HW112557   6.978   6.781   5.181
 3886SOL    HW212558   6.956   6.896   5.067
 3887SOL     OW12559   4.447   1.769   5.653
 3887SOL    HW112560   4.449   1.793   5.556
 3887SOL    HW212561   4.539   1.748   5.685
 3888SOL     OW12562   6.638   1.487   0.768
 3888SOL    HW112563   6.652   1.513   0.672
 3888SOL    HW212564   6.628   1.388   0.774
 3889SOL     OW12565   0.867   6.320   6.516
 3889SOL    HW112566   0.856   6.260   6.437
 3889SOL    HW212567   0.839   6.413   6.491
 3890SOL     OW12568   6.033   5.086   3.160
 3890SOL    HW112569   6.067   5.056   3.249
 3890SOL    HW212570   6.069   5.025   3.089
 3891SOL     OW12571   5.395   5.271   5.024
 3891SOL    HW112572   5.424   5.303   4.933
 3891SOL    HW212573   5.454   5.195   5.052
 3892SOL     OW12574   5.532   6.627   2.970
 3892SOL    HW112575   5.542   6.673   2.882
 3892SOL    HW212576   5.620   6.589   2.999
 3893SOL     OW12577   3.463   5.703   4.384
 3893SOL    HW112578   3.415   5.766   4.323
 3893SOL    HW212579   3.479   5.616   4.337
 3894SOL     OW12580   4.623   3.693   0.114
 3894SOL    HW112581   4.627   3.729   0.208
 3894SOL    HW212582   4.530   3.663   0.094
 3895SOL     OW12583   2.549   1.672   5.769
 3895SOL    HW112584   2.532   1.747   5.833
 3895SOL    HW212585   2.509   1.695   5.680
 3896SOL     OW12586   7.001   3.232   5.499
 3896SOL    HW112587   0.073   3.269   5.493
 3896SOL    HW212588   6.982   3.206   5.594
 3897SOL     OW12589   3.785   0.187   2.041
 3897SOL    HW112590   3.839   0.198   2.125
 3897SOL    HW212591   3.746   0.095   2.039
 3898SOL     OW12592   4.090   3.800   4.035
 3898SOL    HW112593   4.019   3.814   4.104
 3898SOL    HW212594   4.179   3.792   4.081
 3899SOL     OW12595   4.708   1.686   5.710
 3899SOL    HW112596   4.742   1.728   5.626
 3899SOL    HW212597   4.755   1.726   5.788
 3900SOL     OW12598   6.420   2.421   3.099
 3900SOL    HW112599   6.360   2.484   3.148
 3900SOL    HW212600   6.501   2.470   3.067
 3901SOL     OW12601   1.792   6.950   5.423
 3901SOL    HW112602   1.729   6.983   5.353
 3901SOL    HW212603   1.848   0.007   5.455
 3902SOL     OW12604   4.192   4.910   1.336
 3902SOL    HW112605   4.245   4.919   1.421
 3902SOL    HW212606   4.248   4.866   1.266
 3903SOL     OW12607   4.598   2.918   6.736
 3903SOL    HW112608   4.507   2.876   6.731
 3903SOL    HW212609   4.667   2.846   6.733
 3904SOL     OW12610   1.341   6.309   0.604
 3904SOL    HW112611   1.322   6.246   0.529
 3904SOL    HW212612   1.293   6.278   0.686
 3905SOL     OW12613   6.819   0.484   5.623
 3905SOL    HW112614   6.815   0.583   5.627
 3905SOL    HW212615   6.729   0.445   5.644
 3906SOL     OW12616   1.714   4.780   4.040
 3906SOL    HW112617   1.716   4.792   3.940
 3906SOL    HW212618   1.797   4.819   4.079
 3907SOL     OW12619   6.923   1.231   3.828
 3907SOL    HW112620   6.872   1.256   3.746
 3907SOL    HW212621   6.866   1.174   3.887
 3908SOL     OW12622   1.278   0.587   5.115
 3908SOL    HW112623   1.224   0.530   5.177
 3908SOL    HW212624   1.349   0.532   5.071
 3909SOL     OW12625   5.662   3.087   6.424
 3909SOL    HW112626   5.616   3.079   6.335
 3909SOL    HW212627   5.645   3.178   6.461
 3910SOL     OW12628   3.532   1.741   0.135
 3910SOL    HW112629   3.591   1.736   0.215
 3910SOL    HW212630   3.448   1.689   0.152
 3911SOL     OW12631   6.798   0.803   0.887
 3911SOL    HW112632   6.763   0.798   0.980
 3911SOL    HW212633   6.827   0.896   0.867
 3912SOL     OW12634   4.076   1.444   0.598
 3912SOL    HW112635   4.173   1.446   0.574
 3912SOL    HW212636   4.064   1.408   0.690
 3913SOL     OW12637   4.995   5.062   0.497
 3913SOL    HW112638   5.067   5.119   0.535
 3913SOL    HW212639   4.968   4.993   0.565
 3914SOL     OW12640   5.845   1.477   0.762
 3914SOL    HW112641   5.826   1.523   0.675
 3914SOL    HW212642   5.799   1.526   0.836
 3915SOL     OW12643   4.396   5.317   6.557
 3915SOL    HW112644   4.364   5.379   6.485
 3915SOL    HW212645   4.342   5.332   6.639
 3916SOL     OW12646   1.940   1.819   1.889
 3916SOL    HW112647   1.976   1.742   1.940
 3916SOL    HW212648   1.932   1.795   1.792
 3917SOL     OW12649   2.865   5.284   1.128
 3917SOL    HW112650   2.838   5.208   1.187
 3917SOL    HW212651   2.951   5.324   1.161
 3918SOL     OW12652   5.142   0.637   0.910
 3918SOL    HW112653   5.215   0.574   0.936
 3918SOL    HW212654   5.126   0.631   0.811
 3919SOL     OW12655   3.465   0.620   2.096
 3919SOL    HW112656   3.559   0.598   2.123
 3919SOL    HW212657   3.435   0.558   2.024
 3920SOL     OW12658   2.939   1.271   5.628
 3920SOL    HW112659   2.843   1.269   5.657
 3920SOL    HW212660   2.982   1.183   5.649
 3921SOL     OW12661   0.246   2.887   6.088
 3921SOL    HW112662   0.327   2.934   6.122
 3921SOL    HW212663   0.164   2.934   6.122
 3922SOL     OW12664   5.499   4.426   3.055
 3922SOL    HW112665   5.564   4.500   3.038
 3922SOL    HW212666   5.476   4.381   2.969
 3923SOL     OW12667   5.897   1.136   1.279
 3923SOL    HW112668   5.885   1.149   1.378
 3923SOL    HW212669   5.841   1.202   1.230
 3924SOL     OW12670   5.763   5.247   4.520
 3924SOL    HW112671   5.691   5.246   4.451
 3924SOL    HW212672   5.852   5.231   4.476
 3925SOL     OW12673   4.744   3.732   0.883
 3925SOL    HW112674   4.775   3.663   0.947
 3925SOL    HW212675   4.822   3.785   0.850
 3926SOL     OW12676   0.781   6.810   6.121
 3926SOL    HW112677   0.857   6.761   6.166
 3926SOL    HW212678   0.769   6.899   6.164
 3927SOL     OW12679   5.819   2.882   5.114
 3927SOL    HW112680   5.825   2.982   5.124
 3927SOL    HW212681   5.771   2.861   5.029
 3928SOL     OW12682   2.526   6.181   2.387
 3928SOL    HW112683   2.500   6.272   2.420
 3928SOL    HW212684   2.515   6.114   2.461
 3929SOL     OW12685   0.245   2.438   5.079
 3929SOL    HW112686   0.173   2.426   5.148
 3929SOL    HW212687   0.224   2.381   5.000
 3930SOL     OW12688   0.373   4.206   3.709
 3930SOL    HW112689   0.402   4.300   3.726
 3930SOL    HW212690   0.408   4.147   3.782
 3931SOL     OW12691   1.877   2.201   1.437
 3931SOL    HW112692   1.850   2.273   1.501
 3931SOL    HW212693   1.801   2.137   1.424
 3932SOL     OW12694   2.200   5.290   4.119
 3932SOL    HW112695   2.176   5.345   4.039
 3932SOL    HW212696   2.298   5.294   4.134
 3933SOL     OW12697   2.043   5.406   1.160
 3933SOL    HW112698   2.128   5.389   1.209
 3933SOL    HW212699   2.014   5.323   1.112
 3934SOL     OW12700   0.703   1.358   1.096
 3934SOL    HW112701   0.740   1.401   1.179
 3934SOL    HW212702   0.621   1.408   1.066
 3935SOL     OW12703   6.195   3.482   6.736
 3935SOL    HW112704   6.227   3.569   6.698
 3935SOL    HW212705   6.231   3.472   6.829
 3936SOL     OW12706   0.814   4.780   5.316
 3936SOL    HW112707   0.716   4.760   5.306
 3936SOL    HW212708   0.825   4.867   5.364
 3937SOL     OW12709   6.954   0.053   2.176
 3937SOL    HW112710   6.903   0.068   2.091
 3937SOL    HW212711   0.029   0.079   2.163
 3938SOL     OW12712   0.466   4.313   2.812
 3938SOL    HW112713   0.374   4.278   2.801
 3938SOL    HW212714   0.530   4.237   2.827
 3939SOL     OW12715   1.473   0.946   2.104
 3939SOL    HW112716   1.560   0.990   2.127
 3939SOL    HW212717   1.419   0.933   2.188
 3940SOL     OW12718   3.557   5.582   1.851
 3940SOL    HW112719   3.629   5.578   1.921
 3940SOL    HW212720   3.597   5.606   1.763
 3941SOL     OW12721   5.241   6.681   3.300
 3941SOL    HW112722   5.329   6.727   3.309
 3941SOL    HW212723   5.207   6.656   3.391
 3942SOL     OW12724   7.001   5.769   5.598
 3942SOL    HW112725   0.080   5.764   5.586
 3942SOL    HW212726   6.977   5.740   5.691
 3943SOL     OW12727   1.679   2.542   6.844
 3943SOL    HW112728   1.663   2.620   6.906
 3943SOL    HW212729   1.695   2.460   6.898
 3944SOL     OW12730   5.741   2.440   6.968
 3944SOL    HW112731   5.818   2.395   6.923
 3944SOL    HW212732   5.754   2.539   6.965
 3945SOL     OW12733   6.295   0.352   3.393
 3945SOL    HW112734   6.227   0.376   3.463
 3945SOL    HW212735   6.373   0.414   3.399
 3946SOL     OW12736   1.132   3.004   0.651
 3946SOL    HW112737   1.099   2.911   0.633
 3946SOL    HW212738   1.069   3.051   0.712
 3947SOL     OW12739   5.566   4.739   2.257
 3947SOL    HW112740   5.619   4.780   2.183
 3947SOL    HW212741   5.469   4.738   2.233
 3948SOL     OW12742   1.002   2.404   6.263
 3948SOL    HW112743   0.955   2.319   6.287
 3948SOL    HW212744   0.996   2.419   6.164
 3949SOL     OW12745   5.657   6.755   2.300
 3949SOL    HW112746   5.613   6.799   2.222
 3949SOL    HW212747   5.692   6.825   2.363
 3950SOL     OW12748   2.889   4.596   1.619
 3950SOL    HW112749   2.889   4.550   1.708
 3950SOL    HW212750   2.818   4.557   1.561
 3951SOL     OW12751   0.824   2.657   5.386
 3951SOL    HW112752   0.743   2.659   5.445
 3951SOL    HW212753   0.896   2.714   5.426
 3952SOL     OW12754   5.838   3.782   6.051
 3952SOL    HW112755   5.774   3.856   6.070
 3952SOL    HW212756   5.801   3.696   6.085
 3953SOL     OW12757   3.466   3.963   6.660
 3953SOL    HW112758   3.430   3.904   6.588
 3953SOL    HW212759   3.534   4.025   6.622
 3954SOL     OW12760   0.506   3.323   5.351
 3954SOL    HW112761   0.597   3.362   5.367
 3954SOL    HW212762   0.501   3.285   5.259
 3955SOL     OW12763   6.396   4.667   0.122
 3955SOL    HW112764   6.408   4.718   0.208
 3955SOL    HW212765   6.483   4.625   0.096
 3956SOL     OW12766   0.852   3.045   5.645
 3956SOL    HW112767   0.886   2.984   5.573
 3956SOL    HW212768   0.881   3.139   5.625
 3957SOL     OW12769   1.201   1.252   2.380
 3957SOL    HW112770   1.262   1.192   2.432
 3957SOL    HW212771   1.118   1.269   2.434
 3958SOL     OW12772   5.495   6.588   5.465
 3958SOL    HW112773   5.516   6.671   5.515
 3958SOL    HW212774   5.535   6.593   5.373
 3959SOL     OW12775   2.278   4.912   0.464
 3959SOL    HW112776   2.376   4.892   0.461
 3959SOL    HW212777   2.260   4.996   0.413
 3960SOL     OW12778   4.226   3.285   0.380
 3960SOL    HW112779   4.214   3.279   0.281
 3960SOL    HW212780   4.180   3.366   0.415
 3961SOL     OW12781   5.669   0.912   2.192
 3961SOL    HW112782   5.764   0.882   2.190
 3961SOL    HW212783   5.615   0.850   2.249
 3962SOL     OW12784   0.401   0.003   6.458
 3962SOL    HW112785   0.391   0.055   6.543
 3962SOL    HW212786   0.497   0.004   6.429
 3963SOL     OW12787   5.194   5.676   3.240
 3963SOL    HW112788   5.151   5.752   3.191
 3963SOL    HW212789   5.222   5.606   3.175
 3964SOL     OW12790   5.692   6.375   5.308
 3964SOL    HW112791   5.599   6.395   5.339
 3964SOL    HW212792   5.741   6.325   5.380
 3965SOL     OW12793   3.881   3.379   6.978
 3965SOL    HW112794   3.871   3.392   0.057
 3965SOL    HW212795   3.887   3.468   6.934
 3966SOL     OW12796   5.638   3.516   5.098
 3966SOL    HW112797   5.551   3.513   5.048
 3966SOL    HW212798   5.630   3.464   5.182
 3967SOL     OW12799   0.755   5.528   6.316
 3967SOL    HW112800   0.745   5.616   6.270
 3967SOL    HW212801   0.731   5.455   6.253
 3968SOL     OW12802   5.940   0.346   1.606
 3968SOL    HW112803   5.845   0.370   1.628
 3968SOL    HW212804   5.969   0.271   1.667
 3969SOL     OW12805   0.045   5.481   1.528
 3969SOL    HW112806   0.097   5.467   1.444
 3969SOL    HW212807   6.968   5.465   1.510
 3970SOL     OW12808   4.784   4.584   3.194
 3970SOL    HW112809   4.820   4.504   3.243
 3970SOL    HW212810   4.763   4.656   3.260
 3971SOL     OW12811   1.517   5.200   3.801
 3971SOL    HW112812   1.593   5.185   3.737
 3971SOL    HW212813   1.432   5.172   3.758
 3972SOL     OW12814   1.536   6.849   0.316
 3972SOL    HW112815   1.455   6.834   0.374
 3972SOL    HW212816   1.559   6.763   0.270
 3973SOL     OW12817   2.921   3.325   3.882
 3973SOL    HW112818   2.833   3.364   3.853
 3973SOL    HW212819   2.955   3.264   3.811
 3974SOL     OW12820   6.093   1.841   6.543
 3974SOL    HW112821   6.030   1.812   6.471
 3974SOL    HW212822   6.165   1.772   6.553
 3975SOL     OW12823   6.629   1.234   5.872
 3975SOL    HW112824   6.622   1.330   5.845
 3975SOL    HW212825   6.711   1.194   5.832
 3976SOL     OW12826   1.028   3.470   0.127
 3976SOL    HW112827   1.072   3.411   0.061
 3976SOL    HW212828   1.024   3.564   0.091
 3977SOL     OW12829   3.909   6.091   6.775
 3977SOL    HW112830   3.872   5.999   6.782
 3977SOL    HW212831   3.835   6.155   6.754
 3978SOL     OW12832   5.844   3.570   6.472
 3978SOL    HW112833   5.889   3.502   6.531
 3978SOL    HW212834   5.888   3.659   6.486
 3979SOL     OW12835   0.993   6.887   3.406
 3979SOL    HW112836   0.895   6.880   3.421
 3979SOL    HW212837   1.024   6.808   3.353
 3980SOL     OW12838   5.424   2.720   4.013
 3980SOL    HW112839   5.366   2.788   4.058
 3980SOL    HW212840   5.515   2.759   3.999
 3981SOL     OW12841   6.806   2.118   6.522
 3981SOL    HW112842   6.848   2.029   6.539
 3981SOL    HW212843   6.867   2.172   6.464
 3982SOL     OW12844   2.552   1.741   3.797
 3982SOL    HW112845   2.608   1.665   3.764
 3982SOL    HW212846   2.602   1.791   3.868
 3983SOL     OW12847   3.151   6.122   4.321
 3983SOL    HW112848   3.134   6.145   4.225
 3983SOL    HW212849   3.116   6.195   4.379
 3984SOL     OW12850   1.851   6.762   1.969
 3984SOL    HW112851   1.824   6.742   1.875
 3984SOL    HW212852   1.769   6.779   2.024
 3985SOL     OW12853   1.921   2.795   1.695
 3985SOL    HW112854   1.980   2.715   1.696
 3985SOL    HW212855   1.966   2.871   1.742
 3986SOL     OW12856   0.524   2.571   1.859
 3986SOL    HW112857   0.488   2.575   1.953
 3986SOL    HW212858   0.508   2.479   1.822
 3987SOL     OW12859   2.608   4.456   6.839
 3987SOL    HW112860   2.661   4.376   6.865
 3987SOL    HW212861   2.512   4.441   6.860
 3988SOL     OW12862   3.735   2.636   0.585
 3988SOL    HW112863   3.706   2.605   0.494
 3988SOL    HW212864   3.833   2.619   0.595
 3989SOL     OW12865   4.941   6.919   6.466
 3989SOL    HW112866   4.983   6.829   6.479
 3989SOL    HW212867   4.852   6.921   6.511
 3990SOL     OW12868   1.110   2.972   3.687
 3990SOL    HW112869   1.041   3.034   3.725
 3990SOL    HW212870   1.192   2.975   3.745
 3991SOL     OW12871   0.537   1.723   4.190
 3991SOL    HW112872   0.599   1.791   4.231
 3991SOL    HW212873   0.581   1.682   4.110
 3992SOL     OW12874   4.248   3.520   6.646
 3992SOL    HW112875   4.329   3.515   6.704
 3992SOL    HW212876   4.268   3.483   6.556
 3993SOL     OW12877   2.504   2.588   2.675
 3993SOL    HW112878   2.493   2.615   2.771
 3993SOL    HW212879   2.434   2.632   2.619
 3994SOL     OW12880   2.463   2.537   3.656
 3994SOL    HW112881   2.446   2.628   3.696
 3994SOL    HW212882   2.386   2.513   3.596
 3995SOL     OW12883   1.877   3.708   2.524
 3995SOL    HW112884   1.950   3.724   2.591
 3995SOL    HW212885   1.901   3.629   2.468
 3996SOL     OW12886   6.117   0.865   3.012
 3996SOL    HW112887   6.172   0.830   3.088
 3996SOL    HW212888   6.104   0.964   3.023
 3997SOL     OW12889   5.687   3.854   2.782
 3997SOL    HW112890   5.646   3.941   2.754
 3997SOL    HW212891   5.616   3.784   2.789
 3998SOL     OW12892   6.278   1.803   2.948
 3998SOL    HW112893   6.235   1.802   2.857
 3998SOL    HW212894   6.358   1.861   2.946
 3999SOL     OW12895   5.400   3.105   2.594
 3999SOL    HW112896   5.338   3.173   2.634
 3999SOL    HW212897   5.494   3.126   2.622
 4000SOL     OW12898   2.964   5.837   1.985
 4000SOL    HW112899   2.878   5.873   1.949
 4000SOL    HW212900   2.965   5.846   2.084
 4001SOL     OW12901   2.364   4.161   5.342
 4001SOL    HW112902   2.390   4.234   5.278
 4001SOL    HW212903   2.367   4.073   5.295
 4002SOL     OW12904   3.443   2.905   4.082
 4002SOL    HW112905   3.479   2.988   4.125
 4002SOL    HW212906   3.346   2.918   4.060
 4003SOL     OW12907   1.956   0.671   5.385
 4003SOL    HW112908   1.881   0.607   5.396
 4003SOL    HW212909   1.960   0.732   5.465
 4004SOL     OW12910   0.344   3.951   3.604
 4004SOL    HW112911   0.352   4.047   3.632
 4004SOL    HW212912   0.297   3.900   3.676
 4005SOL     OW12913   4.480   3.848   1.342
 4005SOL    HW112914   4.390   3.881   1.313
 4005SOL    HW212915   4.475   3.818   1.437
 4006SOL     OW12916   5.013   5.295   3.233
 4006SOL    HW112917   4.977   5.204   3.255
 4006SOL    HW212918   5.103   5.306   3.276
 4007SOL     OW12919   0.112   1.624   2.671
 4007SOL    HW112920   0.143   1.645   2.764
 4007SOL    HW212921   0.145   1.533   2.645
 4008SOL     OW12922   2.223   0.063   0.676
 4008SOL    HW112923   2.219   0.163   0.688
 4008SOL    HW212924   2.317   0.036   0.657
 4009SOL     OW12925   4.339   1.986   0.722
 4009SOL    HW112926   4.323   2.054   0.793
 4009SOL    HW212927   4.332   2.029   0.632
 4010SOL     OW12928   2.479   5.072   1.452
 4010SOL    HW112929   2.478   5.134   1.530
 4010SOL    HW212930   2.532   5.111   1.377
 4011SOL     OW12931   6.442   5.974   0.664
 4011SOL    HW112932   6.410   5.997   0.572
 4011SOL    HW212933   6.533   6.013   0.678
 4012SOL     OW12934   3.797   6.933   2.279
 4012SOL    HW112935   3.854   6.970   2.352
 4012SOL    HW212936   3.830   6.842   2.253
 4013SOL     OW12937   1.461   1.295   0.769
 4013SOL    HW112938   1.387   1.363   0.766
 4013SOL    HW212939   1.434   1.215   0.716
 4014SOL     OW12940   2.509   5.190   3.940
 4014SOL    HW112941   2.517   5.238   3.853
 4014SOL    HW212942   2.556   5.102   3.935
 4015SOL     OW12943   4.489   4.892   6.335
 4015SOL    HW112944   4.392   4.914   6.347
 4015SOL    HW212945   4.513   4.814   6.393
 4016SOL     OW12946   3.768   6.120   5.989
 4016SOL    HW112947   3.752   6.175   6.071
 4016SOL    HW212948   3.847   6.157   5.940
 4017SOL     OW12949   0.882   5.663   5.964
 4017SOL    HW112950   0.889   5.734   5.894
 4017SOL    HW212951   0.810   5.598   5.939
 4018SOL     OW12952   4.082   6.067   2.170
 4018SOL    HW112953   4.155   6.107   2.115
 4018SOL    HW212954   4.029   6.004   2.114
 4019SOL     OW12955   4.864   3.103   2.594
 4019SOL    HW112956   4.811   3.170   2.542
 4019SOL    HW212957   4.959   3.134   2.602
 4020SOL     OW12958   6.717   4.266   4.846
 4020SOL    HW112959   6.764   4.341   4.894
 4020SOL    HW212960   6.749   4.179   4.883
 4021SOL     OW12961   3.534   3.709   5.908
 4021SOL    HW112962   3.509   3.803   5.884
 4021SOL    HW212963   3.541   3.654   5.825
 4022SOL     OW12964   2.710   0.465   0.692
 4022SOL    HW112965   2.650   0.410   0.750
 4022SOL    HW212966   2.803   0.429   0.697
 4023SOL     OW12967   0.019   2.582   5.606
 4023SOL    HW112968   7.015   2.676   5.631
 4023SOL    HW212969   0.051   2.579   5.512
 4024SOL     OW12970   0.865   4.936   3.593
 4024SOL    HW112971   0.837   4.860   3.535
 4024SOL    HW212972   0.928   4.903   3.664
 4025SOL     OW12973   1.194   5.952   3.977
 4025SOL    HW112974   1.262   5.969   4.049
 4025SOL    HW212975   1.184   5.853   3.964
 4026SOL     OW12976   0.011   6.379   3.983
 4026SOL    HW112977   0.086   6.398   4.046
 4026SOL    HW212978   6.948   6.358   4.035
 4027SOL     OW12979   2.314   3.239   5.952
 4027SOL    HW112980   2.349   3.188   5.874
 4027SOL    HW212981   2.384   3.302   5.985
 4028SOL     OW12982   5.020   1.721   2.817
 4028SOL    HW112983   5.011   1.621   2.815
 4028SOL    HW212984   4.941   1.762   2.771
 4029SOL     OW12985   2.769   4.648   6.711
 4029SOL    HW112986   2.738   4.581   6.778
 4029SOL    HW212987   2.751   4.614   6.619
 4030SOL     OW12988   6.733   0.950   2.073
 4030SOL    HW112989   6.754   1.047   2.063
 4030SOL    HW212990   6.764   0.901   1.992
 4031SOL     OW12991   5.447   0.165   2.033
 4031SOL    HW112992   5.349   0.181   2.045
 4031SOL    HW212993   5.467   0.068   2.047
 4032SOL     OW12994   6.125   6.870   1.203
 4032SOL    HW112995   6.057   6.925   1.153
 4032SOL    HW212996   6.129   6.778   1.164
 4033SOL     OW12997   3.311   2.058   2.391
 4033SOL    HW112998   3.357   2.067   2.303
 4033SOL    HW212999   3.212   2.064   2.379
 4034SOL     OW13000   0.168   2.791   5.119
 4034SOL    HW113001   0.249   2.797   5.061
 4034SOL    HW213002   0.097   2.737   5.073
 4035SOL     OW13003   6.413   2.292   0.975
 4035SOL    HW113004   6.342   2.264   1.040
 4035SOL    HW213005   6.493   2.326   1.025
 4036SOL     OW13006   3.477   5.503   3.564
 4036SOL    HW113007   3.451   5.534   3.473
 4036SOL    HW213008   3.571   5.471   3.563
 4037SOL     OW13009   2.594   1.037   5.995
 4037SOL    HW113010   2.631   1.040   6.087
 4037SOL    HW213011   2.503   1.079   5.994
 4038SOL     OW13012   4.118   3.838   6.659
 4038SOL    HW113013   4.193   3.774   6.648
 4038SOL    HW213014   4.052   3.826   6.585
 4039SOL     OW13015   5.439   4.861   1.936
 4039SOL    HW113016   5.352   4.865   1.986
 4039SOL    HW213017   5.436   4.785   1.871
 4040SOL     OW13018   3.799   5.437   5.116
 4040SOL    HW113019   3.758   5.413   5.029
 4040SOL    HW213020   3.867   5.368   5.142
 4041SOL     OW13021   2.087   6.952   1.600
 4041SOL    HW113022   2.127   6.933   1.690
 4041SOL    HW213023   2.142   6.908   1.529
 4042SOL     OW13024   6.176   0.385   2.779
 4042SOL    HW113025   6.109   0.389   2.705
 4042SOL    HW213026   6.268   0.398   2.742
 4043SOL     OW13027   6.291   3.250   6.947
 4043SOL    HW113028   6.316   3.164   6.902
 4043SOL    HW213029   6.191   3.253   6.958
 4044SOL     OW13030   4.003   4.752   3.061
 4044SOL    HW113031   3.941   4.733   3.137
 4044SOL    HW213032   4.095   4.765   3.096
 4045SOL     OW13033   5.228   6.990   6.404
 4045SOL    HW113034   5.133   6.977   6.431
 4045SOL    HW213035   5.271   6.901   6.389
 4046SOL     OW13036   0.824   1.136   3.159
 4046SOL    HW113037   0.770   1.137   3.243
 4046SOL    HW213038   0.910   1.086   3.174
 4047SOL     OW13039   2.464   3.030   6.708
 4047SOL    HW113040   2.450   3.075   6.797
 4047SOL    HW213041   2.397   3.064   6.643
 4048SOL     OW13042   4.759   1.136   1.968
 4048SOL    HW113043   4.801   1.057   2.012
 4048SOL    HW213044   4.739   1.114   1.873
 4049SOL     OW13045   3.823   5.755   6.563
 4049SOL    HW113046   3.874   5.674   6.532
 4049SOL    HW213047   3.774   5.795   6.486
 4050SOL     OW13048   0.719   5.999   2.525
 4050SOL    HW113049   0.669   5.923   2.482
 4050SOL    HW213050   0.697   6.002   2.622
 4051SOL     OW13051   5.219   1.084   6.476
 4051SOL    HW113052   5.122   1.100   6.494
 4051SOL    HW213053   5.273   1.112   6.555
 4052SOL     OW13054   6.646   1.810   3.046
 4052SOL    HW113055   6.710   1.823   3.121
 4052SOL    HW213056   6.569   1.753   3.076
 4053SOL     OW13057   1.303   6.070   4.748
 4053SOL    HW113058   1.356   5.998   4.703
 4053SOL    HW213059   1.264   6.131   4.679
 4054SOL     OW13060   4.776   3.905   1.280
 4054SOL    HW113061   4.851   3.844   1.306
 4054SOL    HW213062   4.689   3.858   1.292
 4055SOL     OW13063   1.698   3.717   2.113
 4055SOL    HW113064   1.776   3.656   2.128
 4055SOL    HW213065   1.620   3.664   2.078
 4056SOL     OW13066   5.739   3.669   0.617
 4056SOL    HW113067   5.700   3.762   0.614
 4056SOL    HW213068   5.770   3.649   0.710
 4057SOL     OW13069   6.454   3.089   6.739
 4057SOL    HW113070   6.400   3.146   6.677
 4057SOL    HW213071   6.513   3.028   6.685
 4058SOL     OW13072   2.599   5.519   5.041
 4058SOL    HW113073   2.550   5.486   4.961
 4058SOL    HW213074   2.665   5.450   5.071
 4059SOL     OW13075   1.003   2.791   4.129
 4059SOL    HW113076   1.082   2.741   4.094
 4059SOL    HW213077   0.922   2.768   4.074
 4060SOL     OW13078   6.186   5.982   4.634
 4060SOL    HW113079   6.171   5.905   4.695
 4060SOL    HW213080   6.172   5.953   4.539
 4061SOL     OW13081   2.544   4.822   2.060
 4061SOL    HW113082   2.513   4.889   2.127
 4061SOL    HW213083   2.533   4.859   1.968
 4062SOL     OW13084   2.450   1.364   1.772
 4062SOL    HW113085   2.460   1.450   1.722
 4062SOL    HW213086   2.403   1.381   1.858
 4063SOL     OW13087   5.786   6.665   1.098
 4063SOL    HW113088   5.809   6.569   1.079
 4063SOL    HW213089   5.828   6.692   1.185
 4064SOL     OW13090   2.151   1.784   4.910
 4064SOL    HW113091   2.095   1.703   4.893
 4064SOL    HW213092   2.097   1.851   4.961
 4065SOL     OW13093   1.428   6.973   0.049
 4065SOL    HW113094   1.470   6.941   0.134
 4065SOL    HW213095   1.484   6.944   6.991
 4066SOL     OW13096   6.299   4.000   2.650
 4066SOL    HW113097   6.251   4.069   2.703
 4066SOL    HW213098   6.243   3.918   2.643
 4067SOL     OW13099   6.181   4.178   2.816
 4067SOL    HW113100   6.177   4.255   2.880
 4067SOL    HW213101   6.133   4.100   2.855
 4068SOL     OW13102   1.656   2.495   4.414
 4068SOL    HW113103   1.715   2.428   4.369
 4068SOL    HW213104   1.713   2.560   4.465
 4069SOL     OW13105   3.625   6.113   6.465
 4069SOL    HW113106   3.550   6.144   6.524
 4069SOL    HW213107   3.610   6.018   6.440
 4070SOL     OW13108   1.156   2.964   2.917
 4070SOL    HW113109   1.155   3.035   2.988
 4070SOL    HW213110   1.239   2.972   2.862
 4071SOL     OW13111   1.718   0.472   4.394
 4071SOL    HW113112   1.810   0.485   4.357
 4071SOL    HW213113   1.700   0.375   4.405
 4072SOL     OW13114   1.248   5.252   4.596
 4072SOL    HW113115   1.284   5.300   4.676
 4072SOL    HW213116   1.282   5.158   4.597
 4073SOL     OW13117   1.822   5.212   6.775
 4073SOL    HW113118   1.888   5.280   6.745
 4073SOL    HW213119   1.831   5.129   6.720
 4074SOL     OW13120   1.418   4.677   1.240
 4074SOL    HW113121   1.499   4.690   1.297
 4074SOL    HW213122   1.425   4.733   1.158
 4075SOL     OW13123   5.145   1.637   0.935
 4075SOL    HW113124   5.086   1.698   0.882
 4075SOL    HW213125   5.115   1.636   1.030
 4076SOL     OW13126   3.535   3.650   5.329
 4076SOL    HW113127   3.617   3.624   5.278
 4076SOL    HW213128   3.470   3.574   5.328
 4077SOL     OW13129   4.699   1.120   1.425
 4077SOL    HW113130   4.791   1.153   1.447
 4077SOL    HW213131   4.659   1.179   1.354
 4078SOL     OW13132   3.162   4.895   2.499
 4078SOL    HW113133   3.249   4.886   2.548
 4078SOL    HW213134   3.088   4.910   2.565
 4079SOL     OW13135   1.740   1.831   4.128
 4079SOL    HW113136   1.771   1.922   4.157
 4079SOL    HW213137   1.676   1.795   4.195
 4080SOL     OW13138   5.113   2.248   4.940
 4080SOL    HW113139   5.066   2.185   5.001
 4080SOL    HW213140   5.075   2.340   4.951
 4081SOL     OW13141   1.887   2.794   4.235
 4081SOL    HW113142   1.894   2.745   4.322
 4081SOL    HW213143   1.793   2.790   4.201
 4082SOL     OW13144   1.261   3.004   0.901
 4082SOL    HW113145   1.219   2.933   0.957
 4082SOL    HW213146   1.225   3.000   0.808
 4083SOL     OW13147   5.906   2.747   3.309
 4083SOL    HW113148   5.905   2.784   3.402
 4083SOL    HW213149   5.890   2.649   3.311
 4084SOL     OW13150   6.078   1.909   4.085
 4084SOL    HW113151   6.145   1.910   4.011
 4084SOL    HW213152   5.987   1.897   4.048
 4085SOL     OW13153   3.973   6.412   1.196
 4085SOL    HW113154   4.049   6.364   1.153
 4085SOL    HW213155   4.003   6.504   1.224
 4086SOL     OW13156   1.858   5.782   1.389
 4086SOL    HW113157   1.815   5.785   1.479
 4086SOL    HW213158   1.914   5.700   1.381
 4087SOL     OW13159   2.521   2.597   3.183
 4087SOL    HW113160   2.574   2.576   3.265
 4087SOL    HW213161   2.427   2.620   3.208
 4088SOL     OW13162   6.715   1.698   0.893
 4088SOL    HW113163   6.748   1.763   0.824
 4088SOL    HW213164   6.688   1.613   0.849
 4089SOL     OW13165   0.179   6.501   3.295
 4089SOL    HW113166   0.140   6.583   3.252
 4089SOL    HW213167   0.133   6.420   3.262
 4090SOL     OW13168   2.858   4.041   5.981
 4090SOL    HW113169   2.857   4.024   5.883
 4090SOL    HW213170   2.933   3.990   6.024
 4091SOL     OW13171   5.955   6.581   6.853
 4091SOL    HW113172   5.977   6.604   6.948
 4091SOL    HW213173   5.865   6.618   6.829
 4092SOL     OW13174   6.859   2.801   5.329
 4092SOL    HW113175   6.766   2.771   5.306
 4092SOL    HW213176   6.857   2.897   5.356
 4093SOL     OW13177   4.841   0.306   3.887
 4093SOL    HW113178   4.752   0.344   3.862
 4093SOL    HW213179   4.866   0.234   3.821
 4094SOL     OW13180   2.360   4.958   5.050
 4094SOL    HW113181   2.343   4.923   4.957
 4094SOL    HW213182   2.455   4.942   5.075
 4095SOL     OW13183   1.019   3.864   6.297
 4095SOL    HW113184   0.977   3.779   6.328
 4095SOL    HW213185   1.089   3.892   6.362
 4096SOL     OW13186   4.701   5.622   0.860
 4096SOL    HW113187   4.783   5.636   0.805
 4096SOL    HW213188   4.625   5.675   0.822
 4097SOL     OW13189   3.268   4.261   6.060
 4097SOL    HW113190   3.348   4.315   6.035
 4097SOL    HW213191   3.191   4.322   6.077
 4098SOL     OW13192   0.299   3.166   2.334
 4098SOL    HW113193   0.216   3.208   2.299
 4098SOL    HW213194   0.276   3.102   2.407
 4099SOL     OW13195   2.898   5.097   1.309
 4099SOL    HW113196   2.961   5.154   1.362
 4099SOL    HW213197   2.926   5.001   1.315
 4100SOL     OW13198   5.677   5.791   3.980
 4100SOL    HW113199   5.638   5.882   3.991
 4100SOL    HW213200   5.681   5.767   3.883
 4101SOL     OW13201   5.526   0.771   0.035
 4101SOL    HW113202   5.570   0.753   6.968
 4101SOL    HW213203   5.500   0.867   0.040
 4102SOL     OW13204   6.618   0.508   1.426
 4102SOL    HW113205   6.671   0.541   1.505
 4102SOL    HW213206   6.640   0.564   1.346
 4103SOL     OW13207   0.715   0.787   1.897
 4103SOL    HW113208   0.661   0.739   1.966
 4103SOL    HW213209   0.723   0.883   1.921
 4104SOL     OW13210   1.622   4.673   2.536
 4104SOL    HW113211   1.697   4.607   2.538
 4104SOL    HW213212   1.543   4.633   2.489
 4105SOL     OW13213   4.209   5.719   1.308
 4105SOL    HW113214   4.119   5.711   1.266
 4105SOL    HW213215   4.227   5.814   1.331
 4106SOL     OW13216   0.560   3.750   4.648
 4106SOL    HW113217   0.496   3.679   4.618
 4106SOL    HW213218   0.518   3.802   4.723
 4107SOL     OW13219   1.035   6.414   0.878
 4107SOL    HW113220   1.010   6.415   0.975
 4107SOL    HW213221   1.124   6.371   0.868
 4108SOL     OW13222   0.201   4.726   5.929
 4108SOL    HW113223   0.156   4.815   5.942
 4108SOL    HW213224   0.197   4.674   6.015
 4109SOL     OW13225   4.480   6.484   4.356
 4109SOL    HW113226   4.486   6.582   4.376
 4109SOL    HW213227   4.464   6.433   4.440
 4110SOL     OW13228   4.139   3.836   6.991
 4110SOL    HW113229   4.067   3.803   6.931
 4110SOL    HW213230   4.146   3.936   6.983
 4111SOL     OW13231   3.202   2.869   0.056
 4111SOL    HW113232   3.239   2.783   0.020
 4111SOL    HW213233   3.215   2.872   0.155
 4112SOL     OW13234   5.194   1.859   5.389
 4112SOL    HW113235   5.276   1.804   5.401
 4112SOL    HW213236   5.135   1.849   5.469
 4113SOL     OW13237   4.089   6.130   4.879
 4113SOL    HW113238   4.049   6.043   4.851
 4113SOL    HW213239   4.046   6.160   4.964
 4114SOL     OW13240   3.344   2.110   3.720
 4114SOL    HW113241   3.405   2.096   3.642
 4114SOL    HW213242   3.358   2.202   3.757
 4115SOL     OW13243   5.042   6.011   2.197
 4115SOL    HW113244   5.112   5.973   2.136
 4115SOL    HW213245   4.967   5.945   2.206
 4116SOL     OW13246   4.381   2.086   1.873
 4116SOL    HW113247   4.299   2.115   1.823
 4116SOL    HW213248   4.448   2.161   1.873
 4117SOL     OW13249   0.461   4.826   1.553
 4117SOL    HW113250   0.510   4.866   1.475
 4117SOL    HW213251   0.468   4.887   1.631
 4118SOL     OW13252   1.509   6.583   0.922
 4118SOL    HW113253   1.530   6.526   0.842
 4118SOL    HW213254   1.420   6.626   0.909
 4119SOL     OW13255   4.318   1.469   4.054
 4119SOL    HW113256   4.417   1.464   4.063
 4119SOL    HW213257   4.295   1.520   3.971
 4120SOL     OW13258   4.673   6.298   1.797
 4120SOL    HW113259   4.697   6.288   1.701
 4120SOL    HW213260   4.752   6.332   1.849
 4121SOL     OW13261   6.329   1.780   4.960
 4121SOL    HW113262   6.367   1.872   4.954
 4121SOL    HW213263   6.349   1.730   4.876
 4122SOL     OW13264   0.886   6.502   5.221
 4122SOL    HW113265   0.906   6.408   5.247
 4122SOL    HW213266   0.872   6.507   5.122
 4123SOL     OW13267   5.447   4.694   5.441
 4123SOL    HW113268   5.507   4.694   5.361
 4123SOL    HW213269   5.501   4.675   5.523
 4124SOL     OW13270   6.086   5.579   5.347
 4124SOL    HW113271   6.082   5.542   5.254
 4124SOL    HW213272   5.993   5.600   5.378
 4125SOL     OW13273   5.072   0.566   1.571
 4125SOL    HW113274   5.032   0.649   1.610
 4125SOL    HW213275   5.000   0.498   1.558
 4126SOL     OW13276   1.192   3.986   3.935
 4126SOL    HW113277   1.236   4.070   3.902
 4126SOL    HW213278   1.253   3.908   3.922
 4127SOL     OW13279   5.229   3.977   4.092
 4127SOL    HW113280   5.163   3.931   4.032
 4127SOL    HW213281   5.243   3.922   4.174
 4128SOL     OW13282   1.741   4.102   2.306
 4128SOL    HW113283   1.810   4.030   2.312
 4128SOL    HW213284   1.676   4.092   2.381
 4129SOL     OW13285   5.296   1.963   6.267
 4129SOL    HW113286   5.198   1.979   6.276
 4129SOL    HW213287   5.346   2.045   6.298
 4130SOL     OW13288   0.028   3.415   6.053
 4130SOL    HW113289   0.089   3.394   5.976
 4130SOL    HW213290   6.972   3.471   6.022
 4131SOL     OW13291   1.056   5.723   3.798
 4131SOL    HW113292   1.046   5.744   3.895
 4131SOL    HW213293   0.965   5.716   3.756
 4132SOL     OW13294   5.927   4.037   4.069
 4132SOL    HW113295   5.904   3.963   4.131
 4132SOL    HW213296   5.992   4.004   4.000
 4133SOL     OW13297   3.004   6.676   1.294
 4133SOL    HW113298   2.963   6.761   1.259
 4133SOL    HW213299   2.985   6.602   1.230
 4134SOL     OW13300   1.642   2.011   0.436
 4134SOL    HW113301   1.723   2.056   0.397
 4134SOL    HW213302   1.574   1.998   0.364
 4135SOL     OW13303   2.142   0.754   2.333
 4135SOL    HW113304   2.137   0.827   2.265
 4135SOL    HW213305   2.052   0.711   2.343
 4136SOL     OW13306   0.561   2.146   4.083
 4136SOL    HW113307   0.570   2.117   3.988
 4136SOL    HW213308   0.625   2.219   4.103
 4137SOL     OW13309   2.048   3.789   1.033
 4137SOL    HW113310   2.080   3.710   1.086
 4137SOL    HW213311   2.075   3.778   0.938
 4138SOL     OW13312   3.713   4.944   4.183
 4138SOL    HW113313   3.757   4.883   4.117
 4138SOL    HW213314   3.668   5.018   4.134
 4139SOL     OW13315   2.038   2.286   5.833
 4139SOL    HW113316   2.080   2.196   5.824
 4139SOL    HW213317   1.969   2.298   5.761
 4140SOL     OW13318   3.321   0.353   5.278
 4140SOL    HW113319   3.340   0.396   5.367
 4140SOL    HW213320   3.229   0.313   5.280
 4141SOL     OW13321   5.239   5.353   1.207
 4141SOL    HW113322   5.287   5.342   1.294
 4141SOL    HW213323   5.275   5.287   1.140
 4142SOL     OW13324   6.759   5.575   1.027
 4142SOL    HW113325   6.828   5.504   1.010
 4142SOL    HW213326   6.668   5.539   1.004
 4143SOL     OW13327   0.205   3.507   0.641
 4143SOL    HW113328   0.212   3.515   0.541
 4143SOL    HW213329   0.196   3.599   0.680
 4144SOL     OW13330   5.513   2.467   0.881
 4144SOL    HW113331   5.450   2.397   0.848
 4144SOL    HW213332   5.577   2.492   0.808
 4145SOL     OW13333   6.721   5.973   1.782
 4145SOL    HW113334   6.622   5.981   1.775
 4145SOL    HW213335   6.744   5.903   1.850
 4146SOL     OW13336   5.952   0.806   6.112
 4146SOL    HW113337   6.014   0.771   6.041
 4146SOL    HW213338   5.895   0.731   6.145
 4147SOL     OW13339   3.487   1.892   5.356
 4147SOL    HW113340   3.532   1.845   5.432
 4147SOL    HW213341   3.388   1.895   5.372
 4148SOL     OW13342   0.432   0.096   4.044
 4148SOL    HW113343   0.450   0.044   4.127
 4148SOL    HW213344   0.490   0.061   3.970
 4149SOL     OW13345   0.560   3.569   0.047
 4149SOL    HW113346   0.597   3.587   6.976
 4149SOL    HW213347   0.621   3.506   0.096
 4150SOL     OW13348   5.646   0.708   6.140
 4150SOL    HW113349   5.616   0.699   6.235
 4150SOL    HW213350   5.568   0.735   6.083
 4151SOL     OW13351   5.538   5.905   0.293
 4151SOL    HW113352   5.566   5.829   0.234
 4151SOL    HW213353   5.610   5.923   0.360
 4152SOL     OW13354   3.091   5.041   1.798
 4152SOL    HW113355   3.118   5.131   1.830
 4152SOL    HW213356   3.156   4.973   1.834
 4153SOL     OW13357   5.341   5.409   6.056
 4153SOL    HW113358   5.248   5.398   6.091
 4153SOL    HW213359   5.401   5.442   6.130
 4154SOL     OW13360   6.488   3.878   5.531
 4154SOL    HW113361   6.484   3.972   5.499
 4154SOL    HW213362   6.491   3.815   5.453
 4155SOL     OW13363   0.210   3.421   3.269
 4155SOL    HW113364   0.136   3.414   3.336
 4155SOL    HW213365   0.215   3.515   3.234
 4156SOL     OW13366   5.653   0.003   5.171
 4156SOL    HW113367   5.707   6.960   5.227
 4156SOL    HW213368   5.575   6.974   5.131
 4157SOL     OW13369   3.742   0.306   3.790
 4157SOL    HW113370   3.747   0.403   3.812
 4157SOL    HW213371   3.654   0.269   3.820
 4158SOL     OW13372   1.107   5.150   3.924
 4158SOL    HW113373   1.164   5.231   3.936
 4158SOL    HW213374   1.140   5.076   3.982
 4159SOL     OW13375   1.849   3.238   4.033
 4159SOL    HW113376   1.887   3.147   4.050
 4159SOL    HW213377   1.759   3.229   3.990
 4160SOL     OW13378   6.304   0.680   1.103
 4160SOL    HW113379   6.263   0.644   1.186
 4160SOL    HW213380   6.231   0.706   1.039
 4161SOL     OW13381   2.197   0.426   6.685
 4161SOL    HW113382   2.202   0.339   6.733
 4161SOL    HW213383   2.289   0.459   6.664
 4162SOL     OW13384   6.140   0.390   4.877
 4162SOL    HW113385   6.220   0.419   4.929
 4162SOL    HW213386   6.136   0.290   4.876
 4163SOL     OW13387   5.955   1.474   3.175
 4163SOL    HW113388   5.948   1.472   3.274
 4163SOL    HW213389   5.993   1.562   3.146
 4164SOL     OW13390   1.965   0.209   6.675
 4164SOL    HW113391   1.981   0.227   6.772
 4164SOL    HW213392   1.962   0.295   6.624
 4165SOL     OW13393   4.450   6.698   1.225
 4165SOL    HW113394   4.405   6.616   1.260
 4165SOL    HW213395   4.381   6.765   1.197
 4166SOL     OW13396   4.411   2.431   1.558
 4166SOL    HW113397   4.321   2.431   1.515
 4166SOL    HW213398   4.471   2.368   1.510
 4167SOL     OW13399   2.241   3.195   1.076
 4167SOL    HW113400   2.334   3.164   1.095
 4167SOL    HW213401   2.243   3.270   1.010
 4168SOL     OW13402   0.089   4.584   1.138
 4168SOL    HW113403   0.119   4.679   1.127
 4168SOL    HW213404   0.103   4.534   1.052
 4169SOL     OW13405   5.116   4.023   4.676
 4169SOL    HW113406   5.098   4.059   4.584
 4169SOL    HW213407   5.030   4.010   4.724
 4170SOL     OW13408   4.221   3.088   5.339
 4170SOL    HW113409   4.169   3.060   5.419
 4170SOL    HW213410   4.283   3.163   5.364
 4171SOL     OW13411   5.303   4.076   0.808
 4171SOL    HW113412   5.352   4.104   0.890
 4171SOL    HW213413   5.307   3.977   0.798
 4172SOL     OW13414   0.021   2.342   6.672
 4172SOL    HW113415   0.069   2.385   6.595
 4172SOL    HW213416   6.957   2.393   6.691
 4173SOL     OW13417   5.374   3.056   5.298
 4173SOL    HW113418   5.321   3.084   5.378
 4173SOL    HW213419   5.437   2.983   5.324
 4174SOL     OW13420   4.925   0.950   4.163
 4174SOL    HW113421   4.964   0.975   4.252
 4174SOL    HW213422   4.879   0.862   4.171
 4175SOL     OW13423   3.152   6.848   4.357
 4175SOL    HW113424   3.158   6.833   4.259
 4175SOL    HW213425   3.121   6.765   4.402
 4176SOL     OW13426   3.969   0.243   2.230
 4176SOL    HW113427   3.930   0.309   2.293
 4176SOL    HW213428   4.042   0.192   2.275
 4177SOL     OW13429   0.229   4.803   5.064
 4177SOL    HW113430   0.158   4.851   5.012
 4177SOL    HW213431   0.201   4.708   5.079
 4178SOL     OW13432   3.577   1.067   5.155
 4178SOL    HW113433   3.624   1.125   5.222
 4178SOL    HW213434   3.613   1.086   5.064
 4179SOL     OW13435   5.909   3.205   4.269
 4179SOL    HW113436   6.000   3.200   4.311
 4179SOL    HW213437   5.917   3.190   4.170
 4180SOL     OW13438   5.535   4.412   2.119
 4180SOL    HW113439   5.454   4.371   2.162
 4180SOL    HW213440   5.615   4.390   2.174
 4181SOL     OW13441   1.502   2.017   6.235
 4181SOL    HW113442   1.402   2.020   6.237
 4181SOL    HW213443   1.537   1.999   6.327
 4182SOL     OW13444   0.093   0.589   2.262
 4182SOL    HW113445   0.109   0.490   2.265
 4182SOL    HW213446   0.079   0.622   2.356
 4183SOL     OW13447   2.479   1.595   1.629
 4183SOL    HW113448   2.511   1.557   1.543
 4183SOL    HW213449   2.461   1.693   1.618
 4184SOL     OW13450   3.915   5.268   1.336
 4184SOL    HW113451   3.956   5.177   1.345
 4184SOL    HW213452   3.863   5.290   1.419
 4185SOL     OW13453   0.581   5.696   3.455
 4185SOL    HW113454   0.677   5.721   3.463
 4185SOL    HW213455   0.562   5.615   3.511
 4186SOL     OW13456   1.869   4.346   7.008
 4186SOL    HW113457   1.770   4.332   6.997
 4186SOL    HW213458   1.897   4.426   6.954
 4187SOL     OW13459   3.407   3.294   5.628
 4187SOL    HW113460   3.462   3.215   5.601
 4187SOL    HW213461   3.377   3.344   5.547
 4188SOL     OW13462   4.449   0.902   4.487
 4188SOL    HW113463   4.544   0.876   4.507
 4188SOL    HW213464   4.392   0.820   4.486
 4189SOL     OW13465   2.858   1.807   4.335
 4189SOL    HW113466   2.776   1.758   4.362
 4189SOL    HW213467   2.833   1.899   4.303
 4190SOL     OW13468   2.895   0.080   6.506
 4190SOL    HW113469   2.994   0.084   6.513
 4190SOL    HW213470   2.859   0.170   6.482
 4191SOL     OW13471   5.631   3.129   2.776
 4191SOL    HW113472   5.605   3.036   2.800
 4191SOL    HW213473   5.714   3.155   2.826
 4192SOL     OW13474   6.307   1.514   3.148
 4192SOL    HW113475   6.242   1.589   3.141
 4192SOL    HW213476   6.278   1.450   3.219
 4193SOL     OW13477   2.380   6.578   2.046
 4193SOL    HW113478   2.310   6.532   2.100
 4193SOL    HW213479   2.376   6.546   1.951
 4194SOL     OW13480   6.720   2.078   4.451
 4194SOL    HW113481   6.819   2.061   4.450
 4194SOL    HW213482   6.690   2.089   4.546
 4195SOL     OW13483   3.906   0.449   1.193
 4195SOL    HW113484   3.813   0.475   1.219
 4195SOL    HW213485   3.968   0.463   1.271
 4196SOL     OW13486   6.076   2.489   3.751
 4196SOL    HW113487   6.112   2.559   3.688
 4196SOL    HW213488   6.092   2.519   3.845
 4197SOL     OW13489   5.293   4.437   4.290
 4197SOL    HW113490   5.337   4.426   4.379
 4197SOL    HW213491   5.302   4.352   4.238
 4198SOL     OW13492   5.991   3.709   0.123
 4198SOL    HW113493   5.979   3.631   0.062
 4198SOL    HW213494   6.063   3.688   0.189
 4199SOL     OW13495   3.077   3.086   5.129
 4199SOL    HW113496   2.985   3.085   5.169
 4199SOL    HW213497   3.143   3.118   5.198
 4200SOL     OW13498   2.586   6.626   6.185
 4200SOL    HW113499   2.516   6.660   6.122
 4200SOL    HW213500   2.677   6.648   6.149
 4201SOL     OW13501   6.361   6.423   3.076
 4201SOL    HW113502   6.457   6.395   3.066
 4201SOL    HW213503   6.356   6.498   3.141
 4202SOL     OW13504   4.947   4.586   5.808
 4202SOL    HW113505   4.852   4.596   5.835
 4202SOL    HW213506   4.952   4.539   5.720
 4203SOL     OW13507   4.850   6.023   2.969
 4203SOL    HW113508   4.852   6.001   2.872
 4203SOL    HW213509   4.887   6.114   2.984
 4204SOL     OW13510   3.202   2.979   1.944
 4204SOL    HW113511   3.138   3.052   1.924
 4204SOL    HW213512   3.173   2.930   2.026
 4205SOL     OW13513   3.574   5.026   4.387
 4205SOL    HW113514   3.490   5.058   4.343
 4205SOL    HW213515   3.637   4.992   4.318
 4206SOL     OW13516   4.622   0.739   5.814
 4206SOL    HW113517   4.717   0.718   5.836
 4206SOL    HW213518   4.588   0.674   5.746
 4207SOL     OW13519   2.004   1.217   1.918
 4207SOL    HW113520   1.941   1.233   1.842
 4207SOL    HW213521   2.061   1.137   1.898
 4208SOL     OW13522   1.745   2.654   1.070
 4208SOL    HW113523   1.747   2.617   1.163
 4208SOL    HW213524   1.782   2.586   1.007
 4209SOL     OW13525   1.353   0.315   4.819
 4209SOL    HW113526   1.419   0.375   4.865
 4209SOL    HW213527   1.319   0.361   4.737
 4210SOL     OW13528   3.647   3.571   1.542
 4210SOL    HW113529   3.640   3.666   1.510
 4210SOL    HW213530   3.681   3.514   1.467
 4211SOL     OW13531   4.895   4.978   5.268
 4211SOL    HW113532   4.802   4.942   5.261
 4211SOL    HW213533   4.942   4.965   5.181
 4212SOL     OW13534   6.474   1.618   2.707
 4212SOL    HW113535   6.460   1.549   2.778
 4212SOL    HW213536   6.529   1.693   2.744
 4213SOL     OW13537   2.248   1.050   2.080
 4213SOL    HW113538   2.249   1.084   2.174
 4213SOL    HW213539   2.336   1.007   2.060
 4214SOL     OW13540   0.802   3.399   6.398
 4214SOL    HW113541   0.721   3.422   6.344
 4214SOL    HW213542   0.885   3.420   6.346
 4215SOL     OW13543   0.951   5.530   4.441
 4215SOL    HW113544   0.995   5.442   4.421
 4215SOL    HW213545   0.879   5.516   4.510
 4216SOL     OW13546   1.165   1.878   3.828
 4216SOL    HW113547   1.248   1.831   3.797
 4216SOL    HW213548   1.187   1.936   3.907
 4217SOL     OW13549   0.428   6.938   2.406
 4217SOL    HW113550   0.421   6.881   2.489
 4217SOL    HW213551   0.353   6.916   2.345
 4218SOL     OW13552   4.943   0.327   1.518
 4218SOL    HW113553   4.956   0.234   1.553
 4218SOL    HW213554   4.881   0.377   1.578
 4219SOL     OW13555   3.529   4.803   5.385
 4219SOL    HW113556   3.450   4.791   5.324
 4219SOL    HW213557   3.496   4.823   5.478
 4220SOL     OW13558   6.488   3.359   3.310
 4220SOL    HW113559   6.498   3.437   3.371
 4220SOL    HW213560   6.413   3.301   3.343
 4221SOL     OW13561   5.406   5.939   6.747
 4221SOL    HW113562   5.428   6.027   6.706
 4221SOL    HW213563   5.461   5.868   6.704
 4222SOL     OW13564   5.942   2.335   2.198
 4222SOL    HW113565   6.020   2.361   2.141
 4222SOL    HW213566   5.956   2.242   2.234
 4223SOL     OW13567   3.160   3.491   2.759
 4223SOL    HW113568   3.073   3.453   2.726
 4223SOL    HW213569   3.236   3.436   2.724
 4224SOL     OW13570   4.600   2.626   4.939
 4224SOL    HW113571   4.587   2.669   5.028
 4224SOL    HW213572   4.519   2.574   4.915
 4225SOL     OW13573   5.781   0.790   5.011
 4225SOL    HW113574   5.863   0.762   5.062
 4225SOL    HW213575   5.738   0.710   4.970
 4226SOL     OW13576   1.454   0.721   3.791
 4226SOL    HW113577   1.376   0.674   3.834
 4226SOL    HW213578   1.529   0.656   3.779
 4227SOL     OW13579   4.217   4.786   0.373
 4227SOL    HW113580   4.276   4.854   0.419
 4227SOL    HW213581   4.134   4.773   0.427
 4228SOL     OW13582   5.646   6.388   3.957
 4228SOL    HW113583   5.579   6.372   4.029
 4228SOL    HW213584   5.721   6.444   3.992
 4229SOL     OW13585   4.178   4.654   6.716
 4229SOL    HW113586   4.099   4.710   6.744
 4229SOL    HW213587   4.251   4.714   6.682
 4230SOL     OW13588   2.703   0.259   4.996
 4230SOL    HW113589   2.659   0.331   4.943
 4230SOL    HW213590   2.793   0.290   5.027
 4231SOL     OW13591   5.044   6.409   5.349
 4231SOL    HW113592   5.057   6.437   5.444
 4231SOL    HW213593   4.989   6.326   5.346
 4232SOL     OW13594   0.879   5.477   1.557
 4232SOL    HW113595   0.867   5.442   1.464
 4232SOL    HW213596   0.926   5.565   1.554
 4233SOL     OW13597   6.080   0.363   6.489
 4233SOL    HW113598   6.131   0.294   6.439
 4233SOL    HW213599   6.058   0.440   6.429
 4234SOL     OW13600   2.901   4.885   6.119
 4234SOL    HW113601   2.895   4.805   6.177
 4234SOL    HW213602   2.997   4.910   6.106
 4235SOL     OW13603   6.301   4.636   5.678
 4235SOL    HW113604   6.321   4.563   5.744
 4235SOL    HW213605   6.240   4.703   5.720
 4236SOL     OW13606   0.545   2.685   3.679
 4236SOL    HW113607   0.568   2.773   3.720
 4236SOL    HW213608   0.475   2.639   3.734
 4237SOL     OW13609   5.231   3.884   4.366
 4237SOL    HW113610   5.196   3.791   4.353
 4237SOL    HW213611   5.274   3.891   4.456
 4238SOL     OW13612   4.013   5.442   3.895
 4238SOL    HW113613   3.935   5.384   3.918
 4238SOL    HW213614   4.018   5.518   3.961
 4239SOL     OW13615   4.761   6.694   4.898
 4239SOL    HW113616   4.855   6.671   4.923
 4239SOL    HW213617   4.704   6.698   4.980
 4240SOL     OW13618   2.592   5.092   0.016
 4240SOL    HW113619   2.679   5.141   0.022
 4240SOL    HW213620   2.526   5.133   0.080
 4241SOL     OW13621   5.262   0.033   1.259
 4241SOL    HW113622   5.308   0.078   1.336
 4241SOL    HW213623   5.176   0.079   1.240
 4242SOL     OW13624   2.173   6.801   2.769
 4242SOL    HW113625   2.174   6.734   2.843
 4242SOL    HW213626   2.217   6.763   2.689
 4243SOL     OW13627   1.134   3.693   2.054
 4243SOL    HW113628   1.207   3.625   2.066
 4243SOL    HW213629   1.169   3.770   2.001
 4244SOL     OW13630   4.801   6.086   1.265
 4244SOL    HW113631   4.711   6.044   1.253
 4244SOL    HW213632   4.844   6.050   1.348
 4245SOL     OW13633   6.766   2.785   0.293
 4245SOL    HW113634   6.704   2.773   0.370
 4245SOL    HW213635   6.857   2.751   0.318
 4246SOL     OW13636   5.177   2.188   2.729
 4246SOL    HW113637   5.145   2.139   2.810
 4246SOL    HW213638   5.108   2.255   2.702
 4247SOL     OW13639   1.992   5.141   4.780
 4247SOL    HW113640   2.058   5.066   4.780
 4247SOL    HW213641   1.900   5.104   4.764
 4248SOL     OW13642   1.895   0.639   2.353
 4248SOL    HW113643   1.918   0.542   2.350
 4248SOL    HW213644   1.795   0.649   2.349
 4249SOL     OW13645   0.345   1.376   4.326
 4249SOL    HW113646   0.249   1.371   4.300
 4249SOL    HW213647   0.363   1.463   4.372
 4250SOL     OW13648   0.715   5.652   4.212
 4250SOL    HW113649   0.651   5.575   4.208
 4250SOL    HW213650   0.664   5.736   4.233
 4251SOL     OW13651   5.915   2.523   6.555
 4251SOL    HW113652   5.997   2.473   6.529
 4251SOL    HW213653   5.938   2.593   6.622
 4252SOL     OW13654   6.233   6.368   5.470
 4252SOL    HW113655   6.215   6.467   5.470
 4252SOL    HW213656   6.184   6.325   5.546
 4253SOL     OW13657   3.986   5.959   2.406
 4253SOL    HW113658   4.013   5.864   2.419
 4253SOL    HW213659   4.035   5.998   2.328
 4254SOL     OW13660   2.490   3.214   7.015
 4254SOL    HW113661   2.425   3.225   0.070
 4254SOL    HW213662   2.574   3.173   0.031
 4255SOL     OW13663   0.835   4.365   2.588
 4255SOL    HW113664   0.749   4.379   2.637
 4255SOL    HW213665   0.901   4.435   2.615
 4256SOL     OW13666   1.005   4.679   1.723
 4256SOL    HW113667   0.945   4.751   1.758
 4256SOL    HW213668   1.070   4.718   1.658
 4257SOL     OW13669   6.218   1.367   5.050
 4257SOL    HW113670   6.251   1.441   5.108
 4257SOL    HW213671   6.199   1.286   5.105
 4258SOL     OW13672   3.392   5.564   0.773
 4258SOL    HW113673   3.339   5.528   0.696
 4258SOL    HW213674   3.407   5.491   0.840
 4259SOL     OW13675   1.365   6.539   1.448
 4259SOL    HW113676   1.367   6.523   1.350
 4259SOL    HW213677   1.453   6.578   1.477
 4260SOL     OW13678   5.029   6.671   4.963
 4260SOL    HW113679   5.122   6.690   4.931
 4260SOL    HW213680   5.027   6.677   5.063
 4261SOL     OW13681   2.393   0.209   4.437
 4261SOL    HW113682   2.436   0.149   4.370
 4261SOL    HW213683   2.425   0.185   4.529
 4262SOL     OW13684   1.273   4.971   6.297
 4262SOL    HW113685   1.268   4.960   6.197
 4262SOL    HW213686   1.239   4.889   6.342
 4263SOL     OW13687   2.827   2.271   3.512
 4263SOL    HW113688   2.845   2.173   3.504
 4263SOL    HW213689   2.898   2.313   3.568
 4264SOL     OW13690   5.584   1.253   4.469
 4264SOL    HW113691   5.563   1.298   4.556
 4264SOL    HW213692   5.652   1.182   4.484
 4265SOL     OW13693   2.789   0.151   1.253
 4265SOL    HW113694   2.736   0.236   1.241
 4265SOL    HW213695   2.752   0.100   1.331
 4266SOL     OW13696   1.122   6.926   0.102
 4266SOL    HW113697   1.099   6.834   0.135
 4266SOL    HW213698   1.180   6.971   0.170
 4267SOL     OW13699   1.985   3.866   3.976
 4267SOL    HW113700   2.047   3.940   3.950
 4267SOL    HW213701   1.920   3.849   3.901
 4268SOL     OW13702   1.371   5.273   6.072
 4268SOL    HW113703   1.459   5.281   6.025
 4268SOL    HW213704   1.359   5.179   6.105
 4269SOL     OW13705   3.150   1.843   4.297
 4269SOL    HW113706   3.201   1.838   4.383
 4269SOL    HW213707   3.054   1.820   4.314
 4270SOL     OW13708   3.774   3.057   0.633
 4270SOL    HW113709   3.860   3.107   0.643
 4270SOL    HW213710   3.697   3.122   0.638
 4271SOL     OW13711   6.442   0.442   1.010
 4271SOL    HW113712   6.476   0.442   0.916
 4271SOL    HW213713   6.403   0.531   1.032
 4272SOL     OW13714   6.699   3.493   5.983
 4272SOL    HW113715   6.771   3.543   6.031
 4272SOL    HW213716   6.667   3.547   5.905
 4273SOL     OW13717   4.735   6.082   4.423
 4273SOL    HW113718   4.698   6.143   4.353
 4273SOL    HW213719   4.766   6.136   4.501
 4274SOL     OW13720   6.736   6.740   1.643
 4274SOL    HW113721   6.659   6.797   1.616
 4274SOL    HW213722   6.800   6.793   1.699
 4275SOL     OW13723   0.889   2.462   3.662
 4275SOL    HW113724   0.838   2.513   3.592
 4275SOL    HW213725   0.928   2.379   3.621
 4276SOL     OW13726   2.732   5.752   4.228
 4276SOL    HW113727   2.709   5.705   4.313
 4276SOL    HW213728   2.693   5.703   4.150
 4277SOL     OW13729   6.163   5.444   4.342
 4277SOL    HW113730   6.123   5.416   4.254
 4277SOL    HW213731   6.108   5.516   4.382
 4278SOL     OW13732   0.431   6.726   2.016
 4278SOL    HW113733   0.435   6.635   1.974
 4278SOL    HW213734   0.523   6.763   2.025
 4279SOL     OW13735   1.443   1.932   2.247
 4279SOL    HW113736   1.400   1.883   2.171
 4279SOL    HW213737   1.513   1.874   2.288
 4280SOL     OW13738   6.685   0.142   6.734
 4280SOL    HW113739   6.671   0.233   6.696
 4280SOL    HW213740   6.693   0.149   6.834
 4281SOL     OW13741   4.536   5.370   3.885
 4281SOL    HW113742   4.556   5.366   3.787
 4281SOL    HW213743   4.437   5.375   3.899
 4282SOL     OW13744   3.075   4.292   0.942
 4282SOL    HW113745   3.049   4.202   0.977
 4282SOL    HW213746   3.069   4.292   0.842
 4283SOL     OW13747   4.759   0.894   3.784
 4283SOL    HW113748   4.815   0.955   3.839
 4283SOL    HW213749   4.731   0.815   3.840
 4284SOL     OW13750   5.009   5.943   6.911
 4284SOL    HW113751   5.047   5.918   7.000
 4284SOL    HW213752   4.959   6.029   6.918
 4285SOL     OW13753   3.140   0.658   6.471
 4285SOL    HW113754   3.111   0.609   6.553
 4285SOL    HW213755   3.155   0.592   6.397
 4286SOL     OW13756   6.569   0.945   6.562
 4286SOL    HW113757   6.596   0.976   6.471
 4286SOL    HW213758   6.563   1.023   6.624
 4287SOL     OW13759   4.459   0.624   0.190
 4287SOL    HW113760   4.500   0.684   0.259
 4287SOL    HW213761   4.416   0.680   0.119
 4288SOL     OW13762   6.489   6.078   2.243
 4288SOL    HW113763   6.486   6.109   2.148
 4288SOL    HW213764   6.583   6.056   2.268
 4289SOL     OW13765   0.930   2.779   4.937
 4289SOL    HW113766   0.867   2.702   4.948
 4289SOL    HW213767   1.003   2.753   4.874
 4290SOL     OW13768   0.336   0.669   3.328
 4290SOL    HW113769   0.420   0.690   3.278
 4290SOL    HW213770   0.352   0.678   3.426
 4291SOL     OW13771   4.812   3.198   5.879
 4291SOL    HW113772   4.767   3.116   5.842
 4291SOL    HW213773   4.883   3.228   5.816
 4292SOL     OW13774   5.242   1.901   0.559
 4292SOL    HW113775   5.197   1.833   0.501
 4292SOL    HW213776   5.239   1.990   0.514
 4293SOL     OW13777   4.976   3.982   6.501
 4293SOL    HW113778   4.909   3.954   6.432
 4293SOL    HW213779   5.049   3.914   6.505
 4294SOL     OW13780   3.240   2.087   6.196
 4294SOL    HW113781   3.323   2.115   6.147
 4294SOL    HW213782   3.162   2.092   6.135
 4295SOL     OW13783   4.251   6.594   2.128
 4295SOL    HW113784   4.300   6.645   2.057
 4295SOL    HW213785   4.209   6.658   2.192
 4296SOL     OW13786   2.623   6.437   0.785
 4296SOL    HW113787   2.544   6.400   0.835
 4296SOL    HW213788   2.706   6.392   0.816
 4297SOL     OW13789   6.176   5.340   1.055
 4297SOL    HW113790   6.272   5.316   1.040
 4297SOL    HW213791   6.123   5.313   0.975
 4298SOL     OW13792   3.284   6.279   1.543
 4298SOL    HW113793   3.332   6.218   1.480
 4298SOL    HW213794   3.189   6.250   1.552
 4299SOL     OW13795   0.541   2.610   6.944
 4299SOL    HW113796   0.460   2.553   6.928
 4299SOL    HW213797   0.624   2.556   6.926
 4300SOL     OW13798   4.072   0.793   0.674
 4300SOL    HW113799   4.011   0.740   0.615
 4300SOL    HW213800   4.163   0.751   0.673
 4301SOL     OW13801   3.086   6.465   2.055
 4301SOL    HW113802   3.069   6.417   2.141
 4301SOL    HW213803   3.063   6.562   2.067
 4302SOL     OW13804   1.530   6.466   6.374
 4302SOL    HW113805   1.587   6.410   6.435
 4302SOL    HW213806   1.469   6.407   6.322
 4303SOL     OW13807   6.014   4.577   4.373
 4303SOL    HW113808   5.983   4.482   4.373
 4303SOL    HW213809   5.941   4.636   4.409
 4304SOL     OW13810   3.096   3.604   1.622
 4304SOL    HW113811   3.185   3.606   1.576
 4304SOL    HW213812   3.092   3.524   1.683
 4305SOL     OW13813   6.864   0.088   5.770
 4305SOL    HW113814   6.846   0.006   5.715
 4305SOL    HW213815   6.963   0.095   5.787
 4306SOL     OW13816   4.842   3.781   4.548
 4306SOL    HW113817   4.837   3.775   4.648
 4306SOL    HW213818   4.876   3.694   4.511
 4307SOL     OW13819   6.048   2.456   5.614
 4307SOL    HW113820   5.957   2.498   5.615
 4307SOL    HW213821   6.046   2.372   5.561
 4308SOL     OW13822   5.123   4.854   1.684
 4308SOL    HW113823   5.124   4.845   1.584
 4308SOL    HW213824   5.166   4.774   1.725
 4309SOL     OW13825   0.657   3.284   0.669
 4309SOL    HW113826   0.720   3.264   0.593
 4309SOL    HW213827   0.581   3.219   0.667
 4310SOL     OW13828   0.139   1.749   2.155
 4310SOL    HW113829   0.222   1.770   2.207
 4310SOL    HW213830   0.105   1.659   2.182
 4311SOL     OW13831   1.014   6.328   2.395
 4311SOL    HW113832   1.012   6.228   2.396
 4311SOL    HW213833   0.926   6.363   2.360
 4312SOL     OW13834   0.647   5.050   2.036
 4312SOL    HW113835   0.714   4.978   2.058
 4312SOL    HW213836   0.558   5.024   2.072
 4313SOL     OW13837   5.552   1.741   0.569
 4313SOL    HW113838   5.618   1.671   0.542
 4313SOL    HW213839   5.479   1.699   0.623
 4314SOL     OW13840   6.828   3.065   5.406
 4314SOL    HW113841   6.895   3.134   5.435
 4314SOL    HW213842   6.736   3.103   5.411
 4315SOL     OW13843   2.370   1.480   3.887
 4315SOL    HW113844   2.352   1.578   3.887
 4315SOL    HW213845   2.406   1.453   3.797
 4316SOL     OW13846   5.904   0.195   2.245
 4316SOL    HW113847   5.925   0.292   2.232
 4316SOL    HW213848   5.872   0.155   2.159
 4317SOL     OW13849   4.807   1.152   5.717
 4317SOL    HW113850   4.841   1.198   5.636
 4317SOL    HW213851   4.711   1.126   5.703
 4318SOL     OW13852   0.381   1.161   3.654
 4318SOL    HW113853   0.455   1.220   3.686
 4318SOL    HW213854   0.353   1.100   3.728
 4319SOL     OW13855   1.494   3.596   1.992
 4319SOL    HW113856   1.441   3.525   2.037
 4319SOL    HW213857   1.519   3.567   1.900
 4320SOL     OW13858   3.417   6.106   0.640
 4320SOL    HW113859   3.333   6.154   0.667
 4320SOL    HW213860   3.430   6.114   0.541
 4321SOL     OW13861   6.256   6.673   2.468
 4321SOL    HW113862   6.254   6.578   2.502
 4321SOL    HW213863   6.349   6.695   2.437
 4322SOL     OW13864   0.398   2.578   5.258
 4322SOL    HW113865   0.461   2.624   5.196
 4322SOL    HW213866   0.338   2.517   5.205
 4323SOL     OW13867   4.383   5.322   0.014
 4323SOL    HW113868   4.452   5.377   0.063
 4323SOL    HW213869   4.427   5.242   6.994
 4324SOL     OW13870   0.077   3.746   6.037
 4324SOL    HW113871   0.168   3.704   6.037
 4324SOL    HW213872   0.046   3.758   6.132
 4325SOL     OW13873   2.776   1.019   3.069
 4325SOL    HW113874   2.711   0.984   3.001
 4325SOL    HW213875   2.840   1.082   3.025
 4326SOL     OW13876   5.144   2.717   1.925
 4326SOL    HW113877   5.112   2.790   1.866
 4326SOL    HW213878   5.101   2.726   2.015
 4327SOL     OW13879   3.902   5.469   4.521
 4327SOL    HW113880   3.899   5.564   4.490
 4327SOL    HW213881   3.823   5.419   4.483
 4328SOL     OW13882   6.403   5.518   5.307
 4328SOL    HW113883   6.430   5.591   5.244
 4328SOL    HW213884   6.314   5.540   5.347
 4329SOL     OW13885   5.869   2.938   5.763
 4329SOL    HW113886   5.943   2.973   5.820
 4329SOL    HW213887   5.856   2.999   5.684
 4330SOL     OW13888   2.528   5.384   5.446
 4330SOL    HW113889   2.486   5.431   5.368
 4330SOL    HW213890   2.585   5.309   5.413
 4331SOL     OW13891   6.059   0.597   1.595
 4331SOL    HW113892   6.089   0.618   1.688
 4331SOL    HW213893   6.020   0.505   1.593
 4332SOL     OW13894   0.097   4.186   2.350
 4332SOL    HW113895   0.029   4.227   2.411
 4332SOL    HW213896   0.173   4.249   2.337
 4333SOL     OW13897   4.236   2.085   5.025
 4333SOL    HW113898   4.210   2.029   4.947
 4333SOL    HW213899   4.306   2.037   5.079
 4334SOL     OW13900   1.125   2.739   3.179
 4334SOL    HW113901   1.148   2.790   3.262
 4334SOL    HW213902   1.158   2.789   3.099
 4335SOL     OW13903   3.256   3.141   1.019
 4335SOL    HW113904   3.169   3.166   0.978
 4335SOL    HW213905   3.262   3.041   1.026
 4336SOL     OW13906   2.237   5.785   6.192
 4336SOL    HW113907   2.247   5.879   6.158
 4336SOL    HW213908   2.327   5.747   6.211
 4337SOL     OW13909   1.150   5.704   2.319
 4337SOL    HW113910   1.204   5.634   2.273
 4337SOL    HW213911   1.077   5.736   2.258
 4338SOL     OW13912   5.660   0.777   5.417
 4338SOL    HW113913   5.601   0.780   5.497
 4338SOL    HW213914   5.631   0.702   5.356
 4339SOL     OW13915   4.193   2.508   6.161
 4339SOL    HW113916   4.286   2.488   6.129
 4339SOL    HW213917   4.142   2.553   6.087
 4340SOL     OW13918   6.532   3.924   1.167
 4340SOL    HW113919   6.509   4.009   1.214
 4340SOL    HW213920   6.530   3.939   1.069
 4341SOL     OW13921   0.923   6.061   2.358
 4341SOL    HW113922   0.842   6.055   2.416
 4341SOL    HW213923   0.924   5.984   2.294
 4342SOL     OW13924   4.907   3.803   2.612
 4342SOL    HW113925   4.881   3.713   2.648
 4342SOL    HW213926   4.884   3.809   2.515
 4343SOL     OW13927   4.077   0.487   5.693
 4343SOL    HW113928   3.986   0.453   5.716
 4343SOL    HW213929   4.092   0.475   5.595
 4344SOL     OW13930   0.119   2.653   3.989
 4344SOL    HW113931   0.053   2.723   3.962
 4344SOL    HW213932   0.124   2.648   4.089
 4345SOL     OW13933   2.899   3.291   2.425
 4345SOL    HW113934   2.954   3.229   2.482
 4345SOL    HW213935   2.903   3.260   2.329
 4346SOL     OW13936   2.353   2.709   2.443
 4346SOL    HW113937   2.412   2.646   2.393
 4346SOL    HW213938   2.290   2.753   2.379
 4347SOL     OW13939   5.585   5.181   1.754
 4347SOL    HW113940   5.600   5.273   1.790
 4347SOL    HW213941   5.490   5.172   1.724
 4348SOL     OW13942   6.694   5.952   3.766
 4348SOL    HW113943   6.652   5.905   3.689
 4348SOL    HW213944   6.630   5.954   3.843
 4349SOL     OW13945   0.138   3.774   3.738
 4349SOL    HW113946   0.194   3.703   3.696
 4349SOL    HW213947   0.136   3.762   3.837
 4350SOL     OW13948   5.350   1.751   4.878
 4350SOL    HW113949   5.319   1.813   4.950
 4350SOL    HW213950   5.326   1.657   4.901
 4351SOL     OW13951   1.433   7.004   1.234
 4351SOL    HW113952   1.526   6.967   1.225
 4351SOL    HW213953   1.421   0.059   1.169
 4352SOL     OW13954   4.225   3.942   0.740
 4352SOL    HW113955   4.319   3.910   0.754
 4352SOL    HW213956   4.170   3.868   0.700
 4353SOL     OW13957   3.141   3.269   6.776
 4353SOL    HW113958   3.051   3.300   6.747
 4353SOL    HW213959   3.140   3.249   6.874
 4354SOL     OW13960   6.377   0.463   3.690
 4354SOL    HW113961   6.398   0.388   3.753
 4354SOL    HW213962   6.282   0.457   3.661
 4355SOL     OW13963   1.463   6.922   3.510
 4355SOL    HW113964   1.396   6.996   3.503
 4355SOL    HW213965   1.487   6.908   3.606
 4356SOL     OW13966   4.965   2.768   6.270
 4356SOL    HW113967   4.904   2.826   6.324
 4356SOL    HW213968   5.060   2.789   6.294
 4357SOL     OW13969   6.577   0.364   1.839
 4357SOL    HW113970   6.607   0.275   1.804
 4357SOL    HW213971   6.657   0.419   1.861
 4358SOL     OW13972   0.891   0.584   0.225
 4358SOL    HW113973   0.799   0.576   0.264
 4358SOL    HW213974   0.886   0.620   0.132
 4359SOL     OW13975   2.456   0.687   0.125
 4359SOL    HW113976   2.405   0.615   0.078
 4359SOL    HW213977   2.425   0.693   0.220
 4360SOL     OW13978   1.475   2.755   3.375
 4360SOL    HW113979   1.500   2.768   3.279
 4360SOL    HW213980   1.387   2.707   3.381
 4361SOL     OW13981   0.967   2.093   0.976
 4361SOL    HW113982   0.979   2.150   0.895
 4361SOL    HW213983   0.872   2.099   1.008
 4362SOL     OW13984   1.406   5.829   4.185
 4362SOL    HW113985   1.399   5.926   4.210
 4362SOL    HW213986   1.430   5.822   4.088
 4363SOL     OW13987   4.514   0.790   2.510
 4363SOL    HW113988   4.557   0.797   2.420
 4363SOL    HW213989   4.489   0.695   2.527
 4364SOL     OW13990   3.435   3.816   2.858
 4364SOL    HW113991   3.410   3.912   2.845
 4364SOL    HW213992   3.521   3.798   2.811
 4365SOL     OW13993   3.031   2.065   1.921
 4365SOL    HW113994   2.994   2.158   1.932
 4365SOL    HW213995   3.111   2.068   1.861
 4366SOL     OW13996   5.322   5.994   5.283
 4366SOL    HW113997   5.311   6.044   5.369
 4366SOL    HW213998   5.312   5.896   5.299
 4367SOL     OW13999   2.954   5.514   3.906
 4367SOL    HW114000   3.030   5.473   3.957
 4367SOL    HW214001   2.870   5.464   3.926
 4368SOL     OW14002   4.708   4.922   2.617
 4368SOL    HW114003   4.749   5.009   2.592
 4368SOL    HW214004   4.699   4.917   2.717
 4369SOL     OW14005   4.552   5.102   2.971
 4369SOL    HW114006   4.607   5.023   2.943
 4369SOL    HW214007   4.503   5.080   3.055
 4370SOL     OW14008   3.932   4.710   1.796
 4370SOL    HW114009   3.844   4.666   1.776
 4370SOL    HW214010   3.915   4.795   1.846
 4371SOL     OW14011   2.343   0.652   1.424
 4371SOL    HW114012   2.321   0.660   1.522
 4371SOL    HW214013   2.269   0.693   1.371
 4372SOL     OW14014   2.105   2.701   4.599
 4372SOL    HW114015   2.181   2.650   4.639
 4372SOL    HW214016   2.065   2.761   4.668
 4373SOL     OW14017   4.565   0.999   5.863
 4373SOL    HW114018   4.521   0.996   5.952
 4373SOL    HW214019   4.593   0.907   5.836
 4374SOL     OW14020   2.729   2.089   1.453
 4374SOL    HW114021   2.630   2.097   1.440
 4374SOL    HW214022   2.749   2.074   1.550
 4375SOL     OW14023   3.688   0.664   3.468
 4375SOL    HW114024   3.628   0.736   3.504
 4375SOL    HW214025   3.652   0.630   3.381
 4376SOL     OW14026   6.601   6.578   1.436
 4376SOL    HW114027   6.673   6.592   1.504
 4376SOL    HW214028   6.555   6.665   1.419
 4377SOL     OW14029   6.442   6.240   6.609
 4377SOL    HW114030   6.361   6.263   6.555
 4377SOL    HW214031   6.484   6.325   6.643
 4378SOL     OW14032   2.125   6.034   3.079
 4378SOL    HW114033   2.171   6.095   3.014
 4378SOL    HW214034   2.080   5.960   3.029
 4379SOL     OW14035   1.181   1.015   1.568
 4379SOL    HW114036   1.254   0.964   1.613
 4379SOL    HW214037   1.162   0.974   1.479
 4380SOL     OW14038   2.154   5.904   5.392
 4380SOL    HW114039   2.125   5.905   5.488
 4380SOL    HW214040   2.218   5.828   5.378
 4381SOL     OW14041   4.209   6.452   4.379
 4381SOL    HW114042   4.202   6.496   4.469
 4381SOL    HW214043   4.304   6.427   4.361
 4382SOL     OW14044   4.859   3.919   4.251
 4382SOL    HW114045   4.934   3.881   4.197
 4382SOL    HW214046   4.834   3.855   4.323
 4383SOL     OW14047   1.363   2.399   5.856
 4383SOL    HW114048   1.322   2.316   5.894
 4383SOL    HW214049   1.408   2.450   5.929
 4384SOL     OW14050   3.730   6.382   1.070
 4384SOL    HW114051   3.689   6.302   1.116
 4384SOL    HW214052   3.820   6.400   1.110
 4385SOL     OW14053   0.050   1.500   3.776
 4385SOL    HW114054   0.000   1.417   3.753
 4385SOL    HW214055   0.073   1.549   3.692
 4386SOL     OW14056   0.798   4.039   6.804
 4386SOL    HW114057   0.707   4.047   6.764
 4386SOL    HW214058   0.822   3.943   6.814
 4387SOL     OW14059   6.601   3.250   1.502
 4387SOL    HW114060   6.681   3.306   1.525
 4387SOL    HW214061   6.554   3.289   1.422
 4388SOL     OW14062   3.171   0.434   5.960
 4388SOL    HW114063   3.212   0.366   6.020
 4388SOL    HW214064   3.085   0.399   5.923
 4389SOL     OW14065   5.647   3.068   1.687
 4389SOL    HW114066   5.560   3.029   1.659
 4389SOL    HW214067   5.715   3.053   1.615
 4390SOL     OW14068   5.256   2.282   1.695
 4390SOL    HW114069   5.253   2.210   1.626
 4390SOL    HW214070   5.234   2.370   1.653
 4391SOL     OW14071   0.874   5.819   0.231
 4391SOL    HW114072   0.928   5.783   0.155
 4391SOL    HW214073   0.821   5.899   0.201
 4392SOL     OW14074   5.149   3.009   4.260
 4392SOL    HW114075   5.248   2.996   4.261
 4392SOL    HW214076   5.128   3.100   4.224
 4393SOL     OW14077   5.301   0.309   3.334
 4393SOL    HW114078   5.282   0.377   3.406
 4393SOL    HW214079   5.281   0.217   3.369
 4394SOL     OW14080   5.512   6.379   2.619
 4394SOL    HW114081   5.577   6.340   2.554
 4394SOL    HW214082   5.418   6.361   2.588
 4395SOL     OW14083   4.512   1.235   2.013
 4395SOL    HW114084   4.611   1.227   2.008
 4395SOL    HW214085   4.487   1.328   2.042
 4396SOL     OW14086   0.829   0.940   4.347
 4396SOL    HW114087   0.738   0.903   4.365
 4396SOL    HW214088   0.842   1.022   4.402
 4397SOL     OW14089   6.992   0.998   4.862
 4397SOL    HW114090   0.072   0.999   4.872
 4397SOL    HW214091   6.961   1.086   4.826
 4398SOL     OW14092   0.968   4.357   4.361
 4398SOL    HW114093   1.055   4.348   4.409
 4398SOL    HW214094   0.940   4.454   4.360
 4399SOL     OW14095   1.908   1.245   0.399
 4399SOL    HW114096   1.963   1.215   0.476
 4399SOL    HW214097   1.967   1.275   0.324
 4400SOL     OW14098   2.703   6.776   4.174
 4400SOL    HW114099   2.795   6.740   4.160
 4400SOL    HW214100   2.637   6.701   4.168
 4401SOL     OW14101   5.836   5.832   4.511
 4401SOL    HW114102   5.859   5.828   4.608
 4401SOL    HW214103   5.737   5.846   4.501
 4402SOL     OW14104   0.861   5.726   3.047
 4402SOL    HW114105   0.844   5.728   2.949
 4402SOL    HW214106   0.856   5.631   3.080
 4403SOL     OW14107   6.955   0.248   3.226
 4403SOL    HW114108   6.899   0.219   3.304
 4403SOL    HW214109   0.030   0.259   3.255
 4404SOL     OW14110   0.650   4.197   3.564
 4404SOL    HW114111   0.590   4.248   3.627
 4404SOL    HW214112   0.605   4.189   3.475
 4405SOL     OW14113   3.152   4.901   6.021
 4405SOL    HW114114   3.129   4.826   5.959
 4405SOL    HW214115   3.155   4.987   5.970
 4406SOL     OW14116   5.190   4.615   1.860
 4406SOL    HW114117   5.186   4.516   1.846
 4406SOL    HW214118   5.126   4.642   1.931
 4407SOL     OW14119   6.752   6.270   0.280
 4407SOL    HW114120   6.730   6.339   0.349
 4407SOL    HW214121   6.688   6.194   0.289
 4408SOL     OW14122   4.840   0.358   0.533
 4408SOL    HW114123   4.855   0.424   0.459
 4408SOL    HW214124   4.756   0.307   0.517
 4409SOL     OW14125   3.870   1.877   2.190
 4409SOL    HW114126   3.877   1.815   2.112
 4409SOL    HW214127   3.777   1.874   2.227
 4410SOL     OW14128   2.236   4.969   1.396
 4410SOL    HW114129   2.203   5.004   1.309
 4410SOL    HW214130   2.328   5.003   1.414
 4411SOL     OW14131   3.659   3.190   2.963
 4411SOL    HW114132   3.570   3.200   3.007
 4411SOL    HW214133   3.678   3.093   2.946
 4412SOL     OW14134   3.687   1.203   6.095
 4412SOL    HW114135   3.607   1.183   6.151
 4412SOL    HW214136   3.661   1.267   6.022
 4413SOL     OW14137   3.938   5.672   4.097
 4413SOL    HW114138   3.868   5.605   4.073
 4413SOL    HW214139   3.894   5.755   4.132
 4414SOL     OW14140   4.181   4.710   2.484
 4414SOL    HW114141   4.092   4.730   2.444
 4414SOL    HW214142   4.185   4.747   2.577
 4415SOL     OW14143   5.254   4.068   6.127
 4415SOL    HW114144   5.309   4.142   6.088
 4415SOL    HW214145   5.160   4.076   6.095
 4416SOL     OW14146   2.800   1.385   4.397
 4416SOL    HW114147   2.825   1.300   4.351
 4416SOL    HW214148   2.861   1.459   4.366
 4417SOL     OW14149   0.509   5.006   1.761
 4417SOL    HW114150   0.507   5.105   1.751
 4417SOL    HW214151   0.594   4.979   1.807
 4418SOL     OW14152   4.546   6.357   3.898
 4418SOL    HW114153   4.552   6.385   3.803
 4418SOL    HW214154   4.586   6.428   3.956
 4419SOL     OW14155   6.228   5.168   0.635
 4419SOL    HW114156   6.273   5.243   0.685
 4419SOL    HW214157   6.297   5.119   0.581
 4420SOL     OW14158   4.344   0.694   0.683
 4420SOL    HW114159   4.394   0.641   0.614
 4420SOL    HW214160   4.394   0.691   0.769
 4421SOL     OW14161   1.842   2.014   2.943
 4421SOL    HW114162   1.903   2.034   2.866
 4421SOL    HW214163   1.747   2.024   2.912
 4422SOL     OW14164   2.850   3.758   6.551
 4422SOL    HW114165   2.942   3.791   6.570
 4422SOL    HW214166   2.792   3.834   6.526
 4423SOL     OW14167   1.221   1.997   6.262
 4423SOL    HW114168   1.203   2.043   6.349
 4423SOL    HW214169   1.136   1.955   6.228
 4424SOL     OW14170   5.483   6.337   3.323
 4424SOL    HW114171   5.402   6.388   3.293
 4424SOL    HW214172   5.536   6.308   3.244
 4425SOL     OW14173   3.743   5.788   6.019
 4425SOL    HW114174   3.688   5.833   5.949
 4425SOL    HW214175   3.837   5.781   5.988
 4426SOL     OW14176   6.924   0.913   5.246
 4426SOL    HW114177   7.015   0.873   5.235
 4426SOL    HW214178   6.864   0.879   5.173
 4427SOL     OW14179   0.512   0.323   3.139
 4427SOL    HW114180   0.530   0.392   3.069
 4427SOL    HW214181   0.513   0.366   3.229
 4428SOL     OW14182   2.406   4.800   4.391
 4428SOL    HW114183   2.358   4.737   4.330
 4428SOL    HW214184   2.453   4.748   4.462
 4429SOL     OW14185   2.750   6.320   3.543
 4429SOL    HW114186   2.664   6.357   3.506
 4429SOL    HW214187   2.738   6.223   3.563
 4430SOL     OW14188   3.813   1.775   2.761
 4430SOL    HW114189   3.735   1.734   2.808
 4430SOL    HW214190   3.840   1.718   2.684
 4431SOL     OW14191   2.696   1.567   3.509
 4431SOL    HW114192   2.772   1.630   3.522
 4431SOL    HW214193   2.712   1.512   3.427
 4432SOL     OW14194   3.184   3.327   3.157
 4432SOL    HW114195   3.182   3.246   3.100
 4432SOL    HW214196   3.131   3.400   3.114
 4433SOL     OW14197   5.429   6.361   2.899
 4433SOL    HW114198   5.427   6.458   2.924
 4433SOL    HW214199   5.459   6.351   2.804
 4434SOL     OW14200   5.217   1.553   3.620
 4434SOL    HW114201   5.229   1.490   3.697
 4434SOL    HW214202   5.302   1.601   3.603
 4435SOL     OW14203   3.530   3.209   1.355
 4435SOL    HW114204   3.621   3.251   1.349
 4435SOL    HW214205   3.497   3.188   1.263
 4436SOL     OW14206   3.138   1.874   0.331
 4436SOL    HW114207   3.236   1.887   0.316
 4436SOL    HW214208   3.116   1.885   0.428
 4437SOL     OW14209   4.336   0.612   4.480
 4437SOL    HW114210   4.365   0.633   4.574
 4437SOL    HW214211   4.244   0.573   4.482
 4438SOL     OW14212   4.096   2.171   6.865
 4438SOL    HW114213   4.024   2.234   6.892
 4438SOL    HW214214   4.066   2.076   6.879
 4439SOL     OW14215   0.755   5.526   1.812
 4439SOL    HW114216   0.808   5.545   1.730
 4439SOL    HW214217   0.668   5.484   1.787
 4440SOL     OW14218   1.839   6.129   0.039
 4440SOL    HW114219   1.906   6.069   0.082
 4440SOL    HW214220   1.874   6.159   6.970
 4441SOL     OW14221   6.225   2.843   2.566
 4441SOL    HW114222   6.315   2.808   2.592
 4441SOL    HW214223   6.163   2.767   2.547
 4442SOL     OW14224   4.057   6.420   3.526
 4442SOL    HW114225   4.012   6.391   3.610
 4442SOL    HW214226   3.988   6.445   3.458
 4443SOL     OW14227   2.403   2.217   5.945
 4443SOL    HW114228   2.350   2.132   5.942
 4443SOL    HW214229   2.342   2.295   5.956
 4444SOL     OW14230   4.451   6.309   1.190
 4444SOL    HW114231   4.426   6.306   1.287
 4444SOL    HW214232   4.446   6.216   1.152
 4445SOL     OW14233   1.191   0.891   6.011
 4445SOL    HW114234   1.217   0.828   5.938
 4445SOL    HW214235   1.270   0.948   6.036
 4446SOL     OW14236   6.085   0.095   2.636
 4446SOL    HW114237   6.108   0.172   2.576
 4446SOL    HW214238   5.986   0.091   2.647
 4447SOL     OW14239   5.523   3.085   6.181
 4447SOL    HW114240   5.548   3.048   6.092
 4447SOL    HW214241   5.451   3.154   6.169
 4448SOL     OW14242   2.564   3.424   0.876
 4448SOL    HW114243   2.585   3.514   0.838
 4448SOL    HW214244   2.545   3.359   0.802
 4449SOL     OW14245   2.676   0.575   4.961
 4449SOL    HW114246   2.622   0.552   4.879
 4449SOL    HW214247   2.742   0.646   4.938
 4450SOL     OW14248   3.422   2.909   3.248
 4450SOL    HW114249   3.325   2.923   3.267
 4450SOL    HW214250   3.467   2.873   3.330
 4451SOL     OW14251   6.749   4.092   2.358
 4451SOL    HW114252   6.804   4.012   2.334
 4451SOL    HW214253   6.654   4.076   2.334
 4452SOL     OW14254   6.026   6.371   5.907
 4452SOL    HW114255   5.944   6.398   5.855
 4452SOL    HW214256   6.042   6.438   5.980
 4453SOL     OW14257   5.649   2.575   1.887
 4453SOL    HW114258   5.581   2.555   1.815
 4453SOL    HW214259   5.741   2.562   1.850
 4454SOL     OW14260   5.150   2.636   0.951
 4454SOL    HW114261   5.102   2.662   1.035
 4454SOL    HW214262   5.128   2.701   0.878
 4455SOL     OW14263   3.563   6.596   2.314
 4455SOL    HW114264   3.585   6.606   2.217
 4455SOL    HW214265   3.643   6.561   2.363
 4456SOL     OW14266   1.864   5.616   2.472
 4456SOL    HW114267   1.823   5.652   2.556
 4456SOL    HW214268   1.824   5.662   2.393
 4457SOL     OW14269   4.121   2.325   6.351
 4457SOL    HW114270   4.157   2.385   6.280
 4457SOL    HW214271   4.189   2.254   6.372
 4458SOL     OW14272   2.489   2.641   6.077
 4458SOL    HW114273   2.574   2.602   6.044
 4458SOL    HW214274   2.492   2.649   6.177
 4459SOL     OW14275   4.669   6.783   4.650
 4459SOL    HW114276   4.684   6.714   4.722
 4459SOL    HW214277   4.713   6.869   4.676
 4460SOL     OW14278   2.721   3.553   6.921
 4460SOL    HW114279   2.645   3.506   6.965
 4460SOL    HW214280   2.691   3.592   6.834
 4461SOL     OW14281   1.239   0.412   2.333
 4461SOL    HW114282   1.327   0.373   2.306
 4461SOL    HW214283   1.195   0.453   2.254
 4462SOL     OW14284   6.148   5.015   0.906
 4462SOL    HW114285   6.112   5.084   0.843
 4462SOL    HW214286   6.187   4.940   0.853
 4463SOL     OW14287   1.995   3.379   6.265
 4463SOL    HW114288   2.089   3.400   6.292
 4463SOL    HW214289   1.936   3.456   6.289
 4464SOL     OW14290   5.707   4.441   6.220
 4464SOL    HW114291   5.782   4.386   6.184
 4464SOL    HW214292   5.736   4.485   6.306
 4465SOL     OW14293   1.953   6.107   2.164
 4465SOL    HW114294   1.915   6.197   2.184
 4465SOL    HW214295   1.900   6.063   2.091
 4466SOL     OW14296   0.891   1.594   2.450
 4466SOL    HW114297   0.861   1.681   2.411
 4466SOL    HW214298   0.828   1.567   2.523
 4467SOL     OW14299   1.362   6.696   3.236
 4467SOL    HW114300   1.319   6.679   3.325
 4467SOL    HW214301   1.447   6.746   3.249
 4468SOL     OW14302   0.979   2.263   6.849
 4468SOL    HW114303   1.066   2.242   6.894
 4468SOL    HW214304   0.931   2.178   6.828
 4469SOL     OW14305   3.196   0.317   1.442
 4469SOL    HW114306   3.286   0.333   1.400
 4469SOL    HW214307   3.124   0.348   1.380
 4470SOL     OW14308   4.797   3.845   1.710
 4470SOL    HW114309   4.704   3.880   1.700
 4470SOL    HW214310   4.820   3.837   1.807
 4471SOL     OW14311   0.266   2.408   1.187
 4471SOL    HW114312   0.213   2.470   1.246
 4471SOL    HW214313   0.306   2.459   1.111
 4472SOL     OW14314   1.826   4.369   2.248
 4472SOL    HW114315   1.824   4.269   2.243
 4472SOL    HW214316   1.861   4.406   2.162
 4473SOL     OW14317   0.176   0.152   4.854
 4473SOL    HW114318   0.196   0.217   4.928
 4473SOL    HW214319   0.183   0.198   4.766
 4474SOL     OW14320   3.885   0.227   2.546
 4474SOL    HW114321   3.934   0.314   2.548
 4474SOL    HW214322   3.826   0.223   2.465
 4475SOL     OW14323   1.706   3.886   0.717
 4475SOL    HW114324   1.655   3.860   0.800
 4475SOL    HW214325   1.650   3.947   0.661
 4476SOL     OW14326   5.299   6.596   2.123
 4476SOL    HW114327   5.301   6.639   2.213
 4476SOL    HW214328   5.223   6.531   2.118
 4477SOL     OW14329   1.788   1.108   6.781
 4477SOL    HW114330   1.721   1.132   6.852
 4477SOL    HW214331   1.827   1.018   6.802
 4478SOL     OW14332   2.285   6.666   2.560
 4478SOL    HW114333   2.322   6.728   2.491
 4478SOL    HW214334   2.348   6.589   2.573
 4479SOL     OW14335   0.993   0.577   5.820
 4479SOL    HW114336   0.974   0.675   5.815
 4479SOL    HW214337   0.911   0.528   5.849
 4480SOL     OW14338   1.358   4.037   4.737
 4480SOL    HW114339   1.398   4.057   4.827
 4480SOL    HW214340   1.426   3.989   4.681
 4481SOL     OW14341   1.244   6.519   4.149
 4481SOL    HW114342   1.239   6.444   4.083
 4481SOL    HW214343   1.339   6.542   4.168
 4482SOL     OW14344   1.144   4.277   4.102
 4482SOL    HW114345   1.079   4.235   4.039
 4482SOL    HW214346   1.122   4.250   4.196
 4483SOL     OW14347   6.401   2.793   0.955
 4483SOL    HW114348   6.358   2.877   0.988
 4483SOL    HW214349   6.330   2.726   0.931
 4484SOL     OW14350   3.856   2.765   5.466
 4484SOL    HW114351   3.853   2.796   5.371
 4484SOL    HW214352   3.789   2.692   5.479
 4485SOL     OW14353   4.930   1.678   6.586
 4485SOL    HW114354   4.964   1.770   6.568
 4485SOL    HW214355   4.933   1.661   6.685
 4486SOL     OW14356   0.190   4.073   5.121
 4486SOL    HW114357   0.211   4.171   5.118
 4486SOL    HW214358   0.257   4.027   5.178
 4487SOL     OW14359   2.632   3.629   6.687
 4487SOL    HW114360   2.566   3.611   6.614
 4487SOL    HW214361   2.713   3.672   6.648
 4488SOL     OW14362   5.826   2.226   5.253
 4488SOL    HW114363   5.869   2.238   5.343
 4488SOL    HW214364   5.827   2.129   5.228
 4489SOL     OW14365   5.426   5.402   4.778
 4489SOL    HW114366   5.363   5.476   4.803
 4489SOL    HW214367   5.490   5.435   4.709
 4490SOL     OW14368   5.799   1.335   1.968
 4490SOL    HW114369   5.710   1.290   1.954
 4490SOL    HW214370   5.833   1.314   2.059
 4491SOL     OW14371   1.299   3.756   2.875
 4491SOL    HW114372   1.373   3.766   2.809
 4491SOL    HW214373   1.293   3.838   2.931
 4492SOL     OW14374   5.174   2.063   0.183
 4492SOL    HW114375   5.206   1.990   0.243
 4492SOL    HW214376   5.188   2.152   0.227
 4493SOL     OW14377   4.839   5.443   5.175
 4493SOL    HW114378   4.782   5.394   5.110
 4493SOL    HW214379   4.888   5.516   5.129
 4494SOL     OW14380   0.082   3.661   5.619
 4494SOL    HW114381   7.008   3.691   5.607
 4494SOL    HW214382   0.124   3.645   5.529
 4495SOL     OW14383   5.432   6.634   2.378
 4495SOL    HW114384   5.373   6.712   2.400
 4495SOL    HW214385   5.522   6.667   2.352
 4496SOL     OW14386   5.790   4.523   6.488
 4496SOL    HW114387   5.849   4.585   6.539
 4496SOL    HW214388   5.729   4.475   6.551
 4497SOL     OW14389   5.160   6.016   6.644
 4497SOL    HW114390   5.110   6.060   6.718
 4497SOL    HW214391   5.243   5.974   6.680
 4498SOL     OW14392   0.244   4.246   6.421
 4498SOL    HW114393   0.306   4.232   6.498
 4498SOL    HW214394   0.251   4.341   6.390
 4499SOL     OW14395   6.983   3.296   4.663
 4499SOL    HW114396   7.009   3.393   4.667
 4499SOL    HW214397   0.016   3.245   4.730
 4500SOL     OW14398   2.969   3.562   4.032
 4500SOL    HW114399   2.916   3.493   3.983
 4500SOL    HW214400   2.984   3.641   3.972
 4501SOL     OW14401   1.085   3.937   5.522
 4501SOL    HW114402   1.034   4.019   5.498
 4501SOL    HW214403   1.033   3.882   5.587
 4502SOL     OW14404   1.341   2.657   6.319
 4502SOL    HW114405   1.420   2.703   6.360
 4502SOL    HW214406   1.308   2.711   6.242
 4503SOL     OW14407   2.091   1.081   3.331
 4503SOL    HW114408   2.054   1.023   3.258
 4503SOL    HW214409   2.175   1.040   3.367
 4504SOL     OW14410   5.837   2.657   5.511
 4504SOL    HW114411   5.930   2.693   5.520
 4504SOL    HW214412   5.776   2.710   5.570
 4505SOL     OW14413   0.638   6.100   5.092
 4505SOL    HW114414   0.560   6.141   5.046
 4505SOL    HW214415   0.703   6.065   5.024
 4506SOL     OW14416   3.591   1.646   4.879
 4506SOL    HW114417   3.633   1.626   4.791
 4506SOL    HW214418   3.658   1.693   4.937
 4507SOL     OW14419   4.739   4.791   1.203
 4507SOL    HW114420   4.707   4.710   1.251
 4507SOL    HW214421   4.832   4.774   1.168
 4508SOL     OW14422   1.928   3.536   0.172
 4508SOL    HW114423   1.978   3.617   0.141
 4508SOL    HW214424   1.926   3.468   0.098
 4509SOL     OW14425   4.255   1.978   4.714
 4509SOL    HW114426   4.327   2.045   4.729
 4509SOL    HW214427   4.190   2.013   4.646
 4510SOL     OW14428   6.020   0.682   5.099
 4510SOL    HW114429   6.003   0.589   5.068
 4510SOL    HW214430   5.976   0.696   5.188
 4511SOL     OW14431   0.125   3.019   0.594
 4511SOL    HW114432   0.048   2.957   0.583
 4511SOL    HW214433   0.093   3.107   0.628
 4512SOL     OW14434   2.754   6.777   0.030
 4512SOL    HW114435   2.718   6.870   0.017
 4512SOL    HW214436   2.719   6.739   0.116
 4513SOL     OW14437   4.422   6.478   1.660
 4513SOL    HW114438   4.374   6.399   1.696
 4513SOL    HW214439   4.373   6.561   1.685
 4514SOL     OW14440   3.565   0.942   4.303
 4514SOL    HW114441   3.581   1.020   4.243
 4514SOL    HW214442   3.598   0.858   4.259
 4515SOL     OW14443   6.661   4.575   6.970
 4515SOL    HW114444   6.606   4.553   6.889
 4515SOL    HW214445   6.741   4.628   6.943
 4516SOL     OW14446   1.432   1.349   5.798
 4516SOL    HW114447   1.382   1.433   5.822
 4516SOL    HW214448   1.452   1.348   5.700
 4517SOL     OW14449   3.588   0.011   6.835
 4517SOL    HW114450   3.520   0.013   6.908
 4517SOL    HW214451   3.627   0.102   6.823
 4518SOL     OW14452   0.955   1.734   3.948
 4518SOL    HW114453   0.943   1.776   4.038
 4518SOL    HW214454   1.016   1.790   3.893
 4519SOL     OW14455   0.424   1.616   3.576
 4519SOL    HW114456   0.460   1.679   3.507
 4519SOL    HW214457   0.326   1.604   3.562
 4520SOL     OW14458   5.984   4.702   2.306
 4520SOL    HW114459   6.072   4.733   2.342
 4520SOL    HW214460   5.999   4.648   2.223
 4521SOL     OW14461   4.770   2.346   6.262
 4521SOL    HW114462   4.732   2.254   6.265
 4521SOL    HW214463   4.867   2.343   6.238
 4522SOL     OW14464   5.647   7.016   3.625
 4522SOL    HW114465   5.621   6.994   3.718
 4522SOL    HW214466   5.693   0.084   3.623
 4523SOL     OW14467   2.728   5.267   0.337
 4523SOL    HW114468   2.791   5.190   0.330
 4523SOL    HW214469   2.722   5.312   0.248
 4524SOL     OW14470   5.454   1.787   5.465
 4524SOL    HW114471   5.414   1.695   5.470
 4524SOL    HW214472   5.486   1.814   5.556
 4525SOL     OW14473   6.573   1.705   4.452
 4525SOL    HW114474   6.521   1.704   4.537
 4525SOL    HW214475   6.579   1.612   4.416
 4526SOL     OW14476   4.929   6.816   1.423
 4526SOL    HW114477   4.891   6.737   1.470
 4526SOL    HW214478   4.953   6.886   1.490
 4527SOL     OW14479   4.176   0.906   3.204
 4527SOL    HW114480   4.251   0.908   3.269
 4527SOL    HW214481   4.089   0.911   3.253
 4528SOL     OW14482   5.347   0.162   0.342
 4528SOL    HW114483   5.286   0.128   0.413
 4528SOL    HW214484   5.361   0.092   0.273
 4529SOL     OW14485   2.480   0.590   3.026
 4529SOL    HW114486   2.420   0.659   3.065
 4529SOL    HW214487   2.450   0.499   3.055
 4530SOL     OW14488   0.743   3.357   5.671
 4530SOL    HW114489   0.712   3.359   5.576
 4530SOL    HW214490   0.679   3.301   5.725
 4531SOL     OW14491   0.963   3.607   3.268
 4531SOL    HW114492   1.028   3.624   3.342
 4531SOL    HW214493   1.005   3.630   3.180
 4532SOL     OW14494   6.714   1.341   1.080
 4532SOL    HW114495   6.670   1.266   1.031
 4532SOL    HW214496   6.646   1.392   1.132
 4533SOL     OW14497   1.945   6.242   3.162
 4533SOL    HW114498   1.990   6.162   3.121
 4533SOL    HW214499   1.998   6.272   3.242
 4534SOL     OW14500   5.817   3.773   5.411
 4534SOL    HW114501   5.797   3.688   5.459
 4534SOL    HW214502   5.741   3.836   5.423
 4535SOL     OW14503   4.839   2.793   1.845
 4535SOL    HW114504   4.837   2.801   1.745
 4535SOL    HW214505   4.790   2.871   1.885
 4536SOL     OW14506   5.275   0.873   4.973
 4536SOL    HW114507   5.239   0.953   5.021
 4536SOL    HW214508   5.307   0.900   4.882
 4537SOL     OW14509   3.912   3.290   6.512
 4537SOL    HW114510   3.937   3.288   6.609
 4537SOL    HW214511   3.964   3.221   6.462
 4538SOL     OW14512   3.489   1.556   3.431
 4538SOL    HW114513   3.587   1.570   3.445
 4538SOL    HW214514   3.440   1.575   3.516
 4539SOL     OW14515   2.792   1.985   3.407
 4539SOL    HW114516   2.790   1.912   3.476
 4539SOL    HW214517   2.861   1.964   3.338
 4540SOL     OW14518   3.402   3.740   4.602
 4540SOL    HW114519   3.427   3.755   4.506
 4540SOL    HW214520   3.466   3.675   4.643
 4541SOL     OW14521   5.017   1.139   0.227
 4541SOL    HW114522   5.023   1.156   0.326
 4541SOL    HW214523   4.970   1.216   0.184
 4542SOL     OW14524   6.272   6.162   1.500
 4542SOL    HW114525   6.285   6.246   1.553
 4542SOL    HW214526   6.190   6.115   1.532
 4543SOL     OW14527   4.870   1.691   0.877
 4543SOL    HW114528   4.842   1.603   0.840
 4543SOL    HW214529   4.879   1.757   0.802
 4544SOL     OW14530   2.388   6.176   6.936
 4544SOL    HW114531   2.468   6.180   6.996
 4544SOL    HW214532   2.309   6.144   6.989
 4545SOL     OW14533   4.229   2.183   5.395
 4545SOL    HW114534   4.297   2.243   5.438
 4545SOL    HW214535   4.140   2.198   5.439
 4546SOL     OW14536   1.132   6.605   6.056
 4546SOL    HW114537   1.230   6.587   6.050
 4546SOL    HW214538   1.099   6.579   6.147
 4547SOL     OW14539   5.637   2.505   1.119
 4547SOL    HW114540   5.698   2.427   1.132
 4547SOL    HW214541   5.608   2.510   1.024
 4548SOL     OW14542   0.520   4.838   3.760
 4548SOL    HW114543   0.489   4.793   3.844
 4548SOL    HW214544   0.575   4.918   3.784
 4549SOL     OW14545   6.943   3.208   2.958
 4549SOL    HW114546   6.905   3.279   2.899
 4549SOL    HW214547   6.907   3.118   2.931
 4550SOL     OW14548   0.895   6.046   3.628
 4550SOL    HW114549   0.923   6.050   3.724
 4550SOL    HW214550   0.856   5.956   3.608
 4551SOL     OW14551   0.679   2.688   5.126
 4551SOL    HW114552   0.753   2.662   5.187
 4551SOL    HW214553   0.687   2.638   5.040
 4552SOL     OW14554   0.482   3.211   5.105
 4552SOL    HW114555   0.415   3.277   5.072
 4552SOL    HW214556   0.468   3.123   5.059
 4553SOL     OW14557   4.925   4.840   0.068
 4553SOL    HW114558   4.947   4.937   0.054
 4553SOL    HW214559   4.831   4.822   0.037
 4554SOL     OW14560   4.208   0.257   2.402
 4554SOL    HW114561   4.226   0.173   2.452
 4554SOL    HW214562   4.141   0.312   2.452
 4555SOL     OW14563   4.473   2.122   6.517
 4555SOL    HW114564   4.423   2.143   6.601
 4555SOL    HW214565   4.493   2.206   6.467
 4556SOL     OW14566   4.006   0.699   3.878
 4556SOL    HW114567   4.093   0.696   3.829
 4556SOL    HW214568   3.933   0.722   3.813
 4557SOL     OW14569   5.215   0.217   5.028
 4557SOL    HW114570   5.215   0.289   5.098
 4557SOL    HW214571   5.167   0.249   4.947
 4558SOL     OW14572   6.446   3.772   6.514
 4558SOL    HW114573   6.494   3.685   6.521
 4558SOL    HW214574   6.395   3.775   6.428
 4559SOL     OW14575   1.324   6.064   1.275
 4559SOL    HW114576   1.325   6.046   1.374
 4559SOL    HW214577   1.417   6.085   1.244
 4560SOL     OW14578   4.952   3.453   3.295
 4560SOL    HW114579   4.993   3.396   3.223
 4560SOL    HW214580   4.867   3.493   3.261
 4561SOL     OW14581   3.080   1.307   0.283
 4561SOL    HW114582   2.987   1.301   0.318
 4561SOL    HW214583   3.115   1.400   0.295
 4562SOL     OW14584   3.579   5.860   5.820
 4562SOL    HW114585   3.620   5.840   5.731
 4562SOL    HW214586   3.517   5.786   5.845
 4563SOL     OW14587   5.783   2.353   0.397
 4563SOL    HW114588   5.854   2.419   0.374
 4563SOL    HW214589   5.706   2.400   0.440
 4564SOL     OW14590   0.924   5.156   0.660
 4564SOL    HW114591   0.992   5.095   0.700
 4564SOL    HW214592   0.832   5.123   0.681
 4565SOL     OW14593   0.761   1.759   4.964
 4565SOL    HW114594   0.767   1.800   5.055
 4565SOL    HW214595   0.846   1.778   4.913
 4566SOL     OW14596   0.294   6.906   0.150
 4566SOL    HW114597   0.381   6.928   0.106
 4566SOL    HW214598   0.219   6.921   0.085
 4567SOL     OW14599   0.076   0.557   0.623
 4567SOL    HW114600   0.121   0.644   0.604
 4567SOL    HW214601   0.073   0.542   0.722
 4568SOL     OW14602   2.866   4.902   5.417
 4568SOL    HW114603   2.835   4.996   5.430
 4568SOL    HW214604   2.796   4.850   5.368
 4569SOL     OW14605   1.193   1.570   4.346
 4569SOL    HW114606   1.233   1.490   4.389
 4569SOL    HW214607   1.194   1.647   4.409
 4570SOL     OW14608   7.000   5.790   3.215
 4570SOL    HW114609   6.941   5.738   3.277
 4570SOL    HW214610   0.066   5.812   3.261
 4571SOL     OW14611   2.935   3.387   4.763
 4571SOL    HW114612   2.873   3.414   4.690
 4571SOL    HW214613   3.025   3.427   4.748
 4572SOL     OW14614   0.099   6.854   1.116
 4572SOL    HW114615   0.025   6.906   1.073
 4572SOL    HW214616   0.060   6.777   1.167
 4573SOL     OW14617   5.958   6.130   1.363
 4573SOL    HW114618   5.988   6.169   1.450
 4573SOL    HW214619   5.864   6.158   1.344
 4574SOL     OW14620   6.885   4.593   1.261
 4574SOL    HW114621   6.852   4.505   1.295
 4574SOL    HW214622   6.978   4.582   1.225
 4575SOL     OW14623   6.216   2.012   0.426
 4575SOL    HW114624   6.308   2.014   0.387
 4575SOL    HW214625   6.215   2.064   0.511
 4576SOL     OW14626   2.765   5.641   6.753
 4576SOL    HW114627   2.747   5.547   6.783
 4576SOL    HW214628   2.739   5.651   6.657
 4577SOL     OW14629   0.467   3.540   3.042
 4577SOL    HW114630   0.462   3.633   3.005
 4577SOL    HW214631   0.473   3.474   2.967
 4578SOL     OW14632   0.549   3.809   3.770
 4578SOL    HW114633   0.530   3.896   3.724
 4578SOL    HW214634   0.563   3.825   3.867
 4579SOL     OW14635   4.705   1.705   2.945
 4579SOL    HW114636   4.721   1.718   2.847
 4579SOL    HW214637   4.777   1.750   2.997
 4580SOL     OW14638   6.026   5.453   0.669
 4580SOL    HW114639   6.099   5.520   0.655
 4580SOL    HW214640   6.023   5.390   0.591
 4581SOL     OW14641   3.314   4.877   3.340
 4581SOL    HW114642   3.282   4.957   3.391
 4581SOL    HW214643   3.397   4.841   3.382
 4582SOL     OW14644   5.357   6.715   3.880
 4582SOL    HW114645   5.292   6.788   3.859
 4582SOL    HW214646   5.384   6.670   3.795
 4583SOL     OW14647   3.020   1.938   5.050
 4583SOL    HW114648   3.104   1.923   4.999
 4583SOL    HW214649   2.944   1.892   5.004
 4584SOL     OW14650   0.108   6.075   5.899
 4584SOL    HW114651   0.082   6.118   5.813
 4584SOL    HW214652   0.192   6.022   5.886
 4585SOL     OW14653   3.417   6.553   2.661
 4585SOL    HW114654   3.338   6.523   2.715
 4585SOL    HW214655   3.439   6.482   2.594
 4586SOL     OW14656   3.066   5.257   1.447
 4586SOL    HW114657   2.989   5.307   1.487
 4586SOL    HW214658   3.150   5.281   1.495
 4587SOL     OW14659   3.905   3.445   1.616
 4587SOL    HW114660   3.840   3.402   1.680
 4587SOL    HW214661   3.962   3.374   1.574
 4588SOL     OW14662   3.725   3.902   4.837
 4588SOL    HW114663   3.676   3.815   4.842
 4588SOL    HW214664   3.818   3.886   4.803
 4589SOL     OW14665   6.092   2.512   2.838
 4589SOL    HW114666   6.143   2.432   2.804
 4589SOL    HW214667   6.157   2.584   2.861
 4590SOL     OW14668   4.214   5.843   2.743
 4590SOL    HW114669   4.273   5.764   2.727
 4590SOL    HW214670   4.166   5.832   2.829
 4591SOL     OW14671   6.481   6.021   5.640
 4591SOL    HW114672   6.419   6.005   5.563
 4591SOL    HW214673   6.434   6.074   5.711
 4592SOL     OW14674   4.092   3.194   0.621
 4592SOL    HW114675   4.140   3.198   0.533
 4592SOL    HW214676   4.138   3.127   0.680
 4593SOL     OW14677   4.196   5.562   2.961
 4593SOL    HW114678   4.257   5.571   2.882
 4593SOL    HW214679   4.137   5.642   2.966
 4594SOL     OW14680   3.623   1.830   2.296
 4594SOL    HW114681   3.602   1.732   2.296
 4594SOL    HW214682   3.614   1.866   2.389
 4595SOL     OW14683   3.678   3.038   6.335
 4595SOL    HW114684   3.777   3.026   6.338
 4595SOL    HW214685   3.637   2.963   6.284
 4596SOL     OW14686   5.856   6.437   2.281
 4596SOL    HW114687   5.886   6.342   2.286
 4596SOL    HW214688   5.877   6.484   2.367
 4597SOL     OW14689   5.335   5.319   6.417
 4597SOL    HW114690   5.324   5.264   6.334
 4597SOL    HW214691   5.250   5.366   6.439
 4598SOL     OW14692   1.706   5.201   6.281
 4598SOL    HW114693   1.609   5.206   6.307
 4598SOL    HW214694   1.741   5.110   6.302
 4599SOL     OW14695   1.178   3.791   1.240
 4599SOL    HW114696   1.136   3.768   1.152
 4599SOL    HW214697   1.276   3.770   1.237
 4600SOL     OW14698   3.015   5.169   6.445
 4600SOL    HW114699   3.057   5.128   6.526
 4600SOL    HW214700   3.084   5.223   6.397
 4601SOL     OW14701   1.569   1.077   5.214
 4601SOL    HW114702   1.506   1.082   5.292
 4601SOL    HW214703   1.582   0.981   5.187
 4602SOL     OW14704   1.612   6.713   1.423
 4602SOL    HW114705   1.645   6.807   1.432
 4602SOL    HW214706   1.602   6.690   1.326
 4603SOL     OW14707   3.377   6.506   2.004
 4603SOL    HW114708   3.390   6.501   1.905
 4603SOL    HW214709   3.280   6.522   2.024
 4604SOL     OW14710   3.738   0.421   1.891
 4604SOL    HW114711   3.791   0.343   1.924
 4604SOL    HW214712   3.800   0.492   1.858
 4605SOL     OW14713   4.866   0.679   4.193
 4605SOL    HW114714   4.818   0.628   4.265
 4605SOL    HW214715   4.964   0.676   4.211
 4606SOL     OW14716   0.102   6.810   3.906
 4606SOL    HW114717   0.037   6.734   3.896
 4606SOL    HW214718   0.053   6.897   3.901
 4607SOL     OW14719   2.331   2.305   1.517
 4607SOL    HW114720   2.298   2.293   1.423
 4607SOL    HW214721   2.318   2.220   1.568
 4608SOL     OW14722   1.929   4.914   5.387
 4608SOL    HW114723   1.877   4.856   5.324
 4608SOL    HW214724   1.988   4.975   5.335
 4609SOL     OW14725   4.312   5.802   6.484
 4609SOL    HW114726   4.398   5.845   6.514
 4609SOL    HW214727   4.235   5.851   6.523
 4610SOL     OW14728   6.612   2.499   0.266
 4610SOL    HW114729   6.525   2.544   0.247
 4610SOL    HW214730   6.650   2.536   0.351
 4611SOL     OW14731   0.196   3.927   0.204
 4611SOL    HW114732   0.243   4.015   0.215
 4611SOL    HW214733   0.213   3.892   0.111
 4612SOL     OW14734   2.140   6.007   6.770
 4612SOL    HW114735   2.106   6.087   6.819
 4612SOL    HW214736   2.162   6.032   6.676
 4613SOL     OW14737   2.639   5.043   2.663
 4613SOL    HW114738   2.570   4.971   2.661
 4613SOL    HW214739   2.722   5.012   2.618
 4614SOL     OW14740   1.785   5.722   6.930
 4614SOL    HW114741   1.815   5.652   6.995
 4614SOL    HW214742   1.718   5.682   6.868
 4615SOL     OW14743   1.466   1.579   0.142
 4615SOL    HW114744   1.526   1.658   0.130
 4615SOL    HW214745   1.408   1.570   0.061
 4616SOL     OW14746   6.214   0.733   6.770
 4616SOL    HW114747   6.173   0.688   6.849
 4616SOL    HW214748   6.308   0.760   6.792
 4617SOL     OW14749   1.001   2.181   2.731
 4617SOL    HW114750   1.056   2.098   2.723
 4617SOL    HW214751   1.040   2.253   2.673
 4618SOL     OW14752   1.234   2.582   5.707
 4618SOL    HW114753   1.219   2.550   5.613
 4618SOL    HW214754   1.302   2.522   5.752
 4619SOL     OW14755   4.294   0.201   3.686
 4619SOL    HW114756   4.301   0.229   3.782
 4619SOL    HW214757   4.205   0.157   3.671
 4620SOL     OW14758   3.663   4.463   6.950
 4620SOL    HW114759   3.752   4.491   6.914
 4620SOL    HW214760   3.672   4.380   7.004
 4621SOL     OW14761   6.728   1.711   4.834
 4621SOL    HW114762   6.655   1.688   4.769
 4621SOL    HW214763   6.782   1.629   4.854
 4622SOL     OW14764   1.467   2.674   0.797
 4622SOL    HW114765   1.508   2.754   0.840
 4622SOL    HW214766   1.409   2.627   0.865
 4623SOL     OW14767   6.761   4.709   0.855
 4623SOL    HW114768   6.688   4.650   0.820
 4623SOL    HW214769   6.849   4.667   0.834
 4624SOL     OW14770   4.469   0.830   3.684
 4624SOL    HW114771   4.556   0.837   3.635
 4624SOL    HW214772   4.478   0.873   3.774
 4625SOL     OW14773   1.462   4.541   0.045
 4625SOL    HW114774   1.490   4.585   6.980
 4625SOL    HW214775   1.506   4.451   0.052
 4626SOL     OW14776   6.293   4.370   1.877
 4626SOL    HW114777   6.339   4.456   1.856
 4626SOL    HW214778   6.262   4.327   1.792
 4627SOL     OW14779   3.980   6.415   5.676
 4627SOL    HW114780   4.005   6.433   5.581
 4627SOL    HW214781   3.915   6.484   5.707
 4628SOL     OW14782   6.075   5.096   2.237
 4628SOL    HW114783   6.086   5.008   2.190
 4628SOL    HW214784   6.158   5.117   2.289
 4629SOL     OW14785   2.055   4.866   6.234
 4629SOL    HW114786   2.058   4.954   6.187
 4629SOL    HW214787   2.145   4.822   6.227
 4630SOL     OW14788   2.713   5.829   3.638
 4630SOL    HW114789   2.654   5.764   3.591
 4630SOL    HW214790   2.801   5.787   3.656
 4631SOL     OW14791   1.908   6.446   3.581
 4631SOL    HW114792   2.007   6.428   3.576
 4631SOL    HW214793   1.891   6.543   3.563
 4632SOL     OW14794   4.222   5.682   4.477
 4632SOL    HW114795   4.220   5.614   4.551
 4632SOL    HW214796   4.311   5.727   4.474
 4633SOL     OW14797   6.397   2.061   5.409
 4633SOL    HW114798   6.415   2.143   5.464
 4633SOL    HW214799   6.320   2.078   5.348
 4634SOL     OW14800   2.824   4.599   0.377
 4634SOL    HW114801   2.917   4.578   0.345
 4634SOL    HW214802   2.798   4.535   0.448
 4635SOL     OW14803   5.944   3.616   2.753
 4635SOL    HW114804   5.897   3.652   2.833
 4635SOL    HW214805   5.878   3.568   2.695
 4636SOL     OW14806   2.409   5.442   0.118
 4636SOL    HW114807   2.374   5.487   0.036
 4636SOL    HW214808   2.508   5.433   0.111
 4637SOL     OW14809   1.036   0.768   6.459
 4637SOL    HW114810   1.004   0.772   6.364
 4637SOL    HW214811   1.120   0.713   6.463
 4638SOL     OW14812   3.894   2.935   6.088
 4638SOL    HW114813   3.862   2.997   6.016
 4638SOL    HW214814   3.817   2.881   6.122
 4639SOL     OW14815   0.744   4.078   5.865
 4639SOL    HW114816   0.769   4.025   5.946
 4639SOL    HW214817   0.654   4.049   5.832
 4640SOL     OW14818   4.841   4.769   3.895
 4640SOL    HW114819   4.884   4.683   3.925
 4640SOL    HW214820   4.779   4.801   3.966
 4641SOL     OW14821   2.581   5.013   4.428
 4641SOL    HW114822   2.530   5.058   4.500
 4641SOL    HW214823   2.524   4.945   4.383
 4642SOL     OW14824   6.407   5.260   4.642
 4642SOL    HW114825   6.452   5.341   4.681
 4642SOL    HW214826   6.465   5.223   4.569
 4643SOL     OW14827   4.181   2.429   1.365
 4643SOL    HW114828   4.102   2.372   1.388
 4643SOL    HW214829   4.149   2.518   1.332
 4644SOL     OW14830   1.332   5.276   4.879
 4644SOL    HW114831   1.258   5.336   4.910
 4644SOL    HW214832   1.408   5.332   4.845
 4645SOL     OW14833   1.902   6.529   4.667
 4645SOL    HW114834   1.909   6.552   4.764
 4645SOL    HW214835   1.860   6.439   4.656
 4646SOL     OW14836   2.889   0.215   2.257
 4646SOL    HW114837   2.877   0.310   2.228
 4646SOL    HW214838   2.812   0.161   2.224
 4647SOL     OW14839   0.711   6.869   3.468
 4647SOL    HW114840   0.677   6.820   3.548
 4647SOL    HW214841   0.641   6.933   3.436
 4648SOL     OW14842   3.377   6.847   2.666
 4648SOL    HW114843   3.397   6.749   2.672
 4648SOL    HW214844   3.448   6.899   2.713
 4649SOL     OW14845   5.104   0.891   5.753
 4649SOL    HW114846   5.098   0.861   5.848
 4649SOL    HW214847   5.129   0.988   5.751
 4650SOL     OW14848   4.325   6.487   3.073
 4650SOL    HW114849   4.255   6.554   3.098
 4650SOL    HW214850   4.399   6.490   3.140
 4651SOL     OW14851   0.214   2.399   2.013
 4651SOL    HW114852   0.260   2.334   1.953
 4651SOL    HW214853   0.132   2.434   1.967
 4652SOL     OW14854   0.618   0.231   3.582
 4652SOL    HW114855   0.714   0.260   3.581
 4652SOL    HW214856   0.560   0.309   3.559
 4653SOL     OW14857   6.579   6.321   6.995
 4653SOL    HW114858   6.508   6.350   6.931
 4653SOL    HW214859   6.590   6.390   0.047
 4654SOL     OW14860   1.029   6.881   0.452
 4654SOL    HW114861   1.104   6.824   0.419
 4654SOL    HW214862   1.065   6.960   0.501
 4655SOL     OW14863   0.594   4.709   2.880
 4655SOL    HW114864   0.506   4.754   2.869
 4655SOL    HW214865   0.590   4.645   2.958
 4656SOL     OW14866   0.817   0.481   3.235
 4656SOL    HW114867   0.805   0.406   3.170
 4656SOL    HW214868   0.884   0.546   3.200
 4657SOL     OW14869   4.940   6.959   1.181
 4657SOL    HW114870   4.947   6.913   1.270
 4657SOL    HW214871   5.014   6.928   1.122
 4658SOL     OW14872   4.132   0.159   2.882
 4658SOL    HW114873   4.078   0.113   2.811
 4658SOL    HW214874   4.073   0.221   2.933
 4659SOL     OW14875   1.454   2.954   5.169
 4659SOL    HW114876   1.370   2.931   5.219
 4659SOL    HW214877   1.523   2.884   5.187
 4660SOL     OW14878   0.702   1.930   5.184
 4660SOL    HW114879   0.636   1.855   5.188
 4660SOL    HW214880   0.751   1.936   5.272
 4661SOL     OW14881   3.443   4.070   4.334
 4661SOL    HW114882   3.488   4.105   4.416
 4661SOL    HW214883   3.345   4.086   4.341
 4662SOL     OW14884   5.109   0.410   5.441
 4662SOL    HW114885   5.070   0.501   5.423
 4662SOL    HW214886   5.035   0.344   5.453
 4663SOL     OW14887   0.084   1.638   1.889
 4663SOL    HW114888   0.109   1.681   1.976
 4663SOL    HW214889   7.009   1.607   1.894
 4664SOL     OW14890   2.069   2.757   6.310
 4664SOL    HW114891   2.128   2.820   6.261
 4664SOL    HW214892   2.006   2.808   6.368
 4665SOL     OW14893   5.423   0.431   6.228
 4665SOL    HW114894   5.515   0.392   6.230
 4665SOL    HW214895   5.383   0.429   6.319
 4666SOL     OW14896   2.451   1.840   6.904
 4666SOL    HW114897   2.398   1.881   6.979
 4666SOL    HW214898   2.541   1.883   6.900
 4667SOL     OW14899   6.943   5.089   6.427
 4667SOL    HW114900   7.005   5.025   6.381
 4667SOL    HW214901   6.990   5.176   6.441
 4668SOL     OW14902   6.823   1.579   4.452
 4668SOL    HW114903   6.757   1.506   4.437
 4668SOL    HW214904   6.777   1.668   4.439
 4669SOL     OW14905   1.704   5.971   0.414
 4669SOL    HW114906   1.729   5.888   0.364
 4669SOL    HW214907   1.636   6.023   0.361
 4670SOL     OW14908   3.132   0.982   4.660
 4670SOL    HW114909   3.148   0.997   4.563
 4670SOL    HW214910   3.144   1.069   4.710
 4671SOL     OW14911   6.348   2.893   1.544
 4671SOL    HW114912   6.401   2.911   1.461
 4671SOL    HW214913   6.337   2.794   1.556
 4672SOL     OW14914   1.732   4.060   6.075
 4672SOL    HW114915   1.686   3.972   6.060
 4672SOL    HW214916   1.821   4.059   6.030
 4673SOL     OW14917   3.675   0.343   1.615
 4673SOL    HW114918   3.681   0.434   1.574
 4673SOL    HW214919   3.669   0.352   1.714
 4674SOL     OW14920   5.488   5.464   5.471
 4674SOL    HW114921   5.415   5.405   5.436
 4674SOL    HW214922   5.457   5.510   5.553
 4675SOL     OW14923   1.336   3.744   0.930
 4675SOL    HW114924   1.339   3.710   0.836
 4675SOL    HW214925   1.412   3.807   0.946
 4676SOL     OW14926   1.619   6.123   3.798
 4676SOL    HW114927   1.663   6.158   3.715
 4676SOL    HW214928   1.523   6.104   3.779
 4677SOL     OW14929   1.719   1.670   0.424
 4677SOL    HW114930   1.766   1.644   0.340
 4677SOL    HW214931   1.670   1.592   0.461
 4678SOL     OW14932   2.175   3.962   2.616
 4678SOL    HW114933   2.180   4.001   2.524
 4678SOL    HW214934   2.185   3.863   2.610
 4679SOL     OW14935   5.350   6.506   1.872
 4679SOL    HW114936   5.449   6.503   1.862
 4679SOL    HW214937   5.326   6.521   1.968
 4680SOL     OW14938   3.350   1.687   1.678
 4680SOL    HW114939   3.297   1.755   1.730
 4680SOL    HW214940   3.443   1.721   1.665
 4681SOL     OW14941   5.173   4.346   0.252
 4681SOL    HW114942   5.113   4.309   0.323
 4681SOL    HW214943   5.170   4.446   0.256
 4682SOL     OW14944   4.533   3.561   6.437
 4682SOL    HW114945   4.435   3.547   6.423
 4682SOL    HW214946   4.583   3.532   6.355
 4683SOL     OW14947   5.867   4.298   3.453
 4683SOL    HW114948   5.841   4.383   3.499
 4683SOL    HW214949   5.957   4.310   3.410
 4684SOL     OW14950   4.068   5.949   0.125
 4684SOL    HW114951   4.159   5.932   0.164
 4684SOL    HW214952   4.055   6.047   0.113
 4685SOL     OW14953   2.456   3.868   5.981
 4685SOL    HW114954   2.397   3.788   5.972
 4685SOL    HW214955   2.401   3.951   5.980
 4686SOL     OW14956   3.176   6.192   0.772
 4686SOL    HW114957   3.108   6.239   0.716
 4686SOL    HW214958   3.176   6.231   0.864
 4687SOL     OW14959   3.391   1.739   3.255
 4687SOL    HW114960   3.346   1.789   3.329
 4687SOL    HW214961   3.428   1.653   3.290
 4688SOL     OW14962   5.512   2.441   5.931
 4688SOL    HW114963   5.501   2.421   5.834
 4688SOL    HW214964   5.606   2.422   5.960
 4689SOL     OW14965   5.480   0.248   1.382
 4689SOL    HW114966   5.548   0.321   1.384
 4689SOL    HW214967   5.399   0.276   1.434
 4690SOL     OW14968   1.936   1.548   0.641
 4690SOL    HW114969   2.014   1.498   0.677
 4690SOL    HW214970   1.862   1.483   0.620
 4691SOL     OW14971   5.350   4.723   0.043
 4691SOL    HW114972   5.400   4.637   0.030
 4691SOL    HW214973   5.291   4.740   6.984
 4692SOL     OW14974   6.649   4.542   2.591
 4692SOL    HW114975   6.727   4.603   2.582
 4692SOL    HW214976   6.582   4.582   2.655
 4693SOL     OW14977   1.705   0.425   4.063
 4693SOL    HW114978   1.795   0.443   4.103
 4693SOL    HW214979   1.655   0.359   4.120
 4694SOL     OW14980   2.152   1.565   0.261
 4694SOL    HW114981   2.224   1.619   0.219
 4694SOL    HW214982   2.092   1.624   0.315
 4695SOL     OW14983   1.315   5.978   0.824
 4695SOL    HW114984   1.362   5.968   0.912
 4695SOL    HW214985   1.378   5.952   0.750
 4696SOL     OW14986   0.941   5.236   5.819
 4696SOL    HW114987   1.010   5.167   5.840
 4696SOL    HW214988   0.859   5.192   5.783
 4697SOL     OW14989   1.680   3.852   1.261
 4697SOL    HW114990   1.761   3.806   1.298
 4697SOL    HW214991   1.648   3.922   1.325
 4698SOL     OW14992   4.757   0.043   3.286
 4698SOL    HW114993   4.692   0.057   3.361
 4698SOL    HW214994   4.809   0.127   3.272
 4699SOL     OW14995   0.544   0.669   2.060
 4699SOL    HW114996   0.620   0.608   2.082
 4699SOL    HW214997   0.478   0.669   2.136
 4700SOL     OW14998   6.695   2.294   2.511
 4700SOL    HW114999   6.622   2.246   2.462
 4700SOL    HW215000   6.783   2.251   2.491
 4701SOL     OW15001   3.241   1.591   2.385
 4701SOL    HW115002   3.220   1.509   2.438
 4701SOL    HW215003   3.177   1.597   2.308
 4702SOL     OW15004   5.092   4.968   6.694
 4702SOL    HW115005   5.105   5.061   6.660
 4702SOL    HW215006   5.099   4.903   6.618
 4703SOL     OW15007   0.897   5.114   2.251
 4703SOL    HW115008   0.847   5.032   2.223
 4703SOL    HW215009   0.899   5.179   2.175
 4704SOL     OW15010   0.221   6.341   5.761
 4704SOL    HW115011   0.210   6.398   5.843
 4704SOL    HW215012   0.132   6.313   5.727
 4705SOL     OW15013   2.891   2.621   0.902
 4705SOL    HW115014   2.836   2.702   0.922
 4705SOL    HW215015   2.941   2.593   0.984
 4706SOL     OW15016   1.122   6.989   1.140
 4706SOL    HW115017   1.125   6.896   1.176
 4706SOL    HW215018   1.214   0.001   1.121
 4707SOL     OW15019   1.829   6.552   1.248
 4707SOL    HW115020   1.917   6.574   1.289
 4707SOL    HW215021   1.764   6.626   1.265
 4708SOL     OW15022   1.488   1.616   5.014
 4708SOL    HW115023   1.445   1.695   4.969
 4708SOL    HW215024   1.569   1.589   4.962
 4709SOL     OW15025   5.115   5.190   5.008
 4709SOL    HW115026   5.099   5.209   5.105
 4709SOL    HW215027   5.211   5.209   4.985
 4710SOL     OW15028   5.590   6.568   4.549
 4710SOL    HW115029   5.686   6.560   4.522
 4710SOL    HW215030   5.532   6.547   4.471
 4711SOL     OW15031   6.325   3.024   3.250
 4711SOL    HW115032   6.238   3.031   3.300
 4711SOL    HW215033   6.339   3.108   3.197
 4712SOL     OW15034   4.509   4.258   6.000
 4712SOL    HW115035   4.473   4.169   6.029
 4712SOL    HW215036   4.433   4.321   5.984
 4713SOL     OW15037   5.051   4.783   1.100
 4713SOL    HW115038   5.082   4.693   1.128
 4713SOL    HW215039   5.038   4.784   1.000
 4714SOL     OW15040   6.500   1.841   6.626
 4714SOL    HW115041   6.432   1.781   6.586
 4714SOL    HW215042   6.580   1.788   6.653
 4715SOL     OW15043   6.298   1.992   1.709
 4715SOL    HW115044   6.233   1.991   1.634
 4715SOL    HW215045   6.271   1.924   1.777
 4716SOL     OW15046   4.461   5.367   5.281
 4716SOL    HW115047   4.536   5.350   5.218
 4716SOL    HW215048   4.413   5.450   5.253
 4717SOL     OW15049   2.714   5.847   5.780
 4717SOL    HW115050   2.636   5.812   5.832
 4717SOL    HW215051   2.732   5.786   5.702
 4718SOL     OW15052   5.268   2.942   1.129
 4718SOL    HW115053   5.341   2.931   1.061
 4718SOL    HW215054   5.182   2.905   1.093
 4719SOL     OW15055   5.715   3.178   3.479
 4719SOL    HW115056   5.750   3.145   3.392
 4719SOL    HW215057   5.652   3.254   3.463
 4720SOL     OW15058   3.242   5.403   0.575
 4720SOL    HW115059   3.160   5.432   0.526
 4720SOL    HW215060   3.222   5.320   0.628
 4721SOL     OW15061   6.285   3.327   1.653
 4721SOL    HW115062   6.239   3.321   1.742
 4721SOL    HW215063   6.357   3.396   1.657
 4722SOL     OW15064   1.165   4.672   6.893
 4722SOL    HW115065   1.071   4.696   6.869
 4722SOL    HW215066   1.175   4.670   6.993
 4723SOL     OW15067   3.708   4.700   5.797
 4723SOL    HW115068   3.733   4.702   5.894
 4723SOL    HW215069   3.656   4.783   5.775
 4724SOL     OW15070   0.248   6.789   4.176
 4724SOL    HW115071   0.181   6.813   4.246
 4724SOL    HW215072   0.203   6.785   4.087
 4725SOL     OW15073   5.750   5.326   0.487
 4725SOL    HW115074   5.703   5.271   0.555
 4725SOL    HW215075   5.848   5.302   0.486
 4726SOL     OW15076   1.779   2.816   5.659
 4726SOL    HW115077   1.746   2.729   5.621
 4726SOL    HW215078   1.710   2.854   5.720
 4727SOL     OW15079   0.657   5.442   0.256
 4727SOL    HW115080   0.729   5.429   0.188
 4727SOL    HW215081   0.669   5.529   0.303
 4728SOL     OW15082   6.198   1.337   3.324
 4728SOL    HW115083   6.107   1.330   3.366
 4728SOL    HW215084   6.215   1.256   3.268
 4729SOL     OW15085   4.892   0.554   0.341
 4729SOL    HW115086   4.809   0.538   0.288
 4729SOL    HW215087   4.972   0.538   0.284
 4730SOL     OW15088   3.787   0.064   4.586
 4730SOL    HW115089   3.787   0.124   4.506
 4730SOL    HW215090   3.861   7.017   4.577
 4731SOL     OW15091   2.856   0.553   0.448
 4731SOL    HW115092   2.829   0.541   0.544
 4731SOL    HW215093   2.844   0.467   0.399
 4732SOL     OW15094   0.956   3.294   5.016
 4732SOL    HW115095   1.022   3.349   4.964
 4732SOL    HW215096   0.998   3.208   5.043
 4733SOL     OW15097   2.202   4.303   3.041
 4733SOL    HW115098   2.122   4.277   3.096
 4733SOL    HW215099   2.196   4.259   2.952
 4734SOL     OW15100   4.836   2.969   6.390
 4734SOL    HW115101   4.849   2.943   6.486
 4734SOL    HW215102   4.894   3.047   6.368
 4735SOL     OW15103   0.474   5.995   4.029
 4735SOL    HW115104   0.524   6.037   3.953
 4735SOL    HW215105   0.454   5.899   4.007
 4736SOL     OW15106   6.706   2.272   3.830
 4736SOL    HW115107   6.775   2.205   3.804
 4736SOL    HW215108   6.741   2.328   3.905
 4737SOL     OW15109   1.933   4.533   0.710
 4737SOL    HW115110   1.896   4.507   0.799
 4737SOL    HW215111   1.993   4.460   0.677
 4738SOL     OW15112   3.134   6.979   3.774
 4738SOL    HW115113   3.227   6.946   3.759
 4738SOL    HW215114   3.129   0.005   3.863
 4739SOL     OW15115   6.430   2.669   4.829
 4739SOL    HW115116   6.458   2.658   4.925
 4739SOL    HW215117   6.511   2.674   4.771
 4740SOL     OW15118   0.676   0.957   1.108
 4740SOL    HW115119   0.733   0.875   1.108
 4740SOL    HW215120   0.733   1.037   1.126
 4741SOL     OW15121   4.486   4.659   0.876
 4741SOL    HW115122   4.581   4.683   0.862
 4741SOL    HW215123   4.476   4.559   0.873
 4742SOL     OW15124   2.862   5.766   1.702
 4742SOL    HW115125   2.813   5.804   1.781
 4742SOL    HW215126   2.893   5.674   1.723
 4743SOL     OW15127   2.707   1.025   5.508
 4743SOL    HW115128   2.755   1.053   5.591
 4743SOL    HW215129   2.765   1.042   5.428
 4744SOL     OW15130   2.020   2.946   5.427
 4744SOL    HW115131   1.988   3.016   5.490
 4744SOL    HW215132   2.115   2.964   5.403
 4745SOL     OW15133   3.152   5.445   5.762
 4745SOL    HW115134   3.231   5.389   5.738
 4745SOL    HW215135   3.122   5.423   5.855
 4746SOL     OW15136   6.164   5.896   0.510
 4746SOL    HW115137   6.105   5.875   0.432
 4746SOL    HW215138   6.254   5.924   0.478
 4747SOL     OW15139   0.202   2.822   0.178
 4747SOL    HW115140   0.136   2.834   0.104
 4747SOL    HW215141   0.261   2.902   0.183
 4748SOL     OW15142   1.061   0.834   1.338
 4748SOL    HW115143   0.978   0.792   1.373
 4748SOL    HW215144   1.136   0.768   1.343
 4749SOL     OW15145   2.662   6.698   6.808
 4749SOL    HW115146   2.707   6.735   6.890
 4749SOL    HW215147   2.717   6.624   6.770
 4750SOL     OW15148   0.323   1.673   4.499
 4750SOL    HW115149   0.226   1.652   4.484
 4750SOL    HW215150   0.331   1.743   4.569
 4751SOL     OW15151   2.154   4.540   6.833
 4751SOL    HW115152   2.117   4.541   6.740
 4751SOL    HW215153   2.172   4.445   6.860
 4752SOL     OW15154   2.687   6.207   1.212
 4752SOL    HW115155   2.646   6.267   1.142
 4752SOL    HW215156   2.614   6.164   1.265
 4753SOL     OW15157   5.541   6.834   5.010
 4753SOL    HW115158   5.567   6.750   5.057
 4753SOL    HW215159   5.554   6.823   4.911
 4754SOL     OW15160   6.455   0.446   6.267
 4754SOL    HW115161   6.494   0.509   6.200
 4754SOL    HW215162   6.357   0.436   6.250
 4755SOL     OW15163   2.718   0.912   6.294
 4755SOL    HW115164   2.691   1.008   6.293
 4755SOL    HW215165   2.652   0.860   6.348
 4756SOL     OW15166   5.540   1.906   2.036
 4756SOL    HW115167   5.592   1.991   2.032
 4756SOL    HW215168   5.524   1.881   2.132
 4757SOL     OW15169   2.445   2.501   2.222
 4757SOL    HW115170   2.487   2.463   2.304
 4757SOL    HW215171   2.504   2.482   2.143
 4758SOL     OW15172   4.013   5.803   5.555
 4758SOL    HW115173   3.934   5.828   5.612
 4758SOL    HW215174   4.053   5.718   5.589
 4759SOL     OW15175   5.471   5.876   5.031
 4759SOL    HW115176   5.534   5.938   4.984
 4759SOL    HW215177   5.431   5.922   5.110
 4760SOL     OW15178   2.312   1.298   1.514
 4760SOL    HW115179   2.335   1.308   1.611
 4760SOL    HW215180   2.391   1.264   1.464
 4761SOL     OW15181   5.904   0.185   6.607
 4761SOL    HW115182   5.952   0.268   6.579
 4761SOL    HW215183   5.960   0.106   6.586
 4762SOL     OW15184   2.429   4.525   2.410
 4762SOL    HW115185   2.374   4.442   2.409
 4762SOL    HW215186   2.468   4.540   2.319
 4763SOL     OW15187   6.110   5.938   2.911
 4763SOL    HW115188   6.123   5.869   2.982
 4763SOL    HW215189   6.139   6.028   2.946
 4764SOL     OW15190   4.616   3.928   5.301
 4764SOL    HW115191   4.622   3.834   5.268
 4764SOL    HW215192   4.670   3.988   5.242
 4765SOL     OW15193   4.556   6.352   5.212
 4765SOL    HW115194   4.634   6.346   5.151
 4765SOL    HW215195   4.471   6.357   5.158
 4766SOL     OW15196   3.230   0.904   3.482
 4766SOL    HW115197   3.218   0.965   3.404
 4766SOL    HW215198   3.167   0.826   3.473
 4767SOL     OW15199   4.081   6.654   1.255
 4767SOL    HW115200   4.105   6.698   1.342
 4767SOL    HW215201   4.093   6.719   1.180
 4768SOL     OW15202   4.952   1.748   4.737
 4768SOL    HW115203   4.976   1.741   4.834
 4768SOL    HW215204   4.992   1.671   4.687
 4769SOL     OW15205   3.898   5.638   1.684
 4769SOL    HW115206   3.808   5.625   1.642
 4769SOL    HW215207   3.967   5.588   1.632
 4770SOL     OW15208   2.342   0.353   2.931
 4770SOL    HW115209   2.272   0.415   2.897
 4770SOL    HW215210   2.383   0.304   2.853
 4771SOL     OW15211   3.352   4.726   5.652
 4771SOL    HW115212   3.265   4.774   5.650
 4771SOL    HW215213   3.336   4.627   5.652
 4772SOL     OW15214   2.873   6.894   1.183
 4772SOL    HW115215   2.906   6.890   1.088
 4772SOL    HW215216   2.909   6.976   1.227
 4773SOL     OW15217   0.314   5.371   4.187
 4773SOL    HW115218   0.260   5.452   4.164
 4773SOL    HW215219   0.285   5.336   4.276
 4774SOL     OW15220   0.969   3.191   2.104
 4774SOL    HW115221   0.936   3.250   2.177
 4774SOL    HW215222   0.975   3.097   2.136
 4775SOL     OW15223   5.531   0.590   3.139
 4775SOL    HW115224   5.563   0.562   3.048
 4775SOL    HW215225   5.539   0.513   3.202
 4776SOL     OW15226   2.384   6.307   3.229
 4776SOL    HW115227   2.371   6.336   3.134
 4776SOL    HW215228   2.381   6.207   3.234
 4777SOL     OW15229   2.661   4.140   1.308
 4777SOL    HW115230   2.737   4.077   1.289
 4777SOL    HW215231   2.656   4.156   1.406
 4778SOL     OW15232   5.468   2.851   1.685
 4778SOL    HW115233   5.393   2.902   1.727
 4778SOL    HW215234   5.463   2.755   1.713
 4779SOL     OW15235   6.823   0.150   2.698
 4779SOL    HW115236   6.829   0.168   2.796
 4779SOL    HW215237   6.915   0.139   2.660
 4780SOL     OW15238   0.603   0.954   5.978
 4780SOL    HW115239   0.696   0.968   6.011
 4780SOL    HW215240   0.565   1.041   5.946
 4781SOL     OW15241   2.725   6.149   1.676
 4781SOL    HW115242   2.779   6.196   1.745
 4781SOL    HW215243   2.636   6.123   1.715
 4782SOL     OW15244   4.812   0.108   0.281
 4782SOL    HW115245   4.785   0.053   0.202
 4782SOL    HW215246   4.849   0.048   0.352
 4783SOL     OW15247   4.689   4.470   0.629
 4783SOL    HW115248   4.769   4.506   0.580
 4783SOL    HW215249   4.616   4.538   0.628
 4784SOL     OW15250   6.153   4.839   5.775
 4784SOL    HW115251   6.158   4.836   5.874
 4784SOL    HW215252   6.214   4.910   5.740
 4785SOL     OW15253   6.889   6.386   1.031
 4785SOL    HW115254   6.877   6.442   0.949
 4785SOL    HW215255   6.961   6.426   1.088
 4786SOL     OW15256   1.816   2.446   2.611
 4786SOL    HW115257   1.826   2.545   2.602
 4786SOL    HW215258   1.904   2.406   2.636
 4787SOL     OW15259   3.068   2.104   3.647
 4787SOL    HW115260   3.075   2.100   3.547
 4787SOL    HW215261   3.160   2.114   3.686
 4788SOL     OW15262   1.434   5.991   6.044
 4788SOL    HW115263   1.336   5.974   6.036
 4788SOL    HW215264   1.482   5.946   5.968
 4789SOL     OW15265   4.849   0.874   0.278
 4789SOL    HW115266   4.877   0.798   0.220
 4789SOL    HW215267   4.888   0.959   0.243
 4790SOL     OW15268   5.565   3.230   6.737
 4790SOL    HW115269   5.465   3.232   6.732
 4790SOL    HW215270   5.604   3.278   6.658
 4791SOL     OW15271   6.073   0.777   2.072
 4791SOL    HW115272   6.163   0.735   2.079
 4791SOL    HW215273   6.033   0.786   2.163
 4792SOL     OW15274   2.210   3.130   2.919
 4792SOL    HW115275   2.229   3.032   2.911
 4792SOL    HW215276   2.283   3.181   2.873
 4793SOL     OW15277   1.243   0.714   5.827
 4793SOL    HW115278   1.313   0.697   5.757
 4793SOL    HW215279   1.157   0.671   5.798
 4794SOL     OW15280   3.709   0.154   2.736
 4794SOL    HW115281   3.794   0.145   2.683
 4794SOL    HW215282   3.636   0.187   2.676
 4795SOL     OW15283   6.802   2.991   4.715
 4795SOL    HW115284   6.714   2.981   4.670
 4795SOL    HW215285   6.813   3.085   4.747
 4796SOL     OW15286   5.029   2.412   0.112
 4796SOL    HW115287   5.003   2.373   0.024
 4796SOL    HW215288   4.989   2.359   0.186
 4797SOL     OW15289   1.615   5.864   5.842
 4797SOL    HW115290   1.699   5.895   5.799
 4797SOL    HW215291   1.576   5.788   5.788
 4798SOL     OW15292   0.490   4.276   5.269
 4798SOL    HW115293   0.545   4.323   5.200
 4798SOL    HW215294   0.469   4.340   5.343
 4799SOL     OW15295   5.520   1.800   5.142
 4799SOL    HW115296   5.459   1.869   5.102
 4799SOL    HW215297   5.601   1.845   5.178
 4800SOL     OW15298   3.134   3.412   6.375
 4800SOL    HW115299   3.135   3.431   6.277
 4800SOL    HW215300   3.224   3.382   6.404
 4801SOL     OW15301   2.193   2.224   0.137
 4801SOL    HW115302   2.097   2.228   0.164
 4801SOL    HW215303   2.215   2.303   0.080
 4802SOL     OW15304   1.628   6.640   2.390
 4802SOL    HW115305   1.650   6.709   2.459
 4802SOL    HW215306   1.541   6.664   2.346
 4803SOL     OW15307   0.577   6.705   1.212
 4803SOL    HW115308   0.531   6.622   1.182
 4803SOL    HW215309   0.607   6.757   1.132
 4804SOL     OW15310   4.014   5.542   6.515
 4804SOL    HW115311   4.071   5.540   6.597
 4804SOL    HW215312   4.072   5.532   6.434
 4805SOL     OW15313   6.667   0.088   0.668
 4805SOL    HW115314   6.667   0.071   0.767
 4805SOL    HW215315   6.653   0.186   0.651
 4806SOL     OW15316   6.798   4.000   3.699
 4806SOL    HW115317   6.765   3.939   3.771
 4806SOL    HW215318   6.868   3.954   3.645
 4807SOL     OW15319   0.716   5.583   1.245
 4807SOL    HW115320   0.665   5.559   1.163
 4807SOL    HW215321   0.695   5.678   1.271
 4808SOL     OW15322   5.654   3.424   0.414
 4808SOL    HW115323   5.676   3.512   0.457
 4808SOL    HW215324   5.566   3.391   0.449
 4809SOL     OW15325   3.337   4.415   6.988
 4809SOL    HW115326   3.287   4.502   6.986
 4809SOL    HW215327   3.411   4.418   6.921
 4810SOL     OW15328   0.944   4.867   1.113
 4810SOL    HW115329   0.983   4.958   1.105
 4810SOL    HW215330   0.906   4.855   1.204
 4811SOL     OW15331   2.503   5.239   1.642
 4811SOL    HW115332   2.584   5.252   1.699
 4811SOL    HW215333   2.421   5.259   1.695
 4812SOL     OW15334   6.542   5.350   5.068
 4812SOL    HW115335   6.587   5.313   5.150
 4812SOL    HW215336   6.611   5.376   5.001
 4813SOL     OW15337   5.046   1.280   3.095
 4813SOL    HW115338   4.984   1.318   3.165
 4813SOL    HW215339   4.997   1.274   3.008
 4814SOL     OW15340   6.307   4.747   0.892
 4814SOL    HW115341   6.328   4.650   0.878
 4814SOL    HW215342   6.358   4.780   0.972
 4815SOL     OW15343   5.039   5.045   2.798
 4815SOL    HW115344   5.069   4.950   2.786
 4815SOL    HW215345   4.983   5.053   2.880
 4816SOL     OW15346   5.807   5.244   3.316
 4816SOL    HW115347   5.726   5.255   3.258
 4816SOL    HW215348   5.837   5.149   3.314
 4817SOL     OW15349   0.630   2.189   5.940
 4817SOL    HW115350   0.662   2.269   5.991
 4817SOL    HW215351   0.665   2.106   5.983
 4818SOL     OW15352   0.593   6.822   3.700
 4818SOL    HW115353   0.511   6.767   3.685
 4818SOL    HW215354   0.573   6.895   3.765
 4819SOL     OW15355   1.401   3.249   0.253
 4819SOL    HW115356   1.341   3.319   0.294
 4819SOL    HW215357   1.345   3.178   0.212
 4820SOL     OW15358   6.870   2.885   1.658
 4820SOL    HW115359   6.839   2.906   1.565
 4820SOL    HW215360   6.964   2.919   1.669
 4821SOL     OW15361   0.731   5.942   1.777
 4821SOL    HW115362   0.675   5.900   1.848
 4821SOL    HW215363   0.736   5.881   1.698
 4822SOL     OW15364   1.473   4.027   4.169
 4822SOL    HW115365   1.390   3.973   4.156
 4822SOL    HW215366   1.542   3.999   4.102
 4823SOL     OW15367   1.123   2.356   2.591
 4823SOL    HW115368   1.117   2.302   2.506
 4823SOL    HW215369   1.118   2.453   2.569
 4824SOL     OW15370   5.159   1.432   5.185
 4824SOL    HW115371   5.109   1.420   5.098
 4824SOL    HW215372   5.228   1.503   5.174
 4825SOL     OW15373   0.914   0.662   4.386
 4825SOL    HW115374   0.899   0.758   4.362
 4825SOL    HW215375   0.845   0.605   4.340
 4826SOL     OW15376   4.489   0.373   1.353
 4826SOL    HW115377   4.506   0.309   1.278
 4826SOL    HW215378   4.515   0.465   1.325
 4827SOL     OW15379   6.479   1.488   0.234
 4827SOL    HW115380   6.444   1.564   0.289
 4827SOL    HW215381   6.525   1.525   0.153
 4828SOL     OW15382   4.594   0.231   1.752
 4828SOL    HW115383   4.528   0.254   1.823
 4828SOL    HW215384   4.597   0.131   1.740
 4829SOL     OW15385   4.047   0.309   6.278
 4829SOL    HW115386   3.996   0.278   6.358
 4829SOL    HW215387   4.144   0.316   6.301
 4830SOL     OW15388   4.223   5.957   3.558
 4830SOL    HW115389   4.311   5.913   3.543
 4830SOL    HW215390   4.221   6.046   3.513
 4831SOL     OW15391   3.438   5.639   5.850
 4831SOL    HW115392   3.355   5.634   5.794
 4831SOL    HW215393   3.413   5.635   5.947
 4832SOL     OW15394   3.187   3.478   4.690
 4832SOL    HW115395   3.215   3.506   4.599
 4832SOL    HW215396   3.182   3.559   4.750
 4833SOL     OW15397   6.035   2.481   4.028
 4833SOL    HW115398   5.936   2.476   4.013
 4833SOL    HW215399   6.054   2.461   4.124
 4834SOL     OW15400   2.384   5.318   2.462
 4834SOL    HW115401   2.401   5.390   2.395
 4834SOL    HW215402   2.394   5.356   2.554
 4835SOL     OW15403   6.716   3.726   6.297
 4835SOL    HW115404   6.691   3.691   6.387
 4835SOL    HW215405   6.808   3.764   6.300
 4836SOL     OW15406   4.943   1.137   5.457
 4836SOL    HW115407   4.945   1.040   5.481
 4836SOL    HW215408   4.869   1.154   5.392
 4837SOL     OW15409   6.770   3.073   3.621
 4837SOL    HW115410   6.696   3.032   3.674
 4837SOL    HW215411   6.777   3.170   3.644
 4838SOL     OW15412   1.212   4.819   6.079
 4838SOL    HW115413   1.282   4.749   6.096
 4838SOL    HW215414   1.215   4.847   5.983
 4839SOL     OW15415   1.229   2.372   7.010
 4839SOL    HW115416   1.231   2.330   6.919
 4839SOL    HW215417   1.212   2.470   7.001
 4840SOL     OW15418   5.456   4.087   5.156
 4840SOL    HW115419   5.505   4.028   5.093
 4840SOL    HW215420   5.396   4.032   5.214
 4841SOL     OW15421   3.101   5.117   3.471
 4841SOL    HW115422   3.009   5.156   3.467
 4841SOL    HW215423   3.155   5.167   3.539
 4842SOL     OW15424   2.397   5.184   2.788
 4842SOL    HW115425   2.391   5.138   2.699
 4842SOL    HW215426   2.468   5.140   2.843
 4843SOL     OW15427   0.405   2.968   2.143
 4843SOL    HW115428   0.413   3.012   2.054
 4843SOL    HW215429   0.350   3.025   2.204
 4844SOL     OW15430   1.111   4.906   5.214
 4844SOL    HW115431   1.171   4.843   5.166
 4844SOL    HW215432   1.050   4.951   5.149
 4845SOL     OW15433   4.555   4.479   5.269
 4845SOL    HW115434   4.616   4.412   5.226
 4845SOL    HW215435   4.460   4.457   5.248
 4846SOL     OW15436   0.600   2.698   4.200
 4846SOL    HW115437   0.643   2.625   4.253
 4846SOL    HW215438   0.531   2.659   4.139
 4847SOL     OW15439   2.888   6.827   5.642
 4847SOL    HW115440   2.985   6.810   5.658
 4847SOL    HW215441   2.833   6.769   5.701
 4848SOL     OW15442   2.057   1.183   3.942
 4848SOL    HW115443   2.014   1.262   3.898
 4848SOL    HW215444   2.064   1.199   4.040
 4849SOL     OW15445   2.172   0.972   0.481
 4849SOL    HW115446   2.222   0.914   0.544
 4849SOL    HW215447   2.233   1.002   0.408
 4850SOL     OW15448   4.471   0.670   1.249
 4850SOL    HW115449   4.402   0.670   1.321
 4850SOL    HW215450   4.537   0.743   1.266
 4851SOL     OW15451   3.445   5.925   0.120
 4851SOL    HW115452   3.457   5.956   0.026
 4851SOL    HW215453   3.528   5.877   0.149
 4852SOL     OW15454   3.582   5.673   4.750
 4852SOL    HW115455   3.524   5.596   4.723
 4852SOL    HW215456   3.529   5.758   4.744
 4853SOL     OW15457   3.180   0.899   2.903
 4853SOL    HW115458   3.085   0.893   2.871
 4853SOL    HW215459   3.235   0.944   2.832
 4854SOL     OW15460   5.604   6.081   1.505
 4854SOL    HW115461   5.624   6.143   1.429
 4854SOL    HW215462   5.674   6.010   1.508
 4855SOL     OW15463   6.903   4.242   5.237
 4855SOL    HW115464   6.893   4.157   5.185
 4855SOL    HW215465   6.999   4.254   5.262
 4856SOL     OW15466   0.644   3.580   2.528
 4856SOL    HW115467   0.724   3.520   2.521
 4856SOL    HW215468   0.596   3.581   2.441
 4857SOL     OW15469   3.116   2.195   4.350
 4857SOL    HW115470   3.150   2.146   4.430
 4857SOL    HW215471   3.045   2.259   4.377
 4858SOL     OW15472   0.538   7.015   5.589
 4858SOL    HW115473   0.597   0.010   5.509
 4858SOL    HW215474   0.444   7.003   5.559
 4859SOL     OW15475   0.536   5.413   2.021
 4859SOL    HW115476   0.446   5.392   2.058
 4859SOL    HW215477   0.535   5.401   1.922
 4860SOL     OW15478   4.783   5.336   0.190
 4860SOL    HW115479   4.862   5.395   0.178
 4860SOL    HW215480   4.738   5.321   0.101
 4861SOL     OW15481   6.646   4.893   6.047
 4861SOL    HW115482   6.557   4.879   6.091
 4861SOL    HW215483   6.713   4.830   6.086
 4862SOL     OW15484   2.731   4.803   4.810
 4862SOL    HW115485   2.788   4.748   4.872
 4862SOL    HW215486   2.788   4.874   4.768
 4863SOL     OW15487   4.732   2.870   2.678
 4863SOL    HW115488   4.702   2.805   2.607
 4863SOL    HW215489   4.756   2.957   2.636
 4864SOL     OW15490   3.196   1.440   2.119
 4864SOL    HW115491   3.113   1.436   2.063
 4864SOL    HW215492   3.254   1.515   2.088
 4865SOL     OW15493   3.377   5.297   5.730
 4865SOL    HW115494   3.410   5.241   5.654
 4865SOL    HW215495   3.433   5.279   5.811
 4866SOL     OW15496   6.116   5.064   1.715
 4866SOL    HW115497   6.176   5.115   1.776
 4866SOL    HW215498   6.021   5.078   1.741
 4867SOL     OW15499   5.264   5.223   2.821
 4867SOL    HW115500   5.178   5.174   2.807
 4867SOL    HW215501   5.286   5.276   2.740
 4868SOL     OW15502   0.503   5.170   1.182
 4868SOL    HW115503   0.547   5.146   1.096
 4868SOL    HW215504   0.409   5.135   1.183
 4869SOL     OW15505   6.779   1.600   0.131
 4869SOL    HW115506   6.770   1.612   0.230
 4869SOL    HW215507   6.853   1.536   0.111
 4870SOL     OW15508   4.237   6.108   1.964
 4870SOL    HW115509   4.273   6.019   1.937
 4870SOL    HW215510   4.312   6.174   1.971
 4871SOL     OW15511   1.129   2.030   3.393
 4871SOL    HW115512   1.157   2.007   3.299
 4871SOL    HW215513   1.095   1.949   3.439
 4872SOL     OW15514   1.178   0.183   2.950
 4872SOL    HW115515   1.137   0.126   2.879
 4872SOL    HW215516   1.177   0.134   3.037
 4873SOL     OW15517   0.301   5.397   4.458
 4873SOL    HW115518   0.208   5.431   4.472
 4873SOL    HW215519   0.360   5.471   4.425
 4874SOL     OW15520   5.070   3.820   3.512
 4874SOL    HW115521   5.143   3.854   3.571
 4874SOL    HW215522   5.028   3.740   3.554
 4875SOL     OW15523   5.430   1.552   1.283
 4875SOL    HW115524   5.529   1.543   1.270
 4875SOL    HW215525   5.383   1.479   1.235
 4876SOL     OW15526   6.324   0.937   6.194
 4876SOL    HW115527   6.262   0.869   6.234
 4876SOL    HW215528   6.281   1.027   6.199
 4877SOL     OW15529   6.309   1.593   0.941
 4877SOL    HW115530   6.216   1.621   0.962
 4877SOL    HW215531   6.311   1.497   0.914
 4878SOL     OW15532   0.152   1.239   1.972
 4878SOL    HW115533   0.206   1.320   1.998
 4878SOL    HW215534   0.082   1.266   1.906
 4879SOL     OW15535   4.036   4.907   3.522
 4879SOL    HW115536   4.072   4.814   3.526
 4879SOL    HW215537   4.101   4.970   3.565
 4880SOL     OW15538   5.642   1.062   0.145
 4880SOL    HW115539   5.692   1.110   0.217
 4880SOL    HW215540   5.705   1.040   0.070
 4881SOL     OW15541   3.221   6.623   6.297
 4881SOL    HW115542   3.167   6.703   6.324
 4881SOL    HW215543   3.220   6.556   6.371
 4882SOL     OW15544   5.990   1.222   5.171
 4882SOL    HW115545   5.989   1.158   5.248
 4882SOL    HW215546   5.898   1.233   5.134
 4883SOL     OW15547   5.993   4.548   2.084
 4883SOL    HW115548   5.951   4.553   1.993
 4883SOL    HW215549   6.053   4.468   2.089
 4884SOL     OW15550   3.638   6.517   1.624
 4884SOL    HW115551   3.652   6.580   1.547
 4884SOL    HW215552   3.726   6.496   1.666
 4885SOL     OW15553   1.980   6.981   1.164
 4885SOL    HW115554   1.905   0.004   1.215
 4885SOL    HW215555   2.043   6.936   1.228
 4886SOL     OW15556   6.304   0.205   0.067
 4886SOL    HW115557   6.276   0.191   0.162
 4886SOL    HW215558   6.371   0.135   0.041
 4887SOL     OW15559   0.407   2.210   3.522
 4887SOL    HW115560   0.331   2.198   3.586
 4887SOL    HW215561   0.493   2.215   3.572
 4888SOL     OW15562   1.530   5.975   2.834
 4888SOL    HW115563   1.556   5.886   2.871
 4888SOL    HW215564   1.598   6.004   2.767
 4889SOL     OW15565   1.352   1.957   0.348
 4889SOL    HW115566   1.296   1.875   0.363
 4889SOL    HW215567   1.389   1.955   0.255
 4890SOL     OW15568   0.586   1.008   4.636
 4890SOL    HW115569   0.507   1.057   4.600
 4890SOL    HW215570   0.597   0.921   4.588
 4891SOL     OW15571   0.845   4.818   0.569
 4891SOL    HW115572   0.768   4.804   0.507
 4891SOL    HW215573   0.907   4.886   0.531
 4892SOL     OW15574   1.662   5.733   1.634
 4892SOL    HW115575   1.605   5.692   1.705
 4892SOL    HW215576   1.651   5.832   1.635
 4893SOL     OW15577   7.017   3.891   6.551
 4893SOL    HW115578   0.096   3.892   6.560
 4893SOL    HW215579   6.977   3.958   6.614
 4894SOL     OW15580   1.737   0.608   3.032
 4894SOL    HW115581   1.783   0.679   3.086
 4894SOL    HW215582   1.651   0.582   3.078
 4895SOL     OW15583   0.818   2.775   0.516
 4895SOL    HW115584   0.887   2.796   0.585
 4895SOL    HW215585   0.858   2.715   0.446
 4896SOL     OW15586   3.841   4.968   4.654
 4896SOL    HW115587   3.747   4.994   4.679
 4896SOL    HW215588   3.899   4.971   4.735
 4897SOL     OW15589   3.311   5.589   0.013
 4897SOL    HW115590   3.291   5.676   0.058
 4897SOL    HW215591   3.258   5.516   0.055
 4898SOL     OW15592   5.421   2.103   5.615
 4898SOL    HW115593   5.433   2.193   5.657
 4898SOL    HW215594   5.470   2.034   5.669
 4899SOL     OW15595   5.934   4.374   3.142
 4899SOL    HW115596   5.962   4.421   3.058
 4899SOL    HW215597   5.999   4.395   3.215
 4900SOL     OW15598   0.541   6.835   5.998
 4900SOL    HW115599   0.619   6.811   6.056
 4900SOL    HW215600   0.568   6.905   5.933
 4901SOL     OW15601   0.690   6.500   3.817
 4901SOL    HW115602   0.724   6.480   3.726
 4901SOL    HW215603   0.766   6.525   3.877
 4902SOL     OW15604   2.412   4.860   1.772
 4902SOL    HW115605   2.503   4.849   1.731
 4902SOL    HW215606   2.351   4.791   1.735
 4903SOL     OW15607   3.948   0.012   0.018
 4903SOL    HW115608   4.016   6.968   0.053
 4903SOL    HW215609   3.886   0.038   0.091
 4904SOL     OW15610   1.852   6.027   3.940
 4904SOL    HW115611   1.937   6.029   3.888
 4904SOL    HW215612   1.776   6.053   3.881
 4905SOL     OW15613   5.126   2.893   1.715
 4905SOL    HW115614   5.078   2.947   1.646
 4905SOL    HW215615   5.166   2.955   1.783
 4906SOL     OW15616   4.626   0.197   0.472
 4906SOL    HW115617   4.559   0.150   0.529
 4906SOL    HW215618   4.682   0.130   0.423
 4907SOL     OW15619   4.317   6.990   4.004
 4907SOL    HW115620   4.345   0.053   4.052
 4907SOL    HW215621   4.280   6.925   4.071
 4908SOL     OW15622   3.676   5.838   6.345
 4908SOL    HW115623   3.649   5.745   6.322
 4908SOL    HW215624   3.741   5.872   6.277
 4909SOL     OW15625   6.192   6.632   5.439
 4909SOL    HW115626   6.210   6.696   5.365
 4909SOL    HW215627   6.218   6.674   5.526
 4910SOL     OW15628   5.270   0.639   5.091
 4910SOL    HW115629   5.355   0.631   5.144
 4910SOL    HW215630   5.267   0.729   5.048
 4911SOL     OW15631   0.319   2.537   5.890
 4911SOL    HW115632   0.312   2.453   5.835
 4911SOL    HW215633   0.289   2.615   5.835
 4912SOL     OW15634   3.935   2.150   2.628
 4912SOL    HW115635   3.945   2.211   2.549
 4912SOL    HW215636   3.843   2.111   2.627
 4913SOL     OW15637   3.339   3.796   3.389
 4913SOL    HW115638   3.414   3.743   3.428
 4913SOL    HW215639   3.275   3.733   3.344
 4914SOL     OW15640   2.346   6.896   3.719
 4914SOL    HW115641   2.439   6.867   3.740
 4914SOL    HW215642   2.343   6.996   3.715
 4915SOL     OW15643   3.910   6.375   4.528
 4915SOL    HW115644   3.881   6.292   4.480
 4915SOL    HW215645   3.918   6.450   4.463
 4916SOL     OW15646   2.862   2.267   3.238
 4916SOL    HW115647   2.851   2.311   3.327
 4916SOL    HW215648   2.809   2.316   3.169
 4917SOL     OW15649   2.004   3.855   0.723
 4917SOL    HW115650   1.956   3.786   0.670
 4917SOL    HW215651   1.966   3.946   0.702
 4918SOL     OW15652   2.582   0.430   2.308
 4918SOL    HW115653   2.635   0.448   2.391
 4918SOL    HW215654   2.597   0.504   2.243
 4919SOL     OW15655   1.572   2.094   2.541
 4919SOL    HW115656   1.553   2.191   2.550
 4919SOL    HW215657   1.486   2.043   2.529
 4920SOL     OW15658   4.168   0.995   0.495
 4920SOL    HW115659   4.127   0.926   0.554
 4920SOL    HW215660   4.231   0.952   0.431
 4921SOL     OW15661   2.394   4.000   1.724
 4921SOL    HW115662   2.319   3.997   1.657
 4921SOL    HW215663   2.363   3.958   1.810
 4922SOL     OW15664   1.557   3.072   5.425
 4922SOL    HW115665   1.611   3.142   5.380
 4922SOL    HW215666   1.585   2.982   5.393
 4923SOL     OW15667   5.285   0.358   1.557
 4923SOL    HW115668   5.199   0.395   1.524
 4923SOL    HW215669   5.348   0.433   1.577
 4924SOL     OW15670   0.950   3.930   3.814
 4924SOL    HW115671   1.017   3.970   3.876
 4924SOL    HW215672   0.982   3.938   3.719
 4925SOL     OW15673   4.731   6.394   1.046
 4925SOL    HW115674   4.830   6.400   1.035
 4925SOL    HW215675   4.691   6.485   1.041
 4926SOL     OW15676   5.280   2.497   2.002
 4926SOL    HW115677   5.224   2.579   1.987
 4926SOL    HW215678   5.348   2.516   2.073
 4927SOL     OW15679   3.455   2.987   2.960
 4927SOL    HW115680   3.390   2.975   2.885
 4927SOL    HW215681   3.420   2.942   3.042
 4928SOL     OW15682   0.810   6.667   0.071
 4928SOL    HW115683   0.763   6.755   0.063
 4928SOL    HW215684   0.802   6.618   7.004
 4929SOL     OW15685   1.349   4.978   4.545
 4929SOL    HW115686   1.316   4.933   4.463
 4929SOL    HW215687   1.349   4.913   4.621
 4930SOL     OW15688   0.437   2.054   0.293
 4930SOL    HW115689   0.481   1.989   0.355
 4930SOL    HW215690   0.354   2.014   0.256
 4931SOL     OW15691   0.783   0.039   0.387
 4931SOL    HW115692   0.870   7.020   0.415
 4931SOL    HW215693   0.722   0.046   0.466
 4932SOL     OW15694   2.554   2.468   1.533
 4932SOL    HW115695   2.479   2.409   1.505
 4932SOL    HW215696   2.541   2.559   1.495
 4933SOL     OW15697   2.593   1.532   4.073
 4933SOL    HW115698   2.570   1.525   4.170
 4933SOL    HW215699   2.510   1.553   4.021
 4934SOL     OW15700   0.041   5.160   3.715
 4934SOL    HW115701   0.111   5.088   3.724
 4934SOL    HW215702   0.018   5.172   3.619
 4935SOL     OW15703   2.354   1.441   6.689
 4935SOL    HW115704   2.388   1.403   6.775
 4935SOL    HW215705   2.259   1.411   6.675
 4936SOL     OW15706   3.557   5.858   1.655
 4936SOL    HW115707   3.461   5.872   1.677
 4936SOL    HW215708   3.613   5.875   1.736
 4937SOL     OW15709   1.006   3.416   5.931
 4937SOL    HW115710   1.023   3.329   5.979
 4937SOL    HW215711   1.068   3.486   5.968
 4938SOL     OW15712   3.124   4.550   1.160
 4938SOL    HW115713   3.078   4.637   1.174
 4938SOL    HW215714   3.140   4.505   1.248
 4939SOL     OW15715   1.302   1.364   1.722
 4939SOL    HW115716   1.305   1.275   1.769
 4939SOL    HW215717   1.373   1.367   1.652
 4940SOL     OW15718   6.792   2.783   3.984
 4940SOL    HW115719   6.721   2.851   3.966
 4940SOL    HW215720   6.779   2.704   3.924
 4941SOL     OW15721   4.035   2.506   5.387
 4941SOL    HW115722   4.031   2.602   5.414
 4941SOL    HW215723   4.087   2.497   5.302
 4942SOL     OW15724   5.389   3.044   3.511
 4942SOL    HW115725   5.312   2.984   3.493
 4942SOL    HW215726   5.425   3.027   3.602
 4943SOL     OW15727   5.216   3.421   6.564
 4943SOL    HW115728   5.120   3.447   6.565
 4943SOL    HW215729   5.243   3.385   6.654
 4944SOL     OW15730   1.836   4.479   0.948
 4944SOL    HW115731   1.739   4.471   0.972
 4944SOL    HW215732   1.889   4.414   1.002
 4945SOL     OW15733   2.131   1.002   4.527
 4945SOL    HW115734   2.137   0.905   4.502
 4945SOL    HW215735   2.037   1.033   4.517
 4946SOL     OW15736   1.516   4.344   0.493
 4946SOL    HW115737   1.604   4.297   0.484
 4946SOL    HW215738   1.488   4.343   0.589
 4947SOL     OW15739   2.271   0.717   1.796
 4947SOL    HW115740   2.299   0.633   1.749
 4947SOL    HW215741   2.273   0.703   1.895
 4948SOL     OW15742   1.815   2.366   1.627
 4948SOL    HW115743   1.764   2.311   1.694
 4948SOL    HW215744   1.899   2.399   1.669
 4949SOL     OW15745   6.616   3.407   6.341
 4949SOL    HW115746   6.627   3.411   6.440
 4949SOL    HW215747   6.553   3.480   6.312
 4950SOL     OW15748   2.354   4.692   5.304
 4950SOL    HW115749   2.415   4.678   5.226
 4950SOL    HW215750   2.263   4.716   5.271
 4951SOL     OW15751   5.642   6.681   3.653
 4951SOL    HW115752   5.606   6.769   3.622
 4951SOL    HW215753   5.659   6.623   3.574
 4952SOL     OW15754   6.994   0.272   6.081
 4952SOL    HW115755   6.945   0.356   6.103
 4952SOL    HW215756   6.932   0.206   6.039
 4953SOL     OW15757   1.255   2.061   4.984
 4953SOL    HW115758   1.182   2.117   4.944
 4953SOL    HW215759   1.226   2.029   5.074
 4954SOL     OW15760   2.629   3.900   5.300
 4954SOL    HW115761   2.539   3.899   5.258
 4954SOL    HW215762   2.692   3.844   5.246
 4955SOL     OW15763   3.210   5.935   0.268
 4955SOL    HW115764   3.285   5.919   0.203
 4955SOL    HW215765   3.186   5.849   0.313
 4956SOL     OW15766   2.414   0.473   4.533
 4956SOL    HW115767   2.406   0.456   4.632
 4956SOL    HW215768   2.391   0.389   4.483
 4957SOL     OW15769   6.522   4.307   6.649
 4957SOL    HW115770   6.509   4.321   6.551
 4957SOL    HW215771   6.537   4.209   6.667
 4958SOL     OW15772   2.755   6.913   6.050
 4958SOL    HW115773   2.739   6.923   6.148
 4958SOL    HW215774   2.803   6.827   6.033
 4959SOL     OW15775   6.905   2.470   1.529
 4959SOL    HW115776   6.843   2.393   1.539
 4959SOL    HW215777   6.880   2.543   1.592
 4960SOL     OW15778   3.804   4.913   3.662
 4960SOL    HW115779   3.889   4.912   3.610
 4960SOL    HW215780   3.775   5.008   3.677
 4961SOL     OW15781   2.849   0.706   6.757
 4961SOL    HW115782   2.758   0.696   6.797
 4961SOL    HW215783   2.841   0.730   6.660
 4962SOL     OW15784   6.727   3.551   1.112
 4962SOL    HW115785   6.768   3.478   1.058
 4962SOL    HW215786   6.647   3.587   1.064
 4963SOL     OW15787   0.514   4.342   0.351
 4963SOL    HW115788   0.452   4.370   0.425
 4963SOL    HW215789   0.600   4.309   0.390
 4964SOL     OW15790   2.577   6.488   4.610
 4964SOL    HW115791   2.562   6.444   4.699
 4964SOL    HW215792   2.555   6.585   4.617
 4965SOL     OW15793   1.356   6.660   2.949
 4965SOL    HW115794   1.346   6.671   3.048
 4965SOL    HW215795   1.301   6.730   2.903
 4966SOL     OW15796   3.088   6.633   4.511
 4966SOL    HW115797   3.109   6.660   4.605
 4966SOL    HW215798   3.092   6.534   4.503
 4967SOL     OW15799   3.992   4.542   5.321
 4967SOL    HW115800   3.916   4.482   5.293
 4967SOL    HW215801   3.967   4.637   5.306
 4968SOL     OW15802   0.317   1.052   3.900
 4968SOL    HW115803   0.245   1.096   3.954
 4968SOL    HW215804   0.392   1.026   3.961
 4969SOL     OW15805   0.611   6.204   1.802
 4969SOL    HW115806   0.668   6.123   1.793
 4969SOL    HW215807   0.665   6.279   1.840
 4970SOL     OW15808   1.823   0.926   1.596
 4970SOL    HW115809   1.906   0.958   1.642
 4970SOL    HW215810   1.751   0.993   1.608
 4971SOL     OW15811   6.735   6.272   2.844
 4971SOL    HW115812   6.768   6.178   2.834
 4971SOL    HW215813   6.723   6.293   2.940
 4972SOL     OW15814   1.620   4.087   1.040
 4972SOL    HW115815   1.711   4.116   1.071
 4972SOL    HW215816   1.618   3.987   1.033
 4973SOL     OW15817   0.104   0.569   1.234
 4973SOL    HW115818   0.204   0.564   1.227
 4973SOL    HW215819   0.068   0.477   1.248
 4974SOL     OW15820   3.958   3.846   6.453
 4974SOL    HW115821   3.892   3.905   6.499
 4974SOL    HW215822   3.942   3.850   6.354
 4975SOL     OW15823   5.925   3.658   0.413
 4975SOL    HW115824   5.896   3.624   0.323
 4975SOL    HW215825   5.853   3.639   0.480
 4976SOL     OW15826   0.715   0.285   4.604
 4976SOL    HW115827   0.755   0.215   4.546
 4976SOL    HW215828   0.711   0.252   4.699
 4977SOL     OW15829   2.808   4.890   6.630
 4977SOL    HW115830   2.785   4.803   6.673
 4977SOL    HW215831   2.730   4.952   6.637
 4978SOL     OW15832   5.007   4.457   5.552
 4978SOL    HW115833   5.106   4.466   5.564
 4978SOL    HW215834   4.986   4.449   5.455
 4979SOL     OW15835   1.636   0.019   6.398
 4979SOL    HW115836   1.687   6.976   6.339
 4979SOL    HW215837   1.549   6.998   6.423
 4980SOL     OW15838   6.500   4.289   3.100
 4980SOL    HW115839   6.462   4.293   3.192
 4980SOL    HW215840   6.467   4.207   3.053
 4981SOL     OW15841   3.356   4.863   1.836
 4981SOL    HW115842   3.271   4.812   1.848
 4981SOL    HW215843   3.434   4.801   1.845
 4982SOL     OW15844   4.522   1.343   6.745
 4982SOL    HW115845   4.544   1.275   6.675
 4982SOL    HW215846   4.438   1.390   6.720
 4983SOL     OW15847   6.419   5.068   3.879
 4983SOL    HW115848   6.361   5.002   3.927
 4983SOL    HW215849   6.374   5.098   3.795
 4984SOL     OW15850   4.538   4.560   3.393
 4984SOL    HW115851   4.587   4.630   3.444
 4984SOL    HW215852   4.510   4.598   3.304
 4985SOL     OW15853   5.957   5.645   2.627
 4985SOL    HW115854   5.949   5.736   2.668
 4985SOL    HW215855   5.963   5.654   2.527
 4986SOL     OW15856   0.191   4.524   1.820
 4986SOL    HW115857   0.244   4.594   1.869
 4986SOL    HW215858   0.226   4.515   1.727
 4987SOL     OW15859   1.012   0.038   2.763
 4987SOL    HW115860   0.993   0.080   2.674
 4987SOL    HW215861   0.925   0.014   2.807
 4988SOL     OW15862   5.816   0.684   3.943
 4988SOL    HW115863   5.796   0.618   4.015
 4988SOL    HW215864   5.731   0.726   3.911
 4989SOL     OW15865   5.183   0.735   1.779
 4989SOL    HW115866   5.230   0.672   1.718
 4989SOL    HW215867   5.221   0.827   1.766
 4990SOL     OW15868   4.280   1.479   6.702
 4990SOL    HW115869   4.194   1.475   6.753
 4990SOL    HW215870   4.328   1.564   6.723
 4991SOL     OW15871   0.296   5.831   4.468
 4991SOL    HW115872   0.386   5.867   4.493
 4991SOL    HW215873   0.255   5.784   4.546
 4992SOL     OW15874   6.326   0.806   3.219
 4992SOL    HW115875   6.271   0.759   3.288
 4992SOL    HW215876   6.365   0.739   3.156
 4993SOL     OW15877   4.714   6.632   5.199
 4993SOL    HW115878   4.742   6.725   5.222
 4993SOL    HW215879   4.618   6.620   5.224
 4994SOL     OW15880   2.451   5.213   4.984
 4994SOL    HW115881   2.539   5.242   5.023
 4994SOL    HW215882   2.429   5.121   5.016
 4995SOL     OW15883   0.918   0.466   4.678
 4995SOL    HW115884   0.849   0.436   4.612
 4995SOL    HW215885   0.971   0.541   4.640
 4996SOL     OW15886   0.401   1.932   4.368
 4996SOL    HW115887   0.389   1.833   4.377
 4996SOL    HW215888   0.337   1.968   4.300
 4997SOL     OW15889   3.378   2.302   1.231
 4997SOL    HW115890   3.294   2.263   1.269
 4997SOL    HW215891   3.433   2.229   1.189
 4998SOL     OW15892   1.324   3.489   3.268
 4998SOL    HW115893   1.407   3.535   3.300
 4998SOL    HW215894   1.348   3.422   3.198
 4999SOL     OW15895   0.793   3.541   5.006
 4999SOL    HW115896   0.843   3.454   5.013
 4999SOL    HW215897   0.858   3.614   4.985
 5000SOL     OW15898   3.175   6.035   3.517
 5000SOL    HW115899   3.212   6.119   3.479
 5000SOL    HW215900   3.076   6.031   3.501
 5001SOL     OW15901   0.368   5.393   2.382
 5001SOL    HW115902   0.271   5.412   2.396
 5001SOL    HW215903   0.413   5.378   2.470
 5002SOL     OW15904   0.826   4.846   2.045
 5002SOL    HW115905   0.894   4.861   1.973
 5002SOL    HW215906   0.802   4.749   2.048
 5003SOL     OW15907   4.013   5.751   2.930
 5003SOL    HW115908   4.019   5.816   3.006
 5003SOL    HW215909   3.929   5.767   2.878
 5004SOL     OW15910   3.578   5.615   6.175
 5004SOL    HW115911   3.639   5.681   6.131
 5004SOL    HW215912   3.623   5.525   6.178
 5005SOL     OW15913   2.478   3.508   6.506
 5005SOL    HW115914   2.541   3.450   6.456
 5005SOL    HW215915   2.395   3.523   6.452
 5006SOL     OW15916   5.626   1.608   2.321
 5006SOL    HW115917   5.534   1.633   2.290
 5006SOL    HW215918   5.626   1.596   2.420
 5007SOL     OW15919   6.449   0.535   0.756
 5007SOL    HW115920   6.361   0.578   0.733
 5007SOL    HW215921   6.518   0.606   0.767
 5008SOL     OW15922   6.767   6.488   1.743
 5008SOL    HW115923   6.745   6.574   1.696
 5008SOL    HW215924   6.767   6.413   1.677
 5009SOL     OW15925   0.571   2.725   0.383
 5009SOL    HW115926   0.578   2.751   0.287
 5009SOL    HW215927   0.659   2.739   0.428
 5010SOL     OW15928   3.295   2.569   0.893
 5010SOL    HW115929   3.312   2.515   0.810
 5010SOL    HW215930   3.377   2.569   0.950
 5011SOL     OW15931   1.710   3.615   0.324
 5011SOL    HW115932   1.641   3.543   0.328
 5011SOL    HW215933   1.799   3.575   0.301
 5012SOL     OW15934   5.469   2.594   5.350
 5012SOL    HW115935   5.517   2.512   5.381
 5012SOL    HW215936   5.407   2.569   5.276
 5013SOL     OW15937   6.196   0.574   5.398
 5013SOL    HW115938   6.226   0.669   5.406
 5013SOL    HW215939   6.108   0.563   5.446
 5014SOL     OW15940   6.627   4.484   0.181
 5014SOL    HW115941   6.707   4.437   0.219
 5014SOL    HW215942   6.652   4.527   0.094
 5015SOL     OW15943   5.419   0.601   4.786
 5015SOL    HW115944   5.338   0.646   4.822
 5015SOL    HW215945   5.427   0.620   4.688
 5016SOL     OW15946   1.135   3.038   4.755
 5016SOL    HW115947   1.190   3.015   4.674
 5016SOL    HW215948   1.114   3.136   4.753
 5017SOL     OW15949   0.899   2.769   1.302
 5017SOL    HW115950   0.996   2.793   1.297
 5017SOL    HW215951   0.881   2.721   1.388
 5018SOL     OW15952   0.811   4.886   1.723
 5018SOL    HW115953   0.765   4.831   1.653
 5018SOL    HW215954   0.833   4.976   1.686
 5019SOL     OW15955   2.309   5.676   5.363
 5019SOL    HW115956   2.395   5.654   5.409
 5019SOL    HW215957   2.324   5.678   5.264
 5020SOL     OW15958   0.354   6.765   5.272
 5020SOL    HW115959   0.405   6.802   5.194
 5020SOL    HW215960   0.336   6.668   5.258
 5021SOL     OW15961   1.417   0.502   1.270
 5021SOL    HW115962   1.498   0.560   1.283
 5021SOL    HW215963   1.429   0.417   1.322
 5022SOL     OW15964   0.135   2.509   1.420
 5022SOL    HW115965   0.037   2.497   1.435
 5022SOL    HW215966   0.170   2.579   1.482
 5023SOL     OW15967   0.356   3.935   1.582
 5023SOL    HW115968   0.263   3.973   1.584
 5023SOL    HW215969   0.380   3.903   1.674
 5024SOL     OW15970   5.355   4.799   0.679
 5024SOL    HW115971   5.299   4.718   0.667
 5024SOL    HW215972   5.376   4.840   0.590
 5025SOL     OW15973   3.951   1.630   4.050
 5025SOL    HW115974   3.893   1.554   4.020
 5025SOL    HW215975   3.981   1.682   3.969
 5026SOL     OW15976   6.624   5.221   4.458
 5026SOL    HW115977   6.716   5.244   4.424
 5026SOL    HW215978   6.557   5.242   4.387
 5027SOL     OW15979   5.642   0.458   1.381
 5027SOL    HW115980   5.706   0.502   1.319
 5027SOL    HW215981   5.623   0.519   1.458
 5028SOL     OW15982   6.944   1.669   3.187
 5028SOL    HW115983   6.920   1.571   3.193
 5028SOL    HW215984   6.881   1.722   3.244
 5029SOL     OW15985   6.680   3.354   2.335
 5029SOL    HW115986   6.647   3.284   2.271
 5029SOL    HW215987   6.611   3.425   2.345
 5030SOL     OW15988   6.850   5.659   5.809
 5030SOL    HW115989   6.919   5.587   5.795
 5030SOL    HW215990   6.824   5.661   5.905
 5031SOL     OW15991   6.993   1.112   5.440
 5031SOL    HW115992   6.980   1.027   5.390
 5031SOL    HW215993   6.938   1.185   5.399
 5032SOL     OW15994   3.083   2.307   6.462
 5032SOL    HW115995   3.021   2.306   6.541
 5032SOL    HW215996   3.095   2.214   6.427
 5033SOL     OW15997   2.143   1.294   0.243
 5033SOL    HW115998   2.132   1.275   0.145
 5033SOL    HW215999   2.155   1.393   0.257
 5034SOL     OW16000   5.008   0.019   4.219
 5034SOL    HW116001   5.029   0.040   4.314
 5034SOL    HW216002   4.927   6.980   4.215
 5035SOL     OW16003   0.413   3.991   5.282
 5035SOL    HW116004   0.449   4.084   5.290
 5035SOL    HW216005   0.480   3.933   5.236
 5036SOL     OW16006   6.894   4.663   6.022
 5036SOL    HW116007   6.909   4.642   6.118
 5036SOL    HW216008   6.933   4.590   5.965
 5037SOL     OW16009   4.450   4.524   1.535
 5037SOL    HW116010   4.504   4.451   1.494
 5037SOL    HW216011   4.391   4.486   1.606
 5038SOL     OW16012   3.638   3.677   4.268
 5038SOL    HW116013   3.661   3.748   4.201
 5038SOL    HW216014   3.544   3.691   4.300
 5039SOL     OW16015   2.029   3.811   5.791
 5039SOL    HW116016   2.114   3.822   5.739
 5039SOL    HW216017   1.978   3.733   5.756
 5040SOL     OW16018   0.926   5.640   5.334
 5040SOL    HW116019   1.007   5.623   5.278
 5040SOL    HW216020   0.910   5.561   5.393
 5041SOL     OW16021   1.074   2.691   2.311
 5041SOL    HW116022   1.042   2.680   2.405
 5041SOL    HW216023   1.171   2.718   2.312
 5042SOL     OW16024   6.612   3.644   0.221
 5042SOL    HW116025   6.605   3.546   0.206
 5042SOL    HW216026   6.705   3.667   0.250
 5043SOL     OW16027   4.251   1.169   0.204
 5043SOL    HW116028   4.184   1.201   0.271
 5043SOL    HW216029   4.290   1.082   0.235
 5044SOL     OW16030   0.461   5.802   1.638
 5044SOL    HW116031   0.529   5.736   1.608
 5044SOL    HW216032   0.369   5.766   1.621
 5045SOL     OW16033   6.325   5.020   5.678
 5045SOL    HW116034   6.314   5.081   5.599
 5045SOL    HW216035   6.420   5.024   5.710
 5046SOL     OW16036   3.940   3.857   3.469
 5046SOL    HW116037   3.867   3.887   3.531
 5046SOL    HW216038   4.003   3.796   3.519
 5047SOL     OW16039   2.131   3.718   2.976
 5047SOL    HW116040   2.173   3.802   3.013
 5047SOL    HW216041   2.162   3.640   3.030
 5048SOL     OW16042   1.436   0.832   5.118
 5048SOL    HW116043   1.409   0.873   5.205
 5048SOL    HW216044   1.385   0.748   5.103
 5049SOL     OW16045   5.660   1.300   6.468
 5049SOL    HW116046   5.734   1.277   6.532
 5049SOL    HW216047   5.591   1.228   6.470
 5050SOL     OW16048   1.631   1.647   6.796
 5050SOL    HW116049   1.542   1.601   6.804
 5050SOL    HW216050   1.685   1.602   6.725
 5051SOL     OW16051   4.386   4.412   0.904
 5051SOL    HW116052   4.304   4.446   0.949
 5051SOL    HW216053   4.379   4.313   0.891
 5052SOL     OW16054   3.753   2.114   6.207
 5052SOL    HW116055   3.853   2.124   6.210
 5052SOL    HW216056   3.711   2.180   6.269
 5053SOL     OW16057   0.718   5.044   3.164
 5053SOL    HW116058   0.791   5.035   3.096
 5053SOL    HW216059   0.758   5.078   3.250
 5054SOL     OW16060   3.768   4.700   6.060
 5054SOL    HW116061   3.860   4.700   6.100
 5054SOL    HW216062   3.716   4.777   6.095
 5055SOL     OW16063   0.998   2.311   5.627
 5055SOL    HW116064   0.953   2.372   5.692
 5055SOL    HW216065   1.097   2.324   5.631
 5056SOL     OW16066   5.606   3.906   5.513
 5056SOL    HW116067   5.624   3.936   5.606
 5056SOL    HW216068   5.509   3.917   5.493
 5057SOL     OW16069   0.628   6.960   2.226
 5057SOL    HW116070   0.700   0.005   2.253
 5057SOL    HW216071   0.556   6.959   2.295
 5058SOL     OW16072   3.369   4.830   6.734
 5058SOL    HW116073   3.339   4.773   6.812
 5058SOL    HW216074   3.393   4.771   6.657
 5059SOL     OW16075   6.791   0.467   3.486
 5059SOL    HW116076   6.785   0.393   3.552
 5059SOL    HW216077   6.877   0.517   3.501
 5060SOL     OW16078   6.543   2.056   6.438
 5060SOL    HW116079   6.552   1.992   6.515
 5060SOL    HW216080   6.624   2.115   6.435
 5061SOL     OW16081   4.695   2.134   6.998
 5061SOL    HW116082   4.604   2.123   0.018
 5061SOL    HW216083   4.731   2.045   6.973
 5062SOL     OW16084   6.994   0.102   2.456
 5062SOL    HW116085   0.020   0.018   2.484
 5062SOL    HW216086   6.943   0.086   2.371
 5063SOL     OW16087   0.197   6.617   1.826
 5063SOL    HW116088   0.219   6.699   1.773
 5063SOL    HW216089   0.142   6.555   1.770
 5064SOL     OW16090   4.921   3.181   0.469
 5064SOL    HW116091   4.998   3.141   0.518
 5064SOL    HW216092   4.866   3.107   0.428
 5065SOL     OW16093   3.127   0.186   5.753
 5065SOL    HW116094   3.078   0.258   5.703
 5065SOL    HW216095   3.072   0.156   5.830
 5066SOL     OW16096   5.288   3.830   2.060
 5066SOL    HW116097   5.384   3.858   2.061
 5066SOL    HW216098   5.281   3.735   2.028
 5067SOL     OW16099   5.440   1.264   0.669
 5067SOL    HW116100   5.503   1.283   0.744
 5067SOL    HW216101   5.492   1.248   0.585
 5068SOL     OW16102   2.763   4.337   0.865
 5068SOL    HW116103   2.839   4.354   0.928
 5068SOL    HW216104   2.693   4.283   0.911
 5069SOL     OW16105   1.139   4.538   2.236
 5069SOL    HW116106   1.173   4.583   2.318
 5069SOL    HW216107   1.048   4.500   2.255
 5070SOL     OW16108   4.878   3.447   3.923
 5070SOL    HW116109   4.978   3.453   3.914
 5070SOL    HW216110   4.854   3.360   3.967
 5071SOL     OW16111   4.149   2.270   4.687
 5071SOL    HW116112   4.108   2.241   4.600
 5071SOL    HW216113   4.077   2.286   4.754
 5072SOL     OW16114   0.610   5.379   0.513
 5072SOL    HW116115   0.644   5.418   0.427
 5072SOL    HW216116   0.683   5.380   0.581
 5073SOL     OW16117   6.518   6.514   2.425
 5073SOL    HW116118   6.505   6.437   2.488
 5073SOL    HW216119   6.614   6.543   2.429
 5074SOL     OW16120   3.149   4.245   6.952
 5074SOL    HW116121   3.101   4.224   0.017
 5074SOL    HW216122   3.208   4.325   6.965
 5075SOL     OW16123   0.266   1.128   5.791
 5075SOL    HW116124   0.244   1.043   5.838
 5075SOL    HW216125   0.355   1.161   5.823
 5076SOL     OW16126   4.000   1.068   0.888
 5076SOL    HW116127   3.964   0.975   0.890
 5076SOL    HW216128   4.068   1.078   0.961
 5077SOL     OW16129   1.555   1.933   3.625
 5077SOL    HW116130   1.572   1.971   3.716
 5077SOL    HW216131   1.630   1.958   3.564
 5078SOL     OW16132   1.245   1.611   3.465
 5078SOL    HW116133   1.291   1.655   3.543
 5078SOL    HW216134   1.237   1.676   3.390
 5079SOL     OW16135   2.655   4.998   6.211
 5079SOL    HW116136   2.749   4.988   6.177
 5079SOL    HW216137   2.592   4.958   6.144
 5080SOL     OW16138   5.688   6.422   5.035
 5080SOL    HW116139   5.765   6.399   4.975
 5080SOL    HW216140   5.705   6.384   5.126
 5081SOL     OW16141   3.297   3.580   2.983
 5081SOL    HW116142   3.363   3.639   2.936
 5081SOL    HW216143   3.229   3.548   2.917
 5082SOL     OW16144   5.727   6.815   5.446
 5082SOL    HW116145   5.674   6.898   5.459
 5082SOL    HW216146   5.758   6.781   5.535
 5083SOL     OW16147   1.627   6.785   2.110
 5083SOL    HW116148   1.588   6.877   2.120
 5083SOL    HW216149   1.553   6.718   2.111
 5084SOL     OW16150   1.481   4.331   4.180
 5084SOL    HW116151   1.492   4.342   4.279
 5084SOL    HW216152   1.490   4.234   4.156
 5085SOL     OW16153   5.511   1.584   6.712
 5085SOL    HW116154   5.596   1.533   6.726
 5085SOL    HW216155   5.439   1.543   6.769
 5086SOL     OW16156   6.116   4.703   4.095
 5086SOL    HW116157   6.158   4.623   4.052
 5086SOL    HW216158   6.071   4.675   4.180
 5087SOL     OW16159   6.494   6.138   3.880
 5087SOL    HW116160   6.436   6.057   3.867
 5087SOL    HW216161   6.500   6.190   3.795
 5088SOL     OW16162   6.237   1.225   6.172
 5088SOL    HW116163   6.153   1.273   6.201
 5088SOL    HW216164   6.315   1.286   6.184
 5089SOL     OW16165   6.393   3.845   3.447
 5089SOL    HW116166   6.459   3.886   3.384
 5089SOL    HW216167   6.311   3.818   3.398
 5090SOL     OW16168   2.183   4.391   1.331
 5090SOL    HW116169   2.222   4.480   1.310
 5090SOL    HW216170   2.229   4.320   1.277
 5091SOL     OW16171   0.968   6.028   2.802
 5091SOL    HW116172   1.067   6.039   2.809
 5091SOL    HW216173   0.945   5.985   2.715
 5092SOL     OW16174   3.619   2.563   1.721
 5092SOL    HW116175   3.522   2.557   1.699
 5092SOL    HW216176   3.650   2.477   1.762
 5093SOL     OW16177   1.000   2.699   1.839
 5093SOL    HW116178   0.934   2.688   1.913
 5093SOL    HW216179   0.957   2.675   1.752
 5094SOL     OW16180   0.776   0.402   5.865
 5094SOL    HW116181   0.775   0.345   5.947
 5094SOL    HW216182   0.789   0.345   5.784
 5095SOL     OW16183   1.479   0.815   4.651
 5095SOL    HW116184   1.490   0.822   4.750
 5095SOL    HW216185   1.486   0.719   4.623
 5096SOL     OW16186   4.585   3.378   0.897
 5096SOL    HW116187   4.536   3.392   0.811
 5096SOL    HW216188   4.607   3.281   0.907
 5097SOL     OW16189   1.807   0.660   5.991
 5097SOL    HW116190   1.851   0.732   6.045
 5097SOL    HW216191   1.874   0.589   5.969
 5098SOL     OW16192   0.938   0.733   1.711
 5098SOL    HW116193   0.865   0.738   1.778
 5098SOL    HW216194   0.903   0.762   1.621
 5099SOL     OW16195   1.025   0.410   5.568
 5099SOL    HW116196   0.953   0.447   5.510
 5099SOL    HW216197   1.048   0.475   5.640
 5100SOL     OW16198   5.012   0.151   6.203
 5100SOL    HW116199   4.919   0.131   6.173
 5100SOL    HW216200   5.055   0.068   6.237
 5101SOL     OW16201   4.864   6.180   6.926
 5101SOL    HW116202   4.946   6.218   6.883
 5101SOL    HW216203   4.807   6.255   6.960
 5102SOL     OW16204   5.798   0.656   5.872
 5102SOL    HW116205   5.856   0.693   5.799
 5102SOL    HW216206   5.746   0.730   5.914
 5103SOL     OW16207   0.141   0.782   3.940
 5103SOL    HW116208   0.163   0.741   3.852
 5103SOL    HW216209   0.156   0.881   3.936
 5104SOL     OW16210   1.740   0.338   1.193
 5104SOL    HW116211   1.839   0.354   1.193
 5104SOL    HW216212   1.716   0.279   1.116
 5105SOL     OW16213   4.451   4.017   6.867
 5105SOL    HW116214   4.523   3.978   6.925
 5105SOL    HW216215   4.473   4.002   6.771
 5106SOL     OW16216   3.482   0.329   2.583
 5106SOL    HW116217   3.545   0.368   2.516
 5106SOL    HW216218   3.394   0.312   2.538
 5107SOL     OW16219   2.634   0.681   6.949
 5107SOL    HW116220   2.721   0.655   6.989
 5107SOL    HW216221   2.564   0.683   7.020
 5108SOL     OW16222   3.008   3.702   3.814
 5108SOL    HW116223   3.085   3.751   3.773
 5108SOL    HW216224   2.955   3.656   3.743
 5109SOL     OW16225   0.757   1.755   1.326
 5109SOL    HW116226   0.670   1.733   1.282
 5109SOL    HW216227   0.775   1.853   1.316
 5110SOL     OW16228   1.900   6.417   5.767
 5110SOL    HW116229   1.850   6.331   5.775
 5110SOL    HW216230   1.988   6.401   5.723
 5111SOL     OW16231   0.840   1.039   6.104
 5111SOL    HW116232   0.909   1.087   6.051
 5111SOL    HW216233   0.786   1.104   6.157
 5112SOL     OW16234   0.255   6.901   3.566
 5112SOL    HW116235   0.282   6.829   3.630
 5112SOL    HW216236   0.336   6.938   3.521
 5113SOL     OW16237   0.673   0.507   0.699
 5113SOL    HW116238   0.574   0.505   0.715
 5113SOL    HW216239   0.696   0.447   0.623
 5114SOL     OW16240   3.223   4.457   0.301
 5114SOL    HW116241   3.313   4.493   0.275
 5114SOL    HW216242   3.201   4.487   0.393
 5115SOL     OW16243   1.407   4.111   5.860
 5115SOL    HW116244   1.502   4.092   5.836
 5115SOL    HW216245   1.359   4.147   5.781
 5116SOL     OW16246   4.857   4.853   6.403
 5116SOL    HW116247   4.881   4.794   6.326
 5116SOL    HW216248   4.918   4.835   6.480
 5117SOL     OW16249   2.468   4.813   3.656
 5117SOL    HW116250   2.515   4.889   3.611
 5117SOL    HW216251   2.498   4.727   3.617
 5118SOL     OW16252   4.564   6.182   0.896
 5118SOL    HW116253   4.544   6.231   0.811
 5118SOL    HW216254   4.622   6.240   0.954
 5119SOL     OW16255   5.394   0.617   1.636
 5119SOL    HW116256   5.428   0.657   1.721
 5119SOL    HW216257   5.389   0.687   1.566
 5120SOL     OW16258   5.792   1.242   3.112
 5120SOL    HW116259   5.715   1.302   3.091
 5120SOL    HW216260   5.865   1.296   3.154
 5121SOL     OW16261   0.589   3.444   6.241
 5121SOL    HW116262   0.642   3.488   6.169
 5121SOL    HW216263   0.531   3.512   6.287
 5122SOL     OW16264   2.633   0.648   3.572
 5122SOL    HW116265   2.554   0.587   3.571
 5122SOL    HW216266   2.632   0.704   3.489
 5123SOL     OW16267   5.328   3.871   3.646
 5123SOL    HW116268   5.375   3.802   3.592
 5123SOL    HW216269   5.361   3.868   3.741
 5124SOL     OW16270   3.165   6.210   6.745
 5124SOL    HW116271   3.092   6.201   6.678
 5124SOL    HW216272   3.138   6.166   6.830
 5125SOL     OW16273   0.305   3.999   4.141
 5125SOL    HW116274   0.264   4.085   4.109
 5125SOL    HW216275   0.348   4.014   4.230
 5126SOL     OW16276   6.389   5.115   6.327
 5126SOL    HW116277   6.485   5.140   6.339
 5126SOL    HW216278   6.377   5.071   6.238
 5127SOL     OW16279   5.712   3.936   6.869
 5127SOL    HW116280   5.793   3.993   6.857
 5127SOL    HW216281   5.691   3.929   6.967
 5128SOL     OW16282   1.387   0.871   6.694
 5128SOL    HW116283   1.308   0.837   6.644
 5128SOL    HW216284   1.433   0.943   6.642
 5129SOL     OW16285   5.197   0.325   2.346
 5129SOL    HW116286   5.128   0.389   2.312
 5129SOL    HW216287   5.274   0.321   2.282
 5130SOL     OW16288   1.108   5.437   4.848
 5130SOL    HW116289   1.149   5.496   4.779
 5130SOL    HW216290   1.055   5.364   4.804
 5131SOL     OW16291   3.037   4.871   3.558
 5131SOL    HW116292   3.071   4.951   3.510
 5131SOL    HW216293   2.970   4.823   3.501
 5132SOL     OW16294   3.292   1.722   6.144
 5132SOL    HW116295   3.278   1.690   6.237
 5132SOL    HW216296   3.238   1.667   6.081
 5133SOL     OW16297   3.315   5.470   6.589
 5133SOL    HW116298   3.234   5.528   6.578
 5133SOL    HW216299   3.373   5.508   6.660
 5134SOL     OW16300   6.494   6.837   1.399
 5134SOL    HW116301   6.443   6.824   1.484
 5134SOL    HW216302   6.506   6.934   1.381
 5135SOL     OW16303   6.348   3.546   2.607
 5135SOL    HW116304   6.405   3.593   2.540
 5135SOL    HW216305   6.369   3.448   2.606
 5136SOL     OW16306   0.529   0.784   6.453
 5136SOL    HW116307   0.445   0.737   6.480
 5136SOL    HW216308   0.606   0.721   6.460
 5137SOL     OW16309   5.252   2.388   5.285
 5137SOL    HW116310   5.335   2.334   5.270
 5137SOL    HW216311   5.208   2.357   5.370
 5138SOL     OW16312   3.859   4.025   4.127
 5138SOL    HW116313   3.888   3.950   4.187
 5138SOL    HW216314   3.877   4.112   4.172
 5139SOL     OW16315   1.521   0.489   4.980
 5139SOL    HW116316   1.555   0.579   4.953
 5139SOL    HW216317   1.593   0.439   5.028
 5140SOL     OW16318   4.305   1.984   5.749
 5140SOL    HW116319   4.223   1.984   5.690
 5140SOL    HW216320   4.370   1.917   5.714
 5141SOL     OW16321   6.730   2.648   1.639
 5141SOL    HW116322   6.638   2.667   1.604
 5141SOL    HW216323   6.770   2.732   1.675
 5142SOL     OW16324   6.947   6.772   3.599
 5142SOL    HW116325   0.002   6.706   3.595
 5142SOL    HW216326   6.980   6.858   3.638
 5143SOL     OW16327   0.743   4.568   4.332
 5143SOL    HW116328   0.682   4.489   4.334
 5143SOL    HW216329   0.748   4.603   4.238
 5144SOL     OW16330   1.810   3.408   6.605
 5144SOL    HW116331   1.774   3.342   6.539
 5144SOL    HW216332   1.904   3.383   6.629
 5145SOL     OW16333   3.428   6.254   6.645
 5145SOL    HW116334   3.330   6.236   6.652
 5145SOL    HW216335   3.444   6.353   6.649
 5146SOL     OW16336   4.264   4.448   5.434
 5146SOL    HW116337   4.311   4.444   5.521
 5146SOL    HW216338   4.234   4.356   5.407
 5147SOL     OW16339   4.945   3.565   3.555
 5147SOL    HW116340   4.957   3.479   3.604
 5147SOL    HW216341   4.958   3.551   3.457
 5148SOL     OW16342   0.463   1.027   1.704
 5148SOL    HW116343   0.432   0.985   1.789
 5148SOL    HW216344   0.429   0.975   1.626
 5149SOL     OW16345   5.561   4.373   3.677
 5149SOL    HW116346   5.609   4.306   3.734
 5149SOL    HW216347   5.618   4.455   3.667
 5150SOL     OW16348   1.505   4.470   3.769
 5150SOL    HW116349   1.483   4.556   3.815
 5150SOL    HW216350   1.448   4.462   3.686
 5151SOL     OW16351   5.760   4.796   2.061
 5151SOL    HW116352   5.845   4.847   2.067
 5151SOL    HW216353   5.779   4.701   2.038
 5152SOL     OW16354   1.666   0.696   6.479
 5152SOL    HW116355   1.626   0.616   6.522
 5152SOL    HW216356   1.611   0.723   6.400
 5153SOL     OW16357   1.714   1.379   0.762
 5153SOL    HW116358   1.658   1.305   0.798
 5153SOL    HW216359   1.769   1.419   0.835
 5154SOL     OW16360   1.092   2.594   6.679
 5154SOL    HW116361   1.146   2.671   6.712
 5154SOL    HW216362   1.057   2.615   6.587
 5155SOL     OW16363   2.254   1.805   0.498
 5155SOL    HW116364   2.173   1.748   0.496
 5155SOL    HW216365   2.231   1.895   0.535
 5156SOL     OW16366   5.640   5.253   5.397
 5156SOL    HW116367   5.717   5.212   5.446
 5156SOL    HW216368   5.597   5.322   5.455
 5157SOL     OW16369   3.914   1.377   2.217
 5157SOL    HW116370   3.831   1.358   2.271
 5157SOL    HW216371   3.888   1.404   2.125
 5158SOL     OW16372   3.755   1.083   2.260
 5158SOL    HW116373   3.687   1.155   2.274
 5158SOL    HW216374   3.708   0.994   2.258
 5159SOL     OW16375   5.970   3.815   6.450
 5159SOL    HW116376   6.036   3.804   6.375
 5159SOL    HW216377   5.899   3.879   6.421
 5160SOL     OW16378   0.028   6.230   3.308
 5160SOL    HW116379   0.012   6.166   3.234
 5160SOL    HW216380   6.978   6.301   3.307
 5161SOL     OW16381   0.627   2.804   0.130
 5161SOL    HW116382   0.604   2.721   0.081
 5161SOL    HW216383   0.704   2.850   0.085
 5162SOL     OW16384   0.044   6.264   2.502
 5162SOL    HW116385   0.038   6.311   2.414
 5162SOL    HW216386   0.003   6.321   2.573
 5163SOL     OW16387   3.360   6.121   1.772
 5163SOL    HW116388   3.342   6.030   1.733
 5163SOL    HW216389   3.364   6.188   1.697
 5164SOL     OW16390   2.800   3.656   1.006
 5164SOL    HW116391   2.793   3.586   1.077
 5164SOL    HW216392   2.895   3.661   0.974
 5165SOL     OW16393   1.515   4.899   6.918
 5165SOL    HW116394   1.433   4.921   6.970
 5165SOL    HW216395   1.512   4.947   6.830
 5166SOL     OW16396   1.909   5.378   1.577
 5166SOL    HW116397   1.862   5.329   1.651
 5166SOL    HW216398   1.994   5.330   1.554
 5167SOL     OW16399   5.216   3.360   5.644
 5167SOL    HW116400   5.278   3.429   5.607
 5167SOL    HW216401   5.147   3.338   5.575
 5168SOL     OW16402   4.629   2.036   2.151
 5168SOL    HW116403   4.616   1.997   2.242
 5168SOL    HW216404   4.552   2.011   2.093
 5169SOL     OW16405   4.055   0.527   4.105
 5169SOL    HW116406   4.041   0.442   4.054
 5169SOL    HW216407   4.049   0.605   4.042
 5170SOL     OW16408   1.279   3.474   6.374
 5170SOL    HW116409   1.356   3.416   6.348
 5170SOL    HW216410   1.287   3.498   6.471
 5171SOL     OW16411   2.185   5.665   5.656
 5171SOL    HW116412   2.158   5.589   5.716
 5171SOL    HW216413   2.178   5.636   5.561
 5172SOL     OW16414   0.711   5.042   3.813
 5172SOL    HW116415   0.761   5.014   3.895
 5172SOL    HW216416   0.766   5.020   3.732
 5173SOL     OW16417   4.613   3.728   5.900
 5173SOL    HW116418   4.577   3.649   5.851
 5173SOL    HW216419   4.543   3.762   5.963
 5174SOL     OW16420   2.006   6.595   3.303
 5174SOL    HW116421   1.931   6.604   3.369
 5174SOL    HW216422   1.984   6.647   3.221
 5175SOL     OW16423   2.626   4.252   0.101
 5175SOL    HW116424   2.633   4.351   0.091
 5175SOL    HW216425   2.590   4.212   0.017
 5176SOL     OW16426   5.720   5.511   6.645
 5176SOL    HW116427   5.802   5.493   6.698
 5176SOL    HW216428   5.644   5.456   6.680
 5177SOL     OW16429   4.524   0.193   1.135
 5177SOL    HW116430   4.612   0.183   1.182
 5177SOL    HW216431   4.484   0.102   1.121
 5178SOL     OW16432   0.755   3.435   1.831
 5178SOL    HW116433   0.832   3.435   1.767
 5178SOL    HW216434   0.755   3.519   1.885
 5179SOL     OW16435   5.817   4.599   3.285
 5179SOL    HW116436   5.826   4.509   3.242
 5179SOL    HW216437   5.870   4.666   3.232
 5180SOL     OW16438   2.603   6.853   1.262
 5180SOL    HW116439   2.698   6.870   1.237
 5180SOL    HW216440   2.561   6.793   1.194
 5181SOL     OW16441   0.286   0.784   6.807
 5181SOL    HW116442   0.293   0.863   6.746
 5181SOL    HW216443   0.313   0.701   6.758
 5182SOL     OW16444   4.272   4.672   3.443
 5182SOL    HW116445   4.260   4.574   3.460
 5182SOL    HW216446   4.339   4.709   3.507
 5183SOL     OW16447   3.952   1.796   3.576
 5183SOL    HW116448   3.907   1.872   3.528
 5183SOL    HW216449   4.041   1.778   3.534
 5184SOL     OW16450   2.084   1.986   3.970
 5184SOL    HW116451   2.035   2.066   4.004
 5184SOL    HW216452   2.180   2.009   3.954
 5185SOL     OW16453   5.341   0.485   1.963
 5185SOL    HW116454   5.272   0.510   1.895
 5185SOL    HW216455   5.422   0.450   1.917
 5186SOL     OW16456   6.591   3.049   5.704
 5186SOL    HW116457   6.643   3.116   5.758
 5186SOL    HW216458   6.529   2.999   5.764
 5187SOL     OW16459   2.162   4.924   4.766
 5187SOL    HW116460   2.134   4.834   4.797
 5187SOL    HW216461   2.238   4.916   4.702
 5188SOL     OW16462   0.038   6.425   1.702
 5188SOL    HW116463   0.062   6.331   1.729
 5188SOL    HW216464   6.961   6.429   1.680
 5189SOL     OW16465   5.967   0.556   6.348
 5189SOL    HW116466   5.934   0.499   6.272
 5189SOL    HW216467   5.890   0.584   6.404
 5190SOL     OW16468   2.009   3.038   1.799
 5190SOL    HW116469   1.941   3.093   1.750
 5190SOL    HW216470   2.013   3.067   1.895
 5191SOL     OW16471   2.849   5.642   2.227
 5191SOL    HW116472   2.857   5.543   2.228
 5191SOL    HW216473   2.760   5.669   2.265
 5192SOL     OW16474   2.115   5.163   1.530
 5192SOL    HW116475   2.138   5.086   1.471
 5192SOL    HW216476   2.174   5.161   1.611
 5193SOL     OW16477   5.389   0.551   6.710
 5193SOL    HW116478   5.338   0.495   6.775
 5193SOL    HW216479   5.475   0.581   6.753
 5194SOL     OW16480   4.441   1.851   0.103
 5194SOL    HW116481   4.368   1.788   0.076
 5194SOL    HW216482   4.482   1.818   0.188
 5195SOL     OW16483   0.150   0.532   4.051
 5195SOL    HW116484   0.101   0.549   4.137
 5195SOL    HW216485   0.150   0.616   3.996
 5196SOL     OW16486   4.401   0.003   3.318
 5196SOL    HW116487   4.468   6.952   3.297
 5196SOL    HW216488   4.309   6.984   3.312
 5197SOL     OW16489   1.105   4.231   6.033
 5197SOL    HW116490   1.041   4.201   5.963
 5197SOL    HW216491   1.174   4.160   6.047
 5198SOL     OW16492   5.376   5.775   2.996
 5198SOL    HW116493   5.303   5.820   3.048
 5198SOL    HW216494   5.405   5.834   2.921
 5199SOL     OW16495   6.819   5.289   1.062
 5199SOL    HW116496   6.837   5.198   1.026
 5199SOL    HW216497   6.758   5.283   1.141
 5200SOL     OW16498   0.183   4.307   5.295
 5200SOL    HW116499   0.254   4.275   5.358
 5200SOL    HW216500   0.205   4.399   5.264
 5201SOL     OW16501   1.555   5.814   3.866
 5201SOL    HW116502   1.581   5.907   3.891
 5201SOL    HW216503   1.636   5.765   3.832
 5202SOL     OW16504   6.511   3.440   6.912
 5202SOL    HW116505   6.555   3.484   6.991
 5202SOL    HW216506   6.441   3.376   6.944
 5203SOL     OW16507   0.577   3.046   6.796
 5203SOL    HW116508   0.673   3.019   6.808
 5203SOL    HW216509   0.518   2.971   6.826
 5204SOL     OW16510   4.438   4.921   0.502
 5204SOL    HW116511   4.389   4.990   0.554
 5204SOL    HW216512   4.480   4.963   0.422
 5205SOL     OW16513   2.011   0.534   1.597
 5205SOL    HW116514   1.991   0.437   1.583
 5205SOL    HW216515   2.068   0.545   1.679
 5206SOL     OW16516   0.022   4.322   6.967
 5206SOL    HW116517   0.027   4.420   6.984
 5206SOL    HW216518   6.954   4.300   6.924
 5207SOL     OW16519   1.802   5.292   4.082
 5207SOL    HW116520   1.870   5.265   4.150
 5207SOL    HW216521   1.787   5.391   4.088
 5208SOL     OW16522   3.927   0.546   0.538
 5208SOL    HW116523   3.925   0.563   0.439
 5208SOL    HW216524   3.985   0.466   0.556
 5209SOL     OW16525   6.018   6.062   3.529
 5209SOL    HW116526   6.039   6.000   3.453
 5209SOL    HW216527   5.928   6.104   3.513
 5210SOL     OW16528   5.209   3.608   4.436
 5210SOL    HW116529   5.121   3.569   4.465
 5210SOL    HW216530   5.283   3.546   4.465
 5211SOL     OW16531   3.222   3.509   3.907
 5211SOL    HW116532   3.256   3.551   3.822
 5211SOL    HW216533   3.177   3.579   3.963
 5212SOL     OW16534   0.283   2.485   6.907
 5212SOL    HW116535   0.271   2.386   6.915
 5212SOL    HW216536   0.259   2.528   6.994
 5213SOL     OW16537   4.930   2.656   5.792
 5213SOL    HW116538   4.996   2.690   5.726
 5213SOL    HW216539   4.977   2.605   5.864
 5214SOL     OW16540   5.766   1.957   5.234
 5214SOL    HW116541   5.699   1.967   5.307
 5214SOL    HW216542   5.854   1.928   5.273
 5215SOL     OW16543   5.421   4.756   3.593
 5215SOL    HW116544   5.378   4.835   3.635
 5215SOL    HW216545   5.453   4.781   3.501
 5216SOL     OW16546   5.113   4.703   1.427
 5216SOL    HW116547   5.142   4.683   1.334
 5216SOL    HW216548   5.023   4.662   1.444
 5217SOL     OW16549   3.432   5.360   3.956
 5217SOL    HW116550   3.439   5.370   3.856
 5217SOL    HW216551   3.336   5.366   3.983
 5218SOL     OW16552   1.534   0.093   4.260
 5218SOL    HW116553   1.543   7.017   4.286
 5218SOL    HW216554   1.497   0.099   4.168
 5219SOL     OW16555   3.842   6.955   6.790
 5219SOL    HW116556   3.747   6.981   6.810
 5219SOL    HW216557   3.899   6.972   6.871
 5220SOL     OW16558   1.056   5.343   2.137
 5220SOL    HW116559   1.105   5.257   2.122
 5220SOL    HW216560   0.967   5.339   2.091
 5221SOL     OW16561   5.612   1.741   4.354
 5221SOL    HW116562   5.644   1.652   4.386
 5221SOL    HW216563   5.530   1.730   4.298
 5222SOL     OW16564   2.364   0.438   3.896
 5222SOL    HW116565   2.460   0.445   3.872
 5222SOL    HW216566   2.350   0.359   3.956
 5223SOL     OW16567   4.556   6.942   1.188
 5223SOL    HW116568   4.598   6.990   1.265
 5223SOL    HW216569   4.559   6.844   1.204
 5224SOL     OW16570   6.910   2.653   2.821
 5224SOL    HW116571   6.980   2.725   2.825
 5224SOL    HW216572   6.952   2.565   2.839
 5225SOL     OW16573   6.841   0.566   3.206
 5225SOL    HW116574   6.785   0.596   3.283
 5225SOL    HW216575   6.883   0.478   3.227
 5226SOL     OW16576   0.699   6.399   4.478
 5226SOL    HW116577   0.615   6.435   4.436
 5226SOL    HW216578   0.707   6.435   4.571
 5227SOL     OW16579   6.778   4.953   3.807
 5227SOL    HW116580   6.784   4.860   3.845
 5227SOL    HW216581   6.868   4.997   3.814
 5228SOL     OW16582   5.900   2.102   0.552
 5228SOL    HW116583   5.871   2.172   0.486
 5228SOL    HW216584   5.820   2.047   0.579
 5229SOL     OW16585   1.064   4.428   6.793
 5229SOL    HW116586   1.030   4.440   6.700
 5229SOL    HW216587   1.111   4.511   6.823
 5230SOL     OW16588   0.366   0.570   1.259
 5230SOL    HW116589   0.423   0.637   1.211
 5230SOL    HW216590   0.425   0.501   1.301
 5231SOL     OW16591   3.750   3.128   4.546
 5231SOL    HW116592   3.723   3.081   4.630
 5231SOL    HW216593   3.706   3.218   4.543
 5232SOL     OW16594   4.300   1.823   6.441
 5232SOL    HW116595   4.258   1.911   6.417
 5232SOL    HW216596   4.282   1.802   6.537
 5233SOL     OW16597   6.285   6.514   1.758
 5233SOL    HW116598   6.354   6.537   1.828
 5233SOL    HW216599   6.328   6.460   1.686
 5234SOL     OW16600   3.299   0.917   0.650
 5234SOL    HW116601   3.214   0.920   0.596
 5234SOL    HW216602   3.276   0.927   0.747
 5235SOL     OW16603   1.081   2.719   0.667
 5235SOL    HW116604   1.073   2.630   0.623
 5235SOL    HW216605   1.108   2.706   0.762
 5236SOL     OW16606   5.557   2.787   1.182
 5236SOL    HW116607   5.593   2.697   1.158
 5236SOL    HW216608   5.497   2.779   1.262
 5237SOL     OW16609   2.796   2.054   5.509
 5237SOL    HW116610   2.864   2.006   5.564
 5237SOL    HW216611   2.800   2.021   5.414
 5238SOL     OW16612   1.239   5.194   0.410
 5238SOL    HW116613   1.335   5.181   0.434
 5238SOL    HW216614   1.230   5.195   0.310
 5239SOL     OW16615   2.992   3.726   4.262
 5239SOL    HW116616   2.950   3.664   4.196
 5239SOL    HW216617   2.953   3.708   4.353
 5240SOL     OW16618   3.083   2.114   5.336
 5240SOL    HW116619   2.985   2.092   5.339
 5240SOL    HW216620   3.107   2.145   5.244
 5241SOL     OW16621   0.590   6.076   6.957
 5241SOL    HW116622   0.647   6.120   6.888
 5241SOL    HW216623   0.528   6.011   6.912
 5242SOL     OW16624   6.398   1.420   5.735
 5242SOL    HW116625   6.382   1.334   5.783
 5242SOL    HW216626   6.315   1.448   5.687
 5243SOL     OW16627   1.025   6.025   0.908
 5243SOL    HW116628   1.041   6.117   0.944
 5243SOL    HW216629   1.113   5.981   0.891
 5244SOL     OW16630   3.778   4.048   5.874
 5244SOL    HW116631   3.769   4.086   5.966
 5244SOL    HW216632   3.778   3.948   5.879
 5245SOL     OW16633   4.113   4.099   5.806
 5245SOL    HW116634   4.091   4.158   5.884
 5245SOL    HW216635   4.155   4.155   5.734
 5246SOL     OW16636   0.118   3.621   2.825
 5246SOL    HW116637   0.058   3.594   2.750
 5246SOL    HW216638   0.166   3.540   2.860
 5247SOL     OW16639   0.199   6.035   6.972
 5247SOL    HW116640   0.161   6.027   0.045
 5247SOL    HW216641   0.274   5.970   6.961
 5248SOL     OW16642   5.634   0.456   5.825
 5248SOL    HW116643   5.540   0.489   5.824
 5248SOL    HW216644   5.697   0.532   5.837
 5249SOL     OW16645   1.137   5.303   4.355
 5249SOL    HW116646   1.201   5.311   4.278
 5249SOL    HW216647   1.188   5.297   4.440
 5250SOL     OW16648   0.277   1.751   6.255
 5250SOL    HW116649   0.209   1.683   6.281
 5250SOL    HW216650   0.299   1.740   6.158
 5251SOL     OW16651   0.044   3.114   1.257
 5251SOL    HW116652   0.057   3.204   1.216
 5251SOL    HW216653   7.020   3.053   1.192
 5252SOL     OW16654   2.206   5.728   1.241
 5252SOL    HW116655   2.149   5.670   1.299
 5252SOL    HW216656   2.171   5.822   1.242
 5253SOL     OW16657   5.969   3.389   4.685
 5253SOL    HW116658   5.928   3.358   4.771
 5253SOL    HW216659   5.904   3.377   4.610
 5254SOL     OW16660   4.761   1.248   3.937
 5254SOL    HW116661   4.817   1.330   3.924
 5254SOL    HW216662   4.820   1.170   3.960
 5255SOL     OW16663   4.083   0.062   4.766
 5255SOL    HW116664   4.106   0.129   4.695
 5255SOL    HW216665   3.996   0.087   4.808
 5256SOL     OW16666   4.706   1.466   3.261
 5256SOL    HW116667   4.625   1.514   3.294
 5256SOL    HW216668   4.703   1.459   3.162
 5257SOL     OW16669   3.861   6.548   1.788
 5257SOL    HW116670   3.789   6.574   1.853
 5257SOL    HW216671   3.944   6.524   1.838
 5258SOL     OW16672   4.938   4.107   1.886
 5258SOL    HW116673   4.888   4.181   1.931
 5258SOL    HW216674   4.882   4.024   1.885
 5259SOL     OW16675   4.740   5.948   1.962
 5259SOL    HW116676   4.790   5.967   2.047
 5259SOL    HW216677   4.686   6.028   1.938
 5260SOL     OW16678   5.374   3.787   0.733
 5260SOL    HW116679   5.387   3.693   0.701
 5260SOL    HW216680   5.326   3.840   0.664
 5261SOL     OW16681   0.725   2.309   4.972
 5261SOL    HW116682   0.660   2.233   4.982
 5261SOL    HW216683   0.764   2.330   5.062
 5262SOL     OW16684   2.729   0.002   2.532
 5262SOL    HW116685   2.820   0.020   2.497
 5262SOL    HW216686   2.667   0.075   2.502
 5263SOL     OW16687   1.939   0.412   6.287
 5263SOL    HW116688   1.925   0.450   6.196
 5263SOL    HW216689   1.851   0.385   6.326
 5264SOL     OW16690   6.513   1.518   1.147
 5264SOL    HW116691   6.523   1.552   1.241
 5264SOL    HW216692   6.446   1.575   1.099
 5265SOL     OW16693   5.460   4.168   2.543
 5265SOL    HW116694   5.509   4.122   2.468
 5265SOL    HW216695   5.524   4.225   2.594
 5266SOL     OW16696   2.461   6.773   1.539
 5266SOL    HW116697   2.513   6.784   1.454
 5266SOL    HW216698   2.524   6.778   1.617
 5267SOL     OW16699   4.581   4.907   6.078
 5267SOL    HW116700   4.528   4.936   6.157
 5267SOL    HW216701   4.550   4.958   5.997
 5268SOL     OW16702   6.479   5.704   5.131
 5268SOL    HW116703   6.509   5.798   5.146
 5268SOL    HW216704   6.443   5.694   5.038
 5269SOL     OW16705   2.265   5.425   3.861
 5269SOL    HW116706   2.285   5.500   3.923
 5269SOL    HW216707   2.292   5.450   3.768
 5270SOL     OW16708   5.219   2.334   1.284
 5270SOL    HW116709   5.268   2.385   1.212
 5270SOL    HW216710   5.284   2.302   1.352
 5271SOL     OW16711   4.266   5.360   4.997
 5271SOL    HW116712   4.302   5.327   5.084
 5271SOL    HW216713   4.337   5.353   4.926
 5272SOL     OW16714   1.071   5.939   4.764
 5272SOL    HW116715   1.153   5.994   4.781
 5272SOL    HW216716   1.042   5.950   4.669
 5273SOL     OW16717   1.019   2.622   3.816
 5273SOL    HW116718   0.961   2.693   3.856
 5273SOL    HW216719   0.966   2.568   3.751
 5274SOL     OW16720   6.590   4.957   3.586
 5274SOL    HW116721   6.650   4.967   3.665
 5274SOL    HW216722   6.548   4.866   3.587
 5275SOL     OW16723   3.419   0.214   6.412
 5275SOL    HW116724   3.480   0.287   6.441
 5275SOL    HW216725   3.470   0.149   6.356
 5276SOL     OW16726   0.116   6.454   0.709
 5276SOL    HW116727   0.108   6.446   0.610
 5276SOL    HW216728   0.207   6.490   0.732
 5277SOL     OW16729   2.065   1.790   3.359
 5277SOL    HW116730   1.986   1.820   3.305
 5277SOL    HW216731   2.047   1.699   3.397
 5278SOL     OW16732   5.811   6.398   6.205
 5278SOL    HW116733   5.730   6.387   6.149
 5278SOL    HW216734   5.873   6.464   6.163
 5279SOL     OW16735   1.042   5.635   6.359
 5279SOL    HW116736   0.955   5.603   6.321
 5279SOL    HW216737   1.084   5.699   6.295
 5280SOL     OW16738   3.686   6.235   5.089
 5280SOL    HW116739   3.777   6.222   5.049
 5280SOL    HW216740   3.651   6.325   5.062
 5281SOL     OW16741   1.235   0.727   4.878
 5281SOL    HW116742   1.235   0.673   4.794
 5281SOL    HW216743   1.253   0.668   4.956
 5282SOL     OW16744   1.954   0.284   2.402
 5282SOL    HW116745   1.943   0.184   2.401
 5282SOL    HW216746   1.929   0.321   2.313
 5283SOL     OW16747   1.633   0.529   3.827
 5283SOL    HW116748   1.653   0.470   3.906
 5283SOL    HW216749   1.708   0.522   3.761
 5284SOL     OW16750   5.032   2.585   2.470
 5284SOL    HW116751   4.966   2.557   2.539
 5284SOL    HW216752   5.080   2.504   2.435
 5285SOL     OW16753   1.080   3.290   3.298
 5285SOL    HW116754   0.992   3.257   3.332
 5285SOL    HW216755   1.070   3.384   3.266
 5286SOL     OW16756   6.498   3.586   0.983
 5286SOL    HW116757   6.401   3.567   0.977
 5286SOL    HW216758   6.524   3.652   0.912
 5287SOL     OW16759   2.849   5.389   1.612
 5287SOL    HW116760   2.776   5.442   1.569
 5287SOL    HW216761   2.817   5.351   1.699
 5288SOL     OW16762   4.786   0.181   2.363
 5288SOL    HW116763   4.733   0.101   2.334
 5288SOL    HW216764   4.730   0.238   2.423
 5289SOL     OW16765   1.950   5.042   0.058
 5289SOL    HW116766   2.009   4.962   0.066
 5289SOL    HW216767   1.992   5.107   7.015
 5290SOL     OW16768   1.761   4.379   5.400
 5290SOL    HW116769   1.849   4.414   5.371
 5290SOL    HW216770   1.726   4.314   5.332
 5291SOL     OW16771   3.112   4.469   5.671
 5291SOL    HW116772   3.101   4.452   5.573
 5291SOL    HW216773   3.142   4.385   5.716
 5292SOL     OW16774   6.241   3.639   5.926
 5292SOL    HW116775   6.305   3.689   5.984
 5292SOL    HW216776   6.198   3.702   5.861
 5293SOL     OW16777   1.925   5.950   4.387
 5293SOL    HW116778   1.990   5.876   4.406
 5293SOL    HW216779   1.901   5.949   4.290
 5294SOL     OW16780   4.243   1.290   5.702
 5294SOL    HW116781   4.312   1.273   5.772
 5294SOL    HW216782   4.258   1.381   5.663
 5295SOL     OW16783   3.865   0.802   3.689
 5295SOL    HW116784   3.896   0.896   3.677
 5295SOL    HW216785   3.822   0.770   3.605
 5296SOL     OW16786   3.395   3.954   0.312
 5296SOL    HW116787   3.342   3.955   0.227
 5296SOL    HW216788   3.491   3.932   0.291
 5297SOL     OW16789   2.329   3.082   0.799
 5297SOL    HW116790   2.271   3.117   0.873
 5297SOL    HW216791   2.273   3.033   0.733
 5298SOL     OW16792   2.308   6.316   6.719
 5298SOL    HW116793   2.372   6.327   6.643
 5298SOL    HW216794   2.355   6.271   6.795
 5299SOL     OW16795   3.014   2.296   0.989
 5299SOL    HW116796   2.972   2.309   1.079
 5299SOL    HW216797   3.006   2.201   0.961
 5300SOL     OW16798   0.673   4.988   1.024
 5300SOL    HW116799   0.759   4.940   1.043
 5300SOL    HW216800   0.692   5.068   0.967
 5301SOL     OW16801   4.369   0.448   6.943
 5301SOL    HW116802   4.290   0.505   6.967
 5301SOL    HW216803   4.397   0.395   0.003
 5302SOL     OW16804   5.414   6.518   3.698
 5302SOL    HW116805   5.431   6.422   3.676
 5302SOL    HW216806   5.502   6.565   3.711
 5303SOL     OW16807   0.241   5.100   5.265
 5303SOL    HW116808   0.233   5.002   5.245
 5303SOL    HW216809   0.150   5.137   5.287
 5304SOL     OW16810   5.707   0.894   0.487
 5304SOL    HW116811   5.692   0.811   0.433
 5304SOL    HW216812   5.800   0.928   0.471
 5305SOL     OW16813   0.916   5.448   2.757
 5305SOL    HW116814   0.868   5.536   2.767
 5305SOL    HW216815   1.014   5.463   2.764
 5306SOL     OW16816   0.499   4.527   5.545
 5306SOL    HW116817   0.578   4.468   5.562
 5306SOL    HW216818   0.468   4.567   5.631
 5307SOL     OW16819   4.535   1.901   0.500
 5307SOL    HW116820   4.523   1.998   0.518
 5307SOL    HW216821   4.446   1.857   0.493
 5308SOL     OW16822   1.364   4.826   1.980
 5308SOL    HW116823   1.276   4.781   1.993
 5308SOL    HW216824   1.423   4.806   2.058
 5309SOL     OW16825   3.480   5.277   2.146
 5309SOL    HW116826   3.440   5.190   2.119
 5309SOL    HW216827   3.489   5.280   2.246
 5310SOL     OW16828   6.383   3.810   2.282
 5310SOL    HW116829   6.483   3.809   2.291
 5310SOL    HW216830   6.348   3.900   2.309
 5311SOL     OW16831   5.349   6.774   6.671
 5311SOL    HW116832   5.393   6.849   6.721
 5311SOL    HW216833   5.332   6.698   6.734
 5312SOL     OW16834   0.095   5.615   1.821
 5312SOL    HW116835   0.079   5.523   1.785
 5312SOL    HW216836   0.134   5.609   1.912
 5313SOL     OW16837   0.992   4.165   5.790
 5313SOL    HW116838   0.897   4.146   5.815
 5313SOL    HW216839   1.003   4.155   5.691
 5314SOL     OW16840   4.116   6.790   0.441
 5314SOL    HW116841   4.177   6.774   0.518
 5314SOL    HW216842   4.026   6.753   0.462
 5315SOL     OW16843   4.909   3.004   2.970
 5315SOL    HW116844   5.000   3.010   2.928
 5315SOL    HW216845   4.840   2.999   2.897
 5316SOL     OW16846   1.354   3.798   5.601
 5316SOL    HW116847   1.270   3.834   5.560
 5316SOL    HW216848   1.331   3.746   5.683
 5317SOL     OW16849   6.279   1.875   5.977
 5317SOL    HW116850   6.242   1.869   5.885
 5317SOL    HW216851   6.216   1.928   6.034
 5318SOL     OW16852   0.350   2.712   0.552
 5318SOL    HW116853   0.280   2.773   0.516
 5318SOL    HW216854   0.432   2.716   0.495
 5319SOL     OW16855   4.440   6.043   1.096
 5319SOL    HW116856   4.350   6.012   1.066
 5319SOL    HW216857   4.493   6.074   1.017
 5320SOL     OW16858   4.146   5.375   0.973
 5320SOL    HW116859   4.200   5.455   1.001
 5320SOL    HW216860   4.140   5.310   1.049
 5321SOL     OW16861   2.508   4.585   4.804
 5321SOL    HW116862   2.470   4.493   4.816
 5321SOL    HW216863   2.520   4.603   4.707
 5322SOL     OW16864   5.503   6.768   0.056
 5322SOL    HW116865   5.439   6.697   0.025
 5322SOL    HW216866   5.555   6.734   0.134
 5323SOL     OW16867   3.568   1.358   5.507
 5323SOL    HW116868   3.622   1.275   5.498
 5323SOL    HW216869   3.504   1.366   5.430
 5324SOL     OW16870   3.643   2.137   0.290
 5324SOL    HW116871   3.583   2.201   0.338
 5324SOL    HW216872   3.659   2.057   0.348
 5325SOL     OW16873   3.687   0.952   4.588
 5325SOL    HW116874   3.693   0.925   4.492
 5325SOL    HW216875   3.775   0.987   4.619
 5326SOL     OW16876   6.645   5.751   3.179
 5326SOL    HW116877   6.694   5.691   3.243
 5326SOL    HW216878   6.686   5.745   3.089
 5327SOL     OW16879   5.889   2.453   5.071
 5327SOL    HW116880   5.904   2.372   5.128
 5327SOL    HW216881   5.897   2.535   5.127
 5328SOL     OW16882   3.171   3.993   6.294
 5328SOL    HW116883   3.201   3.996   6.199
 5328SOL    HW216884   3.227   4.057   6.348
 5329SOL     OW16885   0.623   5.191   6.665
 5329SOL    HW116886   0.673   5.274   6.639
 5329SOL    HW216887   0.622   5.183   6.765
 5330SOL     OW16888   3.738   4.272   0.141
 5330SOL    HW116889   3.715   4.204   0.072
 5330SOL    HW216890   3.811   4.237   0.200
 5331SOL     OW16891   5.720   1.950   6.274
 5331SOL    HW116892   5.738   1.998   6.189
 5331SOL    HW216893   5.728   2.013   6.351
 5332SOL     OW16894   1.201   3.302   1.475
 5332SOL    HW116895   1.301   3.300   1.483
 5332SOL    HW216896   1.161   3.241   1.544
 5333SOL     OW16897   1.067   0.964   2.866
 5333SOL    HW116898   1.148   1.013   2.897
 5333SOL    HW216899   1.005   1.027   2.821
 5334SOL     OW16900   3.281   0.572   4.690
 5334SOL    HW116901   3.272   0.659   4.739
 5334SOL    HW216902   3.224   0.573   4.608
 5335SOL     OW16903   0.170   5.938   0.608
 5335SOL    HW116904   0.156   6.037   0.613
 5335SOL    HW216905   0.228   5.916   0.531
 5336SOL     OW16906   2.119   3.354   2.713
 5336SOL    HW116907   2.113   3.274   2.653
 5336SOL    HW216908   2.091   3.329   2.805
 5337SOL     OW16909   5.041   4.340   1.249
 5337SOL    HW116910   5.014   4.253   1.207
 5337SOL    HW216911   5.022   4.336   1.347
 5338SOL     OW16912   5.778   1.617   0.511
 5338SOL    HW116913   5.784   1.564   0.426
 5338SOL    HW216914   5.840   1.695   0.506
 5339SOL     OW16915   6.948   1.523   4.030
 5339SOL    HW116916   6.995   1.597   4.077
 5339SOL    HW216917   6.991   1.508   3.941
 5340SOL     OW16918   5.554   4.446   0.905
 5340SOL    HW116919   5.607   4.476   0.825
 5340SOL    HW216920   5.616   4.434   0.982
 5341SOL     OW16921   4.085   2.659   6.445
 5341SOL    HW116922   4.181   2.640   6.465
 5341SOL    HW216923   4.052   2.596   6.375
 5342SOL     OW16924   3.731   0.622   4.474
 5342SOL    HW116925   3.648   0.567   4.479
 5342SOL    HW216926   3.746   0.668   4.561
 5343SOL     OW16927   3.456   3.643   4.048
 5343SOL    HW116928   3.362   3.674   4.062
 5343SOL    HW216929   3.518   3.711   4.088
 5344SOL     OW16930   2.207   2.101   2.514
 5344SOL    HW116931   2.215   2.198   2.536
 5344SOL    HW216932   2.176   2.091   2.419
 5345SOL     OW16933   4.067   6.510   1.959
 5345SOL    HW116934   4.139   6.539   2.022
 5345SOL    HW216935   4.044   6.414   1.975
 5346SOL     OW16936   3.192   6.428   4.058
 5346SOL    HW116937   3.127   6.483   4.112
 5346SOL    HW216938   3.155   6.336   4.047
 5347SOL     OW16939   0.024   2.501   1.793
 5347SOL    HW116940   6.968   2.553   1.833
 5347SOL    HW216941   0.095   2.564   1.762
 5348SOL     OW16942   0.590   1.304   0.688
 5348SOL    HW116943   0.663   1.249   0.648
 5348SOL    HW216944   0.629   1.382   0.735
 5349SOL     OW16945   1.128   2.174   0.151
 5349SOL    HW116946   1.132   2.263   0.106
 5349SOL    HW216947   1.221   2.143   0.172
 5350SOL     OW16948   2.078   0.002   6.143
 5350SOL    HW116949   1.983   7.000   6.161
 5350SOL    HW216950   2.087   0.101   6.126
 5351SOL     OW16951   5.456   5.656   2.001
 5351SOL    HW116952   5.461   5.674   2.100
 5351SOL    HW216953   5.427   5.561   1.986
 5352SOL     OW16954   1.501   5.509   4.507
 5352SOL    HW116955   1.538   5.575   4.442
 5352SOL    HW216956   1.427   5.552   4.560
 5353SOL     OW16957   3.115   5.906   4.640
 5353SOL    HW116958   3.157   5.816   4.648
 5353SOL    HW216959   3.054   5.907   4.561
 5354SOL     OW16960   1.759   5.122   1.928
 5354SOL    HW116961   1.674   5.108   1.978
 5354SOL    HW216962   1.738   5.146   1.833
 5355SOL     OW16963   4.690   2.392   4.085
 5355SOL    HW116964   4.787   2.384   4.107
 5355SOL    HW216965   4.679   2.430   3.993
 5356SOL     OW16966   5.878   4.421   1.550
 5356SOL    HW116967   5.791   4.373   1.539
 5356SOL    HW216968   5.953   4.355   1.547
 5357SOL     OW16969   3.075   7.006   0.912
 5357SOL    HW116970   3.135   6.926   0.924
 5357SOL    HW216971   3.117   0.065   0.957
 5358SOL     OW16972   3.997   1.702   0.888
 5358SOL    HW116973   4.090   1.696   0.850
 5358SOL    HW216974   3.995   1.774   0.958
 5359SOL     OW16975   2.066   1.767   6.995
 5359SOL    HW116976   2.097   1.692   6.936
 5359SOL    HW216977   1.977   1.799   6.964
 5360SOL     OW16978   4.180   6.597   4.639
 5360SOL    HW116979   4.126   6.527   4.687
 5360SOL    HW216980   4.226   6.655   4.706
 5361SOL     OW16981   2.218   6.850   4.450
 5361SOL    HW116982   2.169   6.887   4.529
 5361SOL    HW216983   2.316   6.849   4.470
 5362SOL     OW16984   5.105   4.287   3.661
 5362SOL    HW116985   5.110   4.194   3.624
 5362SOL    HW216986   5.085   4.283   3.759
 5363SOL     OW16987   0.844   6.169   6.280
 5363SOL    HW116988   0.807   6.081   6.312
 5363SOL    HW216989   0.791   6.201   6.201
 5364SOL     OW16990   0.006   5.829   1.443
 5364SOL    HW116991   6.948   5.792   1.393
 5364SOL    HW216992   0.004   5.929   1.440
 5365SOL     OW16993   3.997   3.214   6.776
 5365SOL    HW116994   3.965   3.133   6.825
 5365SOL    HW216995   3.964   3.296   6.822
 5366SOL     OW16996   5.302   5.188   1.767
 5366SOL    HW116997   5.282   5.102   1.721
 5366SOL    HW216998   5.217   5.237   1.786
 5367SOL     OW16999   0.380   5.297   0.911
 5367SOL    HW117000   0.389   5.370   0.843
 5367SOL    HW217001   0.287   5.261   0.909
 5368SOL     OW17002   5.050   0.986   3.116
 5368SOL    HW117003   5.080   0.955   3.026
 5368SOL    HW217004   5.039   1.085   3.115
 5369SOL     OW17005   3.214   6.281   3.407
 5369SOL    HW117006   3.130   6.332   3.387
 5369SOL    HW217007   3.293   6.336   3.383
 5370SOL     OW17008   3.956   3.109   1.341
 5370SOL    HW117009   3.891   3.184   1.330
 5370SOL    HW217010   3.917   3.025   1.303
 5371SOL     OW17011   1.720   3.507   4.044
 5371SOL    HW117012   1.751   3.544   3.956
 5371SOL    HW217013   1.740   3.409   4.047
 5372SOL     OW17014   2.093   5.699   3.138
 5372SOL    HW117015   2.004   5.654   3.129
 5372SOL    HW217016   2.163   5.631   3.162
 5373SOL     OW17017   3.096   5.043   4.174
 5373SOL    HW117018   3.150   5.022   4.093
 5373SOL    HW217019   3.001   5.017   4.159
 5374SOL     OW17020   0.865   3.709   6.817
 5374SOL    HW117021   0.773   3.670   6.822
 5374SOL    HW217022   0.909   3.681   6.732
 5375SOL     OW17023   1.787   4.460   4.654
 5375SOL    HW117024   1.785   4.511   4.568
 5375SOL    HW217025   1.693   4.435   4.680
 5376SOL     OW17026   1.693   2.861   0.920
 5376SOL    HW117027   1.780   2.856   0.870
 5376SOL    HW217028   1.696   2.799   0.998
 5377SOL     OW17029   0.088   6.891   1.499
 5377SOL    HW117030   0.150   6.814   1.483
 5377SOL    HW217031   0.060   6.930   1.412
 5378SOL     OW17032   6.889   0.402   1.333
 5378SOL    HW117033   6.874   0.457   1.251
 5378SOL    HW217034   6.814   0.417   1.397
 5379SOL     OW17035   0.978   5.109   5.068
 5379SOL    HW117036   0.964   5.189   5.128
 5379SOL    HW217037   0.891   5.063   5.054
 5380SOL     OW17038   1.981   0.888   3.142
 5380SOL    HW117039   1.890   0.886   3.183
 5380SOL    HW217040   1.996   0.804   3.089
 5381SOL     OW17041   6.634   4.191   0.635
 5381SOL    HW117042   6.544   4.149   0.647
 5381SOL    HW217043   6.689   4.135   0.573
 5382SOL     OW17044   3.169   0.324   1.959
 5382SOL    HW117045   3.077   0.310   1.924
 5382SOL    HW217046   3.232   0.335   1.882
 5383SOL     OW17047   2.583   2.568   5.347
 5383SOL    HW117048   2.517   2.571   5.272
 5383SOL    HW217049   2.618   2.475   5.357
 5384SOL     OW17050   6.219   0.562   4.168
 5384SOL    HW117051   6.226   0.625   4.246
 5384SOL    HW217052   6.203   0.614   4.085
 5385SOL     OW17053   2.919   3.286   2.895
 5385SOL    HW117054   2.912   3.352   2.970
 5385SOL    HW217055   2.896   3.330   2.808
 5386SOL     OW17056   4.459   0.080   4.330
 5386SOL    HW117057   4.411   7.013   4.338
 5386SOL    HW217058   4.550   0.071   4.371
 5387SOL     OW17059   2.507   5.704   3.526
 5387SOL    HW117060   2.521   5.644   3.448
 5387SOL    HW217061   2.487   5.797   3.494
 5388SOL     OW17062   5.469   0.021   3.154
 5388SOL    HW117063   5.384   0.033   3.204
 5388SOL    HW217064   5.536   0.089   3.185
 5389SOL     OW17065   5.319   0.948   1.629
 5389SOL    HW117066   5.395   0.920   1.570
 5389SOL    HW217067   5.326   1.046   1.648
 5390SOL     OW17068   4.355   4.894   3.838
 5390SOL    HW117069   4.369   4.993   3.845
 5390SOL    HW217070   4.384   4.863   3.747
 5391SOL     OW17071   1.799   2.238   0.647
 5391SOL    HW117072   1.894   2.220   0.672
 5391SOL    HW217073   1.753   2.152   0.626
 5392SOL     OW17074   5.894   3.621   0.892
 5392SOL    HW117075   5.963   3.584   0.954
 5392SOL    HW217076   5.927   3.707   0.853
 5393SOL     OW17077   5.844   6.625   6.550
 5393SOL    HW117078   5.784   6.545   6.556
 5393SOL    HW217079   5.791   6.708   6.563
 5394SOL     OW17080   6.905   4.072   6.692
 5394SOL    HW117081   6.868   4.164   6.699
 5394SOL    HW217082   6.961   4.052   6.772
 5395SOL     OW17083   5.109   1.251   1.836
 5395SOL    HW117084   5.080   1.163   1.799
 5395SOL    HW217085   5.105   1.247   1.936
 5396SOL     OW17086   5.143   3.872   2.772
 5396SOL    HW117087   5.145   3.834   2.865
 5396SOL    HW217088   5.067   3.832   2.722
 5397SOL     OW17089   6.580   2.453   1.751
 5397SOL    HW117090   6.490   2.494   1.762
 5397SOL    HW217091   6.637   2.513   1.695
 5398SOL     OW17092   3.303   1.800   2.534
 5398SOL    HW117093   3.257   1.739   2.468
 5398SOL    HW217094   3.288   1.895   2.507
 5399SOL     OW17095   2.688   6.105   6.990
 5399SOL    HW117096   2.686   6.103   0.070
 5399SOL    HW217097   2.735   6.023   6.957
 5400SOL     OW17098   2.490   3.999   0.832
 5400SOL    HW117099   2.562   3.953   0.884
 5400SOL    HW217100   2.419   3.933   0.807
 5401SOL     OW17101   5.524   3.513   1.827
 5401SOL    HW117102   5.574   3.586   1.780
 5401SOL    HW217103   5.483   3.452   1.758
 5402SOL     OW17104   2.217   5.473   1.563
 5402SOL    HW117105   2.286   5.545   1.567
 5402SOL    HW217106   2.231   5.409   1.639
 5403SOL     OW17107   5.749   3.252   6.163
 5403SOL    HW117108   5.690   3.174   6.185
 5403SOL    HW217109   5.845   3.224   6.172
 5404SOL     OW17110   0.501   1.365   2.983
 5404SOL    HW117111   0.454   1.289   3.030
 5404SOL    HW217112   0.475   1.451   3.026
 5405SOL     OW17113   6.058   5.453   0.192
 5405SOL    HW117114   5.976   5.499   0.227
 5405SOL    HW217115   6.139   5.488   0.239
 5406SOL     OW17116   2.335   1.987   6.642
 5406SOL    HW117117   2.307   2.080   6.665
 5406SOL    HW217118   2.418   1.963   6.694
 5407SOL     OW17119   4.603   3.115   0.950
 5407SOL    HW117120   4.651   3.056   0.886
 5407SOL    HW217121   4.507   3.090   0.953
 5408SOL     OW17122   2.851   1.374   6.381
 5408SOL    HW117123   2.826   1.298   6.442
 5408SOL    HW217124   2.769   1.428   6.361
 5409SOL     OW17125   5.010   0.617   3.641
 5409SOL    HW117126   4.969   0.700   3.679
 5409SOL    HW217127   4.965   0.595   3.554
 5410SOL     OW17128   2.823   2.241   1.698
 5410SOL    HW117129   2.874   2.295   1.764
 5410SOL    HW217130   2.816   2.147   1.730
 5411SOL     OW17131   6.505   5.290   5.388
 5411SOL    HW117132   6.480   5.383   5.361
 5411SOL    HW217133   6.426   5.230   5.376
 5412SOL     OW17134   4.862   1.528   0.539
 5412SOL    HW117135   4.834   1.621   0.565
 5412SOL    HW217136   4.849   1.467   0.618
 5413SOL     OW17137   2.785   1.864   1.309
 5413SOL    HW117138   2.782   1.885   1.211
 5413SOL    HW217139   2.789   1.950   1.361
 5414SOL     OW17140   4.853   2.013   4.901
 5414SOL    HW117141   4.918   1.938   4.892
 5414SOL    HW217142   4.811   2.032   4.812
 5415SOL     OW17143   0.989   5.824   1.086
 5415SOL    HW117144   0.986   5.729   1.058
 5415SOL    HW217145   0.987   5.883   1.005
 5416SOL     OW17146   4.953   5.250   5.978
 5416SOL    HW117147   4.875   5.206   6.021
 5416SOL    HW217148   5.010   5.292   6.049
 5417SOL     OW17149   4.015   6.828   5.474
 5417SOL    HW117150   3.943   6.829   5.405
 5417SOL    HW217151   4.060   6.917   5.477
 5418SOL     OW17152   3.371   6.865   3.902
 5418SOL    HW117153   3.354   6.779   3.853
 5418SOL    HW217154   3.469   6.872   3.923
 5419SOL     OW17155   3.860   5.235   0.368
 5419SOL    HW117156   3.803   5.277   0.438
 5419SOL    HW217157   3.886   5.304   0.300
 5420SOL     OW17158   1.799   2.751   2.586
 5420SOL    HW117159   1.715   2.746   2.641
 5420SOL    HW217160   1.861   2.818   2.626
 5421SOL     OW17161   2.218   2.828   2.242
 5421SOL    HW117162   2.133   2.796   2.201
 5421SOL    HW217163   2.215   2.928   2.251
 5422SOL     OW17164   0.655   5.099   0.625
 5422SOL    HW117165   0.576   5.046   0.655
 5422SOL    HW217166   0.625   5.186   0.587
 5423SOL     OW17167   6.120   3.118   0.316
 5423SOL    HW117168   6.138   3.081   0.407
 5423SOL    HW217169   6.076   3.048   0.259
 5424SOL     OW17170   5.666   2.936   3.591
 5424SOL    HW117171   5.757   2.910   3.622
 5424SOL    HW217172   5.673   3.020   3.536
 5425SOL     OW17173   4.294   0.958   4.259
 5425SOL    HW117174   4.269   1.047   4.220
 5425SOL    HW217175   4.362   0.971   4.331
 5426SOL     OW17176   6.537   5.758   4.289
 5426SOL    HW117177   6.469   5.766   4.216
 5426SOL    HW217178   6.499   5.795   4.374
 5427SOL     OW17179   4.838   4.936   6.750
 5427SOL    HW117180   4.935   4.954   6.732
 5427SOL    HW217181   4.782   4.989   6.687
 5428SOL     OW17182   0.199   6.590   1.494
 5428SOL    HW117183   0.284   6.554   1.455
 5428SOL    HW217184   0.168   6.529   1.567
 5429SOL     OW17185   2.065   2.234   6.331
 5429SOL    HW117186   2.024   2.256   6.243
 5429SOL    HW217187   2.040   2.304   6.398
 5430SOL     OW17188   0.048   3.031   6.205
 5430SOL    HW117189   7.003   3.105   6.186
 5430SOL    HW217190   0.070   3.032   6.303
 5431SOL     OW17191   2.877   6.260   0.311
 5431SOL    HW117192   2.972   6.227   0.310
 5431SOL    HW217193   2.820   6.197   0.258
 5432SOL     OW17194   5.209   0.078   6.956
 5432SOL    HW117195   5.162   0.163   6.980
 5432SOL    HW217196   5.142   0.010   6.927
 5433SOL     OW17197   0.369   1.866   4.701
 5433SOL    HW117198   0.455   1.897   4.660
 5433SOL    HW217199   0.379   1.859   4.800
 5434SOL     OW17200   3.342   0.517   5.519
 5434SOL    HW117201   3.359   0.593   5.456
 5434SOL    HW217202   3.292   0.550   5.599
 5435SOL     OW17203   5.989   0.437   2.204
 5435SOL    HW117204   6.056   0.382   2.155
 5435SOL    HW217205   6.022   0.455   2.297
 5436SOL     OW17206   5.146   3.591   4.158
 5436SOL    HW117207   5.168   3.593   4.256
 5436SOL    HW217208   5.218   3.542   4.108
 5437SOL     OW17209   2.397   4.155   0.307
 5437SOL    HW117210   2.322   4.217   0.285
 5437SOL    HW217211   2.473   4.172   0.244
 5438SOL     OW17212   6.844   2.957   2.849
 5438SOL    HW117213   6.766   2.947   2.788
 5438SOL    HW217214   6.821   2.918   2.939
 5439SOL     OW17215   0.796   2.153   0.575
 5439SOL    HW117216   0.758   2.064   0.601
 5439SOL    HW217217   0.834   2.147   0.483
 5440SOL     OW17218   1.107   1.253   1.016
 5440SOL    HW117219   1.139   1.318   0.948
 5440SOL    HW217220   1.123   1.290   1.108
 5441SOL     OW17221   4.582   2.206   3.039
 5441SOL    HW117222   4.548   2.114   3.060
 5441SOL    HW217223   4.639   2.202   2.957
 5442SOL     OW17224   3.004   5.882   3.944
 5442SOL    HW117225   3.089   5.830   3.934
 5442SOL    HW217226   3.021   5.978   3.921
 5443SOL     OW17227   3.342   0.720   3.976
 5443SOL    HW117228   3.396   0.784   3.921
 5443SOL    HW217229   3.274   0.675   3.917
 5444SOL     OW17230   1.275   0.357   4.212
 5444SOL    HW117231   1.362   0.403   4.192
 5444SOL    HW217232   1.208   0.424   4.241
 5445SOL     OW17233   5.962   3.824   3.636
 5445SOL    HW117234   6.055   3.811   3.602
 5445SOL    HW217235   5.932   3.917   3.618
 5446SOL     OW17236   6.458   4.842   4.987
 5446SOL    HW117237   6.478   4.810   4.895
 5446SOL    HW217238   6.453   4.942   4.988
 5447SOL     OW17239   3.279   2.395   6.873
 5447SOL    HW117240   3.302   2.388   6.776
 5447SOL    HW217241   3.304   2.485   6.907
 5448SOL     OW17242   4.494   2.906   5.372
 5448SOL    HW117243   4.500   2.878   5.468
 5448SOL    HW217244   4.407   2.951   5.356
 5449SOL     OW17245   1.451   3.051   6.097
 5449SOL    HW117246   1.524   2.983   6.099
 5449SOL    HW217247   1.489   3.140   6.071
 5450SOL     OW17248   1.565   0.316   1.406
 5450SOL    HW117249   1.586   0.230   1.452
 5450SOL    HW217250   1.639   0.340   1.344
 5451SOL     OW17251   1.549   6.467   3.490
 5451SOL    HW117252   1.580   6.380   3.529
 5451SOL    HW217253   1.542   6.459   3.391
 5452SOL     OW17254   2.031   4.787   0.131
 5452SOL    HW117255   2.122   4.757   0.105
 5452SOL    HW217256   2.018   4.774   0.229
 5453SOL     OW17257   5.557   4.283   1.218
 5453SOL    HW117258   5.656   4.280   1.209
 5453SOL    HW217259   5.515   4.212   1.162
 5454SOL     OW17260   0.089   4.020   6.871
 5454SOL    HW117261   0.132   3.954   6.933
 5454SOL    HW217262   0.092   4.111   6.911
 5455SOL     OW17263   6.241   3.660   0.255
 5455SOL    HW117264   6.284   3.665   0.165
 5455SOL    HW217265   6.227   3.565   0.281
 5456SOL     OW17266   3.614   6.733   6.788
 5456SOL    HW117267   3.585   6.756   6.881
 5456SOL    HW217268   3.591   6.808   6.726
 5457SOL     OW17269   5.683   2.259   0.160
 5457SOL    HW117270   5.701   2.334   0.096
 5457SOL    HW217271   5.737   2.271   0.243
 5458SOL     OW17272   0.319   4.751   6.869
 5458SOL    HW117273   0.244   4.818   6.868
 5458SOL    HW217274   0.313   4.697   6.953
 5459SOL     OW17275   2.358   4.395   0.026
 5459SOL    HW117276   2.400   4.482   0.054
 5459SOL    HW217277   2.274   4.381   0.077
 5460SOL     OW17278   2.612   6.823   2.665
 5460SOL    HW117279   2.526   6.861   2.700
 5460SOL    HW217280   2.662   6.894   2.615
 5461SOL     OW17281   5.969   6.468   5.208
 5461SOL    HW117282   5.935   6.378   5.234
 5461SOL    HW217283   5.952   6.533   5.282
 5462SOL     OW17284   0.715   0.905   6.971
 5462SOL    HW117285   0.678   0.818   6.937
 5462SOL    HW217286   0.760   0.953   6.896
 5463SOL     OW17287   6.253   2.252   0.135
 5463SOL    HW117288   6.210   2.342   0.149
 5463SOL    HW217289   6.200   2.182   0.182
 5464SOL     OW17290   1.472   0.537   4.152
 5464SOL    HW117291   1.568   0.532   4.126
 5464SOL    HW217292   1.455   0.621   4.203
 5465SOL     OW17293   3.756   6.666   3.363
 5465SOL    HW117294   3.802   6.584   3.331
 5465SOL    HW217295   3.778   6.681   3.459
 5466SOL     OW17296   5.859   4.254   5.378
 5466SOL    HW117297   5.829   4.330   5.320
 5466SOL    HW217298   5.819   4.168   5.344
 5467SOL     OW17299   5.087   2.475   2.994
 5467SOL    HW117300   4.997   2.432   2.999
 5467SOL    HW217301   5.086   2.546   2.924
 5468SOL     OW17302   4.804   2.122   4.405
 5468SOL    HW117303   4.799   2.196   4.472
 5468SOL    HW217304   4.768   2.154   4.317
 5469SOL     OW17305   4.051   4.810   6.940
 5469SOL    HW117306   4.009   4.721   6.957
 5469SOL    HW217307   4.132   4.820   6.997
 5470SOL     OW17308   2.610   5.543   3.341
 5470SOL    HW117309   2.708   5.543   3.363
 5470SOL    HW217310   2.585   5.455   3.300
 5471SOL     OW17311   5.523   6.942   2.131
 5471SOL    HW117312   5.492   6.986   2.216
 5471SOL    HW217313   5.452   6.880   2.098
 5472SOL     OW17314   3.739   3.511   5.966
 5472SOL    HW117315   3.834   3.517   5.934
 5472SOL    HW217316   3.687   3.588   5.928
 5473SOL     OW17317   0.570   3.499   3.283
 5473SOL    HW117318   0.548   3.520   3.188
 5473SOL    HW217319   0.511   3.551   3.344
 5474SOL     OW17320   1.383   4.221   3.914
 5474SOL    HW117321   1.467   4.269   3.939
 5474SOL    HW217322   1.304   4.267   3.954
 5475SOL     OW17323   2.512   2.270   0.589
 5475SOL    HW117324   2.494   2.334   0.664
 5475SOL    HW217325   2.447   2.286   0.515
 5476SOL     OW17326   2.480   3.936   6.371
 5476SOL    HW117327   2.566   3.967   6.412
 5476SOL    HW217328   2.460   3.992   6.290
 5477SOL     OW17329   1.886   3.576   3.547
 5477SOL    HW117330   1.980   3.570   3.578
 5477SOL    HW217331   1.883   3.627   3.461
 5478SOL     OW17332   4.674   5.106   5.546
 5478SOL    HW117333   4.625   5.033   5.594
 5478SOL    HW217334   4.716   5.070   5.463
 5479SOL     OW17335   4.868   1.064   6.000
 5479SOL    HW117336   4.820   1.089   5.916
 5479SOL    HW217337   4.805   1.020   6.064
 5480SOL     OW17338   0.343   3.477   3.493
 5480SOL    HW117339   0.324   3.413   3.567
 5480SOL    HW217340   0.311   3.439   3.406
 5481SOL     OW17341   3.675   0.722   4.169
 5481SOL    HW117342   3.727   0.783   4.110
 5481SOL    HW217343   3.713   0.725   4.262
 5482SOL     OW17344   3.740   4.428   1.675
 5482SOL    HW117345   3.721   4.331   1.658
 5482SOL    HW217346   3.660   4.470   1.718
 5483SOL     OW17347   0.526   2.895   5.673
 5483SOL    HW117348   0.584   2.823   5.712
 5483SOL    HW217349   0.431   2.879   5.698
 5484SOL     OW17350   4.903   0.924   5.084
 5484SOL    HW117351   4.831   0.971   5.136
 5484SOL    HW217352   4.894   0.825   5.097
 5485SOL     OW17353   3.948   0.184   5.478
 5485SOL    HW117354   3.872   0.208   5.418
 5485SOL    HW217355   3.918   0.187   5.573
 5486SOL     OW17356   3.032   5.964   5.564
 5486SOL    HW117357   2.996   5.972   5.657
 5486SOL    HW217358   2.972   6.012   5.500
 5487SOL     OW17359   2.956   4.089   6.692
 5487SOL    HW117360   2.989   4.022   6.626
 5487SOL    HW217361   3.025   4.161   6.704
 5488SOL     OW17362   6.794   1.053   0.567
 5488SOL    HW117363   6.811   1.124   0.500
 5488SOL    HW217364   6.861   1.058   0.640
 5489SOL     OW17365   6.283   3.319   2.156
 5489SOL    HW117366   6.302   3.221   2.158
 5489SOL    HW217367   6.202   3.336   2.099
 5490SOL     OW17368   1.569   0.299   2.233
 5490SOL    HW117369   1.579   0.398   2.219
 5490SOL    HW217370   1.569   0.280   2.331
 5491SOL     OW17371   0.250   2.738   0.813
 5491SOL    HW117372   0.309   2.722   0.733
 5491SOL    HW217373   0.265   2.830   0.848
 5492SOL     OW17374   1.116   3.606   5.574
 5492SOL    HW117375   1.074   3.524   5.613
 5492SOL    HW217376   1.214   3.589   5.559
 5493SOL     OW17377   4.119   3.636   2.068
 5493SOL    HW117378   4.215   3.644   2.044
 5493SOL    HW217379   4.093   3.712   2.129
 5494SOL     OW17380   6.593   4.002   5.107
 5494SOL    HW117381   6.595   4.093   5.149
 5494SOL    HW217382   6.547   4.008   5.018
 5495SOL     OW17383   5.714   0.948   1.035
 5495SOL    HW117384   5.693   0.964   0.939
 5495SOL    HW217385   5.742   1.035   1.077
 5496SOL     OW17386   4.621   0.468   3.854
 5496SOL    HW117387   4.640   0.492   3.759
 5496SOL    HW217388   4.650   0.543   3.914
 5497SOL     OW17389   0.287   1.196   6.131
 5497SOL    HW117390   0.331   1.118   6.086
 5497SOL    HW217391   0.336   1.280   6.108
 5498SOL     OW17392   6.958   5.048   1.856
 5498SOL    HW117393   6.862   5.061   1.831
 5498SOL    HW217394   7.003   4.988   1.790
 5499SOL     OW17395   0.431   0.688   3.627
 5499SOL    HW117396   0.412   0.773   3.578
 5499SOL    HW217397   0.468   0.709   3.718
 5500SOL     OW17398   1.546   0.725   6.883
 5500SOL    HW117399   1.497   0.767   6.807
 5500SOL    HW217400   1.482   0.709   6.959
 5501SOL     OW17401   4.235   2.270   0.451
 5501SOL    HW117402   4.184   2.232   0.528
 5501SOL    HW217403   4.217   2.369   0.444
 5502SOL     OW17404   5.316   4.009   6.393
 5502SOL    HW117405   5.282   4.051   6.309
 5502SOL    HW217406   5.315   3.909   6.383
 5503SOL     OW17407   0.426   4.079   0.914
 5503SOL    HW117408   0.425   4.094   1.012
 5503SOL    HW217409   0.512   4.112   0.876
 5504SOL     OW17410   4.897   1.357   5.945
 5504SOL    HW117411   4.896   1.257   5.956
 5504SOL    HW217412   4.978   1.394   5.991
 5505SOL     OW17413   2.096   3.987   3.678
 5505SOL    HW117414   2.127   4.034   3.595
 5505SOL    HW217415   2.129   4.036   3.758
 5506SOL     OW17416   6.721   3.124   6.865
 5506SOL    HW117417   6.621   3.118   6.873
 5506SOL    HW217418   6.763   3.096   6.951
 5507SOL     OW17419   3.506   0.585   5.865
 5507SOL    HW117420   3.585   0.527   5.884
 5507SOL    HW217421   3.526   0.679   5.892
 5508SOL     OW17422   1.347   0.879   0.389
 5508SOL    HW117423   1.302   0.800   0.432
 5508SOL    HW217424   1.292   0.912   0.313
 5509SOL     OW17425   0.785   5.373   0.736
 5509SOL    HW117426   0.845   5.293   0.730
 5509SOL    HW217427   0.841   5.457   0.734
 5510SOL     OW17428   5.263   5.731   6.907
 5510SOL    HW117429   5.317   5.807   6.870
 5510SOL    HW217430   5.234   5.671   6.832
 5511SOL     OW17431   0.845   1.369   4.933
 5511SOL    HW117432   0.835   1.295   4.868
 5511SOL    HW217433   0.876   1.452   4.886
 5512SOL     OW17434   3.805   0.838   1.405
 5512SOL    HW117435   3.839   0.841   1.311
 5512SOL    HW217436   3.879   0.863   1.468
 5513SOL     OW17437   3.521   5.136   5.930
 5513SOL    HW117438   3.529   5.065   5.860
 5513SOL    HW217439   3.471   5.100   6.009
 5514SOL     OW17440   3.567   6.842   4.894
 5514SOL    HW117441   3.491   6.777   4.880
 5514SOL    HW217442   3.559   6.917   4.828
 5515SOL     OW17443   1.763   5.771   2.272
 5515SOL    HW117444   1.695   5.838   2.242
 5515SOL    HW217445   1.851   5.817   2.285
 5516SOL     OW17446   2.390   2.638   5.076
 5516SOL    HW117447   2.380   2.612   4.980
 5516SOL    HW217448   2.406   2.736   5.083
 5517SOL     OW17449   1.872   3.866   2.289
 5517SOL    HW117450   1.878   3.801   2.365
 5517SOL    HW217451   1.841   3.818   2.207
 5518SOL     OW17452   5.964   4.729   6.022
 5518SOL    HW117453   5.904   4.728   6.103
 5518SOL    HW217454   5.910   4.751   5.941
 5519SOL     OW17455   4.781   3.035   3.706
 5519SOL    HW117456   4.764   2.951   3.654
 5519SOL    HW217457   4.877   3.062   3.695
 5520SOL     OW17458   5.851   6.146   2.503
 5520SOL    HW117459   5.945   6.173   2.521
 5520SOL    HW217460   5.849   6.073   2.435
 5521SOL     OW17461   5.396   5.482   1.691
 5521SOL    HW117462   5.400   5.405   1.755
 5521SOL    HW217463   5.486   5.525   1.686
 5522SOL     OW17464   6.217   5.323   1.313
 5522SOL    HW117465   6.193   5.335   1.217
 5522SOL    HW217466   6.176   5.397   1.367
 5523SOL     OW17467   5.165   0.980   2.878
 5523SOL    HW117468   5.262   0.961   2.861
 5523SOL    HW217469   5.118   0.989   2.791
 5524SOL     OW17470   3.677   0.333   5.574
 5524SOL    HW117471   3.662   0.309   5.479
 5524SOL    HW217472   3.591   0.327   5.625
 5525SOL     OW17473   6.926   2.842   0.649
 5525SOL    HW117474   6.872   2.882   0.722
 5525SOL    HW217475   6.981   2.766   0.685
 5526SOL     OW17476   4.797   3.985   2.780
 5526SOL    HW117477   4.844   3.932   2.710
 5526SOL    HW217478   4.790   3.931   2.864
 5527SOL     OW17479   4.851   2.987   4.359
 5527SOL    HW117480   4.795   2.911   4.326
 5527SOL    HW217481   4.941   2.984   4.315
 5528SOL     OW17482   0.740   1.854   1.766
 5528SOL    HW117483   0.811   1.805   1.816
 5528SOL    HW217484   0.651   1.836   1.807
 5529SOL     OW17485   2.203   0.189   3.562
 5529SOL    HW117486   2.189   0.151   3.471
 5529SOL    HW217487   2.114   0.211   3.603
 5530SOL     OW17488   6.957   2.728   2.202
 5530SOL    HW117489   6.960   2.739   2.103
 5530SOL    HW217490   6.906   2.804   2.243
 5531SOL     OW17491   3.603   4.195   1.179
 5531SOL    HW117492   3.629   4.118   1.120
 5531SOL    HW217493   3.658   4.275   1.156
 5532SOL     OW17494   1.724   2.349   0.394
 5532SOL    HW117495   1.624   2.354   0.388
 5532SOL    HW217496   1.751   2.344   0.490
 5533SOL     OW17497   4.838   1.432   4.415
 5533SOL    HW117498   4.791   1.516   4.388
 5533SOL    HW217499   4.786   1.353   4.384
 5534SOL     OW17500   1.023   1.308   5.457
 5534SOL    HW117501   0.986   1.387   5.406
 5534SOL    HW217502   1.104   1.274   5.409
 5535SOL     OW17503   0.524   1.383   2.477
 5535SOL    HW117504   0.617   1.403   2.508
 5535SOL    HW217505   0.477   1.326   2.545
 5536SOL     OW17506   3.450   0.860   4.701
 5536SOL    HW117507   3.546   0.882   4.682
 5536SOL    HW217508   3.405   0.832   4.616
 5537SOL     OW17509   3.753   1.335   2.813
 5537SOL    HW117510   3.814   1.351   2.736
 5537SOL    HW217511   3.733   1.237   2.820
 5538SOL     OW17512   4.606   5.774   4.794
 5538SOL    HW117513   4.551   5.834   4.852
 5538SOL    HW217514   4.554   5.751   4.711
 5539SOL     OW17515   2.049   2.652   1.089
 5539SOL    HW117516   2.069   2.666   1.186
 5539SOL    HW217517   1.962   2.697   1.066
 5540SOL     OW17518   5.007   4.737   3.485
 5540SOL    HW117519   5.090   4.732   3.428
 5540SOL    HW217520   5.002   4.656   3.543
 5541SOL     OW17521   4.291   2.096   6.329
 5541SOL    HW117522   4.318   2.058   6.240
 5541SOL    HW217523   4.367   2.088   6.393
 5542SOL     OW17524   3.836   4.158   6.163
 5542SOL    HW117525   3.864   4.160   6.259
 5542SOL    HW217526   3.825   4.251   6.129
 5543SOL     OW17527   6.541   4.009   6.654
 5543SOL    HW117528   6.505   3.929   6.605
 5543SOL    HW217529   6.632   3.987   6.690
 5544SOL     OW17530   5.787   1.309   5.983
 5544SOL    HW117531   5.715   1.379   5.983
 5544SOL    HW217532   5.758   1.232   6.039
 5545SOL     OW17533   4.437   2.153   2.481
 5545SOL    HW117534   4.348   2.153   2.436
 5545SOL    HW217535   4.508   2.181   2.417
 5546SOL     OW17536   2.133   5.092   6.097
 5546SOL    HW117537   2.213   5.071   6.040
 5546SOL    HW217538   2.071   5.153   6.047
 5547SOL     OW17539   3.369   5.437   5.419
 5547SOL    HW117540   3.465   5.409   5.421
 5547SOL    HW217541   3.312   5.361   5.388
 5548SOL     OW17542   5.999   3.440   5.542
 5548SOL    HW117543   5.962   3.492   5.619
 5548SOL    HW217544   6.053   3.363   5.577
 5549SOL     OW17545   2.674   4.835   0.006
 5549SOL    HW117546   2.609   4.760   7.015
 5549SOL    HW217547   2.624   4.922   0.011
 5550SOL     OW17548   2.400   6.368   1.260
 5550SOL    HW117549   2.447   6.441   1.309
 5550SOL    HW217550   2.367   6.300   1.326
 5551SOL     OW17551   1.452   1.165   3.270
 5551SOL    HW117552   1.430   1.252   3.314
 5551SOL    HW217553   1.539   1.174   3.221
 5552SOL     OW17554   0.009   1.817   1.141
 5552SOL    HW117555   0.060   1.789   1.222
 5552SOL    HW217556   6.955   1.752   1.125
 5553SOL     OW17557   4.329   6.203   0.292
 5553SOL    HW117558   4.370   6.276   0.348
 5553SOL    HW217559   4.314   6.123   0.349
 5554SOL     OW17560   2.815   2.191   5.120
 5554SOL    HW117561   2.900   2.230   5.082
 5554SOL    HW217562   2.787   2.113   5.064
 5555SOL     OW17563   0.086   4.889   3.348
 5555SOL    HW117564   0.104   4.905   3.251
 5555SOL    HW217565   0.165   4.844   3.390
 5556SOL     OW17566   0.546   2.027   4.991
 5556SOL    HW117567   0.490   1.945   4.999
 5556SOL    HW217568   0.630   2.014   5.044
 5557SOL     OW17569   2.341   6.213   3.600
 5557SOL    HW117570   2.438   6.221   3.620
 5557SOL    HW217571   2.320   6.119   3.574
 5558SOL     OW17572   5.288   3.154   4.681
 5558SOL    HW117573   5.232   3.122   4.757
 5558SOL    HW217574   5.353   3.083   4.654
 5559SOL     OW17575   1.631   0.215   0.650
 5559SOL    HW117576   1.697   0.143   0.670
 5559SOL    HW217577   1.658   0.299   0.698
 5560SOL     OW17578   0.232   1.442   3.976
 5560SOL    HW117579   0.191   1.447   3.885
 5560SOL    HW217580   0.197   1.362   4.025
 5561SOL     OW17581   1.483   3.198   3.228
 5561SOL    HW117582   1.399   3.155   3.259
 5561SOL    HW217583   1.549   3.200   3.302
 5562SOL     OW17584   2.132   3.352   5.740
 5562SOL    HW117585   2.207   3.409   5.772
 5562SOL    HW217586   2.076   3.325   5.818
 5563SOL     OW17587   4.860   6.227   2.557
 5563SOL    HW117588   4.840   6.173   2.476
 5563SOL    HW217589   4.821   6.319   2.546
 5564SOL     OW17590   5.059   3.627   1.823
 5564SOL    HW117591   4.970   3.584   1.842
 5564SOL    HW217592   5.101   3.655   1.909
 5565SOL     OW17593   3.678   2.565   5.469
 5565SOL    HW117594   3.595   2.525   5.509
 5565SOL    HW217595   3.720   2.499   5.407
 5566SOL     OW17596   1.947   4.932   1.669
 5566SOL    HW117597   2.035   4.977   1.649
 5566SOL    HW217598   1.887   4.997   1.716
 5567SOL     OW17599   1.714   5.512   1.422
 5567SOL    HW117600   1.796   5.482   1.470
 5567SOL    HW217601   1.677   5.593   1.466
 5568SOL     OW17602   3.854   1.245   1.407
 5568SOL    HW117603   3.873   1.343   1.406
 5568SOL    HW217604   3.837   1.213   1.314
 5569SOL     OW17605   3.966   1.646   0.428
 5569SOL    HW117606   3.991   1.569   0.487
 5569SOL    HW217607   3.987   1.622   0.333
 5570SOL     OW17608   6.279   4.368   5.492
 5570SOL    HW117609   6.217   4.299   5.453
 5570SOL    HW217610   6.229   4.423   5.559
 5571SOL     OW17611   6.895   5.805   0.309
 5571SOL    HW117612   6.884   5.843   0.400
 5571SOL    HW217613   6.919   5.708   0.316
 5572SOL     OW17614   4.614   2.651   6.474
 5572SOL    HW117615   4.520   2.685   6.467
 5572SOL    HW217616   4.662   2.667   6.387
 5573SOL     OW17617   1.091   3.678   0.991
 5573SOL    HW117618   1.068   3.618   0.914
 5573SOL    HW217619   1.187   3.704   0.985
 5574SOL     OW17620   0.692   6.041   5.345
 5574SOL    HW117621   0.680   6.123   5.400
 5574SOL    HW217622   0.643   6.051   5.258
 5575SOL     OW17623   0.889   1.544   0.882
 5575SOL    HW117624   0.875   1.464   0.940
 5575SOL    HW217625   0.962   1.600   0.921
 5576SOL     OW17626   5.851   6.338   0.654
 5576SOL    HW117627   5.874   6.345   0.751
 5576SOL    HW217628   5.924   6.290   0.605
 5577SOL     OW17629   1.702   4.189   5.204
 5577SOL    HW117630   1.637   4.121   5.240
 5577SOL    HW217631   1.673   4.216   5.112
 5578SOL     OW17632   4.299   2.786   0.038
 5578SOL    HW117633   4.397   2.784   0.020
 5578SOL    HW217634   4.260   2.870   0.002
 5579SOL     OW17635   5.150   4.051   6.732
 5579SOL    HW117636   5.085   4.049   6.655
 5579SOL    HW217637   5.155   3.959   6.773
 5580SOL     OW17638   5.564   1.298   0.430
 5580SOL    HW117639   5.657   1.289   0.393
 5580SOL    HW217640   5.516   1.372   0.383
 5581SOL     OW17641   2.172   1.389   6.353
 5581SOL    HW117642   2.190   1.484   6.375
 5581SOL    HW217643   2.100   1.383   6.284
 5582SOL     OW17644   3.717   3.818   3.764
 5582SOL    HW117645   3.809   3.857   3.761
 5582SOL    HW217646   3.665   3.849   3.684
 5583SOL     OW17647   3.666   0.208   1.369
 5583SOL    HW117648   3.754   0.164   1.350
 5583SOL    HW217649   3.673   0.259   1.455
 5584SOL     OW17650   6.753   3.332   3.218
 5584SOL    HW117651   6.716   3.334   3.125
 5584SOL    HW217652   6.685   3.294   3.281
 5585SOL     OW17653   6.186   0.454   4.601
 5585SOL    HW117654   6.268   0.413   4.562
 5585SOL    HW217655   6.167   0.412   4.690
 5586SOL     OW17656   2.166   1.090   5.735
 5586SOL    HW117657   2.144   1.187   5.728
 5586SOL    HW217658   2.237   1.076   5.804
 5587SOL     OW17659   3.302   0.423   3.959
 5587SOL    HW117660   3.333   0.490   4.027
 5587SOL    HW217661   3.338   0.447   3.869
 5588SOL     OW17662   2.606   7.005   5.633
 5588SOL    HW117663   2.652   6.917   5.622
 5588SOL    HW217664   2.522   7.006   5.579
 5589SOL     OW17665   4.230   2.942   6.270
 5589SOL    HW117666   4.257   2.856   6.314
 5589SOL    HW217667   4.301   2.968   6.204
 5590SOL     OW17668   0.707   5.320   4.381
 5590SOL    HW117669   0.659   5.366   4.456
 5590SOL    HW217670   0.663   5.342   4.294
 5591SOL     OW17671   5.546   0.586   0.510
 5591SOL    HW117672   5.474   0.654   0.502
 5591SOL    HW217673   5.555   0.556   0.605
 5592SOL     OW17674   1.610   3.269   2.699
 5592SOL    HW117675   1.657   3.349   2.736
 5592SOL    HW217676   1.570   3.292   2.610
 5593SOL     OW17677   1.590   2.942   5.821
 5593SOL    HW117678   1.601   2.920   5.918
 5593SOL    HW217679   1.505   2.903   5.787
 5594SOL     OW17680   2.170   0.721   0.303
 5594SOL    HW117681   2.108   0.688   0.375
 5594SOL    HW217682   2.208   0.643   0.254
 5595SOL     OW17683   6.893   2.527   5.897
 5595SOL    HW117684   6.847   2.488   5.976
 5595SOL    HW217685   6.890   2.627   5.902
 5596SOL     OW17686   5.121   0.114   2.970
 5596SOL    HW117687   5.121   0.118   3.070
 5596SOL    HW217688   5.042   0.165   2.935
 5597SOL     OW17689   6.850   0.865   6.314
 5597SOL    HW117690   6.872   0.838   6.220
 5597SOL    HW217691   6.935   0.873   6.367
 5598SOL     OW17692   6.720   1.876   3.911
 5598SOL    HW117693   6.757   1.925   3.990
 5598SOL    HW217694   6.629   1.911   3.890
 5599SOL     OW17695   5.167   3.254   2.926
 5599SOL    HW117696   5.076   3.274   2.963
 5599SOL    HW217697   5.163   3.170   2.872
 5600SOL     OW17698   2.261   1.464   2.345
 5600SOL    HW117699   2.172   1.459   2.391
 5600SOL    HW217700   2.288   1.560   2.335
 5601SOL     OW17701   5.559   2.845   5.301
 5601SOL    HW117702   5.519   2.754   5.313
 5601SOL    HW217703   5.595   2.854   5.208
 5602SOL     OW17704   0.213   2.155   3.177
 5602SOL    HW117705   0.183   2.202   3.260
 5602SOL    HW217706   0.148   2.083   3.154
 5603SOL     OW17707   4.087   2.108   4.485
 5603SOL    HW117708   4.034   2.036   4.439
 5603SOL    HW217709   4.146   2.153   4.419
 5604SOL     OW17710   0.618   0.311   4.045
 5604SOL    HW117711   0.545   0.370   4.011
 5604SOL    HW217712   0.578   0.228   4.084
 5605SOL     OW17713   2.850   5.836   4.536
 5605SOL    HW117714   2.767   5.781   4.531
 5605SOL    HW217715   2.835   5.916   4.594
 5606SOL     OW17716   4.836   2.390   0.805
 5606SOL    HW117717   4.748   2.354   0.776
 5606SOL    HW217718   4.821   2.461   0.874
 5607SOL     OW17719   6.375   3.044   2.146
 5607SOL    HW117720   6.427   2.969   2.107
 5607SOL    HW217721   6.298   3.007   2.198
 5608SOL     OW17722   4.398   1.143   3.481
 5608SOL    HW117723   4.377   1.175   3.574
 5608SOL    HW217724   4.495   1.155   3.463
 5609SOL     OW17725   6.746   6.735   0.972
 5609SOL    HW117726   6.817   6.674   0.937
 5609SOL    HW217727   6.659   6.685   0.976
 5610SOL     OW17728   4.997   4.536   6.805
 5610SOL    HW117729   4.986   4.472   6.881
 5610SOL    HW217730   4.912   4.587   6.792
 5611SOL     OW17731   6.768   4.980   0.775
 5611SOL    HW117732   6.787   5.029   0.860
 5611SOL    HW217733   6.783   4.882   0.789
 5612SOL     OW17734   2.608   1.119   0.820
 5612SOL    HW117735   2.561   1.119   0.732
 5612SOL    HW217736   2.676   1.046   0.821
 5613SOL     OW17737   6.786   5.662   5.458
 5613SOL    HW117738   6.844   5.701   5.530
 5613SOL    HW217739   6.704   5.719   5.447
 5614SOL     OW17740   6.111   2.376   4.265
 5614SOL    HW117741   6.204   2.402   4.238
 5614SOL    HW217742   6.115   2.298   4.327
 5615SOL     OW17743   0.534   3.237   3.441
 5615SOL    HW117744   0.622   3.202   3.473
 5615SOL    HW217745   0.546   3.280   3.351
 5616SOL     OW17746   1.725   3.468   2.870
 5616SOL    HW117747   1.815   3.446   2.907
 5616SOL    HW217748   1.657   3.464   2.943
 5617SOL     OW17749   2.152   5.469   6.279
 5617SOL    HW117750   2.121   5.533   6.209
 5617SOL    HW217751   2.239   5.429   6.252
 5618SOL     OW17752   6.939   5.856   3.713
 5618SOL    HW117753   6.849   5.876   3.754
 5618SOL    HW217754   6.970   5.935   3.660
 5619SOL     OW17755   4.038   3.155   4.497
 5619SOL    HW117756   3.948   3.111   4.507
 5619SOL    HW217757   4.052   3.220   4.571
 5620SOL     OW17758   4.728   4.317   5.829
 5620SOL    HW117759   4.729   4.403   5.879
 5620SOL    HW217760   4.635   4.280   5.830
 5621SOL     OW17761   1.326   2.231   5.453
 5621SOL    HW117762   1.304   2.160   5.520
 5621SOL    HW217763   1.403   2.285   5.486
 5622SOL     OW17764   5.043   5.702   4.585
 5622SOL    HW117765   5.127   5.756   4.595
 5622SOL    HW217766   4.966   5.763   4.569
 5623SOL     OW17767   5.022   6.085   3.870
 5623SOL    HW117768   4.973   6.106   3.954
 5623SOL    HW217769   5.085   6.009   3.886
 5624SOL     OW17770   6.970   4.929   4.434
 5624SOL    HW117771   0.001   4.842   4.431
 5624SOL    HW217772   6.881   4.916   4.391
 5625SOL     OW17773   1.250   6.038   5.165
 5625SOL    HW117774   1.259   5.947   5.125
 5625SOL    HW217775   1.166   6.081   5.131
 5626SOL     OW17776   1.945   4.105   4.777
 5626SOL    HW117777   1.881   4.078   4.849
 5626SOL    HW217778   2.023   4.042   4.778
 5627SOL     OW17779   1.178   5.589   6.856
 5627SOL    HW117780   1.119   5.545   6.788
 5627SOL    HW217781   1.251   5.638   6.809
 5628SOL     OW17782   2.794   2.676   1.196
 5628SOL    HW117783   2.851   2.667   1.278
 5628SOL    HW217784   2.812   2.764   1.152
 5629SOL     OW17785   5.178   3.920   1.448
 5629SOL    HW117786   5.184   3.973   1.532
 5629SOL    HW217787   5.088   3.877   1.442
 5630SOL     OW17788   2.536   4.136   6.880
 5630SOL    HW117789   2.600   4.149   6.804
 5630SOL    HW217790   2.442   4.140   6.846
 5631SOL     OW17791   4.667   1.115   1.709
 5631SOL    HW117792   4.597   1.186   1.703
 5631SOL    HW217793   4.686   1.079   1.617
 5632SOL     OW17794   5.540   0.186   5.811
 5632SOL    HW117795   5.445   0.206   5.789
 5632SOL    HW217796   5.589   0.272   5.828
 5633SOL     OW17797   0.863   5.421   5.591
 5633SOL    HW117798   0.773   5.400   5.630
 5633SOL    HW217799   0.921   5.339   5.596
 5634SOL     OW17800   2.638   6.576   0.207
 5634SOL    HW117801   2.652   6.553   0.303
 5634SOL    HW217802   2.621   6.492   0.155
 5635SOL     OW17803   2.119   0.734   6.858
 5635SOL    HW117804   2.153   0.753   6.766
 5635SOL    HW217805   2.132   0.637   6.879
 5636SOL     OW17806   6.128   1.671   5.453
 5636SOL    HW117807   6.217   1.716   5.463
 5636SOL    HW217808   6.120   1.600   5.524
 5637SOL     OW17809   5.015   0.000   4.837
 5637SOL    HW117810   5.106   0.010   4.877
 5637SOL    HW217811   5.013   6.939   4.779
 5638SOL     OW17812   5.353   5.180   1.027
 5638SOL    HW117813   5.353   5.114   0.952
 5638SOL    HW217814   5.447   5.202   1.053
 5639SOL     OW17815   0.585   0.742   1.621
 5639SOL    HW117816   0.613   0.780   1.709
 5639SOL    HW217817   0.487   0.759   1.607
 5640SOL     OW17818   2.504   5.332   3.218
 5640SOL    HW117819   2.555   5.359   3.136
 5640SOL    HW217820   2.519   5.235   3.236
 5641SOL     OW17821   0.458   4.065   3.919
 5641SOL    HW117822   0.403   4.011   3.982
 5641SOL    HW217823   0.555   4.043   3.931
 5642SOL     OW17824   1.372   4.843   0.321
 5642SOL    HW117825   1.431   4.774   0.364
 5642SOL    HW217826   1.306   4.877   0.387
 5643SOL     OW17827   4.555   2.076   4.664
 5643SOL    HW117828   4.647   2.054   4.631
 5643SOL    HW217829   4.550   2.174   4.684
 5644SOL     OW17830   4.601   1.236   4.986
 5644SOL    HW117831   4.535   1.252   4.912
 5644SOL    HW217832   4.642   1.323   5.013
 5645SOL     OW17833   5.928   5.696   3.810
 5645SOL    HW117834   5.914   5.795   3.815
 5645SOL    HW217835   5.999   5.676   3.742
 5646SOL     OW17836   0.425   6.511   3.926
 5646SOL    HW117837   0.521   6.508   3.901
 5646SOL    HW217838   0.415   6.501   4.025
 5647SOL     OW17839   5.776   5.488   6.388
 5647SOL    HW117840   5.742   5.508   6.479
 5647SOL    HW217841   5.793   5.573   6.339
 5648SOL     OW17842   1.983   1.721   4.051
 5648SOL    HW117843   2.047   1.794   4.027
 5648SOL    HW217844   1.891   1.759   4.058
 5649SOL     OW17845   0.809   1.191   5.156
 5649SOL    HW117846   0.831   1.241   5.073
 5649SOL    HW217847   0.866   1.109   5.162
 5650SOL     OW17848   6.489   4.611   6.730
 5650SOL    HW117849   6.395   4.627   6.758
 5650SOL    HW217850   6.499   4.517   6.696
 5651SOL     OW17851   6.831   1.196   2.028
 5651SOL    HW117852   6.834   1.255   2.108
 5651SOL    HW217853   6.919   1.198   1.981
 5652SOL     OW17854   5.015   5.297   1.709
 5652SOL    HW117855   4.952   5.294   1.786
 5652SOL    HW217856   4.977   5.244   1.632
 5653SOL     OW17857   0.312   5.938   5.772
 5653SOL    HW117858   0.349   6.011   5.714
 5653SOL    HW217859   0.279   5.864   5.714
 5654SOL     OW17860   6.681   0.192   5.612
 5654SOL    HW117861   6.761   0.172   5.668
 5654SOL    HW217862   6.630   0.268   5.654
 5655SOL     OW17863   0.408   3.656   4.195
 5655SOL    HW117864   0.432   3.718   4.271
 5655SOL    HW217865   0.481   3.659   4.127
 5656SOL     OW17866   3.705   4.019   0.351
 5656SOL    HW117867   3.720   4.066   0.264
 5656SOL    HW217868   3.739   3.926   0.345
 5657SOL     OW17869   3.515   0.104   1.736
 5657SOL    HW117870   3.490   0.017   1.693
 5657SOL    HW217871   3.610   0.127   1.711
 5658SOL     OW17872   3.734   6.987   5.555
 5658SOL    HW117873   3.799   0.027   5.601
 5658SOL    HW217874   3.774   6.953   5.470
 5659SOL     OW17875   2.925   3.719   2.622
 5659SOL    HW117876   3.004   3.754   2.673
 5659SOL    HW217877   2.923   3.759   2.531
 5660SOL     OW17878   4.794   0.484   6.927
 5660SOL    HW117879   4.770   0.460   0.001
 5660SOL    HW217880   4.738   0.562   6.898
 5661SOL     OW17881   0.017   5.959   4.200
 5661SOL    HW117882   0.005   5.978   4.102
 5661SOL    HW217883   6.948   5.951   4.244
 5662SOL     OW17884   2.099   4.668   4.052
 5662SOL    HW117885   2.017   4.699   4.003
 5662SOL    HW217886   2.177   4.724   4.025
 5663SOL     OW17887   1.092   3.883   0.716
 5663SOL    HW117888   1.052   3.793   0.697
 5663SOL    HW217889   1.164   3.902   0.650
 5664SOL     OW17890   6.942   4.481   2.335
 5664SOL    HW117891   6.973   4.426   2.257
 5664SOL    HW217892   6.893   4.423   2.399
 5665SOL     OW17893   2.274   3.281   5.533
 5665SOL    HW117894   2.224   3.302   5.617
 5665SOL    HW217895   2.362   3.329   5.533
 5666SOL     OW17896   5.188   5.203   0.647
 5666SOL    HW117897   5.133   5.266   0.701
 5666SOL    HW217898   5.283   5.233   0.647
 5667SOL     OW17899   6.471   5.191   2.876
 5667SOL    HW117900   6.567   5.203   2.902
 5667SOL    HW217901   6.422   5.278   2.887
 5668SOL     OW17902   5.022   2.287   6.162
 5668SOL    HW117903   5.070   2.357   6.215
 5668SOL    HW217904   5.076   2.263   6.082
 5669SOL     OW17905   0.687   4.661   6.287
 5669SOL    HW117906   0.705   4.576   6.238
 5669SOL    HW217907   0.774   4.707   6.307
 5670SOL     OW17908   0.399   3.378   4.180
 5670SOL    HW117909   0.422   3.348   4.087
 5670SOL    HW217910   0.404   3.478   4.185
 5671SOL     OW17911   1.865   0.849   6.554
 5671SOL    HW117912   1.779   0.802   6.533
 5671SOL    HW217913   1.878   0.852   6.653
 5672SOL     OW17914   4.960   4.147   5.776
 5672SOL    HW117915   4.873   4.189   5.800
 5672SOL    HW217916   5.000   4.195   5.698
 5673SOL     OW17917   0.221   0.136   2.116
 5673SOL    HW117918   0.283   0.200   2.161
 5673SOL    HW217919   0.273   0.068   2.065
 5674SOL     OW17920   6.857   3.347   1.546
 5674SOL    HW117921   6.831   3.442   1.532
 5674SOL    HW217922   6.925   3.341   1.619
 5675SOL     OW17923   4.382   2.372   5.492
 5675SOL    HW117924   4.463   2.326   5.456
 5675SOL    HW217925   4.381   2.467   5.460
 5676SOL     OW17926   1.951   0.251   1.509
 5676SOL    HW117927   1.972   0.285   1.417
 5676SOL    HW217928   1.926   0.154   1.503
 5677SOL     OW17929   6.181   0.711   3.953
 5677SOL    HW117930   6.210   0.801   3.986
 5677SOL    HW217931   6.133   0.721   3.866
 5678SOL     OW17932   3.426   6.980   3.029
 5678SOL    HW117933   3.466   0.024   3.095
 5678SOL    HW217934   3.332   6.959   3.056
 5679SOL     OW17935   2.187   6.211   4.894
 5679SOL    HW117936   2.162   6.294   4.946
 5679SOL    HW217937   2.286   6.209   4.880
 5680SOL     OW17938   2.016   5.818   6.384
 5680SOL    HW117939   2.109   5.796   6.355
 5680SOL    HW217940   1.952   5.760   6.333
 5681SOL     OW17941   1.319   2.415   6.724
 5681SOL    HW117942   1.257   2.480   6.680
 5681SOL    HW217943   1.407   2.460   6.743
 5682SOL     OW17944   1.353   2.811   5.796
 5682SOL    HW117945   1.289   2.844   5.865
 5682SOL    HW217946   1.307   2.741   5.740
 5683SOL     OW17947   3.431   2.710   6.518
 5683SOL    HW117948   3.339   2.687   6.549
 5683SOL    HW217949   3.469   2.633   6.468
 5684SOL     OW17950   3.678   3.842   4.041
 5684SOL    HW117951   3.739   3.917   4.066
 5684SOL    HW217952   3.699   3.810   3.949
 5685SOL     OW17953   0.084   4.427   2.701
 5685SOL    HW117954   7.006   4.429   2.719
 5685SOL    HW217955   0.102   4.460   2.608
 5686SOL     OW17956   3.531   6.815   0.843
 5686SOL    HW117957   3.510   6.814   0.745
 5686SOL    HW217958   3.553   6.722   0.873
 5687SOL     OW17959   5.391   4.327   5.264
 5687SOL    HW117960   5.429   4.242   5.227
 5687SOL    HW217961   5.373   4.390   5.190
 5688SOL     OW17962   5.651   2.282   1.341
 5688SOL    HW117963   5.718   2.334   1.394
 5688SOL    HW217964   5.561   2.291   1.383
 5689SOL     OW17965   4.407   1.894   1.046
 5689SOL    HW117966   4.400   1.799   1.017
 5689SOL    HW217967   4.466   1.945   0.983
 5690SOL     OW17968   4.349   5.810   0.828
 5690SOL    HW117969   4.356   5.736   0.894
 5690SOL    HW217970   4.281   5.876   0.858
 5691SOL     OW17971   2.654   0.085   2.169
 5691SOL    HW117972   2.595   0.125   2.239
 5691SOL    HW217973   2.646   7.006   2.171
 5692SOL     OW17974   6.401   2.954   5.856
 5692SOL    HW117975   6.433   3.015   5.928
 5692SOL    HW217976   6.303   2.938   5.865
 5693SOL     OW17977   4.735   2.733   2.408
 5693SOL    HW117978   4.678   2.689   2.338
 5693SOL    HW217979   4.792   2.803   2.366
 5694SOL     OW17980   0.064   0.767   3.460
 5694SOL    HW117981   0.022   0.744   3.372
 5694SOL    HW217982   0.052   0.865   3.478
 5695SOL     OW17983   1.670   2.326   3.176
 5695SOL    HW117984   1.667   2.264   3.097
 5695SOL    HW217985   1.578   2.342   3.209
 5696SOL     OW17986   2.619   1.210   5.036
 5696SOL    HW117987   2.626   1.220   4.937
 5696SOL    HW217988   2.677   1.279   5.080
 5697SOL     OW17989   6.987   2.452   0.378
 5697SOL    HW117990   6.899   2.461   0.425
 5697SOL    HW217991   0.015   2.539   0.380
 5698SOL     OW17992   0.939   2.936   2.221
 5698SOL    HW117993   0.849   2.940   2.177
 5698SOL    HW217994   0.954   2.846   2.260
 5699SOL     OW17995   6.429   1.058   4.723
 5699SOL    HW117996   6.360   1.095   4.662
 5699SOL    HW217997   6.388   0.989   4.782
 5700SOL     OW17998   1.530   6.118   5.096
 5700SOL    HW117999   1.474   6.036   5.107
 5700SOL    HW218000   1.476   6.199   5.119
 5701SOL     OW18001   6.977   5.993   2.047
 5701SOL    HW118002   7.018   5.953   2.129
 5701SOL    HW218003   0.004   5.958   1.966
 5702SOL     OW18004   2.006   6.460   6.353
 5702SOL    HW118005   1.973   6.520   6.425
 5702SOL    HW218006   2.101   6.434   6.372
 5703SOL     OW18007   4.600   4.538   0.271
 5703SOL    HW118008   4.544   4.456   0.282
 5703SOL    HW218009   4.580   4.602   0.346
 5704SOL     OW18010   4.682   5.492   3.314
 5704SOL    HW118011   4.730   5.423   3.260
 5704SOL    HW218012   4.584   5.478   3.308
 5705SOL     OW18013   6.063   0.026   0.937
 5705SOL    HW118014   6.138   0.092   0.942
 5705SOL    HW218015   5.981   0.067   0.977
 5706SOL     OW18016   1.302   1.540   6.913
 5706SOL    HW118017   1.257   1.603   6.850
 5706SOL    HW218018   1.241   1.462   6.930
 5707SOL     OW18019   1.965   0.847   6.139
 5707SOL    HW118020   2.035   0.869   6.071
 5707SOL    HW218021   2.006   0.848   6.230
 5708SOL     OW18022   4.841   0.117   2.055
 5708SOL    HW118023   4.791   0.200   2.080
 5708SOL    HW218024   4.927   0.141   2.010
 5709SOL     OW18025   0.757   6.179   3.441
 5709SOL    HW118026   0.806   6.138   3.518
 5709SOL    HW218027   0.673   6.221   3.473
 5710SOL     OW18028   3.191   3.314   6.114
 5710SOL    HW118029   3.215   3.324   6.017
 5710SOL    HW218030   3.261   3.260   6.160
 5711SOL     OW18031   5.211   1.305   3.768
 5711SOL    HW118032   5.195   1.216   3.726
 5711SOL    HW218033   5.145   1.320   3.842
 5712SOL     OW18034   6.915   6.638   5.651
 5712SOL    HW118035   6.993   6.580   5.672
 5712SOL    HW218036   6.849   6.587   5.595
 5713SOL     OW18037   6.787   2.938   2.008
 5713SOL    HW118038   6.859   2.975   1.949
 5713SOL    HW218039   6.770   3.001   2.084
 5714SOL     OW18040   1.531   0.700   6.193
 5714SOL    HW118041   1.464   0.657   6.133
 5714SOL    HW218042   1.623   0.670   6.169
 5715SOL     OW18043   1.644   6.373   2.475
 5715SOL    HW118044   1.640   6.470   2.454
 5715SOL    HW218045   1.636   6.360   2.574
 5716SOL     OW18046   1.444   3.633   6.111
 5716SOL    HW118047   1.467   3.566   6.181
 5716SOL    HW218048   1.527   3.680   6.081
 5717SOL     OW18049   1.115   4.191   1.058
 5717SOL    HW118050   1.064   4.107   1.038
 5717SOL    HW218051   1.149   4.187   1.151
 5718SOL     OW18052   1.795   4.950   6.318
 5718SOL    HW118053   1.884   4.905   6.308
 5718SOL    HW218054   1.727   4.882   6.346
 5719SOL     OW18055   3.603   0.392   6.484
 5719SOL    HW118056   3.550   0.426   6.561
 5719SOL    HW218057   3.652   0.468   6.441
 5720SOL     OW18058   1.158   5.427   5.109
 5720SOL    HW118059   1.122   5.420   5.016
 5720SOL    HW218060   1.153   5.338   5.154
 5721SOL     OW18061   0.697   2.977   0.660
 5721SOL    HW118062   0.726   2.913   0.589
 5721SOL    HW218063   0.643   2.928   0.729
 5722SOL     OW18064   5.510   0.607   5.257
 5722SOL    HW118065   5.496   0.548   5.336
 5722SOL    HW218066   5.601   0.589   5.218
 5723SOL     OW18067   4.105   5.470   0.022
 5723SOL    HW118068   4.174   5.402   0.046
 5723SOL    HW218069   4.035   5.427   6.985
 5724SOL     OW18070   5.289   2.275   6.043
 5724SOL    HW118071   5.248   2.336   6.111
 5724SOL    HW218072   5.381   2.306   6.022
 5725SOL     OW18073   5.090   5.382   4.355
 5725SOL    HW118074   5.082   5.481   4.339
 5725SOL    HW218075   5.183   5.361   4.385
 5726SOL     OW18076   5.552   3.382   5.994
 5726SOL    HW118077   5.465   3.346   6.029
 5726SOL    HW218078   5.628   3.339   6.043
 5727SOL     OW18079   5.764   2.063   3.194
 5727SOL    HW118080   5.848   2.092   3.241
 5727SOL    HW218081   5.785   1.992   3.127
 5728SOL     OW18082   6.218   1.355   5.386
 5728SOL    HW118083   6.128   1.315   5.373
 5728SOL    HW218084   6.223   1.443   5.339
 5729SOL     OW18085   6.826   1.458   6.243
 5729SOL    HW118086   6.795   1.379   6.190
 5729SOL    HW218087   6.820   1.436   6.340
 5730SOL     OW18088   3.890   6.125   5.668
 5730SOL    HW118089   3.906   6.154   5.573
 5730SOL    HW218090   3.944   6.182   5.730
 5731SOL     OW18091   1.848   0.115   3.927
 5731SOL    HW118092   1.928   0.123   3.866
 5731SOL    HW218093   1.866   0.165   4.012
 5732SOL     OW18094   6.259   4.922   4.680
 5732SOL    HW118095   6.226   4.849   4.620
 5732SOL    HW218096   6.355   4.941   4.659
 5733SOL     OW18097   3.360   0.830   0.126
 5733SOL    HW118098   3.361   0.924   0.160
 5733SOL    HW218099   3.344   0.767   0.202
 5734SOL     OW18100   1.731   6.776   5.657
 5734SOL    HW118101   1.805   6.766   5.723
 5734SOL    HW218102   1.737   6.865   5.612
 5735SOL     OW18103   4.327   0.976   2.542
 5735SOL    HW118104   4.379   0.895   2.518
 5735SOL    HW218105   4.309   1.030   2.459
 5736SOL     OW18106   4.782   4.508   6.530
 5736SOL    HW118107   4.865   4.499   6.475
 5736SOL    HW218108   4.801   4.566   6.610
 5737SOL     OW18109   5.041   5.557   1.415
 5737SOL    HW118110   5.066   5.472   1.370
 5737SOL    HW218111   5.075   5.556   1.509
 5738SOL     OW18112   3.580   1.060   6.521
 5738SOL    HW118113   3.647   1.122   6.480
 5738SOL    HW218114   3.616   1.025   6.607
 5739SOL     OW18115   2.414   0.093   5.847
 5739SOL    HW118116   2.349   0.020   5.830
 5739SOL    HW218117   2.503   0.068   5.808
 5740SOL     OW18118   5.396   3.498   0.767
 5740SOL    HW118119   5.474   3.527   0.822
 5740SOL    HW218120   5.374   3.402   0.788
 5741SOL     OW18121   0.827   4.156   4.229
 5741SOL    HW118122   0.889   4.214   4.282
 5741SOL    HW218123   0.874   4.072   4.202
 5742SOL     OW18124   4.168   0.237   3.427
 5742SOL    HW118125   4.110   0.312   3.458
 5742SOL    HW218126   4.260   0.249   3.464
 5743SOL     OW18127   3.643   4.495   5.637
 5743SOL    HW118128   3.626   4.583   5.683
 5743SOL    HW218129   3.740   4.473   5.641
 5744SOL     OW18130   5.651   0.278   2.751
 5744SOL    HW118131   5.597   0.295   2.669
 5744SOL    HW218132   5.609   0.205   2.805
 5745SOL     OW18133   2.473   2.516   4.003
 5745SOL    HW118134   2.394   2.482   3.952
 5745SOL    HW218135   2.541   2.444   4.010
 5746SOL     OW18136   3.550   0.545   3.027
 5746SOL    HW118137   3.556   0.447   3.007
 5746SOL    HW218138   3.535   0.559   3.125
 5747SOL     OW18139   1.225   5.970   1.596
 5747SOL    HW118140   1.182   6.057   1.569
 5747SOL    HW218141   1.211   5.955   1.694
 5748SOL     OW18142   0.316   5.910   0.343
 5748SOL    HW118143   0.371   5.993   0.338
 5748SOL    HW218144   0.371   5.832   0.312
 5749SOL     OW18145   2.107   6.380   5.090
 5749SOL    HW118146   2.141   6.456   5.145
 5749SOL    HW218147   2.087   6.302   5.150
 5750SOL     OW18148   0.056   4.268   4.364
 5750SOL    HW118149   0.009   4.180   4.359
 5750SOL    HW218150   0.046   4.306   4.456
 5751SOL     OW18151   2.154   3.998   4.345
 5751SOL    HW118152   2.174   3.920   4.287
 5751SOL    HW218153   2.077   4.050   4.306
 5752SOL     OW18154   5.401   6.852   0.905
 5752SOL    HW118155   5.405   6.794   0.824
 5752SOL    HW218156   5.441   6.941   0.884
 5753SOL     OW18157   3.019   4.000   5.079
 5753SOL    HW118158   3.103   4.035   5.120
 5753SOL    HW218159   2.941   4.050   5.116
 5754SOL     OW18160   0.983   6.314   1.667
 5754SOL    HW118161   1.016   6.251   1.596
 5754SOL    HW218162   0.898   6.279   1.706
 5755SOL     OW18163   2.425   2.645   6.928
 5755SOL    HW118164   2.519   2.620   6.949
 5755SOL    HW218165   2.420   2.677   6.833
 5756SOL     OW18166   6.495   6.625   1.913
 5756SOL    HW118167   6.566   6.568   1.954
 5756SOL    HW218168   6.477   6.704   1.972
 5757SOL     OW18169   6.755   6.245   3.676
 5757SOL    HW118170   6.738   6.154   3.714
 5757SOL    HW218171   6.707   6.254   3.588
 5758SOL     OW18172   1.621   6.335   2.752
 5758SOL    HW118173   1.661   6.317   2.842
 5758SOL    HW218174   1.526   6.362   2.763
 5759SOL     OW18175   4.210   6.669   1.700
 5759SOL    HW118176   4.186   6.751   1.648
 5759SOL    HW218177   4.163   6.590   1.661
 5760SOL     OW18178   6.940   3.514   2.003
 5760SOL    HW118179   6.843   3.537   2.012
 5760SOL    HW218180   6.983   3.513   2.093
 5761SOL     OW18181   5.589   6.031   4.829
 5761SOL    HW118182   5.555   6.125   4.835
 5761SOL    HW218183   5.534   5.980   4.763
 5762SOL     OW18184   5.687   4.290   0.086
 5762SOL    HW118185   5.652   4.247   0.169
 5762SOL    HW218186   5.632   4.261   0.007
 5763SOL     OW18187   5.011   0.219   0.708
 5763SOL    HW118188   5.033   0.264   0.794
 5763SOL    HW218189   4.948   0.276   0.655
 5764SOL     OW18190   4.270   5.338   3.692
 5764SOL    HW118191   4.344   5.313   3.629
 5764SOL    HW218192   4.262   5.438   3.696
 5765SOL     OW18193   6.566   5.163   0.690
 5765SOL    HW118194   6.520   5.129   0.608
 5765SOL    HW218195   6.643   5.102   0.713
 5766SOL     OW18196   1.439   1.895   4.874
 5766SOL    HW118197   1.371   1.964   4.899
 5766SOL    HW218198   1.504   1.934   4.808
 5767SOL     OW18199   1.774   0.616   0.414
 5767SOL    HW118200   1.687   0.662   0.397
 5767SOL    HW218201   1.843   0.651   0.350
 5768SOL     OW18202   6.923   0.039   3.418
 5768SOL    HW118203   6.953   0.009   3.509
 5768SOL    HW218204   6.978   7.013   3.348
 5769SOL     OW18205   2.115   5.650   6.676
 5769SOL    HW118206   2.100   5.692   6.765
 5769SOL    HW218207   2.166   5.713   6.617
 5770SOL     OW18208   0.829   6.198   0.401
 5770SOL    HW118209   0.803   6.281   0.352
 5770SOL    HW218210   0.914   6.162   0.362
 5771SOL     OW18211   2.041   5.705   3.967
 5771SOL    HW118212   2.105   5.772   3.929
 5771SOL    HW218213   2.085   5.615   3.969
 5772SOL     OW18214   4.885   0.764   1.685
 5772SOL    HW118215   4.818   0.796   1.752
 5772SOL    HW218216   4.838   0.719   1.609
 5773SOL     OW18217   4.717   2.021   2.420
 5773SOL    HW118218   4.705   2.115   2.389
 5773SOL    HW218219   4.689   2.013   2.515
 5774SOL     OW18220   1.507   6.876   4.385
 5774SOL    HW118221   1.459   6.880   4.472
 5774SOL    HW218222   1.459   6.814   4.323
 5775SOL     OW18223   0.342   5.648   2.867
 5775SOL    HW118224   0.321   5.594   2.785
 5775SOL    HW218225   0.312   5.598   2.948
 5776SOL     OW18226   1.648   0.638   2.764
 5776SOL    HW118227   1.693   0.580   2.696
 5776SOL    HW218228   1.696   0.629   2.852
 5777SOL     OW18229   1.509   0.492   3.175
 5777SOL    HW118230   1.446   0.447   3.111
 5777SOL    HW218231   1.512   0.441   3.260
 5778SOL     OW18232   1.224   1.285   6.780
 5778SOL    HW118233   1.286   1.215   6.743
 5778SOL    HW218234   1.133   1.274   6.739
 5779SOL     OW18235   4.924   2.288   6.891
 5779SOL    HW118236   4.832   2.255   6.910
 5779SOL    HW218237   4.936   2.300   6.793
 5780SOL     OW18238   5.973   5.586   4.458
 5780SOL    HW118239   5.913   5.641   4.518
 5780SOL    HW218240   5.922   5.507   4.424
 5781SOL     OW18241   6.494   4.501   5.366
 5781SOL    HW118242   6.524   4.569   5.433
 5781SOL    HW218243   6.412   4.454   5.401
 5782SOL     OW18244   0.535   1.582   0.455
 5782SOL    HW118245   0.553   1.582   0.553
 5782SOL    HW218246   0.550   1.490   0.419
 5783SOL     OW18247   1.530   1.694   2.108
 5783SOL    HW118248   1.601   1.681   2.039
 5783SOL    HW218249   1.445   1.651   2.077
 5784SOL     OW18250   0.395   5.875   6.896
 5784SOL    HW118251   0.359   5.857   6.804
 5784SOL    HW218252   0.405   5.788   6.945
 5785SOL     OW18253   2.746   1.982   0.182
 5785SOL    HW118254   2.699   1.996   0.269
 5785SOL    HW218255   2.758   1.884   0.166
 5786SOL     OW18256   6.378   4.317   0.338
 5786SOL    HW118257   6.476   4.320   0.320
 5786SOL    HW218258   6.333   4.259   0.270
 5787SOL     OW18259   1.957   2.003   5.619
 5787SOL    HW118260   1.934   1.920   5.570
 5787SOL    HW218261   2.013   1.981   5.699
 5788SOL     OW18262   2.375   1.449   2.679
 5788SOL    HW118263   2.345   1.541   2.703
 5788SOL    HW218264   2.407   1.448   2.584
 5789SOL     OW18265   3.597   4.987   6.431
 5789SOL    HW118266   3.549   5.074   6.424
 5789SOL    HW218267   3.656   4.987   6.512
 5790SOL     OW18268   0.130   3.438   4.151
 5790SOL    HW118269   0.229   3.428   4.161
 5790SOL    HW218270   0.094   3.491   4.227
 5791SOL     OW18271   3.377   0.358   2.231
 5791SOL    HW118272   3.401   0.387   2.139
 5791SOL    HW218273   3.385   0.259   2.238
 5792SOL     OW18274   0.800   2.473   3.038
 5792SOL    HW118275   0.718   2.474   2.980
 5792SOL    HW218276   0.772   2.476   3.134
 5793SOL     OW18277   5.831   1.179   3.592
 5793SOL    HW118278   5.908   1.127   3.627
 5793SOL    HW218279   5.755   1.116   3.573
 5794SOL     OW18280   3.908   2.375   0.302
 5794SOL    HW118281   3.994   2.424   0.319
 5794SOL    HW218282   3.927   2.277   0.300
 5795SOL     OW18283   5.840   5.167   5.606
 5795SOL    HW118284   5.894   5.222   5.669
 5795SOL    HW218285   5.894   5.087   5.577
 5796SOL     OW18286   3.885   1.061   0.157
 5796SOL    HW118287   3.852   1.084   0.248
 5796SOL    HW218288   3.816   1.085   0.089
 5797SOL     OW18289   4.238   1.466   4.677
 5797SOL    HW118290   4.177   1.445   4.600
 5797SOL    HW218291   4.273   1.559   4.667
 5798SOL     OW18292   0.504   3.926   5.831
 5798SOL    HW118293   0.422   3.971   5.795
 5798SOL    HW218294   0.541   3.865   5.762
 5799SOL     OW18295   5.549   0.795   4.144
 5799SOL    HW118296   5.458   0.777   4.105
 5799SOL    HW218297   5.608   0.716   4.128
 5800SOL     OW18298   5.333   6.229   0.876
 5800SOL    HW118299   5.350   6.156   0.809
 5800SOL    HW218300   5.238   6.226   0.906
 5801SOL     OW18301   0.794   2.229   4.468
 5801SOL    HW118302   0.797   2.270   4.377
 5801SOL    HW218303   0.708   2.254   4.513
 5802SOL     OW18304   0.659   4.620   6.954
 5802SOL    HW118305   0.695   4.541   7.005
 5802SOL    HW218306   0.566   4.639   6.986
 5803SOL     OW18307   1.467   4.928   1.500
 5803SOL    HW118308   1.527   4.857   1.463
 5803SOL    HW218309   1.484   5.014   1.451
 5804SOL     OW18310   6.242   4.286   3.589
 5804SOL    HW118311   6.315   4.290   3.658
 5804SOL    HW218312   6.163   4.337   3.622
 5805SOL     OW18313   3.859   4.324   6.795
 5805SOL    HW118314   3.912   4.277   6.724
 5805SOL    HW218315   3.802   4.257   6.843
 5806SOL     OW18316   0.544   6.547   6.729
 5806SOL    HW118317   0.540   6.466   6.671
 5806SOL    HW218318   0.474   6.540   6.801
 5807SOL     OW18319   1.352   3.872   1.953
 5807SOL    HW118320   1.396   3.785   1.975
 5807SOL    HW218321   1.393   3.945   2.008
 5808SOL     OW18322   5.474   3.870   3.101
 5808SOL    HW118323   5.449   3.811   3.023
 5808SOL    HW218324   5.435   3.961   3.087
 5809SOL     OW18325   0.020   2.915   4.575
 5809SOL    HW118326   6.951   2.955   4.599
 5809SOL    HW218327   0.022   2.893   4.477
 5810SOL     OW18328   2.900   0.942   4.094
 5810SOL    HW118329   2.964   0.996   4.040
 5810SOL    HW218330   2.912   0.845   4.073
 5811SOL     OW18331   3.183   0.770   4.842
 5811SOL    HW118332   3.177   0.843   4.774
 5811SOL    HW218333   3.258   0.789   4.905
 5812SOL     OW18334   5.567   0.109   4.757
 5812SOL    HW118335   5.534   0.190   4.806
 5812SOL    HW218336   5.489   0.061   4.716
 5813SOL     OW18337   1.414   1.292   6.231
 5813SOL    HW118338   1.496   1.346   6.252
 5813SOL    HW218339   1.353   1.345   6.173
 5814SOL     OW18340   6.406   4.490   0.804
 5814SOL    HW118341   6.500   4.458   0.812
 5814SOL    HW218342   6.396   4.547   0.723
 5815SOL     OW18343   4.358   2.380   3.676
 5815SOL    HW118344   4.269   2.348   3.709
 5815SOL    HW218345   4.415   2.301   3.653
 5816SOL     OW18346   5.178   6.357   0.653
 5816SOL    HW118347   5.080   6.374   0.653
 5816SOL    HW218348   5.220   6.406   0.730
 5817SOL     OW18349   5.252   2.825   5.817
 5817SOL    HW118350   5.325   2.840   5.751
 5817SOL    HW218351   5.214   2.913   5.846
 5818SOL     OW18352   0.095   6.257   4.471
 5818SOL    HW118353   0.045   6.180   4.511
 5818SOL    HW218354   0.167   6.222   4.411
 5819SOL     OW18355   4.238   0.467   0.351
 5819SOL    HW118356   4.214   0.381   0.398
 5819SOL    HW218357   4.320   0.506   0.392
 5820SOL     OW18358   4.376   6.936   3.735
 5820SOL    HW118359   4.379   7.013   3.671
 5820SOL    HW218360   4.339   6.968   3.823
 5821SOL     OW18361   1.607   0.234   2.501
 5821SOL    HW118362   1.634   0.140   2.522
 5821SOL    HW218363   1.668   0.297   2.549
 5822SOL     OW18364   0.367   2.056   2.215
 5822SOL    HW118365   0.466   2.064   2.213
 5822SOL    HW218366   0.340   1.989   2.284
 5823SOL     OW18367   0.849   1.140   5.575
 5823SOL    HW118368   0.909   1.190   5.512
 5823SOL    HW218369   0.831   1.049   5.538
 5824SOL     OW18370   6.915   6.407   2.680
 5824SOL    HW118371   6.847   6.362   2.739
 5824SOL    HW218372   6.879   6.495   2.651
 5825SOL     OW18373   2.288   2.354   5.519
 5825SOL    HW118374   2.216   2.285   5.526
 5825SOL    HW218375   2.330   2.367   5.609
 5826SOL     OW18376   0.242   5.748   5.574
 5826SOL    HW118377   0.243   5.656   5.533
 5826SOL    HW218378   0.236   5.817   5.502
 5827SOL     OW18379   1.617   5.033   4.599
 5827SOL    HW118380   1.519   5.027   4.580
 5827SOL    HW218381   1.666   5.042   4.512
 5828SOL     OW18382   6.972   3.142   1.848
 5828SOL    HW118383   7.011   3.224   1.891
 5828SOL    HW218384   6.879   3.162   1.818
 5829SOL     OW18385   2.806   1.492   3.009
 5829SOL    HW118386   2.726   1.457   3.058
 5829SOL    HW218387   2.780   1.516   2.916
 5830SOL     OW18388   3.938   0.634   5.211
 5830SOL    HW118389   3.923   0.551   5.157
 5830SOL    HW218390   3.876   0.636   5.289
 5831SOL     OW18391   6.747   0.056   4.416
 5831SOL    HW118392   6.674   0.008   4.466
 5831SOL    HW218393   6.706   0.111   4.344
 5832SOL     OW18394   3.992   3.974   5.551
 5832SOL    HW118395   3.952   4.019   5.630
 5832SOL    HW218396   4.092   3.972   5.561
 5833SOL     OW18397   3.536   3.086   4.273
 5833SOL    HW118398   3.523   3.002   4.324
 5833SOL    HW218399   3.632   3.112   4.274
 5834SOL     OW18400   6.036   2.137   0.772
 5834SOL    HW118401   5.999   2.119   0.680
 5834SOL    HW218402   5.971   2.105   0.841
 5835SOL     OW18403   5.075   2.678   2.811
 5835SOL    HW118404   5.152   2.724   2.855
 5835SOL    HW218405   5.045   2.732   2.732
 5836SOL     OW18406   2.528   6.413   3.454
 5836SOL    HW118407   2.485   6.385   3.369
 5836SOL    HW218408   2.479   6.491   3.493
 5837SOL     OW18409   4.333   4.514   6.316
 5837SOL    HW118410   4.323   4.585   6.246
 5837SOL    HW218411   4.390   4.549   6.391
 5838SOL     OW18412   2.226   1.463   5.575
 5838SOL    HW118413   2.316   1.455   5.534
 5838SOL    HW218414   2.218   1.549   5.625
 5839SOL     OW18415   0.605   2.732   2.367
 5839SOL    HW118416   0.506   2.719   2.373
 5839SOL    HW218417   0.651   2.674   2.434
 5840SOL     OW18418   1.562   5.325   6.743
 5840SOL    HW118419   1.648   5.274   6.746
 5840SOL    HW218420   1.497   5.284   6.808
 5841SOL     OW18421   5.802   2.967   2.342
 5841SOL    HW118422   5.806   3.053   2.392
 5841SOL    HW218423   5.745   2.978   2.260
 5842SOL     OW18424   4.185   3.638   1.204
 5842SOL    HW118425   4.229   3.713   1.255
 5842SOL    HW218426   4.252   3.597   1.142
 5843SOL     OW18427   2.215   4.065   2.331
 5843SOL    HW118428   2.248   3.972   2.317
 5843SOL    HW218429   2.126   4.076   2.286
 5844SOL     OW18430   0.121   0.027   5.857
 5844SOL    HW118431   0.157   6.960   5.825
 5844SOL    HW218432   0.142   0.039   5.954
 5845SOL     OW18433   0.873   0.551   2.902
 5845SOL    HW118434   0.934   0.569   2.825
 5845SOL    HW218435   0.881   0.623   2.970
 5846SOL     OW18436   6.582   3.195   4.953
 5846SOL    HW118437   6.644   3.224   4.880
 5846SOL    HW218438   6.581   3.265   5.025
 5847SOL     OW18439   2.105   1.849   2.535
 5847SOL    HW118440   2.125   1.947   2.532
 5847SOL    HW218441   2.011   1.833   2.504
 5848SOL     OW18442   2.577   4.595   3.527
 5848SOL    HW118443   2.610   4.538   3.452
 5848SOL    HW218444   2.613   4.561   3.613
 5849SOL     OW18445   6.969   0.799   6.072
 5849SOL    HW118446   6.991   0.897   6.075
 5849SOL    HW218447   0.026   0.749   6.032
 5850SOL     OW18448   1.345   3.097   1.883
 5850SOL    HW118449   1.384   3.007   1.903
 5850SOL    HW218450   1.312   3.138   1.968
 5851SOL     OW18451   4.967   3.218   3.129
 5851SOL    HW118452   5.035   3.180   3.191
 5851SOL    HW218453   4.932   3.146   3.069
 5852SOL     OW18454   4.940   6.503   2.869
 5852SOL    HW118455   4.973   6.471   2.781
 5852SOL    HW218456   5.017   6.532   2.925
 5853SOL     OW18457   3.355   6.059   5.718
 5853SOL    HW118458   3.343   6.028   5.624
 5853SOL    HW218459   3.452   6.056   5.743
 5854SOL     OW18460   6.455   3.636   6.210
 5854SOL    HW118461   6.414   3.718   6.250
 5854SOL    HW218462   6.554   3.647   6.207
 5855SOL     OW18463   0.696   0.578   4.989
 5855SOL    HW118464   0.707   0.491   5.037
 5855SOL    HW218465   0.694   0.653   5.055
 5856SOL     OW18466   2.103   5.223   3.778
 5856SOL    HW118467   2.139   5.139   3.738
 5856SOL    HW218468   2.178   5.282   3.806
 5857SOL     OW18469   5.246   2.750   4.794
 5857SOL    HW118470   5.187   2.776   4.717
 5857SOL    HW218471   5.275   2.655   4.782
 5858SOL     OW18472   2.619   2.454   2.018
 5858SOL    HW118473   2.606   2.479   1.922
 5858SOL    HW218474   2.712   2.419   2.031
 5859SOL     OW18475   5.549   6.396   0.894
 5859SOL    HW118476   5.580   6.400   0.990
 5859SOL    HW218477   5.467   6.339   0.888
 5860SOL     OW18478   2.114   3.716   1.874
 5860SOL    HW118479   2.151   3.634   1.917
 5860SOL    HW218480   2.185   3.785   1.866
 5861SOL     OW18481   5.467   1.291   3.708
 5861SOL    HW118482   5.374   1.311   3.739
 5861SOL    HW218483   5.485   1.193   3.717
 5862SOL     OW18484   4.426   5.059   3.220
 5862SOL    HW118485   4.356   4.987   3.217
 5862SOL    HW218486   4.384   5.145   3.248
 5863SOL     OW18487   2.915   0.718   5.173
 5863SOL    HW118488   2.910   0.689   5.077
 5863SOL    HW218489   2.826   0.753   5.202
 5864SOL     OW18490   3.920   4.107   1.499
 5864SOL    HW118491   3.823   4.117   1.522
 5864SOL    HW218492   3.953   4.019   1.534
 5865SOL     OW18493   5.222   0.420   4.056
 5865SOL    HW118494   5.194   0.418   4.152
 5865SOL    HW218495   5.169   0.490   4.007
 5866SOL     OW18496   3.801   6.204   6.265
 5866SOL    HW118497   3.765   6.294   6.240
 5866SOL    HW218498   3.736   6.157   6.325
 5867SOL     OW18499   0.370   3.334   0.792
 5867SOL    HW118500   0.343   3.245   0.754
 5867SOL    HW218501   0.330   3.407   0.737
 5868SOL     OW18502   0.134   0.753   4.970
 5868SOL    HW118503   0.154   0.694   4.893
 5868SOL    HW218504   0.035   0.766   4.978
 5869SOL     OW18505   1.716   5.136   3.609
 5869SOL    HW118506   1.772   5.206   3.653
 5869SOL    HW218507   1.772   5.084   3.544
 5870SOL     OW18508   4.825   5.783   5.386
 5870SOL    HW118509   4.860   5.793   5.479
 5870SOL    HW218510   4.811   5.686   5.366
 5871SOL     OW18511   4.430   3.909   0.424
 5871SOL    HW118512   4.411   4.000   0.463
 5871SOL    HW218513   4.381   3.840   0.477
 5872SOL     OW18514   4.260   5.352   6.785
 5872SOL    HW118515   4.228   5.445   6.764
 5872SOL    HW218516   4.299   5.350   6.877
 5873SOL     OW18517   1.825   2.613   0.646
 5873SOL    HW118518   1.826   2.553   0.726
 5873SOL    HW218519   1.761   2.577   0.578
 5874SOL     OW18520   2.983   3.055   1.243
 5874SOL    HW118521   2.924   3.072   1.322
 5874SOL    HW218522   3.056   3.124   1.241
 5875SOL     OW18523   4.045   1.478   0.222
 5875SOL    HW118524   4.063   1.455   0.126
 5875SOL    HW218525   4.068   1.400   0.280
 5876SOL     OW18526   3.624   2.885   6.617
 5876SOL    HW118527   3.657   2.932   6.535
 5876SOL    HW218528   3.570   2.805   6.589
 5877SOL     OW18529   6.146   6.621   1.102
 5877SOL    HW118530   6.099   6.620   1.014
 5877SOL    HW218531   6.215   6.549   1.104
 5878SOL     OW18532   5.613   5.993   3.126
 5878SOL    HW118533   5.610   6.093   3.128
 5878SOL    HW218534   5.620   5.958   3.220
 5879SOL     OW18535   3.474   2.758   6.022
 5879SOL    HW118536   3.440   2.850   6.043
 5879SOL    HW218537   3.480   2.746   5.923
 5880SOL     OW18538   4.485   4.006   5.775
 5880SOL    HW118539   4.409   3.941   5.776
 5880SOL    HW218540   4.501   4.042   5.867
 5881SOL     OW18541   1.209   6.862   2.732
 5881SOL    HW118542   1.291   6.920   2.734
 5881SOL    HW218543   1.138   6.903   2.788
 5882SOL     OW18544   1.520   6.683   5.831
 5882SOL    HW118545   1.452   6.730   5.775
 5882SOL    HW218546   1.606   6.675   5.780
 5883SOL     OW18547   0.213   2.546   0.140
 5883SOL    HW118548   0.209   2.637   0.182
 5883SOL    HW218549   0.259   2.482   0.201
 5884SOL     OW18550   6.685   0.763   4.524
 5884SOL    HW118551   6.772   0.767   4.476
 5884SOL    HW218552   6.689   0.818   4.607
 5885SOL     OW18553   0.727   5.651   0.416
 5885SOL    HW118554   0.769   5.721   0.358
 5885SOL    HW218555   0.678   5.696   0.491
 5886SOL     OW18556   1.226   3.048   3.450
 5886SOL    HW118557   1.193   3.026   3.541
 5886SOL    HW218558   1.148   3.075   3.392
 5887SOL     OW18559   2.578   1.912   1.897
 5887SOL    HW118560   2.599   1.968   1.977
 5887SOL    HW218561   2.492   1.943   1.857
 5888SOL     OW18562   2.855   0.227   0.972
 5888SOL    HW118563   2.770   0.176   0.986
 5888SOL    HW218564   2.924   0.167   0.932
 5889SOL     OW18565   0.151   1.728   1.368
 5889SOL    HW118566   0.223   1.667   1.334
 5889SOL    HW218567   0.127   1.703   1.461
 5890SOL     OW18568   2.060   6.778   2.151
 5890SOL    HW118569   2.031   6.745   2.241
 5890SOL    HW218570   1.984   6.771   2.087
 5891SOL     OW18571   2.737   3.131   0.401
 5891SOL    HW118572   2.727   3.218   0.449
 5891SOL    HW218573   2.647   3.088   0.391
 5892SOL     OW18574   0.399   4.373   0.907
 5892SOL    HW118575   0.475   4.435   0.887
 5892SOL    HW218576   0.365   4.333   0.822
 5893SOL     OW18577   1.286   4.981   1.153
 5893SOL    HW118578   1.349   4.974   1.075
 5893SOL    HW218579   1.227   4.900   1.155
 5894SOL     OW18580   0.849   5.852   5.777
 5894SOL    HW118581   0.860   5.846   5.678
 5894SOL    HW218582   0.771   5.910   5.798
 5895SOL     OW18583   6.224   3.195   4.402
 5895SOL    HW118584   6.195   3.100   4.417
 5895SOL    HW218585   6.232   3.241   4.490
 5896SOL     OW18586   5.626   1.143   1.675
 5896SOL    HW118587   5.532   1.179   1.681
 5896SOL    HW218588   5.639   1.073   1.745
 5897SOL     OW18589   3.893   1.737   1.688
 5897SOL    HW118590   3.796   1.746   1.667
 5897SOL    HW218591   3.908   1.759   1.784
 5898SOL     OW18592   2.349   1.921   5.646
 5898SOL    HW118593   2.443   1.951   5.667
 5898SOL    HW218594   2.331   1.934   5.549
 5899SOL     OW18595   0.008   5.249   5.703
 5899SOL    HW118596   7.003   5.312   5.777
 5899SOL    HW218597   6.951   5.190   5.682
 5900SOL     OW18598   0.243   5.194   2.749
 5900SOL    HW118599   0.298   5.139   2.685
 5900SOL    HW218600   0.295   5.208   2.833
 5901SOL     OW18601   0.900   0.682   6.990
 5901SOL    HW118602   0.940   0.623   6.920
 5901SOL    HW218603   0.931   0.776   6.975
 5902SOL     OW18604   5.629   3.316   4.831
 5902SOL    HW118605   5.703   3.359   4.882
 5902SOL    HW218606   5.596   3.379   4.761
 5903SOL     OW18607   5.473   2.960   6.962
 5903SOL    HW118608   5.449   2.863   6.968
 5903SOL    HW218609   5.551   2.971   6.901
 5904SOL     OW18610   1.195   4.513   1.363
 5904SOL    HW118611   1.254   4.574   1.311
 5904SOL    HW218612   1.218   4.519   1.460
 5905SOL     OW18613   5.365   0.850   3.684
 5905SOL    HW118614   5.377   0.784   3.609
 5905SOL    HW218615   5.296   0.917   3.659
 5906SOL     OW18616   5.741   1.656   5.321
 5906SOL    HW118617   5.828   1.660   5.271
 5906SOL    HW218618   5.693   1.572   5.296
 5907SOL     OW18619   1.556   0.744   0.297
 5907SOL    HW118620   1.485   0.791   0.348
 5907SOL    HW218621   1.539   0.754   0.199
 5908SOL     OW18622   4.731   3.517   0.476
 5908SOL    HW118623   4.711   3.610   0.446
 5908SOL    HW218624   4.730   3.456   0.397
 5909SOL     OW18625   0.729   4.143   5.331
 5909SOL    HW118626   0.788   4.136   5.251
 5909SOL    HW218627   0.639   4.176   5.304
 5910SOL     OW18628   1.164   4.001   1.532
 5910SOL    HW118629   1.192   4.042   1.445
 5910SOL    HW218630   1.216   3.917   1.547
 5911SOL     OW18631   0.477   5.739   6.200
 5911SOL    HW118632   0.432   5.720   6.287
 5911SOL    HW218633   0.456   5.832   6.170
 5912SOL     OW18634   5.873   3.532   6.947
 5912SOL    HW118635   5.797   3.535   7.013
 5912SOL    HW218636   5.863   3.606   6.881
 5913SOL     OW18637   2.224   2.612   5.467
 5913SOL    HW118638   2.280   2.535   5.499
 5913SOL    HW218639   2.153   2.632   5.534
 5914SOL     OW18640   2.906   5.918   6.967
 5914SOL    HW118641   2.882   5.921   6.870
 5914SOL    HW218642   2.955   6.001   6.992
 5915SOL     OW18643   5.274   2.862   2.606
 5915SOL    HW118644   5.312   2.954   2.609
 5915SOL    HW218645   5.177   2.866   2.581
 5916SOL     OW18646   4.747   0.323   5.908
 5916SOL    HW118647   4.689   0.375   5.845
 5916SOL    HW218648   4.768   0.234   5.867
 5917SOL     OW18649   3.801   3.020   3.864
 5917SOL    HW118650   3.724   3.076   3.833
 5917SOL    HW218651   3.768   2.952   3.929
 5918SOL     OW18652   1.439   3.530   4.439
 5918SOL    HW118653   1.376   3.598   4.473
 5918SOL    HW218654   1.503   3.504   4.512
 5919SOL     OW18655   2.960   2.117   0.802
 5919SOL    HW118656   2.993   2.201   0.758
 5919SOL    HW218657   2.878   2.084   0.754
 5920SOL     OW18658   3.315   6.864   0.178
 5920SOL    HW118659   3.256   6.931   0.224
 5920SOL    HW218660   3.269   6.775   0.177
 5921SOL     OW18661   4.089   5.319   5.222
 5921SOL    HW118662   4.071   5.226   5.256
 5921SOL    HW218663   4.135   5.314   5.134
 5922SOL     OW18664   6.444   4.652   2.785
 5922SOL    HW118665   6.372   4.620   2.847
 5922SOL    HW218666   6.516   4.697   2.838
 5923SOL     OW18667   6.496   0.517   3.447
 5923SOL    HW118668   6.470   0.510   3.543
 5923SOL    HW218669   6.595   0.523   3.439
 5924SOL     OW18670   5.314   2.480   4.832
 5924SOL    HW118671   5.380   2.407   4.816
 5924SOL    HW218672   5.231   2.442   4.874
 5925SOL     OW18673   4.591   5.928   3.005
 5925SOL    HW118674   4.557   5.920   2.911
 5925SOL    HW218675   4.690   5.945   3.003
 5926SOL     OW18676   3.334   5.455   1.996
 5926SOL    HW118677   3.387   5.381   2.038
 5926SOL    HW218678   3.393   5.508   1.936
 5927SOL     OW18679   2.741   5.802   1.481
 5927SOL    HW118680   2.768   5.763   1.569
 5927SOL    HW218681   2.660   5.754   1.447
 5928SOL     OW18682   2.078   0.866   2.093
 5928SOL    HW118683   1.994   0.864   2.039
 5928SOL    HW218684   2.133   0.945   2.067
 5929SOL     OW18685   1.074   6.461   5.681
 5929SOL    HW118686   1.038   6.497   5.767
 5929SOL    HW218687   1.134   6.383   5.700
 5930SOL     OW18688   6.194   1.562   4.218
 5930SOL    HW118689   6.099   1.566   4.188
 5930SOL    HW218690   6.253   1.605   4.149
 5931SOL     OW18691   6.032   5.448   1.892
 5931SOL    HW118692   5.963   5.462   1.963
 5931SOL    HW218693   6.046   5.350   1.878
 5932SOL     OW18694   2.335   6.569   0.774
 5932SOL    HW118695   2.355   6.472   0.788
 5932SOL    HW218696   2.277   6.601   0.850
 5933SOL     OW18697   0.005   3.934   2.234
 5933SOL    HW118698   0.082   3.991   2.261
 5933SOL    HW218699   0.024   3.839   2.258
 5934SOL     OW18700   4.131   3.437   3.115
 5934SOL    HW118701   4.137   3.442   3.215
 5934SOL    HW218702   4.099   3.346   3.088
 5935SOL     OW18703   3.674   4.038   4.621
 5935SOL    HW118704   3.597   4.102   4.626
 5935SOL    HW218705   3.680   3.987   4.707
 5936SOL     OW18706   4.553   4.340   6.908
 5936SOL    HW118707   4.501   4.352   6.824
 5936SOL    HW218708   4.643   4.303   6.887
 5937SOL     OW18709   0.961   3.465   1.649
 5937SOL    HW118710   1.041   3.413   1.680
 5937SOL    HW218711   0.989   3.557   1.621
 5938SOL     OW18712   1.509   5.157   3.424
 5938SOL    HW118713   1.424   5.123   3.466
 5938SOL    HW218714   1.582   5.155   3.492
 5939SOL     OW18715   3.142   0.647   3.000
 5939SOL    HW118716   3.169   0.654   3.096
 5939SOL    HW218717   3.143   0.738   2.959
 5940SOL     OW18718   3.893   6.716   2.158
 5940SOL    HW118719   3.939   6.761   2.082
 5940SOL    HW218720   3.815   6.664   2.124
 5941SOL     OW18721   6.000   4.891   2.030
 5941SOL    HW118722   6.011   4.794   2.052
 5941SOL    HW218723   6.042   4.909   1.941
 5942SOL     OW18724   4.177   3.016   6.612
 5942SOL    HW118725   4.266   3.059   6.604
 5942SOL    HW218726   4.112   3.081   6.651
 5943SOL     OW18727   2.530   6.108   0.569
 5943SOL    HW118728   2.545   6.186   0.508
 5943SOL    HW218729   2.441   6.117   0.614
 5944SOL     OW18730   5.470   1.417   1.529
 5944SOL    HW118731   5.427   1.473   1.458
 5944SOL    HW218732   5.562   1.450   1.547
 5945SOL     OW18733   6.768   4.687   5.253
 5945SOL    HW118734   6.761   4.666   5.351
 5945SOL    HW218735   6.738   4.781   5.237
 5946SOL     OW18736   3.359   4.002   6.072
 5946SOL    HW118737   3.320   4.094   6.066
 5946SOL    HW218738   3.356   3.958   5.982
 5947SOL     OW18739   4.162   3.224   1.771
 5947SOL    HW118740   4.112   3.161   1.711
 5947SOL    HW218741   4.113   3.232   1.858
 5948SOL     OW18742   3.627   5.195   2.740
 5948SOL    HW118743   3.544   5.174   2.688
 5948SOL    HW218744   3.635   5.131   2.816
 5949SOL     OW18745   3.710   4.608   1.000
 5949SOL    HW118746   3.691   4.706   0.996
 5949SOL    HW218747   3.750   4.579   0.913
 5950SOL     OW18748   5.516   1.952   4.499
 5950SOL    HW118749   5.546   2.040   4.461
 5950SOL    HW218750   5.553   1.877   4.445
 5951SOL     OW18751   1.448   6.438   4.672
 5951SOL    HW118752   1.374   6.476   4.616
 5951SOL    HW218753   1.489   6.360   4.624
 5952SOL     OW18754   6.399   5.900   3.830
 5952SOL    HW118755   6.374   5.841   3.753
 5952SOL    HW218756   6.383   5.852   3.915
 5953SOL     OW18757   0.059   3.205   5.135
 5953SOL    HW118758   0.132   3.166   5.191
 5953SOL    HW218759   7.013   3.134   5.112
 5954SOL     OW18760   6.723   4.695   5.802
 5954SOL    HW118761   6.795   4.714   5.868
 5954SOL    HW218762   6.697   4.780   5.755
 5955SOL     OW18763   5.896   5.866   2.333
 5955SOL    HW118764   5.835   5.787   2.327
 5955SOL    HW218765   5.987   5.841   2.299
 5956SOL     OW18766   4.018   1.940   6.981
 5956SOL    HW118767   3.985   1.939   0.056
 5956SOL    HW218768   4.098   1.881   6.973
 5957SOL     OW18769   4.880   6.562   5.892
 5957SOL    HW118770   4.970   6.596   5.867
 5957SOL    HW218771   4.882   6.462   5.892
 5958SOL     OW18772   6.246   6.343   2.285
 5958SOL    HW118773   6.255   6.378   2.378
 5958SOL    HW218774   6.154   6.306   2.273
 5959SOL     OW18775   2.993   1.902   5.641
 5959SOL    HW118776   3.039   1.829   5.590
 5959SOL    HW218777   2.941   1.862   5.717
 5960SOL     OW18778   3.327   0.061   4.243
 5960SOL    HW118779   3.398   7.011   4.232
 5960SOL    HW218780   3.246   0.019   4.284
 5961SOL     OW18781   3.869   0.902   4.059
 5961SOL    HW118782   3.934   0.829   4.039
 5961SOL    HW218783   3.884   0.936   4.152
 5962SOL     OW18784   5.353   5.565   2.645
 5962SOL    HW118785   5.333   5.499   2.573
 5962SOL    HW218786   5.272   5.577   2.703
 5963SOL     OW18787   3.258   3.780   3.683
 5963SOL    HW118788   3.341   3.739   3.721
 5963SOL    HW218789   3.277   3.811   3.590
 5964SOL     OW18790   6.679   5.364   6.566
 5964SOL    HW118791   6.746   5.408   6.626
 5964SOL    HW218792   6.588   5.375   6.604
 5965SOL     OW18793   1.856   2.116   6.758
 5965SOL    HW118794   1.926   2.165   6.810
 5965SOL    HW218795   1.842   2.161   6.670
 5966SOL     OW18796   3.247   5.637   4.938
 5966SOL    HW118797   3.309   5.686   4.999
 5966SOL    HW218798   3.300   5.593   4.865
 5967SOL     OW18799   4.375   6.361   2.265
 5967SOL    HW118800   4.341   6.349   2.171
 5967SOL    HW218801   4.440   6.437   2.267
 5968SOL     OW18802   6.087   2.159   3.040
 5968SOL    HW118803   6.175   2.125   3.008
 5968SOL    HW218804   6.016   2.135   2.974
 5969SOL     OW18805   6.282   2.898   4.764
 5969SOL    HW118806   6.344   2.820   4.767
 5969SOL    HW218807   6.187   2.866   4.768
 5970SOL     OW18808   1.198   3.841   2.321
 5970SOL    HW118809   1.290   3.837   2.362
 5970SOL    HW218810   1.164   3.748   2.308
 5971SOL     OW18811   1.504   0.147   3.177
 5971SOL    HW118812   1.496   0.224   3.240
 5971SOL    HW218813   1.480   0.177   3.085
 5972SOL     OW18814   4.735   6.215   0.618
 5972SOL    HW118815   4.693   6.126   0.605
 5972SOL    HW218816   4.668   6.279   0.655
 5973SOL     OW18817   1.744   5.346   2.288
 5973SOL    HW118818   1.679   5.402   2.237
 5973SOL    HW218819   1.722   5.249   2.275
 5974SOL     OW18820   6.326   3.893   6.311
 5974SOL    HW118821   6.230   3.877   6.287
 5974SOL    HW218822   6.330   3.952   6.392
 5975SOL     OW18823   4.139   2.598   1.035
 5975SOL    HW118824   4.153   2.580   0.938
 5975SOL    HW218825   4.041   2.609   1.053
 5976SOL     OW18826   3.520   2.833   4.373
 5976SOL    HW118827   3.551   2.759   4.313
 5976SOL    HW218828   3.420   2.830   4.380
 5977SOL     OW18829   1.300   4.521   1.635
 5977SOL    HW118830   1.372   4.458   1.606
 5977SOL    HW218831   1.308   4.538   1.733
 5978SOL     OW18832   4.989   4.297   2.708
 5978SOL    HW118833   5.071   4.241   2.718
 5978SOL    HW218834   4.941   4.303   2.796
 5979SOL     OW18835   6.199   0.090   3.391
 5979SOL    HW118836   6.211   0.189   3.404
 5979SOL    HW218837   6.222   0.042   3.475
 5980SOL     OW18838   4.299   4.139   0.201
 5980SOL    HW118839   4.261   4.048   0.218
 5980SOL    HW218840   4.391   4.130   0.162
 5981SOL     OW18841   6.777   1.453   1.849
 5981SOL    HW118842   6.753   1.529   1.908
 5981SOL    HW218843   6.740   1.468   1.757
 5982SOL     OW18844   5.994   2.100   6.517
 5982SOL    HW118845   6.031   2.008   6.526
 5982SOL    HW218846   5.943   2.124   6.600
 5983SOL     OW18847   2.117   1.736   4.328
 5983SOL    HW118848   2.035   1.709   4.278
 5983SOL    HW218849   2.106   1.828   4.365
 5984SOL     OW18850   0.153   6.436   4.694
 5984SOL    HW118851   0.153   6.389   4.605
 5984SOL    HW218852   0.066   6.483   4.707
 5985SOL     OW18853   5.347   1.988   3.520
 5985SOL    HW118854   5.329   2.074   3.472
 5985SOL    HW218855   5.372   1.918   3.453
 5986SOL     OW18856   3.379   3.276   3.761
 5986SOL    HW118857   3.404   3.343   3.690
 5986SOL    HW218858   3.312   3.317   3.823
 5987SOL     OW18859   4.675   0.690   5.268
 5987SOL    HW118860   4.709   0.669   5.359
 5987SOL    HW218861   4.747   0.672   5.200
 5988SOL     OW18862   4.032   6.826   4.873
 5988SOL    HW118863   3.951   6.772   4.849
 5988SOL    HW218864   4.035   6.908   4.816
 5989SOL     OW18865   2.501   6.340   6.553
 5989SOL    HW118866   2.464   6.344   6.460
 5989SOL    HW218867   2.537   6.429   6.579
 5990SOL     OW18868   3.719   4.561   0.354
 5990SOL    HW118869   3.813   4.529   0.367
 5990SOL    HW218870   3.665   4.489   0.311
 5991SOL     OW18871   4.616   4.928   5.235
 5991SOL    HW118872   4.552   4.981   5.290
 5991SOL    HW218873   4.630   4.973   5.147
 5992SOL     OW18874   3.397   1.201   4.098
 5992SOL    HW118875   3.373   1.108   4.126
 5992SOL    HW218876   3.455   1.197   4.017
 5993SOL     OW18877   3.708   6.566   5.239
 5993SOL    HW118878   3.659   6.503   5.300
 5993SOL    HW218879   3.672   6.557   5.146
 5994SOL     OW18880   6.241   2.434   1.683
 5994SOL    HW118881   6.180   2.398   1.753
 5994SOL    HW218882   6.230   2.381   1.599
 5995SOL     OW18883   0.240   5.081   1.154
 5995SOL    HW118884   0.200   5.148   1.090
 5995SOL    HW218885   0.179   5.071   1.232
 5996SOL     OW18886   0.730   5.416   6.566
 5996SOL    HW118887   0.763   5.422   6.471
 5996SOL    HW218888   0.638   5.456   6.571
 5997SOL     OW18889   0.360   6.993   1.954
 5997SOL    HW118890   0.411   6.913   1.984
 5997SOL    HW218891   0.422   0.037   1.908
 5998SOL     OW18892   5.451   2.437   2.424
 5998SOL    HW118893   5.466   2.534   2.409
 5998SOL    HW218894   5.444   2.420   2.523
 5999SOL     OW18895   1.017   1.800   3.489
 5999SOL    HW118896   1.052   1.759   3.574
 5999SOL    HW218897   1.000   1.728   3.422
 6000SOL     OW18898   3.925   5.223   2.378
 6000SOL    HW118899   3.851   5.200   2.314
 6000SOL    HW218900   3.990   5.148   2.381
 6001SOL     OW18901   6.962   3.262   6.816
 6001SOL    HW118902   6.987   3.275   6.720
 6001SOL    HW218903   6.874   3.213   6.821
 6002SOL     OW18904   0.469   6.478   1.097
 6002SOL    HW118905   0.373   6.488   1.123
 6002SOL    HW218906   0.512   6.410   1.155
 6003SOL     OW18907   5.297   3.412   4.718
 6003SOL    HW118908   5.365   3.473   4.676
 6003SOL    HW218909   5.320   3.317   4.695
 6004SOL     OW18910   0.440   3.898   3.246
 6004SOL    HW118911   0.435   3.861   3.154
 6004SOL    HW218912   0.440   3.824   3.313
 6005SOL     OW18913   4.168   5.463   4.289
 6005SOL    HW118914   4.100   5.391   4.303
 6005SOL    HW218915   4.155   5.534   4.357
 6006SOL     OW18916   3.142   0.356   6.819
 6006SOL    HW118917   3.141   0.262   6.785
 6006SOL    HW218918   3.171   0.357   6.915
 6007SOL     OW18919   5.180   3.229   3.595
 6007SOL    HW118920   5.130   3.159   3.646
 6007SOL    HW218921   5.190   3.200   3.499
 6008SOL     OW18922   3.312   5.685   5.506
 6008SOL    HW118923   3.213   5.687   5.493
 6008SOL    HW218924   3.344   5.591   5.507
 6009SOL     OW18925   2.667   1.717   4.686
 6009SOL    HW118926   2.575   1.740   4.656
 6009SOL    HW218927   2.682   1.619   4.674
 6010SOL     OW18928   2.064   4.631   2.418
 6010SOL    HW118929   2.044   4.545   2.370
 6010SOL    HW218930   1.999   4.643   2.493
 6011SOL     OW18931   5.205   2.538   1.582
 6011SOL    HW118932   5.122   2.570   1.629
 6011SOL    HW218933   5.206   2.575   1.489
 6012SOL     OW18934   6.356   2.088   6.687
 6012SOL    HW118935   6.351   1.994   6.655
 6012SOL    HW218936   6.452   2.116   6.694
 6013SOL     OW18937   6.251   1.978   2.073
 6013SOL    HW118938   6.182   1.906   2.082
 6013SOL    HW218939   6.342   1.937   2.063
 6014SOL     OW18940   5.714   1.591   0.985
 6014SOL    HW118941   5.686   1.683   1.011
 6014SOL    HW218942   5.644   1.551   0.925
 6015SOL     OW18943   5.696   2.423   5.421
 6015SOL    HW118944   5.746   2.379   5.346
 6015SOL    HW218945   5.746   2.505   5.449
 6016SOL     OW18946   0.648   1.217   6.207
 6016SOL    HW118947   0.586   1.141   6.226
 6016SOL    HW218948   0.599   1.291   6.161
 6017SOL     OW18949   6.071   5.419   3.506
 6017SOL    HW118950   5.976   5.440   3.480
 6017SOL    HW218951   6.072   5.338   3.564
 6018SOL     OW18952   3.177   3.210   0.011
 6018SOL    HW118953   3.179   3.112   0.029
 6018SOL    HW218954   3.167   3.259   0.098
 6019SOL     OW18955   4.801   1.775   3.322
 6019SOL    HW118956   4.851   1.728   3.395
 6019SOL    HW218957   4.716   1.726   3.303
 6020SOL     OW18958   3.158   6.831   2.444
 6020SOL    HW118959   3.257   6.844   2.444
 6020SOL    HW218960   3.125   6.827   2.350
 6021SOL     OW18961   4.819   0.528   2.825
 6021SOL    HW118962   4.768   0.597   2.877
 6021SOL    HW218963   4.755   0.473   2.771
 6022SOL     OW18964   4.974   1.074   3.626
 6022SOL    HW118965   4.939   1.069   3.532
 6022SOL    HW218966   4.908   1.033   3.689
 6023SOL     OW18967   6.071   1.066   3.689
 6023SOL    HW118968   6.112   1.094   3.776
 6023SOL    HW218969   6.125   0.991   3.650
 6024SOL     OW18970   0.422   4.628   1.888
 6024SOL    HW118971   0.455   4.588   1.974
 6024SOL    HW218972   0.491   4.613   1.817
 6025SOL     OW18973   4.520   0.588   1.599
 6025SOL    HW118974   4.540   0.677   1.558
 6025SOL    HW218975   4.445   0.545   1.549
 6026SOL     OW18976   0.336   4.901   4.530
 6026SOL    HW118977   0.381   4.813   4.518
 6026SOL    HW218978   0.405   4.974   4.524
 6027SOL     OW18979   2.266   4.348   6.159
 6027SOL    HW118980   2.283   4.250   6.174
 6027SOL    HW218981   2.313   4.377   6.076
 6028SOL     OW18982   1.528   4.123   0.265
 6028SOL    HW118983   1.547   4.030   0.295
 6028SOL    HW218984   1.522   4.183   0.344
 6029SOL     OW18985   2.058   6.375   6.961
 6029SOL    HW118986   2.077   6.305   0.009
 6029SOL    HW218987   1.992   6.441   6.998
 6030SOL     OW18988   2.323   0.751   3.165
 6030SOL    HW118989   2.327   0.844   3.201
 6030SOL    HW218990   2.230   0.729   3.138
 6031SOL     OW18991   4.894   5.790   5.684
 6031SOL    HW118992   4.859   5.875   5.722
 6031SOL    HW218993   4.834   5.714   5.710
 6032SOL     OW18994   1.523   3.614   2.708
 6032SOL    HW118995   1.587   3.569   2.770
 6032SOL    HW218996   1.534   3.577   2.615
 6033SOL     OW18997   2.447   2.307   3.344
 6033SOL    HW118998   2.493   2.228   3.303
 6033SOL    HW218999   2.514   2.379   3.362
 6034SOL     OW19000   2.631   4.680   4.571
 6034SOL    HW119001   2.676   4.712   4.654
 6034SOL    HW219002   2.693   4.692   4.493
 6035SOL     OW19003   5.331   1.154   4.597
 6035SOL    HW119004   5.401   1.198   4.541
 6035SOL    HW219005   5.272   1.098   4.538
 6036SOL     OW19006   6.949   6.803   5.429
 6036SOL    HW119007   6.917   6.741   5.501
 6036SOL    HW219008   6.872   6.855   5.393
 6037SOL     OW19009   4.898   4.443   6.117
 6037SOL    HW119010   4.859   4.522   6.070
 6037SOL    HW219011   4.980   4.413   6.068
 6038SOL     OW19012   0.560   3.259   6.606
 6038SOL    HW119013   0.576   3.181   6.667
 6038SOL    HW219014   0.642   3.316   6.603
 6039SOL     OW19015   3.161   3.263   2.560
 6039SOL    HW119016   3.209   3.177   2.540
 6039SOL    HW219017   3.208   3.338   2.515
 6040SOL     OW19018   0.447   1.523   6.659
 6040SOL    HW119019   0.443   1.543   6.756
 6040SOL    HW219020   0.433   1.425   6.644
 6041SOL     OW19021   1.306   2.146   6.798
 6041SOL    HW119022   1.399   2.114   6.819
 6041SOL    HW219023   1.309   2.243   6.773
 6042SOL     OW19024   5.691   5.134   2.514
 6042SOL    HW119025   5.648   5.059   2.464
 6042SOL    HW219026   5.663   5.130   2.610
 6043SOL     OW19027   1.377   5.020   4.973
 6043SOL    HW119028   1.290   4.980   4.946
 6043SOL    HW219029   1.381   5.115   4.942
 6044SOL     OW19030   0.305   1.962   1.339
 6044SOL    HW119031   0.281   1.865   1.349
 6044SOL    HW219032   0.324   2.001   1.429
 6045SOL     OW19033   5.288   5.643   0.662
 6045SOL    HW119034   5.337   5.579   0.721
 6045SOL    HW219035   5.190   5.627   0.671
 6046SOL     OW19036   2.945   2.193   0.436
 6046SOL    HW119037   2.881   2.172   0.510
 6046SOL    HW219038   3.024   2.133   0.443
 6047SOL     OW19039   6.075   0.957   4.411
 6047SOL    HW119040   6.063   0.898   4.491
 6047SOL    HW219041   6.012   0.929   4.339
 6048SOL     OW19042   3.926   0.428   3.457
 6048SOL    HW119043   3.890   0.358   3.519
 6048SOL    HW219044   3.854   0.495   3.437
 6049SOL     OW19045   4.441   3.170   5.907
 6049SOL    HW119046   4.481   3.262   5.903
 6049SOL    HW219047   4.348   3.176   5.943
 6050SOL     OW19048   3.984   4.528   5.880
 6050SOL    HW119049   3.964   4.524   5.782
 6050SOL    HW219050   4.008   4.621   5.906
 6051SOL     OW19051   2.202   2.529   2.873
 6051SOL    HW119052   2.143   2.578   2.937
 6051SOL    HW219053   2.186   2.430   2.882
 6052SOL     OW19054   6.622   0.370   0.276
 6052SOL    HW119055   6.652   0.415   0.192
 6052SOL    HW219056   6.541   0.417   0.311
 6053SOL     OW19057   3.117   0.521   0.282
 6053SOL    HW119058   3.160   0.594   0.336
 6053SOL    HW219059   3.031   0.495   0.324
 6054SOL     OW19060   2.368   4.137   1.333
 6054SOL    HW119061   2.465   4.161   1.342
 6054SOL    HW219062   2.317   4.177   1.409
 6055SOL     OW19063   5.512   0.948   5.572
 6055SOL    HW119064   5.568   1.023   5.607
 6055SOL    HW219065   5.436   0.931   5.635
 6056SOL     OW19066   3.982   1.435   5.756
 6056SOL    HW119067   4.053   1.364   5.755
 6056SOL    HW219068   3.979   1.478   5.847
 6057SOL     OW19069   4.717   1.461   4.712
 6057SOL    HW119070   4.700   1.518   4.792
 6057SOL    HW219071   4.808   1.478   4.676
 6058SOL     OW19072   5.584   3.022   3.859
 6058SOL    HW119073   5.656   3.034   3.927
 6058SOL    HW219074   5.623   2.979   3.777
 6059SOL     OW19075   4.590   5.554   6.237
 6059SOL    HW119076   4.671   5.602   6.202
 6059SOL    HW219077   4.509   5.609   6.217
 6060SOL     OW19078   3.871   4.411   6.104
 6060SOL    HW119079   3.955   4.412   6.158
 6060SOL    HW219080   3.881   4.474   6.027
 6061SOL     OW19081   3.319   2.085   6.669
 6061SOL    HW119082   3.313   2.028   6.751
 6061SOL    HW219083   3.309   2.181   6.695
 6062SOL     OW19084   2.336   1.324   4.524
 6062SOL    HW119085   2.243   1.361   4.514
 6062SOL    HW219086   2.348   1.291   4.618
 6063SOL     OW19087   4.209   0.918   6.011
 6063SOL    HW119088   4.168   0.875   5.931
 6063SOL    HW219089   4.178   0.871   6.094
 6064SOL     OW19090   1.736   5.813   2.955
 6064SOL    HW119091   1.714   5.845   3.047
 6064SOL    HW219092   1.820   5.857   2.923
 6065SOL     OW19093   6.485   6.736   1.110
 6065SOL    HW119094   6.500   6.769   1.204
 6065SOL    HW219095   6.465   6.638   1.112
 6066SOL     OW19096   4.637   1.404   1.441
 6066SOL    HW119097   4.613   1.354   1.524
 6066SOL    HW219098   4.623   1.502   1.457
 6067SOL     OW19099   6.298   2.141   6.335
 6067SOL    HW119100   6.387   2.142   6.380
 6067SOL    HW219101   6.247   2.224   6.360
 6068SOL     OW19102   4.932   3.095   5.111
 6068SOL    HW119103   4.883   3.069   5.195
 6068SOL    HW219104   5.015   3.145   5.135
 6069SOL     OW19105   6.935   3.605   5.887
 6069SOL    HW119106   7.013   3.658   5.920
 6069SOL    HW219107   6.918   3.627   5.791
 6070SOL     OW19108   3.823   1.909   6.551
 6070SOL    HW119109   3.820   1.943   6.457
 6070SOL    HW219110   3.777   1.973   6.612
 6071SOL     OW19111   3.978   5.878   5.865
 6071SOL    HW119112   4.064   5.890   5.816
 6071SOL    HW219113   3.926   5.963   5.862
 6072SOL     OW19114   0.876   1.677   1.921
 6072SOL    HW119115   0.845   1.583   1.939
 6072SOL    HW219116   0.875   1.729   2.006
 6073SOL     OW19117   6.200   3.396   0.321
 6073SOL    HW119118   6.286   3.401   0.372
 6073SOL    HW219119   6.175   3.300   0.307
 6074SOL     OW19120   1.137   6.905   4.889
 6074SOL    HW119121   1.118   6.976   4.957
 6074SOL    HW219122   1.195   6.943   4.817
 6075SOL     OW19123   6.512   3.001   0.082
 6075SOL    HW119124   6.493   2.944   0.001
 6075SOL    HW219125   6.549   2.943   0.154
 6076SOL     OW19126   2.505   6.740   4.730
 6076SOL    HW119127   2.414   6.724   4.768
 6076SOL    HW219128   2.564   6.778   4.801
 6077SOL     OW19129   5.071   5.651   2.490
 6077SOL    HW119130   5.126   5.683   2.413
 6077SOL    HW219131   5.097   5.701   2.573
 6078SOL     OW19132   3.311   5.234   3.646
 6078SOL    HW119133   3.381   5.300   3.618
 6078SOL    HW219134   3.223   5.281   3.657
 6079SOL     OW19135   2.281   3.497   6.983
 6079SOL    HW119136   2.285   3.589   6.945
 6079SOL    HW219137   2.297   3.430   6.911
 6080SOL     OW19138   6.560   1.950   0.809
 6080SOL    HW119139   6.548   1.902   0.896
 6080SOL    HW219140   6.474   1.994   0.783
 6081SOL     OW19141   6.112   3.727   4.463
 6081SOL    HW119142   6.128   3.672   4.381
 6081SOL    HW219143   6.156   3.817   4.453
 6082SOL     OW19144   3.606   0.264   2.950
 6082SOL    HW119145   3.658   0.238   2.869
 6082SOL    HW219146   3.668   0.277   3.027
 6083SOL     OW19147   1.315   5.492   6.283
 6083SOL    HW119148   1.355   5.413   6.235
 6083SOL    HW219149   1.236   5.525   6.232
 6084SOL     OW19150   6.913   5.207   4.437
 6084SOL    HW119151   6.951   5.114   4.439
 6084SOL    HW219152   6.910   5.239   4.343
 6085SOL     OW19153   0.019   4.388   0.575
 6085SOL    HW119154   6.949   4.418   0.544
 6085SOL    HW219155   0.009   4.305   0.631
 6086SOL     OW19156   3.889   0.911   4.361
 6086SOL    HW119157   3.924   1.004   4.360
 6086SOL    HW219158   3.964   0.846   4.348
 6087SOL     OW19159   5.369   6.999   0.138
 6087SOL    HW119160   5.451   6.951   0.106
 6087SOL    HW219161   5.319   0.014   0.059
 6088SOL     OW19162   6.950   6.503   4.382
 6088SOL    HW119163   6.989   6.422   4.427
 6088SOL    HW219164   7.000   6.585   4.411
 6089SOL     OW19165   0.474   3.519   1.385
 6089SOL    HW119166   0.435   3.429   1.407
 6089SOL    HW219167   0.406   3.590   1.402
 6090SOL     OW19168   0.825   6.250   5.719
 6090SOL    HW119169   0.768   6.185   5.670
 6090SOL    HW219170   0.774   6.335   5.732
 6091SOL     OW19171   0.339   1.286   1.743
 6091SOL    HW119172   0.393   1.202   1.745
 6091SOL    HW219173   0.249   1.269   1.781
 6092SOL     OW19174   2.543   0.976   2.883
 6092SOL    HW119175   2.545   0.934   2.792
 6092SOL    HW219176   2.448   0.992   2.910
 6093SOL     OW19177   1.721   3.212   1.834
 6093SOL    HW119178   1.689   3.301   1.864
 6093SOL    HW219179   1.776   3.223   1.751
 6094SOL     OW19180   1.815   1.457   1.359
 6094SOL    HW119181   1.900   1.509   1.351
 6094SOL    HW219182   1.834   1.359   1.357
 6095SOL     OW19183   4.952   2.841   0.069
 6095SOL    HW119184   4.898   2.880   0.144
 6095SOL    HW219185   4.946   2.901   7.009
 6096SOL     OW19186   5.677   0.967   4.329
 6096SOL    HW119187   5.717   0.898   4.390
 6096SOL    HW219188   5.601   0.926   4.278
 6097SOL     OW19189   2.377   0.464   2.626
 6097SOL    HW119190   2.322   0.381   2.634
 6097SOL    HW219191   2.330   0.540   2.671
 6098SOL     OW19192   1.528   2.482   6.055
 6098SOL    HW119193   1.511   2.490   6.153
 6098SOL    HW219194   1.625   2.465   6.039
 6099SOL     OW19195   6.044   5.255   5.210
 6099SOL    HW119196   5.985   5.178   5.188
 6099SOL    HW219197   6.127   5.252   5.155
 6100SOL     OW19198   6.640   3.873   6.063
 6100SOL    HW119199   6.700   3.937   6.015
 6100SOL    HW219200   6.691   3.825   6.134
 6101SOL     OW19201   6.491   2.308   5.776
 6101SOL    HW119202   6.480   2.254   5.860
 6101SOL    HW219203   6.486   2.406   5.799
 6102SOL     OW19204   2.942   0.820   4.361
 6102SOL    HW119205   2.961   0.799   4.265
 6102SOL    HW219206   2.899   0.741   4.404
 6103SOL     OW19207   7.009   0.333   3.955
 6103SOL    HW119208   0.062   0.266   3.943
 6103SOL    HW219209   0.024   0.413   4.004
 6104SOL     OW19210   5.575   2.225   6.605
 6104SOL    HW119211   5.535   2.277   6.680
 6104SOL    HW219212   5.603   2.135   6.639
 6105SOL     OW19213   3.643   6.283   5.479
 6105SOL    HW119214   3.736   6.269   5.445
 6105SOL    HW219215   3.638   6.251   5.574
 6106SOL     OW19216   3.356   5.076   6.154
 6106SOL    HW119217   3.340   5.158   6.207
 6106SOL    HW219218   3.269   5.038   6.124
 6107SOL     OW19219   2.112   4.629   4.486
 6107SOL    HW119220   2.176   4.592   4.418
 6107SOL    HW219221   2.020   4.596   4.467
 6108SOL     OW19222   1.045   1.492   3.882
 6108SOL    HW119223   1.031   1.590   3.898
 6108SOL    HW219224   1.043   1.474   3.784
 6109SOL     OW19225   5.266   2.348   0.263
 6109SOL    HW119226   5.270   2.426   0.325
 6109SOL    HW219227   5.201   2.368   0.189
 6110SOL     OW19228   2.790   2.640   6.053
 6110SOL    HW119229   2.798   2.719   6.113
 6110SOL    HW219230   2.756   2.670   5.963
 6111SOL     OW19231   0.862   4.976   2.697
 6111SOL    HW119232   0.858   4.963   2.796
 6111SOL    HW219233   0.942   5.031   2.673
 6112SOL     OW19234   1.624   1.734   3.055
 6112SOL    HW119235   1.591   1.817   3.101
 6112SOL    HW219236   1.724   1.732   3.058
 6113SOL     OW19237   1.000   0.439   6.482
 6113SOL    HW119238   1.002   0.496   6.399
 6113SOL    HW219239   1.039   0.350   6.461
 6114SOL     OW19240   5.636   5.721   0.104
 6114SOL    HW119241   5.657   5.762   0.016
 6114SOL    HW219242   5.561   5.655   0.094
 6115SOL     OW19243   4.887   5.077   3.036
 6115SOL    HW119244   4.859   5.173   3.041
 6115SOL    HW219245   4.926   5.049   3.123
 6116SOL     OW19246   3.037   1.332   1.658
 6116SOL    HW119247   3.095   1.251   1.651
 6116SOL    HW219248   2.953   1.318   1.605
 6117SOL     OW19249   6.027   0.051   4.304
 6117SOL    HW119250   6.001   7.006   4.233
 6117SOL    HW219251   6.053   0.138   4.261
 6118SOL     OW19252   6.608   1.791   2.409
 6118SOL    HW119253   6.677   1.803   2.481
 6118SOL    HW219254   6.526   1.843   2.432
 6119SOL     OW19255   0.484   4.419   4.688
 6119SOL    HW119256   0.437   4.436   4.774
 6119SOL    HW219257   0.551   4.345   4.702
 6120SOL     OW19258   3.020   6.565   3.740
 6120SOL    HW119259   2.921   6.561   3.744
 6120SOL    HW219260   3.048   6.630   3.670
 6121SOL     OW19261   0.610   2.893   3.857
 6121SOL    HW119262   0.553   2.911   3.937
 6121SOL    HW219263   0.662   2.975   3.835
 6122SOL     OW19264   3.847   6.038   2.787
 6122SOL    HW119265   3.812   6.080   2.703
 6122SOL    HW219266   3.808   5.946   2.796
 6123SOL     OW19267   6.748   1.146   1.460
 6123SOL    HW119268   6.721   1.052   1.479
 6123SOL    HW219269   6.844   1.159   1.484
 6124SOL     OW19270   4.135   0.026   5.359
 6124SOL    HW119271   4.105   0.040   5.264
 6124SOL    HW219272   4.080   0.084   5.420
 6125SOL     OW19273   2.618   6.040   1.438
 6125SOL    HW119274   2.656   6.105   1.503
 6125SOL    HW219275   2.653   5.948   1.457
 6126SOL     OW19276   5.054   5.626   4.255
 6126SOL    HW119277   5.010   5.639   4.167
 6126SOL    HW219278   4.988   5.640   4.328
 6127SOL     OW19279   2.894   7.019   1.582
 6127SOL    HW119280   2.870   6.986   1.673
 6127SOL    HW219281   2.812   0.004   1.526
 6128SOL     OW19282   0.159   3.522   0.348
 6128SOL    HW119283   0.219   3.534   0.268
 6128SOL    HW219284   0.125   3.429   0.350
 6129SOL     OW19285   6.231   3.710   3.054
 6129SOL    HW119286   6.219   3.623   3.101
 6129SOL    HW219287   6.301   3.764   3.100
 6130SOL     OW19288   5.723   2.755   4.050
 6130SOL    HW119289   5.736   2.688   4.123
 6130SOL    HW219290   5.755   2.844   4.081
 6131SOL     OW19291   6.696   1.086   5.534
 6131SOL    HW119292   6.666   1.180   5.518
 6131SOL    HW219293   6.792   1.085   5.560
 6132SOL     OW19294   4.001   2.076   0.246
 6132SOL    HW119295   3.919   2.072   0.189
 6132SOL    HW219296   4.070   2.131   0.200
 6133SOL     OW19297   0.561   3.162   1.974
 6133SOL    HW119298   0.492   3.104   1.930
 6133SOL    HW219299   0.615   3.208   1.903
 6134SOL     OW19300   3.630   3.262   6.884
 6134SOL    HW119301   3.579   3.303   6.960
 6134SOL    HW219302   3.725   3.250   6.912
 6135SOL     OW19303   6.764   6.988   1.518
 6135SOL    HW119304   6.831   0.035   1.488
 6135SOL    HW219305   6.779   6.901   1.471
 6136SOL     OW19306   0.994   1.319   2.528
 6136SOL    HW119307   0.913   1.377   2.521
 6136SOL    HW219308   0.979   1.248   2.597
 6137SOL     OW19309   3.455   0.341   5.720
 6137SOL    HW119310   3.443   0.376   5.813
 6137SOL    HW219311   3.419   0.408   5.655
 6138SOL     OW19312   3.883   6.650   2.565
 6138SOL    HW119313   3.812   6.654   2.635
 6138SOL    HW219314   3.883   6.559   2.522
 6139SOL     OW19315   1.837   3.505   5.085
 6139SOL    HW119316   1.739   3.484   5.090
 6139SOL    HW219317   1.889   3.420   5.089
 6140SOL     OW19318   0.853   7.007   1.415
 6140SOL    HW119319   0.762   6.984   1.450
 6140SOL    HW219320   0.921   6.998   1.488
 6141SOL     OW19321   6.737   5.794   4.920
 6141SOL    HW119322   6.750   5.893   4.923
 6141SOL    HW219323   6.753   5.755   5.011
 6142SOL     OW19324   6.683   4.398   0.802
 6142SOL    HW119325   6.714   4.345   0.881
 6142SOL    HW219326   6.661   4.336   0.726
 6143SOL     OW19327   6.361   5.002   6.085
 6143SOL    HW119328   6.381   5.034   5.992
 6143SOL    HW219329   6.319   4.911   6.080
 6144SOL     OW19330   0.252   4.280   3.152
 6144SOL    HW119331   0.231   4.183   3.169
 6144SOL    HW219332   0.225   4.304   3.059
 6145SOL     OW19333   5.200   5.309   3.567
 6145SOL    HW119334   5.247   5.255   3.497
 6145SOL    HW219335   5.108   5.272   3.580
 6146SOL     OW19336   4.675   1.236   3.555
 6146SOL    HW119337   4.631   1.229   3.645
 6146SOL    HW219338   4.765   1.278   3.565
 6147SOL     OW19339   2.461   4.873   2.748
 6147SOL    HW119340   2.388   4.926   2.704
 6147SOL    HW219341   2.482   4.914   2.837
 6148SOL     OW19342   6.686   6.174   4.225
 6148SOL    HW119343   6.751   6.239   4.186
 6148SOL    HW219344   6.597   6.184   4.179
 6149SOL     OW19345   3.627   5.013   3.280
 6149SOL    HW119346   3.597   5.090   3.225
 6149SOL    HW219347   3.726   5.017   3.293
 6150SOL     OW19348   4.808   5.866   6.721
 6150SOL    HW119349   4.784   5.932   6.650
 6150SOL    HW219350   4.895   5.892   6.762
 6151SOL     OW19351   5.362   2.806   5.020
 6151SOL    HW119352   5.320   2.793   4.930
 6151SOL    HW219353   5.328   2.738   5.084
 6152SOL     OW19354   5.192   5.093   6.243
 6152SOL    HW119355   5.288   5.073   6.262
 6152SOL    HW219356   5.152   5.017   6.191
 6153SOL     OW19357   4.568   4.108   1.380
 6153SOL    HW119358   4.480   4.138   1.343
 6153SOL    HW219359   4.582   4.011   1.358
 6154SOL     OW19360   6.009   1.563   2.032
 6154SOL    HW119361   5.919   1.543   1.993
 6154SOL    HW219362   6.068   1.483   2.023
 6155SOL     OW19363   0.854   3.741   4.299
 6155SOL    HW119364   0.927   3.793   4.255
 6155SOL    HW219365   0.894   3.665   4.351
 6156SOL     OW19366   5.186   6.167   2.721
 6156SOL    HW119367   5.159   6.259   2.752
 6156SOL    HW219368   5.108   6.122   2.679
 6157SOL     OW19369   2.211   2.232   3.636
 6157SOL    HW119370   2.128   2.202   3.588
 6157SOL    HW219371   2.276   2.156   3.640
 6158SOL     OW19372   4.440   0.653   6.503
 6158SOL    HW119373   4.470   0.694   6.590
 6158SOL    HW219374   4.481   0.562   6.493
 6159SOL     OW19375   5.138   1.516   0.024
 6159SOL    HW119376   5.178   1.451   0.089
 6159SOL    HW219377   5.135   1.607   0.065
 6160SOL     OW19378   5.620   5.524   1.066
 6160SOL    HW119379   5.681   5.446   1.057
 6160SOL    HW219380   5.674   5.609   1.061
 6161SOL     OW19381   5.759   0.942   5.770
 6161SOL    HW119382   5.781   0.899   5.683
 6161SOL    HW219383   5.844   0.965   5.819
 6162SOL     OW19384   1.529   5.250   4.406
 6162SOL    HW119385   1.563   5.336   4.445
 6162SOL    HW219386   1.602   5.182   4.406
 6163SOL     OW19387   5.339   4.637   0.965
 6163SOL    HW119388   5.403   4.587   0.907
 6163SOL    HW219389   5.389   4.705   1.019
 6164SOL     OW19390   1.950   2.031   1.202
 6164SOL    HW119391   1.929   2.085   1.284
 6164SOL    HW219392   2.031   1.975   1.219
 6165SOL     OW19393   4.031   5.697   0.422
 6165SOL    HW119394   4.039   5.796   0.422
 6165SOL    HW219395   3.961   5.669   0.488
 6166SOL     OW19396   3.269   1.270   5.792
 6166SOL    HW119397   3.285   1.362   5.755
 6166SOL    HW219398   3.175   1.242   5.771
 6167SOL     OW19399   0.695   4.633   2.420
 6167SOL    HW119400   0.675   4.708   2.482
 6167SOL    HW219401   0.700   4.547   2.472
 6168SOL     OW19402   0.323   3.623   1.839
 6168SOL    HW119403   0.417   3.646   1.861
 6168SOL    HW219404   0.318   3.527   1.811
 6169SOL     OW19405   2.253   3.938   1.945
 6169SOL    HW119406   2.266   4.034   1.968
 6169SOL    HW219407   2.201   3.893   2.017
 6170SOL     OW19408   0.467   3.511   5.564
 6170SOL    HW119409   0.454   3.458   5.648
 6170SOL    HW219410   0.463   3.451   5.485
 6171SOL     OW19411   0.657   0.556   0.980
 6171SOL    HW119412   0.656   0.553   0.880
 6171SOL    HW219413   0.605   0.478   1.016
 6172SOL     OW19414   0.715   2.736   3.173
 6172SOL    HW119415   0.615   2.737   3.184
 6172SOL    HW219416   0.759   2.743   3.262
 6173SOL     OW19417   7.013   6.488   2.979
 6173SOL    HW119418   6.928   6.528   3.015
 6173SOL    HW219419   0.040   6.556   2.922
 6174SOL     OW19420   5.225   4.828   3.072
 6174SOL    HW119421   5.195   4.771   2.996
 6174SOL    HW219422   5.156   4.827   3.144
 6175SOL     OW19423   3.576   0.691   4.906
 6175SOL    HW119424   3.501   0.629   4.931
 6175SOL    HW219425   3.541   0.763   4.846
 6176SOL     OW19426   4.206   4.190   5.287
 6176SOL    HW119427   4.227   4.264   5.224
 6176SOL    HW219428   4.161   4.115   5.238
 6177SOL     OW19429   5.472   1.485   1.874
 6177SOL    HW119430   5.374   1.466   1.876
 6177SOL    HW219431   5.489   1.571   1.827
 6178SOL     OW19432   5.038   3.680   2.093
 6178SOL    HW119433   5.137   3.667   2.101
 6178SOL    HW219434   4.991   3.623   2.162
 6179SOL     OW19435   6.615   4.992   2.022
 6179SOL    HW119436   6.537   4.997   1.960
 6179SOL    HW219437   6.688   4.938   1.979
 6180SOL     OW19438   2.613   5.188   0.661
 6180SOL    HW119439   2.520   5.220   0.643
 6180SOL    HW219440   2.655   5.246   0.730
 6181SOL     OW19441   4.556   5.211   6.270
 6181SOL    HW119442   4.481   5.276   6.285
 6181SOL    HW219443   4.549   5.137   6.338
 6182SOL     OW19444   3.499   3.143   0.170
 6182SOL    HW119445   3.471   3.238   0.182
 6182SOL    HW219446   3.444   3.085   0.230
 6183SOL     OW19447   1.416   2.124   0.826
 6183SOL    HW119448   1.347   2.106   0.757
 6183SOL    HW219449   1.460   2.212   0.807
 6184SOL     OW19450   2.586   1.382   6.082
 6184SOL    HW119451   2.520   1.381   6.007
 6184SOL    HW219452   2.678   1.392   6.044
 6185SOL     OW19453   3.560   2.980   4.978
 6185SOL    HW119454   3.481   2.970   4.918
 6185SOL    HW219455   3.556   2.911   5.051
 6186SOL     OW19456   6.040   2.105   2.244
 6186SOL    HW119457   6.096   2.053   2.180
 6186SOL    HW219458   5.967   2.047   2.279
 6187SOL     OW19459   4.723   2.771   5.503
 6187SOL    HW119460   4.749   2.679   5.472
 6187SOL    HW219461   4.666   2.815   5.434
 6188SOL     OW19462   2.218   2.019   5.411
 6188SOL    HW119463   2.158   1.940   5.398
 6188SOL    HW219464   2.169   2.092   5.458
 6189SOL     OW19465   4.590   5.487   2.350
 6189SOL    HW119466   4.687   5.507   2.335
 6189SOL    HW219467   4.579   5.388   2.365
 6190SOL     OW19468   6.313   3.159   6.044
 6190SOL    HW119469   6.325   3.144   6.143
 6190SOL    HW219470   6.328   3.256   6.024
 6191SOL     OW19471   2.515   3.641   6.192
 6191SOL    HW119472   2.505   3.740   6.175
 6191SOL    HW219473   2.611   3.616   6.180
 6192SOL     OW19474   2.270   1.946   0.083
 6192SOL    HW119475   2.233   2.037   0.103
 6192SOL    HW219476   2.195   1.884   0.058
 6193SOL     OW19477   5.258   5.500   0.034
 6193SOL    HW119478   5.248   5.590   7.012
 6193SOL    HW219479   5.355   5.479   0.046
 6194SOL     OW19480   6.681   0.419   6.655
 6194SOL    HW119481   6.636   0.407   6.566
 6194SOL    HW219482   6.651   0.505   6.696
 6195SOL     OW19483   6.156   0.345   5.206
 6195SOL    HW119484   6.162   0.439   5.241
 6195SOL    HW219485   6.238   0.323   5.154
 6196SOL     OW19486   4.952   4.412   3.344
 6196SOL    HW119487   5.008   4.329   3.346
 6196SOL    HW219488   4.946   4.450   3.436
 6197SOL     OW19489   2.279   5.303   1.789
 6197SOL    HW119490   2.272   5.208   1.819
 6197SOL    HW219491   2.233   5.363   1.854
 6198SOL     OW19492   6.204   6.277   6.492
 6198SOL    HW119493   6.172   6.357   6.542
 6198SOL    HW219494   6.128   6.239   6.438
 6199SOL     OW19495   0.652   0.048   0.631
 6199SOL    HW119496   0.575   0.048   0.694
 6199SOL    HW219497   0.730   0.095   0.673
 6200SOL     OW19498   1.726   1.350   2.020
 6200SOL    HW119499   1.766   1.363   1.930
 6200SOL    HW219500   1.773   1.407   2.087
 6201SOL     OW19501   6.726   4.179   4.160
 6201SOL    HW119502   6.758   4.263   4.205
 6201SOL    HW219503   6.720   4.106   4.227
 6202SOL     OW19504   6.414   1.790   3.298
 6202SOL    HW119505   6.492   1.735   3.326
 6202SOL    HW219506   6.339   1.778   3.362
 6203SOL     OW19507   6.405   5.565   1.593
 6203SOL    HW119508   6.364   5.563   1.684
 6203SOL    HW219509   6.367   5.642   1.541
 6204SOL     OW19510   1.424   6.308   5.250
 6204SOL    HW119511   1.443   6.396   5.208
 6204SOL    HW219512   1.366   6.321   5.330
 6205SOL     OW19513   4.917   3.872   2.325
 6205SOL    HW119514   4.974   3.820   2.261
 6205SOL    HW219515   4.852   3.928   2.274
 6206SOL     OW19516   5.107   1.825   3.678
 6206SOL    HW119517   5.138   1.896   3.615
 6206SOL    HW219518   5.171   1.748   3.676
 6207SOL     OW19519   1.338   5.777   4.701
 6207SOL    HW119520   1.426   5.801   4.661
 6207SOL    HW219521   1.326   5.827   4.787
 6208SOL     OW19522   3.715   2.899   5.688
 6208SOL    HW119523   3.751   2.979   5.737
 6208SOL    HW219524   3.787   2.862   5.629
 6209SOL     OW19525   3.399   4.554   1.406
 6209SOL    HW119526   3.303   4.538   1.388
 6209SOL    HW219527   3.418   4.536   1.503
 6210SOL     OW19528   4.876   3.302   3.666
 6210SOL    HW119529   4.781   3.277   3.686
 6210SOL    HW219530   4.922   3.327   3.752
 6211SOL     OW19531   5.129   5.838   4.862
 6211SOL    HW119532   5.122   5.874   4.955
 6211SOL    HW219533   5.040   5.803   4.834
 6212SOL     OW19534   3.067   5.340   6.001
 6212SOL    HW119535   3.002   5.322   6.075
 6212SOL    HW219536   3.139   5.402   6.033
 6213SOL     OW19537   4.598   5.944   0.792
 6213SOL    HW119538   4.599   6.036   0.831
 6213SOL    HW219539   4.516   5.895   0.824
 6214SOL     OW19540   5.967   6.248   5.399
 6214SOL    HW119541   6.054   6.298   5.406
 6214SOL    HW219542   5.971   6.187   5.320
 6215SOL     OW19543   5.157   2.985   6.258
 6215SOL    HW119544   5.240   2.941   6.224
 6215SOL    HW219545   5.182   3.061   6.319
 6216SOL     OW19546   5.182   2.875   3.501
 6216SOL    HW119547   5.092   2.879   3.459
 6216SOL    HW219548   5.208   2.779   3.516
 6217SOL     OW19549   0.993   4.727   2.466
 6217SOL    HW119550   1.022   4.801   2.406
 6217SOL    HW219551   0.917   4.678   2.423
 6218SOL     OW19552   4.770   6.322   0.363
 6218SOL    HW119553   4.773   6.276   0.451
 6218SOL    HW219554   4.846   6.292   0.306
 6219SOL     OW19555   0.976   0.983   5.131
 6219SOL    HW119556   1.048   0.987   5.062
 6219SOL    HW219557   0.991   0.904   5.190
 6220SOL     OW19558   3.584   1.190   0.724
 6220SOL    HW119559   3.520   1.188   0.801
 6220SOL    HW219560   3.674   1.220   0.756
 6221SOL     OW19561   6.771   5.954   6.798
 6221SOL    HW119562   6.845   6.002   6.845
 6221SOL    HW219563   6.683   5.982   6.838
 6222SOL     OW19564   5.933   1.288   2.228
 6222SOL    HW119565   6.007   1.349   2.257
 6222SOL    HW219566   5.881   1.258   2.308
 6223SOL     OW19567   0.185   4.637   3.608
 6223SOL    HW119568   0.150   4.566   3.547
 6223SOL    HW219569   0.238   4.595   3.682
 6224SOL     OW19570   4.562   1.792   6.401
 6224SOL    HW119571   4.463   1.803   6.405
 6224SOL    HW219572   4.606   1.874   6.437
 6225SOL     OW19573   4.016   0.440   0.021
 6225SOL    HW119574   4.053   0.367   6.984
 6225SOL    HW219575   3.981   0.514   6.984
 6226SOL     OW19576   1.456   0.989   4.027
 6226SOL    HW119577   1.367   1.034   4.028
 6226SOL    HW219578   1.454   0.913   3.962
 6227SOL     OW19579   2.541   4.316   5.559
 6227SOL    HW119580   2.507   4.255   5.630
 6227SOL    HW219581   2.472   4.324   5.487
 6228SOL     OW19582   2.234   2.474   3.513
 6228SOL    HW119583   2.243   2.377   3.537
 6228SOL    HW219584   2.149   2.510   3.551
 6229SOL     OW19585   0.394   3.527   4.641
 6229SOL    HW119586   0.297   3.524   4.620
 6229SOL    HW219587   0.422   3.442   4.685
 6230SOL     OW19588   0.096   1.131   2.229
 6230SOL    HW119589   0.097   1.172   2.138
 6230SOL    HW219590   0.054   1.040   2.224
 6231SOL     OW19591   6.017   4.499   0.153
 6231SOL    HW119592   6.107   4.469   0.122
 6231SOL    HW219593   5.983   4.434   0.221
 6232SOL     OW19594   5.711   0.676   0.295
 6232SOL    HW119595   5.660   0.673   0.209
 6232SOL    HW219596   5.651   0.648   0.370
 6233SOL     OW19597   0.114   3.033   2.136
 6233SOL    HW119598   0.014   3.023   2.139
 6233SOL    HW219599   0.138   3.108   2.075
 6234SOL     OW19600   6.667   6.611   4.088
 6234SOL    HW119601   6.694   6.675   4.016
 6234SOL    HW219602   6.595   6.653   4.144
 6235SOL     OW19603   6.770   0.872   2.651
 6235SOL    HW119604   6.851   0.870   2.592
 6235SOL    HW219605   6.700   0.811   2.613
 6236SOL     OW19606   0.617   4.718   0.836
 6236SOL    HW119607   0.609   4.661   0.755
 6236SOL    HW219608   0.575   4.807   0.819
 6237SOL     OW19609   4.001   7.011   0.775
 6237SOL    HW119610   3.918   6.976   0.816
 6237SOL    HW219611   4.049   0.050   0.840
 6238SOL     OW19612   2.765   6.453   4.388
 6238SOL    HW119613   2.774   6.353   4.385
 6238SOL    HW219614   2.704   6.479   4.462
 6239SOL     OW19615   5.025   0.568   2.376
 6239SOL    HW119616   4.990   0.554   2.283
 6239SOL    HW219617   5.032   0.665   2.394
 6240SOL     OW19618   3.459   3.284   4.724
 6240SOL    HW119619   3.446   3.185   4.718
 6240SOL    HW219620   3.371   3.330   4.719
 6241SOL     OW19621   2.229   6.670   3.878
 6241SOL    HW119622   2.239   6.577   3.844
 6241SOL    HW219623   2.255   6.735   3.805
 6242SOL     OW19624   2.956   1.876   3.221
 6242SOL    HW119625   3.009   1.793   3.238
 6242SOL    HW219626   3.008   1.937   3.161
 6243SOL     OW19627   5.919   1.782   6.356
 6243SOL    HW119628   5.851   1.833   6.303
 6243SOL    HW219629   5.920   1.687   6.325
 6244SOL     OW19630   4.081   5.079   2.833
 6244SOL    HW119631   4.071   5.174   2.862
 6244SOL    HW219632   4.160   5.070   2.773
 6245SOL     OW19633   0.702   4.320   2.091
 6245SOL    HW119634   0.629   4.254   2.109
 6245SOL    HW219635   0.700   4.346   1.995
 6246SOL     OW19636   1.204   6.293   4.634
 6246SOL    HW119637   1.206   6.353   4.714
 6246SOL    HW219638   1.109   6.279   4.605
 6247SOL     OW19639   0.064   5.590   3.433
 6247SOL    HW119640   0.150   5.632   3.461
 6247SOL    HW219641   0.021   5.546   3.511
 6248SOL     OW19642   3.788   2.720   6.796
 6248SOL    HW119643   3.867   2.752   6.744
 6248SOL    HW219644   3.704   2.750   6.752
 6249SOL     OW19645   6.741   2.482   0.540
 6249SOL    HW119646   6.668   2.438   0.592
 6249SOL    HW219647   6.807   2.522   0.602
 6250SOL     OW19648   0.253   0.218   0.648
 6250SOL    HW119649   0.282   0.124   0.667
 6250SOL    HW219650   0.153   0.224   0.655
 6251SOL     OW19651   2.958   6.681   4.050
 6251SOL    HW119652   2.978   6.623   4.129
 6251SOL    HW219653   2.899   6.632   3.986
 6252SOL     OW19654   2.372   5.113   6.866
 6252SOL    HW119655   2.345   5.018   6.849
 6252SOL    HW219656   2.459   5.115   6.915
 6253SOL     OW19657   3.014   4.864   4.534
 6253SOL    HW119658   3.088   4.915   4.491
 6253SOL    HW219659   3.044   4.771   4.554
 6254SOL     OW19660   0.772   6.228   0.691
 6254SOL    HW119661   0.808   6.235   0.598
 6254SOL    HW219662   0.799   6.141   0.731
 6255SOL     OW19663   0.575   1.798   1.017
 6255SOL    HW119664   0.515   1.874   1.041
 6255SOL    HW219665   0.644   1.828   0.952
 6256SOL     OW19666   4.792   5.747   3.104
 6256SOL    HW119667   4.746   5.663   3.133
 6256SOL    HW219668   4.804   5.807   3.183
 6257SOL     OW19669   4.167   4.354   1.380
 6257SOL    HW119670   4.182   4.452   1.394
 6257SOL    HW219671   4.160   4.308   1.469
 6258SOL     OW19672   4.515   0.123   6.030
 6258SOL    HW119673   4.535   0.107   5.933
 6258SOL    HW219674   4.429   0.173   6.039
 6259SOL     OW19675   2.413   0.089   5.060
 6259SOL    HW119676   2.320   0.123   5.077
 6259SOL    HW219677   2.431   0.091   4.962
 6260SOL     OW19678   2.330   1.099   0.272
 6260SOL    HW119679   2.261   1.170   0.258
 6260SOL    HW219680   2.319   1.028   0.202
 6261SOL     OW19681   4.092   6.460   1.564
 6261SOL    HW119682   3.996   6.490   1.563
 6261SOL    HW219683   4.096   6.364   1.535
 6262SOL     OW19684   6.225   6.166   2.011
 6262SOL    HW119685   6.297   6.232   2.032
 6262SOL    HW219686   6.259   6.099   1.945
 6263SOL     OW19687   0.242   6.065   4.348
 6263SOL    HW119688   0.164   6.050   4.287
 6263SOL    HW219689   0.265   5.979   4.394
 6264SOL     OW19690   0.879   0.120   1.186
 6264SOL    HW119691   0.954   0.061   1.155
 6264SOL    HW219692   0.838   0.082   1.269
 6265SOL     OW19693   4.474   2.110   0.144
 6265SOL    HW119694   4.458   2.012   0.136
 6265SOL    HW219695   4.386   2.158   0.148
 6266SOL     OW19696   3.086   5.410   3.654
 6266SOL    HW119697   3.061   5.472   3.729
 6266SOL    HW219698   3.116   5.465   3.576
 6267SOL     OW19699   1.254   6.741   5.255
 6267SOL    HW119700   1.260   6.698   5.165
 6267SOL    HW219701   1.168   6.714   5.299
 6268SOL     OW19702   2.998   0.477   2.141
 6268SOL    HW119703   3.051   0.413   2.086
 6268SOL    HW219704   3.055   0.514   2.214
 6269SOL     OW19705   5.351   6.554   1.597
 6269SOL    HW119706   5.358   6.548   1.696
 6269SOL    HW219707   5.284   6.623   1.572
 6270SOL     OW19708   1.697   6.385   0.054
 6270SOL    HW119709   1.761   6.309   0.065
 6270SOL    HW219710   1.619   6.355   7.019
 6271SOL     OW19711   5.987   3.084   6.700
 6271SOL    HW119712   5.929   3.020   6.651
 6271SOL    HW219713   5.952   3.177   6.687
 6272SOL     OW19714   5.405   0.007   6.777
 6272SOL    HW119715   5.497   0.029   6.810
 6272SOL    HW219716   5.341   0.009   6.853
 6273SOL     OW19717   0.009   0.039   1.701
 6273SOL    HW119718   6.970   7.020   1.771
 6273SOL    HW219719   0.019   6.993   1.626
 6274SOL     OW19720   3.485   5.923   4.760
 6274SOL    HW119721   3.429   5.931   4.678
 6274SOL    HW219722   3.491   6.011   4.806
 6275SOL     OW19723   2.273   6.103   0.641
 6275SOL    HW119724   2.290   6.007   0.621
 6275SOL    HW219725   2.182   6.114   0.680
 6276SOL     OW19726   1.894   5.301   3.143
 6276SOL    HW119727   1.868   5.394   3.117
 6276SOL    HW219728   1.846   5.236   3.084
 6277SOL     OW19729   5.005   2.521   1.176
 6277SOL    HW119730   5.068   2.452   1.211
 6277SOL    HW219731   4.983   2.585   1.250
 6278SOL     OW19732   3.066   0.274   5.332
 6278SOL    HW119733   3.037   0.352   5.387
 6278SOL    HW219734   3.015   0.192   5.360
 6279SOL     OW19735   3.389   6.463   1.744
 6279SOL    HW119736   3.334   6.412   1.678
 6279SOL    HW219737   3.480   6.479   1.708
 6280SOL     OW19738   0.058   1.663   6.860
 6280SOL    HW119739   6.985   1.633   6.877
 6280SOL    HW219740   0.070   1.681   6.762
 6281SOL     OW19741   6.342   4.223   4.484
 6281SOL    HW119742   6.391   4.227   4.571
 6281SOL    HW219743   6.249   4.189   4.500
 6282SOL     OW19744   0.873   3.489   6.644
 6282SOL    HW119745   0.965   3.459   6.670
 6282SOL    HW219746   0.849   3.450   6.556
 6283SOL     OW19747   1.284   6.242   5.670
 6283SOL    HW119748   1.317   6.149   5.655
 6283SOL    HW219749   1.357   6.297   5.710
 6284SOL     OW19750   2.305   3.764   6.901
 6284SOL    HW119751   2.372   3.828   6.937
 6284SOL    HW219752   2.288   3.783   6.804
 6285SOL     OW19753   1.323   3.420   2.895
 6285SOL    HW119754   1.333   3.503   2.839
 6285SOL    HW219755   1.413   3.386   2.921
 6286SOL     OW19756   0.779   2.972   4.793
 6286SOL    HW119757   0.855   2.981   4.729
 6286SOL    HW219758   0.808   2.914   4.870
 6287SOL     OW19759   4.075   4.784   5.190
 6287SOL    HW119760   4.131   4.794   5.107
 6287SOL    HW219761   4.076   4.870   5.241
 6288SOL     OW19762   3.653   3.193   6.539
 6288SOL    HW119763   3.638   3.153   6.448
 6288SOL    HW219764   3.736   3.249   6.537
 6289SOL     OW19765   2.543   4.682   6.459
 6289SOL    HW119766   2.578   4.667   6.366
 6289SOL    HW219767   2.496   4.600   6.491
 6290SOL     OW19768   5.790   5.416   5.226
 6290SOL    HW119769   5.889   5.411   5.230
 6290SOL    HW219770   5.751   5.363   5.302
 6291SOL     OW19771   3.406   3.429   3.272
 6291SOL    HW119772   3.478   3.360   3.259
 6291SOL    HW219773   3.321   3.397   3.232
 6292SOL     OW19774   1.849   2.685   4.507
 6292SOL    HW119775   1.947   2.677   4.526
 6292SOL    HW219776   1.808   2.753   4.567
 6293SOL     OW19777   4.934   0.955   6.724
 6293SOL    HW119778   4.932   0.855   6.721
 6293SOL    HW219779   5.022   0.986   6.762
 6294SOL     OW19780   2.323   1.087   3.500
 6294SOL    HW119781   2.400   1.133   3.455
 6294SOL    HW219782   2.325   1.105   3.598
 6295SOL     OW19783   5.753   4.525   5.408
 6295SOL    HW119784   5.680   4.476   5.361
 6295SOL    HW219785   5.715   4.601   5.460
 6296SOL     OW19786   0.167   3.138   6.441
 6296SOL    HW119787   0.206   3.077   6.511
 6296SOL    HW219788   0.240   3.176   6.385
 6297SOL     OW19789   5.885   0.558   4.639
 6297SOL    HW119790   5.857   0.553   4.734
 6297SOL    HW219791   5.967   0.502   4.625
 6298SOL     OW19792   6.051   4.564   0.553
 6298SOL    HW119793   6.001   4.591   0.471
 6298SOL    HW219794   6.049   4.639   0.620
 6299SOL     OW19795   4.914   2.318   2.693
 6299SOL    HW119796   4.897   2.389   2.761
 6299SOL    HW219797   4.879   2.348   2.604
 6300SOL     OW19798   3.734   0.510   6.029
 6300SOL    HW119799   3.688   0.445   6.089
 6300SOL    HW219800   3.828   0.524   6.061
 6301SOL     OW19801   3.570   6.566   0.495
 6301SOL    HW119802   3.605   6.574   0.402
 6301SOL    HW219803   3.549   6.470   0.514
 6302SOL     OW19804   3.195   1.086   5.360
 6302SOL    HW119805   3.156   1.049   5.276
 6302SOL    HW219806   3.147   1.048   5.439
 6303SOL     OW19807   1.158   5.757   6.169
 6303SOL    HW119808   1.247   5.755   6.214
 6303SOL    HW219809   1.160   5.820   6.092
 6304SOL     OW19810   4.000   1.107   2.373
 6304SOL    HW119811   3.913   1.084   2.329
 6304SOL    HW219812   4.072   1.112   2.303
 6305SOL     OW19813   0.473   5.441   5.272
 6305SOL    HW119814   0.479   5.382   5.191
 6305SOL    HW219815   0.457   5.384   5.353
 6306SOL     OW19816   6.506   4.682   3.880
 6306SOL    HW119817   6.605   4.674   3.887
 6306SOL    HW219818   6.463   4.607   3.930
 6307SOL     OW19819   4.069   3.723   3.157
 6307SOL    HW119820   4.016   3.676   3.227
 6307SOL    HW219821   4.164   3.691   3.161
 6308SOL     OW19822   0.404   2.818   6.872
 6308SOL    HW119823   0.312   2.800   6.906
 6308SOL    HW219824   0.467   2.748   6.906
 6309SOL     OW19825   1.204   6.626   5.000
 6309SOL    HW119826   1.188   6.711   4.950
 6309SOL    HW219827   1.136   6.558   4.972
 6310SOL     OW19828   2.044   6.867   3.123
 6310SOL    HW119829   2.114   6.939   3.130
 6310SOL    HW219830   1.955   6.904   3.149
 6311SOL     OW19831   5.525   1.119   5.800
 6311SOL    HW119832   5.459   1.144   5.871
 6311SOL    HW219833   5.604   1.074   5.841
 6312SOL     OW19834   3.155   6.766   6.701
 6312SOL    HW119835   3.170   6.769   6.799
 6312SOL    HW219836   3.234   6.803   6.653
 6313SOL     OW19837   5.452   6.259   3.599
 6313SOL    HW119838   5.378   6.205   3.642
 6313SOL    HW219839   5.443   6.255   3.500
 6314SOL     OW19840   2.340   0.483   1.660
 6314SOL    HW119841   2.337   0.412   1.590
 6314SOL    HW219842   2.304   0.446   1.746
 6315SOL     OW19843   2.339   2.781   3.984
 6315SOL    HW119844   2.328   2.801   4.081
 6315SOL    HW219845   2.397   2.701   3.972
 6316SOL     OW19846   5.560   2.024   4.779
 6316SOL    HW119847   5.624   1.961   4.821
 6316SOL    HW219848   5.538   1.993   4.686
 6317SOL     OW19849   4.908   4.435   2.179
 6317SOL    HW119850   4.922   4.511   2.115
 6317SOL    HW219851   4.934   4.463   2.271
 6318SOL     OW19852   6.505   0.729   6.147
 6318SOL    HW119853   6.449   0.804   6.184
 6318SOL    HW219854   6.568   0.696   6.217
 6319SOL     OW19855   5.378   2.414   4.355
 6319SOL    HW119856   5.332   2.327   4.337
 6319SOL    HW219857   5.416   2.450   4.269
 6320SOL     OW19858   0.139   1.202   4.074
 6320SOL    HW119859   0.051   1.155   4.060
 6320SOL    HW219860   0.149   1.225   4.170
 6321SOL     OW19861   5.395   2.234   0.725
 6321SOL    HW119862   5.381   2.182   0.640
 6321SOL    HW219863   5.311   2.282   0.750
 6322SOL     OW19864   1.896   0.915   1.054
 6322SOL    HW119865   1.813   0.966   1.030
 6322SOL    HW219866   1.903   0.908   1.154
 6323SOL     OW19867   2.566   3.260   1.104
 6323SOL    HW119868   2.562   3.328   1.030
 6323SOL    HW219869   2.542   3.305   1.191
 6324SOL     OW19870   4.516   1.629   1.034
 6324SOL    HW119871   4.523   1.594   0.941
 6324SOL    HW219872   4.572   1.573   1.095
 6325SOL     OW19873   1.398   2.395   2.781
 6325SOL    HW119874   1.360   2.305   2.800
 6325SOL    HW219875   1.326   2.464   2.788
 6326SOL     OW19876   5.297   5.101   5.906
 6326SOL    HW119877   5.258   5.189   5.932
 6326SOL    HW219878   5.245   5.027   5.948
 6327SOL     OW19879   6.992   1.416   3.413
 6327SOL    HW119880   6.915   1.419   3.477
 6327SOL    HW219881   6.957   1.402   3.320
 6328SOL     OW19882   4.528   3.432   5.958
 6328SOL    HW119883   4.590   3.422   5.881
 6328SOL    HW219884   4.581   3.444   6.042
 6329SOL     OW19885   1.608   2.639   5.522
 6329SOL    HW119886   1.536   2.698   5.485
 6329SOL    HW219887   1.570   2.549   5.541
 6330SOL     OW19888   5.750   0.467   3.571
 6330SOL    HW119889   5.791   0.458   3.480
 6330SOL    HW219890   5.804   0.530   3.626
 6331SOL     OW19891   6.755   3.596   3.844
 6331SOL    HW119892   6.852   3.605   3.863
 6331SOL    HW219893   6.707   3.678   3.877
 6332SOL     OW19894   1.792   1.919   0.743
 6332SOL    HW119895   1.709   1.894   0.694
 6332SOL    HW219896   1.774   1.995   0.804
 6333SOL     OW19897   4.912   0.454   0.898
 6333SOL    HW119898   4.985   0.520   0.920
 6333SOL    HW219899   4.824   0.501   0.900
 6334SOL     OW19900   2.924   1.372   2.230
 6334SOL    HW119901   2.974   1.346   2.148
 6334SOL    HW219902   2.901   1.290   2.284
 6335SOL     OW19903   5.643   0.920   0.763
 6335SOL    HW119904   5.543   0.922   0.763
 6335SOL    HW219905   5.676   0.899   0.670
 6336SOL     OW19906   0.511   3.694   6.353
 6336SOL    HW119907   0.570   3.719   6.430
 6336SOL    HW219908   0.555   3.722   6.267
 6337SOL     OW19909   4.765   5.524   5.444
 6337SOL    HW119910   4.772   5.446   5.507
 6337SOL    HW219911   4.786   5.493   5.351
 6338SOL     OW19912   2.903   1.742   3.551
 6338SOL    HW119913   2.962   1.735   3.470
 6338SOL    HW219914   2.952   1.708   3.631
 6339SOL     OW19915   1.305   4.199   3.188
 6339SOL    HW119916   1.341   4.167   3.276
 6339SOL    HW219917   1.285   4.120   3.130
 6340SOL     OW19918   2.180   3.775   1.515
 6340SOL    HW119919   2.264   3.740   1.555
 6340SOL    HW219920   2.164   3.730   1.427
 6341SOL     OW19921   1.069   4.758   3.702
 6341SOL    HW119922   1.058   4.751   3.801
 6341SOL    HW219923   1.044   4.671   3.659
 6342SOL     OW19924   2.164   1.411   2.026
 6342SOL    HW119925   2.121   1.500   2.034
 6342SOL    HW219926   2.096   1.343   1.996
 6343SOL     OW19927   2.943   5.750   0.163
 6343SOL    HW119928   2.976   5.763   0.257
 6343SOL    HW219929   2.954   5.835   0.111
 6344SOL     OW19930   6.514   2.032   3.771
 6344SOL    HW119931   6.593   2.086   3.799
 6344SOL    HW219932   6.500   2.042   3.672
 6345SOL     OW19933   5.881   3.356   1.672
 6345SOL    HW119934   5.953   3.327   1.609
 6345SOL    HW219935   5.798   3.379   1.620
 6346SOL     OW19936   0.035   4.575   5.549
 6346SOL    HW119937   0.074   4.486   5.574
 6346SOL    HW219938   0.082   4.611   5.469
 6347SOL     OW19939   2.768   2.156   2.626
 6347SOL    HW119940   2.867   2.157   2.608
 6347SOL    HW219941   2.743   2.070   2.669
 6348SOL     OW19942   0.390   2.067   5.520
 6348SOL    HW119943   0.342   2.094   5.437
 6348SOL    HW219944   0.361   1.975   5.547
 6349SOL     OW19945   0.511   0.321   0.326
 6349SOL    HW119946   0.473   0.374   0.401
 6349SOL    HW219947   0.505   0.224   0.347
 6350SOL     OW19948   1.142   4.201   1.880
 6350SOL    HW119949   1.181   4.221   1.970
 6350SOL    HW219950   1.075   4.272   1.857
 6351SOL     OW19951   5.760   3.431   3.027
 6351SOL    HW119952   5.785   3.366   3.098
 6351SOL    HW219953   5.751   3.522   3.066
 6352SOL     OW19954   2.252   0.267   4.065
 6352SOL    HW119955   2.170   0.319   4.088
 6352SOL    HW219956   2.248   0.177   4.108
 6353SOL     OW19957   2.778   5.654   6.456
 6353SOL    HW119958   2.861   5.626   6.503
 6353SOL    HW219959   2.776   5.615   6.364
 6354SOL     OW19960   4.740   4.200   2.613
 6354SOL    HW119961   4.828   4.242   2.635
 6354SOL    HW219962   4.735   4.109   2.656
 6355SOL     OW19963   2.542   4.873   0.524
 6355SOL    HW119964   2.628   4.924   0.527
 6355SOL    HW219965   2.558   4.783   0.484
 6356SOL     OW19966   5.177   4.757   6.864
 6356SOL    HW119967   5.124   4.672   6.865
 6356SOL    HW219968   5.121   4.831   6.826
 6357SOL     OW19969   5.954   2.052   1.917
 6357SOL    HW119970   5.956   1.964   1.965
 6357SOL    HW219971   6.047   2.090   1.913
 6358SOL     OW19972   1.755   2.531   6.589
 6358SOL    HW119973   1.703   2.533   6.674
 6358SOL    HW219974   1.853   2.530   6.610
 6359SOL     OW19975   5.415   6.364   0.479
 6359SOL    HW119976   5.490   6.309   0.516
 6359SOL    HW219977   5.332   6.347   0.534
 6360SOL     OW19978   0.560   2.431   2.911
 6360SOL    HW119979   0.465   2.419   2.941
 6360SOL    HW219980   0.562   2.448   2.813
 6361SOL     OW19981   0.547   0.249   6.878
 6361SOL    HW119982   0.642   0.276   6.864
 6361SOL    HW219983   0.496   0.325   6.919
 6362SOL     OW19984   1.029   5.495   6.612
 6362SOL    HW119985   1.054   5.548   6.531
 6362SOL    HW219986   0.930   5.478   6.613
 6363SOL     OW19987   2.845   5.068   3.760
 6363SOL    HW119988   2.790   5.020   3.829
 6363SOL    HW219989   2.938   5.032   3.760
 6364SOL     OW19990   2.503   2.035   4.752
 6364SOL    HW119991   2.596   2.045   4.787
 6364SOL    HW219992   2.437   2.045   4.827
 6365SOL     OW19993   5.629   5.770   3.693
 6365SOL    HW119994   5.707   5.764   3.631
 6365SOL    HW219995   5.559   5.704   3.664
 6366SOL     OW19996   6.274   6.575   4.875
 6366SOL    HW119997   6.297   6.539   4.785
 6366SOL    HW219998   6.265   6.499   4.940
 6367SOL     OW19999   3.150   2.143   2.765
 6367SOL    HW120000   3.093   2.163   2.845
 6367SOL    HW220001   3.093   2.145   2.682
 6368SOL     OW20002   4.938   3.412   4.790
 6368SOL    HW120003   4.885   3.491   4.820
 6368SOL    HW220004   4.907   3.330   4.839
 6369SOL     OW20005   3.215   6.350   6.025
 6369SOL    HW120006   3.138   6.393   6.072
 6369SOL    HW220007   3.181   6.280   5.962
 6370SOL     OW20008   5.405   3.876   3.898
 6370SOL    HW120009   5.355   3.923   3.971
 6370SOL    HW220010   5.502   3.899   3.904
 6371SOL     OW20011   5.433   3.939   1.749
 6371SOL    HW120012   5.340   3.976   1.742
 6371SOL    HW220013   5.440   3.855   1.696
 6372SOL     OW20014   7.001   1.009   3.180
 6372SOL    HW120015   6.930   0.958   3.227
 6372SOL    HW220016   0.032   1.064   3.246
 6373SOL     OW20017   5.206   4.015   1.190
 6373SOL    HW120018   5.201   3.958   1.272
 6373SOL    HW220019   5.114   4.044   1.164
 6374SOL     OW20020   4.634   3.101   0.465
 6374SOL    HW120021   4.647   3.091   0.564
 6374SOL    HW220022   4.568   3.174   0.447
 6375SOL     OW20023   6.855   2.911   2.414
 6375SOL    HW120024   6.918   2.927   2.490
 6375SOL    HW220025   6.763   2.940   2.440
 6376SOL     OW20026   3.540   0.861   5.959
 6376SOL    HW120027   3.505   0.937   5.905
 6376SOL    HW220028   3.588   0.897   6.039
 6377SOL     OW20029   0.009   0.127   0.004
 6377SOL    HW120030   0.001   0.222   0.033
 6377SOL    HW220031   6.966   0.070   0.055
 6378SOL     OW20032   5.580   5.652   3.295
 6378SOL    HW120033   5.495   5.703   3.307
 6378SOL    HW220034   5.638   5.697   3.227
 6379SOL     OW20035   3.031   5.530   6.541
 6379SOL    HW120036   3.034   5.462   6.468
 6379SOL    HW220037   2.982   5.492   6.619
 6380SOL     OW20038   1.422   3.239   5.201
 6380SOL    HW120039   1.440   3.142   5.188
 6380SOL    HW220040   1.342   3.251   5.259
 6381SOL     OW20041   4.785   3.338   0.289
 6381SOL    HW120042   4.695   3.296   0.299
 6381SOL    HW220043   4.845   3.307   0.362
 6382SOL     OW20044   2.547   1.472   1.403
 6382SOL    HW120045   2.585   1.528   1.330
 6382SOL    HW220046   2.467   1.423   1.369
 6383SOL     OW20047   2.010   2.080   2.741
 6383SOL    HW120048   1.958   2.081   2.655
 6383SOL    HW220049   2.085   2.015   2.733
 6384SOL     OW20050   6.838   2.444   2.182
 6384SOL    HW120051   6.824   2.404   2.091
 6384SOL    HW220052   6.873   2.537   2.171
 6385SOL     OW20053   0.200   3.080   1.488
 6385SOL    HW120054   0.259   3.160   1.478
 6385SOL    HW220055   0.136   3.076   1.411
 6386SOL     OW20056   2.246   2.995   0.559
 6386SOL    HW120057   2.188   3.071   0.588
 6386SOL    HW220058   2.313   3.028   0.492
 6387SOL     OW20059   6.117   0.592   0.003
 6387SOL    HW120060   6.111   0.498   6.988
 6387SOL    HW220061   6.025   0.628   0.018
 6388SOL     OW20062   6.119   5.297   2.955
 6388SOL    HW120063   6.076   5.318   2.867
 6388SOL    HW220064   6.077   5.215   2.994
 6389SOL     OW20065   1.673   0.473   6.962
 6389SOL    HW120066   1.642   0.561   6.928
 6389SOL    HW220067   1.770   0.479   6.988
 6390SOL     OW20068   6.436   1.213   6.637
 6390SOL    HW120069   6.462   1.243   6.546
 6390SOL    HW220070   6.438   1.291   6.700
 6391SOL     OW20071   1.635   1.535   5.221
 6391SOL    HW120072   1.579   1.558   5.142
 6391SOL    HW220073   1.688   1.615   5.249
 6392SOL     OW20074   3.257   5.776   3.557
 6392SOL    HW120075   3.356   5.788   3.547
 6392SOL    HW220076   3.212   5.864   3.548
 6393SOL     OW20077   6.132   6.263   1.208
 6393SOL    HW120078   6.134   6.358   1.240
 6393SOL    HW220079   6.057   6.214   1.253
 6394SOL     OW20080   1.102   5.150   1.047
 6394SOL    HW120081   1.135   5.233   1.093
 6394SOL    HW220082   1.155   5.071   1.078
 6395SOL     OW20083   1.659   4.139   3.175
 6395SOL    HW120084   1.622   4.161   3.085
 6395SOL    HW220085   1.584   4.114   3.236
 6396SOL     OW20086   6.833   4.056   0.420
 6396SOL    HW120087   6.785   3.973   0.449
 6396SOL    HW220088   6.910   4.031   0.362
 6397SOL     OW20089   5.546   2.539   3.623
 6397SOL    HW120090   5.542   2.458   3.682
 6397SOL    HW220091   5.612   2.604   3.660
 6398SOL     OW20092   1.164   6.715   1.147
 6398SOL    HW120093   1.067   6.699   1.130
 6398SOL    HW220094   1.210   6.736   1.061
 6399SOL     OW20095   2.344   0.437   6.051
 6399SOL    HW120096   2.346   0.450   6.150
 6399SOL    HW220097   2.435   0.457   6.013
 6400SOL     OW20098   1.397   5.580   2.828
 6400SOL    HW120099   1.384   5.616   2.736
 6400SOL    HW220100   1.308   5.558   2.868
 6401SOL     OW20101   3.832   5.374   3.409
 6401SOL    HW120102   3.930   5.392   3.416
 6401SOL    HW220103   3.807   5.357   3.314
 6402SOL     OW20104   2.238   4.654   4.754
 6402SOL    HW120105   2.251   4.557   4.774
 6402SOL    HW220106   2.195   4.663   4.664
 6403SOL     OW20107   4.809   6.404   5.084
 6403SOL    HW120108   4.893   6.366   5.123
 6403SOL    HW220109   4.787   6.490   5.130
 6404SOL     OW20110   3.566   0.513   2.359
 6404SOL    HW120111   3.635   0.546   2.294
 6404SOL    HW220112   3.505   0.449   2.313
 6405SOL     OW20113   5.403   1.533   2.701
 6405SOL    HW120114   5.366   1.598   2.766
 6405SOL    HW220115   5.486   1.570   2.659
 6406SOL     OW20116   1.048   2.930   2.559
 6406SOL    HW120117   1.025   2.985   2.639
 6406SOL    HW220118   1.005   2.840   2.568
 6407SOL     OW20119   2.379   6.026   3.211
 6407SOL    HW120120   2.299   6.015   3.152
 6407SOL    HW220121   2.458   6.051   3.155
 6408SOL     OW20122   6.542   0.322   0.607
 6408SOL    HW120123   6.621   0.340   0.550
 6408SOL    HW220124   6.519   0.404   0.660
 6409SOL     OW20125   6.118   5.005   3.833
 6409SOL    HW120126   6.138   5.092   3.788
 6409SOL    HW220127   6.030   5.012   3.880
 6410SOL     OW20128   3.182   1.701   5.549
 6410SOL    HW120129   3.239   1.637   5.498
 6410SOL    HW220130   3.101   1.654   5.584
 6411SOL     OW20131   0.302   2.316   2.970
 6411SOL    HW120132   0.272   2.244   3.033
 6411SOL    HW220133   0.234   2.329   2.898
 6412SOL     OW20134   3.169   0.758   6.949
 6412SOL    HW120135   3.224   0.767   0.012
 6412SOL    HW220136   3.096   0.692   6.964
 6413SOL     OW20137   4.282   5.145   3.965
 6413SOL    HW120138   4.361   5.116   4.020
 6413SOL    HW220139   4.258   5.239   3.987
 6414SOL     OW20140   1.152   6.879   6.842
 6414SOL    HW120141   1.124   6.905   6.934
 6414SOL    HW220142   1.249   6.900   6.830
 6415SOL     OW20143   1.070   2.491   3.315
 6415SOL    HW120144   1.125   2.527   3.390
 6415SOL    HW220145   1.069   2.557   3.240
 6416SOL     OW20146   2.879   0.370   6.455
 6416SOL    HW120147   2.916   0.422   6.532
 6416SOL    HW220148   2.871   0.430   6.375
 6417SOL     OW20149   4.697   1.465   1.173
 6417SOL    HW120150   4.764   1.539   1.173
 6417SOL    HW220151   4.673   1.442   1.267
 6418SOL     OW20152   4.298   4.742   1.122
 6418SOL    HW120153   4.352   4.710   1.044
 6418SOL    HW220154   4.201   4.727   1.104
 6419SOL     OW20155   0.727   6.562   6.439
 6419SOL    HW120156   0.644   6.531   6.393
 6419SOL    HW220157   0.706   6.643   6.493
 6420SOL     OW20158   1.475   3.111   4.204
 6420SOL    HW120159   1.377   3.128   4.193
 6420SOL    HW220160   1.513   3.176   4.269
 6421SOL     OW20161   4.959   0.050   1.566
 6421SOL    HW120162   4.884   0.033   1.630
 6421SOL    HW220163   5.046   0.038   1.613
 6422SOL     OW20164   6.276   2.538   4.663
 6422SOL    HW120165   6.196   2.596   4.654
 6422SOL    HW220166   6.309   2.542   4.758
 6423SOL     OW20167   2.444   4.397   4.157
 6423SOL    HW120168   2.529   4.343   4.154
 6423SOL    HW220169   2.366   4.336   4.146
 6424SOL     OW20170   0.777   3.906   4.974
 6424SOL    HW120171   0.768   3.953   4.886
 6424SOL    HW220172   0.866   3.860   4.978
 6425SOL     OW20173   0.540   6.337   2.744
 6425SOL    HW120174   0.555   6.406   2.816
 6425SOL    HW220175   0.559   6.246   2.781
 6426SOL     OW20176   4.504   4.639   4.710
 6426SOL    HW120177   4.420   4.694   4.701
 6426SOL    HW220178   4.537   4.643   4.804
 6427SOL     OW20179   3.029   3.239   3.647
 6427SOL    HW120180   3.098   3.236   3.574
 6427SOL    HW220181   2.983   3.328   3.645
 6428SOL     OW20182   4.662   2.698   0.227
 6428SOL    HW120183   4.625   2.784   0.261
 6428SOL    HW220184   4.744   2.674   0.278
 6429SOL     OW20185   2.366   0.603   5.041
 6429SOL    HW120186   2.280   0.606   5.092
 6429SOL    HW220187   2.442   0.588   5.103
 6430SOL     OW20188   6.936   0.477   5.373
 6430SOL    HW120189   6.887   0.474   5.461
 6430SOL    HW220190   6.948   0.384   5.338
 6431SOL     OW20191   4.147   5.036   2.459
 6431SOL    HW120192   4.199   4.994   2.385
 6431SOL    HW220193   4.203   5.040   2.541
 6432SOL     OW20194   4.020   4.181   6.425
 6432SOL    HW120195   4.047   4.269   6.385
 6432SOL    HW220196   4.100   4.139   6.469
 6433SOL     OW20197   2.578   5.755   6.930
 6433SOL    HW120198   2.543   5.821   6.863
 6433SOL    HW220199   2.662   5.713   6.895
 6434SOL     OW20200   3.291   5.981   5.437
 6434SOL    HW120201   3.263   5.886   5.429
 6434SOL    HW220202   3.215   6.035   5.474
 6435SOL     OW20203   4.905   0.696   1.082
 6435SOL    HW120204   4.949   0.690   0.992
 6435SOL    HW220205   4.971   0.728   1.149
 6436SOL     OW20206   0.148   3.796   4.020
 6436SOL    HW120207   0.064   3.848   4.032
 6436SOL    HW220208   0.223   3.843   4.066
 6437SOL     OW20209   0.643   1.318   5.527
 6437SOL    HW120210   0.650   1.381   5.604
 6437SOL    HW220211   0.703   1.240   5.541
 6438SOL     OW20212   0.447   5.641   0.068
 6438SOL    HW120213   0.502   5.695   0.131
 6438SOL    HW220214   0.451   5.545   0.095
 6439SOL     OW20215   5.859   0.810   3.452
 6439SOL    HW120216   5.879   0.806   3.354
 6439SOL    HW220217   5.767   0.846   3.465
 6440SOL     OW20218   2.564   0.766   5.865
 6440SOL    HW120219   2.566   0.779   5.766
 6440SOL    HW220220   2.567   0.855   5.911
 6441SOL     OW20221   0.276   1.002   2.840
 6441SOL    HW120222   0.280   1.085   2.785
 6441SOL    HW220223   0.186   0.992   2.881
 6442SOL     OW20224   3.067   2.488   5.770
 6442SOL    HW120225   3.099   2.466   5.678
 6442SOL    HW220226   2.998   2.420   5.798
 6443SOL     OW20227   4.375   2.340   0.850
 6443SOL    HW120228   4.373   2.417   0.786
 6443SOL    HW220229   4.290   2.289   0.844
 6444SOL     OW20230   0.251   3.149   5.328
 6444SOL    HW120231   0.336   3.174   5.373
 6444SOL    HW220232   0.213   3.066   5.371
 6445SOL     OW20233   2.917   3.734   2.939
 6445SOL    HW120234   2.846   3.711   2.872
 6445SOL    HW220235   2.996   3.772   2.891
 6446SOL     OW20236   1.993   1.465   6.848
 6446SOL    HW120237   2.047   1.385   6.820
 6446SOL    HW220238   1.950   1.447   6.937
 6447SOL     OW20239   5.850   4.592   1.346
 6447SOL    HW120240   5.875   4.671   1.401
 6447SOL    HW220241   5.821   4.517   1.405
 6448SOL     OW20242   4.984   5.502   2.073
 6448SOL    HW120243   5.072   5.529   2.037
 6448SOL    HW220244   4.943   5.433   2.013
 6449SOL     OW20245   2.039   5.580   1.371
 6449SOL    HW120246   2.070   5.522   1.446
 6449SOL    HW220247   2.018   5.522   1.292
 6450SOL     OW20248   0.430   3.635   1.093
 6450SOL    HW120249   0.519   3.592   1.110
 6450SOL    HW220250   0.418   3.711   1.157
 6451SOL     OW20251   3.252   2.758   1.305
 6451SOL    HW120252   3.157   2.752   1.335
 6451SOL    HW220253   3.311   2.774   1.385
 6452SOL     OW20254   5.192   3.106   3.268
 6452SOL    HW120255   5.156   3.013   3.277
 6452SOL    HW220256   5.289   3.101   3.244
 6453SOL     OW20257   3.314   6.869   1.015
 6453SOL    HW120258   3.400   6.854   0.967
 6453SOL    HW220259   3.325   6.942   1.082
 6454SOL     OW20260   5.892   2.780   2.857
 6454SOL    HW120261   5.935   2.854   2.806
 6454SOL    HW220262   5.809   2.750   2.809
 6455SOL     OW20263   6.207   3.996   3.610
 6455SOL    HW120264   6.213   4.096   3.607
 6455SOL    HW220265   6.287   3.957   3.565
 6456SOL     OW20266   6.518   1.166   3.076
 6456SOL    HW120267   6.482   1.230   3.008
 6456SOL    HW220268   6.618   1.159   3.066
 6457SOL     OW20269   4.667   0.064   1.372
 6457SOL    HW120270   4.725   0.144   1.391
 6457SOL    HW220271   4.655   0.011   1.456
 6458SOL     OW20272   1.341   4.830   3.708
 6458SOL    HW120273   1.243   4.814   3.700
 6458SOL    HW220274   1.379   4.769   3.776
 6459SOL     OW20275   6.602   2.941   2.757
 6459SOL    HW120276   6.588   2.862   2.697
 6459SOL    HW220277   6.555   2.924   2.844
 6460SOL     OW20278   0.151   5.932   6.155
 6460SOL    HW120279   0.082   5.872   6.196
 6460SOL    HW220280   0.106   5.994   6.090
 6461SOL     OW20281   2.856   4.879   0.972
 6461SOL    HW120282   2.851   4.805   1.040
 6461SOL    HW220283   2.852   4.840   0.880
 6462SOL     OW20284   1.641   4.259   4.956
 6462SOL    HW120285   1.542   4.272   4.956
 6462SOL    HW220286   1.673   4.243   4.863
 6463SOL     OW20287   4.212   1.080   1.358
 6463SOL    HW120288   4.157   1.077   1.441
 6463SOL    HW220289   4.255   1.170   1.349
 6464SOL     OW20290   1.052   5.973   4.498
 6464SOL    HW120291   1.065   5.896   4.435
 6464SOL    HW220292   1.091   6.056   4.457
 6465SOL     OW20293   4.845   2.340   3.044
 6465SOL    HW120294   4.816   2.397   2.967
 6465SOL    HW220295   4.764   2.305   3.092
 6466SOL     OW20296   0.322   3.630   0.160
 6466SOL    HW120297   0.414   3.612   0.123
 6466SOL    HW220298   0.256   3.630   0.085
 6467SOL     OW20299   3.155   1.317   0.753
 6467SOL    HW120300   3.154   1.417   0.750
 6467SOL    HW220301   3.097   1.281   0.680
 6468SOL     OW20302   2.972   0.381   0.687
 6468SOL    HW120303   3.034   0.324   0.633
 6468SOL    HW220304   3.022   0.423   0.763
 6469SOL     OW20305   3.691   1.889   3.491
 6469SOL    HW120306   3.728   1.809   3.443
 6469SOL    HW220307   3.629   1.858   3.563
 6470SOL     OW20308   6.262   2.340   6.728
 6470SOL    HW120309   6.329   2.394   6.779
 6470SOL    HW220310   6.300   2.251   6.706
 6471SOL     OW20311   0.358   6.010   4.921
 6471SOL    HW120312   0.350   5.968   5.011
 6471SOL    HW220313   0.437   5.972   4.873
 6472SOL     OW20314   6.837   5.896   2.460
 6472SOL    HW120315   6.758   5.946   2.495
 6472SOL    HW220316   6.880   5.845   2.535
 6473SOL     OW20317   1.890   1.365   3.756
 6473SOL    HW120318   1.913   1.315   3.673
 6473SOL    HW220319   1.797   1.341   3.785
 6474SOL     OW20320   4.413   6.303   4.572
 6474SOL    HW120321   4.399   6.276   4.667
 6474SOL    HW220322   4.381   6.231   4.511
 6475SOL     OW20323   5.792   5.112   3.013
 6475SOL    HW120324   5.871   5.101   3.074
 6475SOL    HW220325   5.724   5.169   3.058
 6476SOL     OW20326   4.264   1.377   6.454
 6476SOL    HW120327   4.265   1.403   6.551
 6476SOL    HW220328   4.213   1.445   6.402
 6477SOL     OW20329   6.894   6.148   1.387
 6477SOL    HW120330   6.876   6.085   1.311
 6477SOL    HW220331   6.980   6.196   1.372
 6478SOL     OW20332   3.444   5.852   2.062
 6478SOL    HW120333   3.383   5.795   2.007
 6478SOL    HW220334   3.423   5.949   2.046
 6479SOL     OW20335   3.431   6.213   4.165
 6479SOL    HW120336   3.473   6.169   4.086
 6479SOL    HW220337   3.379   6.293   4.135
 6480SOL     OW20338   3.081   1.248   6.787
 6480SOL    HW120339   3.012   1.219   6.721
 6480SOL    HW220340   3.117   1.168   6.835
 6481SOL     OW20341   3.350   2.541   1.659
 6481SOL    HW120342   3.372   2.617   1.598
 6481SOL    HW220343   3.251   2.531   1.665
 6482SOL     OW20344   6.797   3.367   5.322
 6482SOL    HW120345   6.850   3.383   5.239
 6482SOL    HW220346   6.857   3.329   5.393
 6483SOL     OW20347   1.487   5.845   5.172
 6483SOL    HW120348   1.408   5.829   5.113
 6483SOL    HW220349   1.488   5.777   5.245
 6484SOL     OW20350   2.338   1.112   3.799
 6484SOL    HW120351   2.262   1.157   3.845
 6484SOL    HW220352   2.420   1.117   3.857
 6485SOL     OW20353   1.906   6.659   4.434
 6485SOL    HW120354   1.905   6.608   4.521
 6485SOL    HW220355   1.876   6.753   4.450
 6486SOL     OW20356   1.600   5.349   3.263
 6486SOL    HW120357   1.698   5.336   3.249
 6486SOL    HW220358   1.558   5.264   3.294
 6487SOL     OW20359   0.143   4.763   4.027
 6487SOL    HW120360   0.206   4.720   4.092
 6487SOL    HW220361   0.153   4.862   4.031
 6488SOL     OW20362   4.878   5.725   4.898
 6488SOL    HW120363   4.784   5.721   4.863
 6488SOL    HW220364   4.923   5.637   4.880
 6489SOL     OW20365   4.155   3.228   5.949
 6489SOL    HW120366   4.123   3.193   5.861
 6489SOL    HW220367   4.089   3.206   6.020
 6490SOL     OW20368   1.859   1.895   6.565
 6490SOL    HW120369   1.894   1.805   6.592
 6490SOL    HW220370   1.885   1.963   6.634
 6491SOL     OW20371   1.345   0.199   0.643
 6491SOL    HW120372   1.296   0.265   0.700
 6491SOL    HW220373   1.432   0.239   0.613
 6492SOL     OW20374   3.165   3.831   4.542
 6492SOL    HW120375   3.257   3.808   4.574
 6492SOL    HW220376   3.098   3.801   4.610
 6493SOL     OW20377   0.970   4.408   6.530
 6493SOL    HW120378   0.873   4.409   6.553
 6493SOL    HW220379   0.985   4.344   6.454
 6494SOL     OW20380   6.128   6.293   1.782
 6494SOL    HW120381   6.192   6.370   1.787
 6494SOL    HW220382   6.133   6.239   1.866
 6495SOL     OW20383   0.170   0.219   3.369
 6495SOL    HW120384   0.166   0.169   3.456
 6495SOL    HW220385   0.242   0.182   3.312
 6496SOL     OW20386   4.707   0.351   2.156
 6496SOL    HW120387   4.629   0.410   2.171
 6496SOL    HW220388   4.713   0.283   2.230
 6497SOL     OW20389   0.229   1.582   0.919
 6497SOL    HW120390   0.167   1.542   0.851
 6497SOL    HW220391   0.215   1.681   0.923
 6498SOL     OW20392   1.053   4.497   3.589
 6498SOL    HW120393   0.971   4.454   3.551
 6498SOL    HW220394   1.111   4.427   3.631
 6499SOL     OW20395   6.118   4.146   4.618
 6499SOL    HW120396   6.072   4.228   4.584
 6499SOL    HW220397   6.065   4.108   4.694
 6500SOL     OW20398   1.603   3.831   2.495
 6500SOL    HW120399   1.660   3.785   2.563
 6500SOL    HW220400   1.626   3.797   2.404
 6501SOL     OW20401   6.329   2.009   1.194
 6501SOL    HW120402   6.250   2.036   1.140
 6501SOL    HW220403   6.385   1.945   1.142
 6502SOL     OW20404   5.872   3.790   2.050
 6502SOL    HW120405   5.930   3.720   2.091
 6502SOL    HW220406   5.795   3.747   2.003
 6503SOL     OW20407   6.585   3.156   5.403
 6503SOL    HW120408   6.505   3.215   5.386
 6503SOL    HW220409   6.576   3.114   5.493
 6504SOL     OW20410   4.584   6.542   6.305
 6504SOL    HW120411   4.530   6.579   6.229
 6504SOL    HW220412   4.583   6.442   6.301
 6505SOL     OW20413   5.882   6.124   0.050
 6505SOL    HW120414   5.784   6.101   0.045
 6505SOL    HW220415   5.899   6.205   7.014
 6506SOL     OW20416   0.311   2.919   2.853
 6506SOL    HW120417   0.324   2.912   2.951
 6506SOL    HW220418   0.232   2.977   2.833
 6507SOL     OW20419   3.748   4.628   6.471
 6507SOL    HW120420   3.768   4.641   6.569
 6507SOL    HW220421   3.750   4.530   6.450
 6508SOL     OW20422   1.183   6.530   1.652
 6508SOL    HW120423   1.148   6.441   1.681
 6508SOL    HW220424   1.244   6.518   1.574
 6509SOL     OW20425   3.756   1.736   5.814
 6509SOL    HW120426   3.718   1.778   5.896
 6509SOL    HW220427   3.827   1.671   5.840
 6510SOL     OW20428   4.269   5.904   5.541
 6510SOL    HW120429   4.180   5.870   5.512
 6510SOL    HW220430   4.278   5.894   5.640
 6511SOL     OW20431   3.940   1.310   6.622
 6511SOL    HW120432   3.871   1.262   6.566
 6511SOL    HW220433   3.930   1.409   6.608
 6512SOL     OW20434   3.367   0.985   1.063
 6512SOL    HW120435   3.382   1.012   1.158
 6512SOL    HW220436   3.368   1.066   1.005
 6513SOL     OW20437   2.991   5.575   4.581
 6513SOL    HW120438   2.966   5.599   4.675
 6513SOL    HW220439   2.960   5.647   4.519
 6514SOL     OW20440   5.903   0.672   5.347
 6514SOL    HW120441   5.900   0.579   5.383
 6514SOL    HW220442   5.825   0.724   5.381
 6515SOL     OW20443   1.973   5.001   2.023
 6515SOL    HW120444   1.876   5.013   2.004
 6515SOL    HW220445   1.985   4.929   2.091
 6516SOL     OW20446   0.354   2.867   1.287
 6516SOL    HW120447   0.279   2.898   1.345
 6516SOL    HW220448   0.439   2.867   1.339
 6517SOL     OW20449   0.067   2.849   6.953
 6517SOL    HW120450   0.056   2.839   6.855
 6517SOL    HW220451   0.057   2.945   6.979
 6518SOL     OW20452   0.799   1.325   2.985
 6518SOL    HW120453   0.707   1.364   2.990
 6518SOL    HW220454   0.806   1.248   3.048
 6519SOL     OW20455   0.948   1.633   3.282
 6519SOL    HW120456   0.850   1.616   3.292
 6519SOL    HW220457   0.975   1.614   3.187
 6520SOL     OW20458   6.840   5.554   6.694
 6520SOL    HW120459   6.905   5.520   6.762
 6520SOL    HW220460   6.868   5.645   6.665
 6521SOL     OW20461   1.443   2.907   4.408
 6521SOL    HW120462   1.504   2.845   4.458
 6521SOL    HW220463   1.492   2.990   4.384
 6522SOL     OW20464   2.488   4.010   5.532
 6522SOL    HW120465   2.449   4.073   5.465
 6522SOL    HW220466   2.556   3.951   5.487
 6523SOL     OW20467   5.858   0.230   0.032
 6523SOL    HW120468   5.900   0.144   0.061
 6523SOL    HW220469   5.845   0.289   0.112
 6524SOL     OW20470   2.212   2.202   1.312
 6524SOL    HW120471   2.170   2.282   1.269
 6524SOL    HW220472   2.141   2.149   1.359
 6525SOL     OW20473   1.332   5.067   3.627
 6525SOL    HW120474   1.236   5.088   3.643
 6525SOL    HW220475   1.350   4.971   3.646
 6526SOL     OW20476   0.462   0.001   0.818
 6526SOL    HW120477   0.456   0.050   0.905
 6526SOL    HW220478   0.392   6.951   0.813
 6527SOL     OW20479   0.571   2.321   0.472
 6527SOL    HW120480   0.545   2.410   0.509
 6527SOL    HW220481   0.650   2.285   0.522
 6528SOL     OW20482   6.059   1.189   5.591
 6528SOL    HW120483   6.061   1.138   5.505
 6528SOL    HW220484   6.136   1.161   5.648
 6529SOL     OW20485   6.539   1.345   1.994
 6529SOL    HW120486   6.540   1.287   2.076
 6529SOL    HW220487   6.633   1.361   1.964
 6530SOL     OW20488   0.606   2.399   2.258
 6530SOL    HW120489   0.690   2.434   2.298
 6530SOL    HW220490   0.559   2.474   2.210
 6531SOL     OW20491   4.276   3.430   5.829
 6531SOL    HW120492   4.370   3.451   5.855
 6531SOL    HW220493   4.237   3.364   5.894
 6532SOL     OW20494   0.944   0.833   0.846
 6532SOL    HW120495   0.967   0.919   0.799
 6532SOL    HW220496   0.952   0.757   0.782
 6533SOL     OW20497   4.568   4.018   6.625
 6533SOL    HW120498   4.648   3.965   6.654
 6533SOL    HW220499   4.587   4.060   6.536
 6534SOL     OW20500   5.637   4.571   1.923
 6534SOL    HW120501   5.584   4.623   1.856
 6534SOL    HW220502   5.582   4.557   2.006
 6535SOL     OW20503   6.233   3.340   4.625
 6535SOL    HW120504   6.135   3.348   4.643
 6535SOL    HW220505   6.277   3.292   4.700
 6536SOL     OW20506   0.633   2.892   5.431
 6536SOL    HW120507   0.610   2.915   5.525
 6536SOL    HW220508   0.550   2.867   5.381
 6537SOL     OW20509   6.178   4.753   4.898
 6537SOL    HW120510   6.272   4.748   4.932
 6537SOL    HW220511   6.178   4.801   4.810
 6538SOL     OW20512   2.068   3.921   5.061
 6538SOL    HW120513   2.056   3.882   5.152
 6538SOL    HW220514   2.165   3.940   5.046
 6539SOL     OW20515   6.541   0.705   6.657
 6539SOL    HW120516   6.569   0.795   6.625
 6539SOL    HW220517   6.452   0.681   6.619
 6540SOL     OW20518   4.080   2.712   5.984
 6540SOL    HW120519   4.011   2.774   6.020
 6540SOL    HW220520   4.061   2.691   5.888
 6541SOL     OW20521   6.501   1.374   5.006
 6541SOL    HW120522   6.543   1.456   5.046
 6541SOL    HW220523   6.403   1.391   4.993
 6542SOL     OW20524   1.598   3.022   4.902
 6542SOL    HW120525   1.691   3.047   4.931
 6542SOL    HW220526   1.538   3.019   4.982
 6543SOL     OW20527   3.677   2.006   4.842
 6543SOL    HW120528   3.654   2.042   4.932
 6543SOL    HW220529   3.723   2.077   4.788
 6544SOL     OW20530   1.056   0.302   1.257
 6544SOL    HW120531   1.031   0.398   1.262
 6544SOL    HW220532   0.976   0.247   1.234
 6545SOL     OW20533   4.201   6.886   1.521
 6545SOL    HW120534   4.108   6.909   1.494
 6545SOL    HW220535   4.265   6.922   1.453
 6546SOL     OW20536   5.439   4.422   6.254
 6546SOL    HW120537   5.538   4.428   6.252
 6546SOL    HW220538   5.403   4.479   6.328
 6547SOL     OW20539   5.620   6.060   0.058
 6547SOL    HW120540   5.566   6.131   0.013
 6547SOL    HW220541   5.559   6.004   0.115
 6548SOL     OW20542   0.655   2.701   6.040
 6548SOL    HW120543   0.667   2.722   5.943
 6548SOL    HW220544   0.558   2.697   6.062
 6549SOL     OW20545   4.772   0.013   1.775
 6549SOL    HW120546   4.711   6.979   1.716
 6549SOL    HW220547   4.731   0.021   1.866
 6550SOL     OW20548   6.507   6.890   3.165
 6550SOL    HW120549   6.409   6.870   3.166
 6550SOL    HW220550   6.522   6.986   3.188
 6551SOL     OW20551   3.117   3.437   1.084
 6551SOL    HW120552   3.048   3.456   1.154
 6551SOL    HW220553   3.080   3.371   1.018
 6552SOL     OW20554   2.242   6.725   0.546
 6552SOL    HW120555   2.276   6.687   0.633
 6552SOL    HW220556   2.154   6.769   0.561
 6553SOL     OW20557   0.178   1.348   2.602
 6553SOL    HW120558   0.210   1.266   2.555
 6553SOL    HW220559   0.117   1.322   2.677
 6554SOL     OW20560   3.142   0.990   4.387
 6554SOL    HW120561   3.190   0.979   4.300
 6554SOL    HW220562   3.055   0.941   4.383
 6555SOL     OW20563   6.123   2.009   4.982
 6555SOL    HW120564   6.053   2.046   4.922
 6555SOL    HW220565   6.099   1.915   5.009
 6556SOL     OW20566   6.042   3.243   3.284
 6556SOL    HW120567   5.979   3.318   3.303
 6556SOL    HW220568   6.035   3.216   3.188
 6557SOL     OW20569   1.319   6.664   2.559
 6557SOL    HW120570   1.280   6.657   2.467
 6557SOL    HW220571   1.271   6.736   2.610
 6558SOL     OW20572   5.698   5.266   0.226
 6558SOL    HW120573   5.695   5.300   0.320
 6558SOL    HW220574   5.695   5.166   0.227
 6559SOL     OW20575   6.589   3.372   6.659
 6559SOL    HW120576   6.597   3.272   6.655
 6559SOL    HW220577   6.554   3.399   6.749
 6560SOL     OW20578   4.978   4.817   0.366
 6560SOL    HW120579   4.929   4.811   0.279
 6560SOL    HW220580   4.987   4.913   0.392
 6561SOL     OW20581   3.911   5.032   6.992
 6561SOL    HW120582   3.938   4.936   6.983
 6561SOL    HW220583   3.992   5.090   6.995
 6562SOL     OW20584   5.778   2.506   0.751
 6562SOL    HW120585   5.804   2.488   0.657
 6562SOL    HW220586   5.818   2.593   0.781
 6563SOL     OW20587   5.107   6.774   5.204
 6563SOL    HW120588   5.183   6.832   5.173
 6563SOL    HW220589   5.120   6.753   5.301
 6564SOL     OW20590   6.975   3.989   2.694
 6564SOL    HW120591   6.986   4.061   2.763
 6564SOL    HW220592   0.042   3.943   2.679
 6565SOL     OW20593   6.366   6.808   2.096
 6565SOL    HW120594   6.330   6.901   2.085
 6565SOL    HW220595   6.290   6.746   2.113
 6566SOL     OW20596   3.562   5.773   2.506
 6566SOL    HW120597   3.591   5.722   2.587
 6566SOL    HW220598   3.482   5.830   2.529
 6567SOL     OW20599   4.359   0.868   1.695
 6567SOL    HW120600   4.383   0.875   1.599
 6567SOL    HW220601   4.330   0.958   1.729
 6568SOL     OW20602   3.755   1.259   1.839
 6568SOL    HW120603   3.790   1.323   1.907
 6568SOL    HW220604   3.692   1.307   1.778
 6569SOL     OW20605   1.010   3.354   5.622
 6569SOL    HW120606   0.912   3.359   5.643
 6569SOL    HW220607   1.058   3.311   5.698
 6570SOL     OW20608   3.951   0.086   1.835
 6570SOL    HW120609   3.938   0.150   1.911
 6570SOL    HW220610   4.028   0.116   1.779
 6571SOL     OW20611   2.819   4.763   3.445
 6571SOL    HW120612   2.790   4.739   3.538
 6571SOL    HW220613   2.742   4.751   3.382
 6572SOL     OW20614   0.517   5.224   3.808
 6572SOL    HW120615   0.602   5.171   3.814
 6572SOL    HW220616   0.475   5.229   3.898
 6573SOL     OW20617   1.814   1.067   2.949
 6573SOL    HW120618   1.785   1.034   3.039
 6573SOL    HW220619   1.735   1.071   2.888
 6574SOL     OW20620   2.225   6.005   2.497
 6574SOL    HW120621   2.210   6.041   2.589
 6574SOL    HW220622   2.277   6.072   2.444
 6575SOL     OW20623   0.064   0.241   2.794
 6575SOL    HW120624   0.055   0.326   2.742
 6575SOL    HW220625   0.138   0.249   2.860
 6576SOL     OW20626   3.574   5.243   0.208
 6576SOL    HW120627   3.531   5.188   0.280
 6576SOL    HW220628   3.587   5.336   0.240
 6577SOL     OW20629   1.930   2.258   4.043
 6577SOL    HW120630   1.869   2.337   4.053
 6577SOL    HW220631   2.021   2.281   4.077
 6578SOL     OW20632   1.515   5.241   1.111
 6578SOL    HW120633   1.455   5.237   1.032
 6578SOL    HW220634   1.584   5.313   1.097
 6579SOL     OW20635   0.060   1.044   3.466
 6579SOL    HW120636   7.015   1.100   3.517
 6579SOL    HW220637   0.140   1.099   3.443
 6580SOL     OW20638   1.164   0.330   6.901
 6580SOL    HW120639   1.216   0.278   6.968
 6580SOL    HW220640   1.066   0.317   6.917
 6581SOL     OW20641   1.516   1.808   6.995
 6581SOL    HW120642   1.591   1.760   6.950
 6581SOL    HW220643   1.431   1.793   6.945
 6582SOL     OW20644   6.605   0.535   2.919
 6582SOL    HW120645   6.607   0.445   2.962
 6582SOL    HW220646   6.694   0.580   2.931
 6583SOL     OW20647   4.423   6.922   6.315
 6583SOL    HW120648   4.404   6.885   6.406
 6583SOL    HW220649   4.442   7.020   6.322
 6584SOL     OW20650   3.642   2.667   1.080
 6584SOL    HW120651   3.561   2.627   1.123
 6584SOL    HW220652   3.615   2.740   1.018
 6585SOL     OW20653   6.072   6.884   0.717
 6585SOL    HW120654   6.066   6.942   0.798
 6585SOL    HW220655   5.999   6.909   0.653
 6586SOL     OW20656   6.111   2.258   6.055
 6586SOL    HW120657   6.146   2.318   6.127
 6586SOL    HW220658   6.112   2.163   6.086
 6587SOL     OW20659   1.336   4.323   5.569
 6587SOL    HW120660   1.334   4.413   5.526
 6587SOL    HW220661   1.430   4.301   5.597
 6588SOL     OW20662   0.475   3.213   0.392
 6588SOL    HW120663   0.441   3.307   0.381
 6588SOL    HW220664   0.570   3.216   0.423
 6589SOL     OW20665   6.334   0.921   1.467
 6589SOL    HW120666   6.323   0.981   1.547
 6589SOL    HW220667   6.245   0.907   1.424
 6590SOL     OW20668   0.787   0.890   5.431
 6590SOL    HW120669   0.772   0.886   5.332
 6590SOL    HW220670   0.870   0.840   5.454
 6591SOL     OW20671   5.088   5.434   4.626
 6591SOL    HW120672   5.070   5.380   4.543
 6591SOL    HW220673   5.080   5.531   4.604
 6592SOL     OW20674   5.169   0.558   3.211
 6592SOL    HW120675   5.079   0.565   3.255
 6592SOL    HW220676   5.194   0.462   3.200
 6593SOL     OW20677   3.025   2.135   2.538
 6593SOL    HW120678   3.054   2.040   2.521
 6593SOL    HW220679   3.006   2.180   2.451
 6594SOL     OW20680   3.869   1.535   5.991
 6594SOL    HW120681   3.956   1.500   6.025
 6594SOL    HW220682   3.802   1.539   6.066
 6595SOL     OW20683   2.249   2.092   4.624
 6595SOL    HW120684   2.175   2.076   4.690
 6595SOL    HW220685   2.335   2.060   4.662
 6596SOL     OW20686   5.112   5.553   2.806
 6596SOL    HW120687   5.126   5.651   2.789
 6596SOL    HW220688   5.014   5.533   2.807
 6597SOL     OW20689   0.958   5.678   1.947
 6597SOL    HW120690   1.020   5.713   1.877
 6597SOL    HW220691   0.906   5.601   1.909
 6598SOL     OW20692   1.873   4.266   3.957
 6598SOL    HW120693   1.868   4.293   3.861
 6598SOL    HW220694   1.934   4.329   4.006
 6599SOL     OW20695   5.714   5.858   6.890
 6599SOL    HW120696   5.698   5.946   6.933
 6599SOL    HW220697   5.797   5.817   6.928
 6600SOL     OW20698   4.923   0.531   5.711
 6600SOL    HW120699   4.901   0.563   5.802
 6600SOL    HW220700   4.886   0.439   5.698
 6601SOL     OW20701   0.849   3.107   2.676
 6601SOL    HW120702   0.792   3.188   2.693
 6601SOL    HW220703   0.884   3.111   2.583
 6602SOL     OW20704   2.008   0.315   1.208
 6602SOL    HW120705   2.019   0.247   1.136
 6602SOL    HW220706   2.097   0.336   1.248
 6603SOL     OW20707   0.754   3.128   3.802
 6603SOL    HW120708   0.809   3.169   3.730
 6603SOL    HW220709   0.755   3.187   3.883
 6604SOL     OW20710   2.605   0.207   1.926
 6604SOL    HW120711   2.623   0.161   2.013
 6604SOL    HW220712   2.561   0.295   1.944
 6605SOL     OW20713   5.924   5.409   1.656
 6605SOL    HW120714   5.951   5.318   1.625
 6605SOL    HW220715   5.979   5.435   1.736
 6606SOL     OW20716   1.158   3.520   3.463
 6606SOL    HW120717   1.156   3.442   3.526
 6606SOL    HW220718   1.232   3.508   3.397
 6607SOL     OW20719   5.798   4.636   3.921
 6607SOL    HW120720   5.877   4.680   3.879
 6607SOL    HW220721   5.816   4.538   3.931
 6608SOL     OW20722   6.989   6.821   6.841
 6608SOL    HW120723   0.055   6.869   6.823
 6608SOL    HW220724   6.918   6.858   6.781
 6609SOL     OW20725   4.993   1.842   6.115
 6609SOL    HW120726   5.003   1.927   6.167
 6609SOL    HW220727   4.989   1.764   6.178
 6610SOL     OW20728   2.597   5.469   0.789
 6610SOL    HW120729   2.497   5.479   0.795
 6610SOL    HW220730   2.640   5.517   0.865
 6611SOL     OW20731   4.925   2.109   3.745
 6611SOL    HW120732   4.833   2.123   3.709
 6611SOL    HW220733   4.982   2.189   3.723
 6612SOL     OW20734   5.734   2.366   6.145
 6612SOL    HW120735   5.662   2.414   6.195
 6612SOL    HW220736   5.782   2.304   6.207
 6613SOL     OW20737   5.179   0.740   6.366
 6613SOL    HW120738   5.146   0.806   6.433
 6613SOL    HW220739   5.124   0.657   6.370
 6614SOL     OW20740   4.740   5.628   1.890
 6614SOL    HW120741   4.808   5.657   1.957
 6614SOL    HW220742   4.769   5.656   1.798
 6615SOL     OW20743   2.981   5.440   0.453
 6615SOL    HW120744   2.953   5.456   0.358
 6615SOL    HW220745   2.900   5.436   0.511
 6616SOL     OW20746   4.351   0.527   6.270
 6616SOL    HW120747   4.392   0.435   6.263
 6616SOL    HW220748   4.399   0.579   6.340
 6617SOL     OW20749   4.119   0.631   3.478
 6617SOL    HW120750   4.047   0.562   3.491
 6617SOL    HW220751   4.084   0.706   3.423
 6618SOL     OW20752   0.674   1.575   3.300
 6618SOL    HW120753   0.610   1.651   3.312
 6618SOL    HW220754   0.648   1.499   3.361
 6619SOL     OW20755   4.785   6.906   4.309
 6619SOL    HW120756   4.824   6.821   4.344
 6619SOL    HW220757   4.705   6.887   4.253
 6620SOL     OW20758   0.718   3.782   3.369
 6620SOL    HW120759   0.634   3.749   3.410
 6620SOL    HW220760   0.771   3.706   3.332
 6621SOL     OW20761   3.974   3.256   4.936
 6621SOL    HW120762   3.916   3.181   4.905
 6621SOL    HW220763   4.050   3.268   4.873
 6622SOL     OW20764   6.276   5.625   0.968
 6622SOL    HW120765   6.223   5.669   1.040
 6622SOL    HW220766   6.261   5.672   0.881
 6623SOL     OW20767   3.450   4.305   5.643
 6623SOL    HW120768   3.474   4.218   5.601
 6623SOL    HW220769   3.530   4.366   5.641
 6624SOL     OW20770   0.709   2.563   4.874
 6624SOL    HW120771   0.741   2.573   4.780
 6624SOL    HW220772   0.724   2.469   4.904
 6625SOL     OW20773   5.936   3.066   5.515
 6625SOL    HW120774   5.901   3.130   5.446
 6625SOL    HW220775   6.017   3.105   5.558
 6626SOL     OW20776   2.811   6.748   4.594
 6626SOL    HW120777   2.862   6.681   4.541
 6626SOL    HW220778   2.781   6.823   4.533
 6627SOL     OW20779   1.550   5.915   4.590
 6627SOL    HW120780   1.556   5.957   4.500
 6627SOL    HW220781   1.643   5.896   4.624
 6628SOL     OW20782   4.932   5.654   4.018
 6628SOL    HW120783   4.966   5.560   4.022
 6628SOL    HW220784   4.874   5.665   3.938
 6629SOL     OW20785   5.092   6.291   6.828
 6629SOL    HW120786   5.164   6.248   6.881
 6629SOL    HW220787   5.129   6.366   6.774
 6630SOL     OW20788   2.728   1.385   1.979
 6630SOL    HW120789   2.711   1.481   1.959
 6630SOL    HW220790   2.644   1.333   1.966
 6631SOL     OW20791   1.603   5.015   5.825
 6631SOL    HW120792   1.648   4.984   5.742
 6631SOL    HW220793   1.646   5.100   5.857
 6632SOL     OW20794   0.969   0.333   0.967
 6632SOL    HW120795   0.990   0.270   1.041
 6632SOL    HW220796   0.923   0.414   1.004
 6633SOL     OW20797   3.043   5.736   6.283
 6633SOL    HW120798   3.030   5.637   6.277
 6633SOL    HW220799   3.138   5.756   6.308
 6634SOL     OW20800   5.156   1.941   5.896
 6634SOL    HW120801   5.066   1.930   5.939
 6634SOL    HW220802   5.227   1.940   5.966
 6635SOL     OW20803   4.736   4.650   2.564
 6635SOL    HW120804   4.693   4.620   2.649
 6635SOL    HW220805   4.734   4.750   2.559
 6636SOL     OW20806   2.972   0.048   2.439
 6636SOL    HW120807   2.958   0.124   2.375
 6636SOL    HW220808   3.020   6.994   2.392
 6637SOL     OW20809   1.657   0.464   0.765
 6637SOL    HW120810   1.756   0.451   0.772
 6637SOL    HW220811   1.637   0.561   0.751
 6638SOL     OW20812   2.910   3.483   3.542
 6638SOL    HW120813   2.962   3.481   3.457
 6638SOL    HW220814   2.814   3.499   3.522
 6639SOL     OW20815   4.418   2.804   0.783
 6639SOL    HW120816   4.407   2.754   0.868
 6639SOL    HW220817   4.435   2.739   0.708
 6640SOL     OW20818   0.746   3.086   5.296
 6640SOL    HW120819   0.675   3.124   5.237
 6640SOL    HW220820   0.712   3.003   5.340
 6641SOL     OW20821   3.976   1.875   1.104
 6641SOL    HW120822   3.961   1.971   1.125
 6641SOL    HW220823   4.049   1.839   1.162
 6642SOL     OW20824   1.868   5.458   0.686
 6642SOL    HW120825   1.824   5.377   0.648
 6642SOL    HW220826   1.819   5.540   0.655
 6643SOL     OW20827   5.388   6.058   0.666
 6643SOL    HW120828   5.328   6.020   0.595
 6643SOL    HW220829   5.468   6.100   0.623
 6644SOL     OW20830   1.996   6.562   2.345
 6644SOL    HW120831   1.971   6.605   2.432
 6644SOL    HW220832   1.948   6.475   2.336
 6645SOL     OW20833   6.144   2.950   0.575
 6645SOL    HW120834   6.050   2.925   0.598
 6645SOL    HW220835   6.180   3.013   0.644
 6646SOL     OW20836   4.148   0.722   0.278
 6646SOL    HW120837   4.100   0.641   0.309
 6646SOL    HW220838   4.222   0.696   0.216
 6647SOL     OW20839   4.671   4.986   1.014
 6647SOL    HW120840   4.681   4.951   1.107
 6647SOL    HW220841   4.678   4.911   0.949
 6648SOL     OW20842   3.065   6.324   4.505
 6648SOL    HW120843   3.101   6.308   4.597
 6648SOL    HW220844   2.973   6.285   4.498
 6649SOL     OW20845   5.706   2.672   6.485
 6649SOL    HW120846   5.768   2.604   6.525
 6649SOL    HW220847   5.760   2.749   6.450
 6650SOL     OW20848   3.827   0.781   4.966
 6650SOL    HW120849   3.736   0.742   4.948
 6650SOL    HW220850   3.858   0.752   5.056
 6651SOL     OW20851   1.067   1.535   0.225
 6651SOL    HW120852   1.048   1.522   0.127
 6651SOL    HW220853   1.020   1.464   0.277
 6652SOL     OW20854   0.772   4.411   0.118
 6652SOL    HW120855   0.745   4.466   0.197
 6652SOL    HW220856   0.842   4.345   0.146
 6653SOL     OW20857   5.127   2.934   0.381
 6653SOL    HW120858   5.194   2.959   0.311
 6653SOL    HW220859   5.040   2.912   0.337
 6654SOL     OW20860   0.349   4.802   2.855
 6654SOL    HW120861   0.353   4.849   2.766
 6654SOL    HW220862   0.258   4.764   2.868
 6655SOL     OW20863   6.469   5.438   1.385
 6655SOL    HW120864   6.467   5.493   1.468
 6655SOL    HW220865   6.381   5.392   1.372
 6656SOL     OW20866   4.361   1.609   2.671
 6656SOL    HW120867   4.442   1.564   2.635
 6656SOL    HW220868   4.279   1.559   2.644
 6657SOL     OW20869   5.232   2.506   4.584
 6657SOL    HW120870   5.283   2.463   4.509
 6657SOL    HW220871   5.276   2.484   4.671
 6658SOL     OW20872   6.447   0.282   5.188
 6658SOL    HW120873   6.402   0.208   5.138
 6658SOL    HW220874   6.521   0.320   5.134
 6659SOL     OW20875   1.053   4.975   1.929
 6659SOL    HW120876   1.109   5.028   1.865
 6659SOL    HW220877   1.103   4.893   1.957
 6660SOL     OW20878   0.815   5.701   2.763
 6660SOL    HW120879   0.730   5.748   2.742
 6660SOL    HW220880   0.890   5.743   2.711
 6661SOL     OW20881   3.003   6.523   4.252
 6661SOL    HW120882   3.080   6.499   4.312
 6661SOL    HW220883   2.918   6.519   4.304
 6662SOL     OW20884   2.492   0.471   1.936
 6662SOL    HW120885   2.537   0.540   1.880
 6662SOL    HW220886   2.418   0.514   1.988
 6663SOL     OW20887   1.690   5.679   6.075
 6663SOL    HW120888   1.763   5.642   6.018
 6663SOL    HW220889   1.665   5.770   6.043
 6664SOL     OW20890   2.079   0.948   1.758
 6664SOL    HW120891   2.103   0.970   1.664
 6664SOL    HW220892   2.125   0.864   1.785
 6665SOL     OW20893   3.040   6.850   6.327
 6665SOL    HW120894   2.953   6.893   6.352
 6665SOL    HW220895   3.074   6.889   6.242
 6666SOL     OW20896   6.205   5.769   4.803
 6666SOL    HW120897   6.301   5.745   4.788
 6666SOL    HW220898   6.150   5.686   4.809
 6667SOL     OW20899   6.797   6.452   5.472
 6667SOL    HW120900   6.771   6.355   5.472
 6667SOL    HW220901   6.831   6.477   5.381
 6668SOL     OW20902   6.758   6.271   1.587
 6668SOL    HW120903   6.813   6.214   1.526
 6668SOL    HW220904   6.688   6.215   1.631
 6669SOL     OW20905   2.663   1.632   1.955
 6669SOL    HW120906   2.615   1.711   1.917
 6669SOL    HW220907   2.716   1.660   2.035
 6670SOL     OW20908   2.890   2.036   6.830
 6670SOL    HW120909   2.920   2.029   6.734
 6670SOL    HW220910   2.954   2.093   6.881
 6671SOL     OW20911   4.900   6.407   0.752
 6671SOL    HW120912   4.849   6.326   0.725
 6671SOL    HW220913   4.938   6.393   0.843
 6672SOL     OW20914   1.447   2.384   0.375
 6672SOL    HW120915   1.461   2.355   0.280
 6672SOL    HW220916   1.355   2.359   0.404
 6673SOL     OW20917   5.312   3.338   4.072
 6673SOL    HW120918   5.354   3.328   3.981
 6673SOL    HW220919   5.213   3.325   4.065
 6674SOL     OW20920   0.414   3.248   6.354
 6674SOL    HW120921   0.475   3.226   6.430
 6674SOL    HW220922   0.464   3.301   6.286
 6675SOL     OW20923   4.425   2.373   6.892
 6675SOL    HW120924   4.388   2.291   6.849
 6675SOL    HW220925   4.385   2.384   6.983
 6676SOL     OW20926   1.263   3.942   3.092
 6676SOL    HW120927   1.169   3.969   3.113
 6676SOL    HW220928   1.296   3.879   3.162
 6677SOL     OW20929   0.707   0.894   0.284
 6677SOL    HW120930   0.690   0.796   0.286
 6677SOL    HW220931   0.656   0.935   0.209
 6678SOL     OW20932   1.922   3.968   0.341
 6678SOL    HW120933   1.892   3.879   0.376
 6678SOL    HW220934   1.945   3.960   0.244
 6679SOL     OW20935   2.401   0.848   3.748
 6679SOL    HW120936   2.414   0.816   3.654
 6679SOL    HW220937   2.342   0.929   3.747
 6680SOL     OW20938   5.034   6.632   0.703
 6680SOL    HW120939   5.119   6.626   0.755
 6680SOL    HW220940   4.979   6.550   0.719
 6681SOL     OW20941   4.326   5.446   1.273
 6681SOL    HW120942   4.417   5.483   1.255
 6681SOL    HW220943   4.261   5.520   1.287
 6682SOL     OW20944   2.721   5.412   0.076
 6682SOL    HW120945   2.819   5.395   0.081
 6682SOL    HW220946   2.703   5.509   0.094
 6683SOL     OW20947   6.220   3.761   6.661
 6683SOL    HW120948   6.305   3.797   6.622
 6683SOL    HW220949   6.142   3.805   6.618
 6684SOL     OW20950   3.282   0.304   1.695
 6684SOL    HW120951   3.368   0.254   1.704
 6684SOL    HW220952   3.252   0.302   1.600
 6685SOL     OW20953   3.876   3.550   6.436
 6685SOL    HW120954   3.941   3.559   6.361
 6685SOL    HW220955   3.890   3.462   6.481
 6686SOL     OW20956   6.139   5.667   3.628
 6686SOL    HW120957   6.219   5.710   3.586
 6686SOL    HW220958   6.111   5.588   3.574
 6687SOL     OW20959   6.741   1.923   1.409
 6687SOL    HW120960   6.832   1.965   1.412
 6687SOL    HW220961   6.707   1.911   1.502
 6688SOL     OW20962   4.111   4.429   0.995
 6688SOL    HW120963   4.077   4.523   0.989
 6688SOL    HW220964   4.039   4.370   1.030
 6689SOL     OW20965   3.572   4.439   6.152
 6689SOL    HW120966   3.532   4.434   6.060
 6689SOL    HW220967   3.672   4.443   6.145
 6690SOL     OW20968   0.973   0.547   6.232
 6690SOL    HW120969   1.048   0.519   6.172
 6690SOL    HW220970   0.958   0.646   6.223
 6691SOL     OW20971   1.907   1.119   2.535
 6691SOL    HW120972   1.935   1.131   2.439
 6691SOL    HW220973   1.980   1.072   2.584
 6692SOL     OW20974   4.196   4.627   1.849
 6692SOL    HW120975   4.099   4.643   1.832
 6692SOL    HW220976   4.228   4.551   1.793
 6693SOL     OW20977   4.678   1.590   4.964
 6693SOL    HW120978   4.700   1.609   5.060
 6693SOL    HW220979   4.659   1.676   4.917
 6694SOL     OW20980   3.647   5.606   1.570
 6694SOL    HW120981   3.619   5.701   1.556
 6694SOL    HW220982   3.612   5.550   1.494
 6695SOL     OW20983   3.151   2.040   0.588
 6695SOL    HW120984   3.086   2.079   0.654
 6695SOL    HW220985   3.240   2.028   0.633
 6696SOL     OW20986   4.012   3.904   3.794
 6696SOL    HW120987   4.030   3.882   3.890
 6696SOL    HW220988   4.074   3.976   3.763
 6697SOL     OW20989   5.185   2.355   2.396
 6697SOL    HW120990   5.157   2.291   2.325
 6697SOL    HW220991   5.285   2.355   2.403
 6698SOL     OW20992   3.344   3.632   1.457
 6698SOL    HW120993   3.396   3.702   1.409
 6698SOL    HW220994   3.406   3.560   1.488
 6699SOL     OW20995   1.876   5.653   5.876
 6699SOL    HW120996   1.868   5.723   5.805
 6699SOL    HW220997   1.863   5.563   5.836
 6700SOL     OW20998   5.614   0.557   0.811
 6700SOL    HW120999   5.649   0.651   0.821
 6700SOL    HW221000   5.644   0.502   0.888
 6701SOL     OW21001   6.104   0.005   1.426
 6701SOL    HW121002   6.059   6.977   1.502
 6701SOL    HW221003   6.123   6.960   1.352
 6702SOL     OW21004   2.099   2.063   0.953
 6702SOL    HW121005   2.127   1.970   0.930
 6702SOL    HW221006   2.085   2.070   1.051
 6703SOL     OW21007   1.609   1.477   6.206
 6703SOL    HW121008   1.592   1.567   6.165
 6703SOL    HW221009   1.674   1.487   6.281
 6704SOL     OW21010   3.525   1.775   4.395
 6704SOL    HW121011   3.427   1.779   4.416
 6704SOL    HW221012   3.578   1.799   4.477
 6705SOL     OW21013   6.062   3.333   1.462
 6705SOL    HW121014   6.136   3.290   1.514
 6705SOL    HW221015   6.100   3.406   1.405
 6706SOL     OW21016   1.275   6.267   0.874
 6706SOL    HW121017   1.345   6.284   0.944
 6706SOL    HW221018   1.269   6.169   0.856
 6707SOL     OW21019   5.923   0.449   2.628
 6707SOL    HW121020   5.963   0.519   2.570
 6707SOL    HW221021   5.889   0.373   2.571
 6708SOL     OW21022   6.259   4.187   1.671
 6708SOL    HW121023   6.247   4.242   1.589
 6708SOL    HW221024   6.174   4.139   1.692
 6709SOL     OW21025   1.354   4.512   1.883
 6709SOL    HW121026   1.365   4.431   1.941
 6709SOL    HW221027   1.353   4.594   1.940
 6710SOL     OW21028   4.475   1.345   1.665
 6710SOL    HW121029   4.421   1.328   1.582
 6710SOL    HW221030   4.420   1.400   1.728
 6711SOL     OW21031   4.310   6.274   6.498
 6711SOL    HW121032   4.279   6.303   6.408
 6711SOL    HW221033   4.234   6.276   6.562
 6712SOL     OW21034   6.505   3.745   0.547
 6712SOL    HW121035   6.437   3.817   0.534
 6712SOL    HW221036   6.479   3.665   0.493
 6713SOL     OW21037   1.288   0.560   3.928
 6713SOL    HW121038   1.208   0.590   3.980
 6713SOL    HW221039   1.366   0.552   3.989
 6714SOL     OW21040   5.750   1.233   1.070
 6714SOL    HW121041   5.696   1.309   1.108
 6714SOL    HW221042   5.809   1.268   0.998
 6715SOL     OW21043   1.428   0.966   1.205
 6715SOL    HW121044   1.356   0.904   1.174
 6715SOL    HW221045   1.444   1.037   1.137
 6716SOL     OW21046   6.689   5.655   2.382
 6716SOL    HW121047   6.601   5.684   2.344
 6716SOL    HW221048   6.743   5.735   2.407
 6717SOL     OW21049   3.360   2.629   0.025
 6717SOL    HW121050   3.459   2.621   0.010
 6717SOL    HW221051   3.336   2.583   0.110
 6718SOL     OW21052   3.913   1.512   1.402
 6718SOL    HW121053   3.899   1.510   1.501
 6718SOL    HW221054   3.898   1.605   1.368
 6719SOL     OW21055   1.987   0.284   6.950
 6719SOL    HW121056   1.955   0.376   6.971
 6719SOL    HW221057   1.931   0.217   6.998
 6720SOL     OW21058   2.894   0.802   5.428
 6720SOL    HW121059   2.949   0.749   5.365
 6720SOL    HW221060   2.799   0.805   5.396
 6721SOL     OW21061   0.297   0.458   0.484
 6721SOL    HW121062   0.311   0.363   0.511
 6721SOL    HW221063   0.201   0.484   0.496
 6722SOL     OW21064   0.111   3.233   0.393
 6722SOL    HW121065   0.141   3.138   0.394
 6722SOL    HW221066   0.098   3.266   0.486
 6723SOL     OW21067   2.004   1.652   6.634
 6723SOL    HW121068   1.998   1.593   6.714
 6723SOL    HW221069   2.100   1.673   6.615
 6724SOL     OW21070   2.207   3.138   6.195
 6724SOL    HW121071   2.220   3.039   6.189
 6724SOL    HW221072   2.255   3.183   6.119
 6725SOL     OW21073   5.843   3.002   3.022
 6725SOL    HW121074   5.853   2.906   2.998
 6725SOL    HW221075   5.922   3.054   2.988
 6726SOL     OW21076   0.547   1.695   5.185
 6726SOL    HW121077   0.525   1.615   5.129
 6726SOL    HW221078   0.549   1.668   5.282
 6727SOL     OW21079   1.161   4.936   5.508
 6727SOL    HW121080   1.177   4.917   5.411
 6727SOL    HW221081   1.139   5.033   5.519
 6728SOL     OW21082   4.156   2.144   3.440
 6728SOL    HW121083   4.095   2.177   3.512
 6728SOL    HW221084   4.106   2.139   3.354
 6729SOL     OW21085   5.788   2.295   0.939
 6729SOL    HW121086   5.727   2.218   0.924
 6729SOL    HW221087   5.767   2.368   0.873
 6730SOL     OW21088   1.333   1.196   1.403
 6730SOL    HW121089   1.372   1.138   1.331
 6730SOL    HW221090   1.262   1.145   1.451
 6731SOL     OW21091   2.026   6.630   1.391
 6731SOL    HW121092   2.000   6.612   1.486
 6731SOL    HW221093   2.107   6.689   1.388
 6732SOL     OW21094   5.364   4.315   4.549
 6732SOL    HW121095   5.296   4.325   4.622
 6732SOL    HW221096   5.362   4.220   4.516
 6733SOL     OW21097   3.698   5.559   6.701
 6733SOL    HW121098   3.722   5.622   6.628
 6733SOL    HW221099   3.608   5.584   6.739
 6734SOL     OW21100   5.070   2.096   5.262
 6734SOL    HW121101   5.098   2.184   5.301
 6734SOL    HW221102   5.102   2.022   5.320
 6735SOL     OW21103   5.755   3.655   4.566
 6735SOL    HW121104   5.714   3.742   4.539
 6735SOL    HW221105   5.807   3.667   4.651
 6736SOL     OW21106   2.815   4.759   0.740
 6736SOL    HW121107   2.736   4.698   0.731
 6736SOL    HW221108   2.800   4.840   0.683
 6737SOL     OW21109   0.641   2.582   1.155
 6737SOL    HW121110   0.711   2.654   1.156
 6737SOL    HW221111   0.552   2.623   1.134
 6738SOL     OW21112   1.354   5.814   3.414
 6738SOL    HW121113   1.359   5.784   3.318
 6738SOL    HW221114   1.407   5.751   3.471
 6739SOL     OW21115   0.027   6.902   3.221
 6739SOL    HW121116   6.992   6.937   3.145
 6739SOL    HW221117   0.074   6.819   3.192
 6740SOL     OW21118   6.337   7.018   4.135
 6740SOL    HW121119   6.366   6.947   4.071
 6740SOL    HW221120   6.417   0.045   4.171
 6741SOL     OW21121   4.662   2.088   6.197
 6741SOL    HW121122   4.571   2.055   6.175
 6741SOL    HW221123   4.723   2.070   6.119
 6742SOL     OW21124   5.765   5.477   3.751
 6742SOL    HW121125   5.716   5.479   3.664
 6742SOL    HW221126   5.801   5.568   3.772
 6743SOL     OW21127   3.850   4.094   6.610
 6743SOL    HW121128   3.772   4.157   6.602
 6743SOL    HW221129   3.923   4.124   6.548
 6744SOL     OW21130   6.728   5.673   6.087
 6744SOL    HW121131   6.670   5.631   6.157
 6744SOL    HW221132   6.706   5.770   6.079
 6745SOL     OW21133   0.234   6.156   3.756
 6745SOL    HW121134   0.218   6.242   3.707
 6745SOL    HW221135   0.320   6.116   3.725
 6746SOL     OW21136   1.620   1.679   2.362
 6746SOL    HW121137   1.557   1.692   2.286
 6746SOL    HW221138   1.568   1.669   2.447
 6747SOL     OW21139   6.649   6.731   6.384
 6747SOL    HW121140   6.677   6.818   6.424
 6747SOL    HW221141   6.727   6.669   6.380
 6748SOL     OW21142   2.953   1.635   3.807
 6748SOL    HW121143   2.905   1.680   3.882
 6748SOL    HW221144   2.919   1.541   3.798
 6749SOL     OW21145   3.484   3.863   0.983
 6749SOL    HW121146   3.446   3.891   0.895
 6749SOL    HW221147   3.581   3.889   0.987
 6750SOL     OW21148   2.753   1.744   4.011
 6750SOL    HW121149   2.773   1.756   4.108
 6750SOL    HW221150   2.691   1.667   3.999
 6751SOL     OW21151   4.637   0.568   3.607
 6751SOL    HW121152   4.667   0.659   3.577
 6751SOL    HW221153   4.547   0.548   3.568
 6752SOL     OW21154   1.810   7.014   3.192
 6752SOL    HW121155   1.736   6.960   3.231
 6752SOL    HW221156   1.773   0.063   3.130
 6753SOL     OW21157   3.596   2.112   5.663
 6753SOL    HW121158   3.585   2.178   5.589
 6753SOL    HW221159   3.661   2.147   5.730
 6754SOL     OW21160   6.110   0.813   0.957
 6754SOL    HW121161   6.032   0.754   0.936
 6754SOL    HW221162   6.077   0.905   0.980
 6755SOL     OW21163   3.091   4.825   1.216
 6755SOL    HW121164   3.111   4.884   1.294
 6755SOL    HW221165   3.099   4.878   1.131
 6756SOL     OW21166   3.138   0.923   5.816
 6756SOL    HW121167   3.155   0.865   5.895
 6756SOL    HW221168   3.216   0.919   5.753
 6757SOL     OW21169   3.622   1.777   1.636
 6757SOL    HW121170   3.608   1.872   1.661
 6757SOL    HW221171   3.600   1.764   1.539
 6758SOL     OW21172   5.444   3.379   1.371
 6758SOL    HW121173   5.402   3.309   1.313
 6758SOL    HW221174   5.385   3.395   1.450
 6759SOL     OW21175   7.001   3.062   3.174
 6759SOL    HW121176   6.940   2.997   3.219
 6759SOL    HW221177   6.947   3.129   3.123
 6760SOL     OW21178   6.158   3.756   2.651
 6760SOL    HW121179   6.069   3.720   2.678
 6760SOL    HW221180   6.226   3.682   2.650
 6761SOL     OW21181   4.864   2.739   4.858
 6761SOL    HW121182   4.766   2.718   4.866
 6761SOL    HW221183   4.880   2.794   4.776
 6762SOL     OW21184   0.607   4.340   4.303
 6762SOL    HW121185   0.677   4.272   4.286
 6762SOL    HW221186   0.547   4.309   4.377
 6763SOL     OW21187   5.292   5.272   5.356
 6763SOL    HW121188   5.205   5.245   5.314
 6763SOL    HW221189   5.368   5.238   5.301
 6764SOL     OW21190   1.567   5.886   2.512
 6764SOL    HW121191   1.469   5.903   2.511
 6764SOL    HW221192   1.608   5.921   2.428
 6765SOL     OW21193   6.526   4.381   3.732
 6765SOL    HW121194   6.576   4.463   3.702
 6765SOL    HW221195   6.518   4.383   3.832
 6766SOL     OW21196   4.517   5.950   6.721
 6766SOL    HW121197   4.433   6.002   6.737
 6766SOL    HW221198   4.588   6.011   6.686
 6767SOL     OW21199   3.200   0.614   0.827
 6767SOL    HW121200   3.265   0.620   0.751
 6767SOL    HW221201   3.233   0.549   0.895
 6768SOL     OW21202   2.172   0.661   5.842
 6768SOL    HW121203   2.225   0.642   5.759
 6768SOL    HW221204   2.134   0.753   5.838
 6769SOL     OW21205   3.361   2.273   0.804
 6769SOL    HW121206   3.268   2.284   0.840
 6769SOL    HW221207   3.375   2.177   0.778
 6770SOL     OW21208   6.860   0.809   1.879
 6770SOL    HW121209   6.900   0.867   1.809
 6770SOL    HW221210   6.923   0.734   1.900
 6771SOL     OW21211   4.524   2.426   3.323
 6771SOL    HW121212   4.484   2.334   3.320
 6771SOL    HW221213   4.472   2.487   3.265
 6772SOL     OW21214   2.983   1.230   3.017
 6772SOL    HW121215   2.993   1.330   3.024
 6772SOL    HW221216   3.051   1.186   3.076
 6773SOL     OW21217   6.545   4.902   1.657
 6773SOL    HW121218   6.503   4.913   1.567
 6773SOL    HW221219   6.631   4.852   1.648
 6774SOL     OW21220   0.496   3.009   6.203
 6774SOL    HW121221   0.479   3.098   6.246
 6774SOL    HW221222   0.593   2.985   6.214
 6775SOL     OW21223   2.390   3.294   1.642
 6775SOL    HW121224   2.478   3.249   1.654
 6775SOL    HW221225   2.371   3.352   1.722
 6776SOL     OW21226   4.615   4.579   0.006
 6776SOL    HW121227   4.637   4.580   0.103
 6776SOL    HW221228   4.589   4.487   6.998
 6777SOL     OW21229   3.886   3.939   6.846
 6777SOL    HW121230   3.844   3.886   6.773
 6777SOL    HW221231   3.978   3.968   6.817
 6778SOL     OW21232   6.971   4.268   1.926
 6778SOL    HW121233   6.949   4.259   2.023
 6778SOL    HW221234   0.047   4.248   1.911
 6779SOL     OW21235   6.342   4.177   6.190
 6779SOL    HW121236   6.358   4.180   6.091
 6779SOL    HW221237   6.410   4.118   6.233
 6780SOL     OW21238   0.654   1.767   2.954
 6780SOL    HW121239   0.589   1.720   2.895
 6780SOL    HW221240   0.696   1.843   2.904
 6781SOL     OW21241   5.767   6.959   4.753
 6781SOL    HW121242   5.813   6.969   4.841
 6781SOL    HW221243   5.685   7.017   4.751
 6782SOL     OW21244   0.181   0.234   3.028
 6782SOL    HW121245   0.235   0.170   3.082
 6782SOL    HW221246   0.190   0.326   3.067
 6783SOL     OW21247   6.956   0.377   6.600
 6783SOL    HW121248   6.863   0.377   6.638
 6783SOL    HW221249   0.002   0.369   6.674
 6784SOL     OW21250   3.303   3.880   0.549
 6784SOL    HW121251   3.351   3.923   0.472
 6784SOL    HW221252   3.206   3.903   0.544
 6785SOL     OW21253   5.182   4.405   3.023
 6785SOL    HW121254   5.270   4.424   2.979
 6785SOL    HW221255   5.166   4.307   3.025
 6786SOL     OW21256   1.097   1.673   6.786
 6786SOL    HW121257   1.004   1.696   6.758
 6786SOL    HW221258   1.134   1.746   6.843
 6787SOL     OW21259   1.309   2.740   0.467
 6787SOL    HW121260   1.243   2.724   0.540
 6787SOL    HW221261   1.358   2.826   0.485
 6788SOL     OW21262   2.394   3.644   1.644
 6788SOL    HW121263   2.491   3.655   1.664
 6788SOL    HW221264   2.353   3.580   1.708
 6789SOL     OW21265   0.377   6.742   2.597
 6789SOL    HW121266   0.343   6.650   2.574
 6789SOL    HW221267   0.416   6.741   2.689
 6790SOL     OW21268   1.131   4.343   0.811
 6790SOL    HW121269   1.049   4.315   0.761
 6790SOL    HW221270   1.143   4.284   0.891
 6791SOL     OW21271   3.883   2.599   1.187
 6791SOL    HW121272   3.803   2.625   1.134
 6791SOL    HW221273   3.863   2.516   1.239
 6792SOL     OW21274   6.841   6.174   5.903
 6792SOL    HW121275   6.857   6.151   5.999
 6792SOL    HW221276   6.875   6.100   5.845
 6793SOL     OW21277   0.897   2.148   0.343
 6793SOL    HW121278   0.818   2.159   0.282
 6793SOL    HW221279   0.979   2.133   0.289
 6794SOL     OW21280   5.422   1.550   5.155
 6794SOL    HW121281   5.451   1.645   5.148
 6794SOL    HW221282   5.486   1.499   5.212
 6795SOL     OW21283   2.342   5.813   0.735
 6795SOL    HW121284   2.393   5.874   0.795
 6795SOL    HW221285   2.401   5.784   0.660
 6796SOL     OW21286   6.087   0.803   2.678
 6796SOL    HW121287   6.164   0.770   2.733
 6796SOL    HW221288   6.037   0.873   2.730
 6797SOL     OW21289   5.136   3.439   1.328
 6797SOL    HW121290   5.148   3.443   1.229
 6797SOL    HW221291   5.206   3.495   1.373
 6798SOL     OW21292   5.620   6.033   2.838
 6798SOL    HW121293   5.710   6.034   2.794
 6798SOL    HW221294   5.631   6.029   2.937
 6799SOL     OW21295   6.481   5.737   0.059
 6799SOL    HW121296   6.481   5.669   7.007
 6799SOL    HW221297   6.515   5.824   0.024
 6800SOL     OW21298   2.277   4.266   1.106
 6800SOL    HW121299   2.273   4.229   1.013
 6800SOL    HW221300   2.336   4.209   1.162
 6801SOL     OW21301   1.536   1.298   2.277
 6801SOL    HW121302   1.605   1.344   2.222
 6801SOL    HW221303   1.447   1.304   2.231
 6802SOL     OW21304   3.054   5.760   0.432
 6802SOL    HW121305   3.094   5.820   0.501
 6802SOL    HW221306   3.034   5.671   0.473
 6803SOL     OW21307   4.338   2.507   6.611
 6803SOL    HW121308   4.248   2.474   6.637
 6803SOL    HW221309   4.408   2.463   6.667
 6804SOL     OW21310   2.552   5.286   3.706
 6804SOL    HW121311   2.645   5.315   3.684
 6804SOL    HW221312   2.487   5.352   3.669
 6805SOL     OW21313   5.752   5.580   4.768
 6805SOL    HW121314   5.734   5.519   4.845
 6805SOL    HW221315   5.807   5.658   4.799
 6806SOL     OW21316   5.555   1.038   3.764
 6806SOL    HW121317   5.593   1.023   3.855
 6806SOL    HW221318   5.478   0.976   3.749
 6807SOL     OW21319   2.873   2.906   1.048
 6807SOL    HW121320   2.912   2.943   1.132
 6807SOL    HW221321   2.795   2.962   1.019
 6808SOL     OW21322   0.074   2.671   5.341
 6808SOL    HW121323   0.133   2.711   5.270
 6808SOL    HW221324   7.006   2.718   5.341
 6809SOL     OW21325   1.874   3.427   1.160
 6809SOL    HW121326   1.845   3.475   1.076
 6809SOL    HW221327   1.917   3.341   1.135
 6810SOL     OW21328   1.610   0.153   1.857
 6810SOL    HW121329   1.647   0.064   1.832
 6810SOL    HW221330   1.514   0.144   1.881
 6811SOL     OW21331   4.845   3.802   6.990
 6811SOL    HW121332   4.855   3.888   0.018
 6811SOL    HW221333   4.796   3.736   0.028
 6812SOL     OW21334   3.565   3.637   3.141
 6812SOL    HW121335   3.620   3.557   3.116
 6812SOL    HW221336   3.473   3.606   3.168
 6813SOL     OW21337   4.912   1.906   2.281
 6813SOL    HW121338   4.863   1.965   2.344
 6813SOL    HW221339   4.903   1.810   2.310
 6814SOL     OW21340   3.060   3.051   0.706
 6814SOL    HW121341   2.996   3.011   0.640
 6814SOL    HW221342   3.105   2.977   0.757
 6815SOL     OW21343   3.346   0.663   1.126
 6815SOL    HW121344   3.293   0.674   1.210
 6815SOL    HW221345   3.441   0.644   1.149
 6816SOL     OW21346   0.166   5.990   6.524
 6816SOL    HW121347   0.187   6.088   6.527
 6816SOL    HW221348   0.146   5.963   6.430
 6817SOL     OW21349   0.038   1.909   5.192
 6817SOL    HW121350   0.006   1.970   5.264
 6817SOL    HW221351   0.034   1.957   5.104
 6818SOL     OW21352   2.507   5.732   1.381
 6818SOL    HW121353   2.440   5.782   1.326
 6818SOL    HW221354   2.464   5.704   1.467
 6819SOL     OW21355   4.158   1.439   4.396
 6819SOL    HW121356   4.175   1.367   4.328
 6819SOL    HW221357   4.201   1.524   4.366
 6820SOL     OW21358   1.116   5.256   3.016
 6820SOL    HW121359   1.212   5.228   3.015
 6820SOL    HW221360   1.066   5.204   2.946
 6821SOL     OW21361   2.997   1.653   5.181
 6821SOL    HW121362   2.973   1.609   5.095
 6821SOL    HW221363   3.094   1.677   5.181
 6822SOL     OW21364   5.801   1.994   5.821
 6822SOL    HW121365   5.842   1.973   5.732
 6822SOL    HW221366   5.705   1.963   5.822
 6823SOL     OW21367   3.849   3.429   3.894
 6823SOL    HW121368   3.913   3.506   3.895
 6823SOL    HW221369   3.829   3.401   3.988
 6824SOL     OW21370   0.823   3.126   6.297
 6824SOL    HW121371   0.817   3.217   6.337
 6824SOL    HW221372   0.868   3.064   6.361
 6825SOL     OW21373   5.280   6.402   2.482
 6825SOL    HW121374   5.328   6.487   2.459
 6825SOL    HW221375   5.227   6.371   2.403
 6826SOL     OW21376   2.265   4.149   2.805
 6826SOL    HW121377   2.210   4.082   2.756
 6826SOL    HW221378   2.334   4.188   2.743
 6827SOL     OW21379   4.978   6.203   0.227
 6827SOL    HW121380   5.009   6.198   0.132
 6827SOL    HW221381   5.031   6.139   0.283
 6828SOL     OW21382   2.476   1.832   1.507
 6828SOL    HW121383   2.408   1.792   1.445
 6828SOL    HW221384   2.536   1.893   1.455
 6829SOL     OW21385   4.681   0.055   4.502
 6829SOL    HW121386   4.718   7.012   4.434
 6829SOL    HW221387   4.713   0.028   4.593
 6830SOL     OW21388   5.751   1.410   3.730
 6830SOL    HW121389   5.807   1.344   3.681
 6830SOL    HW221390   5.657   1.379   3.733
 6831SOL     OW21391   1.089   0.140   5.632
 6831SOL    HW121392   1.031   0.203   5.581
 6831SOL    HW221393   1.175   0.186   5.656
 6832SOL     OW21394   2.931   4.243   1.429
 6832SOL    HW121395   2.911   4.251   1.527
 6832SOL    HW221396   2.941   4.146   1.406
 6833SOL     OW21397   4.441   4.797   6.958
 6833SOL    HW121398   4.492   4.718   6.992
 6833SOL    HW221399   4.364   4.815   7.019
 6834SOL     OW21400   5.279   6.807   1.458
 6834SOL    HW121401   5.343   6.881   1.478
 6834SOL    HW221402   5.192   6.845   1.427
 6835SOL     OW21403   4.371   6.994   5.240
 6835SOL    HW121404   4.276   6.969   5.261
 6835SOL    HW221405   4.430   6.914   5.256
 6836SOL     OW21406   3.403   5.555   0.396
 6836SOL    HW121407   3.369   5.484   0.459
 6836SOL    HW221408   3.380   5.645   0.432
 6837SOL     OW21409   1.248   2.298   2.315
 6837SOL    HW121410   1.293   2.379   2.353
 6837SOL    HW221411   1.308   2.256   2.247
 6838SOL     OW21412   2.037   6.257   1.015
 6838SOL    HW121413   2.007   6.333   0.957
 6838SOL    HW221414   2.061   6.293   1.105
 6839SOL     OW21415   4.744   1.114   6.877
 6839SOL    HW121416   4.827   1.169   6.889
 6839SOL    HW221417   4.767   1.025   6.840
 6840SOL     OW21418   2.451   1.674   5.188
 6840SOL    HW121419   2.460   1.682   5.089
 6840SOL    HW221420   2.463   1.764   5.230
 6841SOL     OW21421   5.150   3.784   6.500
 6841SOL    HW121422   5.137   3.705   6.559
 6841SOL    HW221423   5.130   3.759   6.405
 6842SOL     OW21424   2.803   4.654   1.143
 6842SOL    HW121425   2.813   4.555   1.148
 6842SOL    HW221426   2.709   4.678   1.122
 6843SOL     OW21427   5.690   6.718   6.839
 6843SOL    HW121428   5.649   6.758   6.756
 6843SOL    HW221429   5.630   6.737   6.917
 6844SOL     OW21430   5.469   0.973   4.758
 6844SOL    HW121431   5.420   1.043   4.706
 6844SOL    HW221432   5.495   0.899   4.697
 6845SOL     OW21433   6.114   3.336   2.792
 6845SOL    HW121434   6.117   3.423   2.842
 6845SOL    HW221435   6.181   3.337   2.718
 6846SOL     OW21436   3.020   4.654   6.793
 6846SOL    HW121437   3.036   4.665   6.695
 6846SOL    HW221438   2.921   4.650   6.810
 6847SOL     OW21439   0.039   3.703   4.914
 6847SOL    HW121440   0.137   3.717   4.929
 6847SOL    HW221441   0.002   3.780   4.862
 6848SOL     OW21442   5.088   4.326   3.927
 6848SOL    HW121443   5.004   4.280   3.955
 6848SOL    HW221444   5.105   4.404   3.986
 6849SOL     OW21445   3.540   4.036   6.317
 6849SOL    HW121446   3.543   4.020   6.219
 6849SOL    HW221447   3.550   4.134   6.335
 6850SOL     OW21448   4.418   2.419   2.972
 6850SOL    HW121449   4.347   2.419   3.043
 6850SOL    HW221450   4.481   2.344   2.989
 6851SOL     OW21451   1.340   2.732   2.695
 6851SOL    HW121452   1.282   2.702   2.620
 6851SOL    HW221453   1.315   2.684   2.779
 6852SOL     OW21454   2.640   5.551   1.239
 6852SOL    HW121455   2.616   5.566   1.144
 6852SOL    HW221456   2.596   5.619   1.297
 6853SOL     OW21457   5.391   3.832   6.122
 6853SOL    HW121458   5.478   3.787   6.140
 6853SOL    HW221459   5.406   3.931   6.112
 6854SOL     OW21460   5.873   0.019   5.816
 6854SOL    HW121461   5.944   0.027   5.886
 6854SOL    HW221462   5.783   0.013   5.860
 6855SOL     OW21463   4.543   5.803   3.744
 6855SOL    HW121464   4.546   5.889   3.796
 6855SOL    HW221465   4.600   5.812   3.663
 6856SOL     OW21466   0.319   2.332   5.691
 6856SOL    HW121467   0.232   2.293   5.661
 6856SOL    HW221468   0.373   2.358   5.611
 6857SOL     OW21469   0.952   3.169   6.943
 6857SOL    HW121470   1.028   3.211   6.993
 6857SOL    HW221471   0.988   3.115   6.867
 6858SOL     OW21472   3.405   4.543   1.671
 6858SOL    HW121473   3.308   4.564   1.655
 6858SOL    HW221474   3.446   4.617   1.724
 6859SOL     OW21475   0.658   1.068   1.999
 6859SOL    HW121476   0.736   1.077   2.061
 6859SOL    HW221477   0.672   1.125   1.919
 6860SOL     OW21478   6.808   4.819   1.941
 6860SOL    HW121479   6.853   4.745   1.891
 6860SOL    HW221480   6.867   4.900   1.943
 6861SOL     OW21481   4.923   3.480   5.995
 6861SOL    HW121482   4.848   3.459   5.932
 6861SOL    HW221483   4.979   3.552   5.957
 6862SOL     OW21484   0.787   5.023   5.737
 6862SOL    HW121485   0.717   5.022   5.808
 6862SOL    HW221486   0.836   4.936   5.736
 6863SOL     OW21487   6.894   5.980   5.445
 6863SOL    HW121488   6.916   5.946   5.354
 6863SOL    HW221489   6.916   5.911   5.514
 6864SOL     OW21490   2.115   4.501   5.729
 6864SOL    HW121491   2.139   4.507   5.632
 6864SOL    HW221492   2.042   4.566   5.749
 6865SOL     OW21493   1.711   0.319   5.493
 6865SOL    HW121494   1.792   0.262   5.480
 6865SOL    HW221495   1.723   0.374   5.576
 6866SOL     OW21496   6.217   4.792   2.388
 6866SOL    HW121497   6.310   4.797   2.353
 6866SOL    HW221498   6.212   4.841   2.475
 6867SOL     OW21499   1.843   4.100   1.254
 6867SOL    HW121500   1.917   4.045   1.217
 6867SOL    HW221501   1.840   4.090   1.354
 6868SOL     OW21502   2.493   6.043   5.217
 6868SOL    HW121503   2.552   6.097   5.278
 6868SOL    HW221504   2.541   5.959   5.191
 6869SOL     OW21505   4.450   0.409   5.786
 6869SOL    HW121506   4.402   0.323   5.770
 6869SOL    HW221507   4.408   0.458   5.862
 6870SOL     OW21508   0.684   3.686   0.408
 6870SOL    HW121509   0.616   3.728   0.349
 6870SOL    HW221510   0.639   3.644   0.487
 6871SOL     OW21511   0.120   3.863   2.943
 6871SOL    HW121512   0.183   3.931   2.905
 6871SOL    HW221513   0.114   3.786   2.880
 6872SOL     OW21514   0.897   2.516   2.209
 6872SOL    HW121515   0.834   2.565   2.149
 6872SOL    HW221516   0.981   2.569   2.221
 6873SOL     OW21517   1.067   4.028   3.567
 6873SOL    HW121518   0.991   4.036   3.503
 6873SOL    HW221519   1.102   3.934   3.566
 6874SOL     OW21520   6.305   6.084   3.472
 6874SOL    HW121521   6.207   6.100   3.474
 6874SOL    HW221522   6.354   6.171   3.470
 6875SOL     OW21523   1.939   1.934   2.195
 6875SOL    HW121524   1.943   1.880   2.111
 6875SOL    HW221525   2.010   2.004   2.194
 6876SOL     OW21526   3.201   0.208   3.654
 6876SOL    HW121527   3.275   0.216   3.587
 6876SOL    HW221528   3.239   0.198   3.745
 6877SOL     OW21529   2.835   3.923   1.652
 6877SOL    HW121530   2.835   4.023   1.647
 6877SOL    HW221531   2.838   3.894   1.747
 6878SOL     OW21532   2.299   1.739   3.885
 6878SOL    HW121533   2.384   1.756   3.835
 6878SOL    HW221534   2.308   1.772   3.979
 6879SOL     OW21535   2.208   2.449   7.015
 6879SOL    HW121536   2.257   2.520   6.964
 6879SOL    HW221537   2.137   2.492   0.051
 6880SOL     OW21538   1.359   6.283   6.163
 6880SOL    HW121539   1.350   6.356   6.095
 6880SOL    HW221540   1.411   6.207   6.123
 6881SOL     OW21541   1.674   3.547   1.513
 6881SOL    HW121542   1.703   3.622   1.455
 6881SOL    HW221543   1.624   3.479   1.458
 6882SOL     OW21544   2.825   1.313   0.347
 6882SOL    HW121545   2.761   1.269   0.410
 6882SOL    HW221546   2.775   1.343   0.265
 6883SOL     OW21547   5.447   0.809   5.943
 6883SOL    HW121548   5.390   0.777   6.018
 6883SOL    HW221549   5.449   0.909   5.942
 6884SOL     OW21550   1.539   4.144   2.925
 6884SOL    HW121551   1.528   4.227   2.870
 6884SOL    HW221552   1.489   4.069   2.882
 6885SOL     OW21553   4.912   5.066   4.061
 6885SOL    HW121554   4.869   5.106   4.142
 6885SOL    HW221555   4.867   4.979   4.039
 6886SOL     OW21556   6.789   1.461   4.940
 6886SOL    HW121557   6.721   1.523   4.980
 6886SOL    HW221558   6.769   1.367   4.969
 6887SOL     OW21559   4.530   5.731   0.161
 6887SOL    HW121560   4.487   5.734   0.072
 6887SOL    HW221561   4.595   5.808   0.170
 6888SOL     OW21562   5.121   4.425   5.970
 6888SOL    HW121563   5.069   4.461   5.892
 6888SOL    HW221564   5.214   4.463   5.969
 6889SOL     OW21565   1.661   2.618   5.825
 6889SOL    HW121566   1.689   2.593   5.918
 6889SOL    HW221567   1.562   2.635   5.823
 6890SOL     OW21568   3.769   5.771   2.793
 6890SOL    HW121569   3.681   5.788   2.838
 6890SOL    HW221570   3.766   5.683   2.747
 6891SOL     OW21571   2.555   3.006   1.162
 6891SOL    HW121572   2.595   2.961   1.082
 6891SOL    HW221573   2.559   3.105   1.150
 6892SOL     OW21574   3.311   1.114   3.769
 6892SOL    HW121575   3.331   1.209   3.790
 6892SOL    HW221576   3.313   1.100   3.670
 6893SOL     OW21577   5.877   3.431   0.231
 6893SOL    HW121578   5.922   3.366   0.292
 6893SOL    HW221579   5.788   3.456   0.267
 6894SOL     OW21580   5.335   4.231   1.389
 6894SOL    HW121581   5.406   4.275   1.334
 6894SOL    HW221582   5.315   4.140   1.352
 6895SOL     OW21583   2.046   6.123   0.797
 6895SOL    HW121584   2.042   6.160   0.890
 6895SOL    HW221585   1.963   6.150   0.748
 6896SOL     OW21586   3.082   1.266   3.546
 6896SOL    HW121587   3.046   1.287   3.456
 6896SOL    HW221588   3.180   1.250   3.540
 6897SOL     OW21589   4.804   4.027   5.106
 6897SOL    HW121590   4.833   4.041   5.012
 6897SOL    HW221591   4.874   3.976   5.156
 6898SOL     OW21592   3.243   1.097   1.788
 6898SOL    HW121593   3.290   1.078   1.702
 6898SOL    HW221594   3.308   1.094   1.863
 6899SOL     OW21595   4.872   6.290   3.026
 6899SOL    HW121596   4.780   6.297   3.064
 6899SOL    HW221597   4.891   6.371   2.970
 6900SOL     OW21598   0.049   4.951   6.030
 6900SOL    HW121599   0.126   5.005   5.995
 6900SOL    HW221600   6.989   4.967   5.973
 6901SOL     OW21601   4.658   5.467   6.579
 6901SOL    HW121602   4.633   5.523   6.500
 6901SOL    HW221603   4.620   5.375   6.567
 6902SOL     OW21604   6.747   6.183   5.539
 6902SOL    HW121605   6.782   6.091   5.523
 6902SOL    HW221606   6.647   6.181   5.545
 6903SOL     OW21607   3.132   5.152   5.205
 6903SOL    HW121608   3.041   5.156   5.165
 6903SOL    HW221609   3.156   5.242   5.242
 6904SOL     OW21610   6.828   6.366   5.138
 6904SOL    HW121611   6.728   6.376   5.140
 6904SOL    HW221612   6.854   6.278   5.178
 6905SOL     OW21613   5.911   5.309   6.783
 6905SOL    HW121614   5.891   5.307   6.881
 6905SOL    HW221615   5.949   5.398   6.758
 6906SOL     OW21616   3.115   1.642   3.346
 6906SOL    HW121617   3.154   1.554   3.319
 6906SOL    HW221618   3.183   1.694   3.398
 6907SOL     OW21619   6.190   2.265   1.457
 6907SOL    HW121620   6.229   2.174   1.447
 6907SOL    HW221621   6.196   2.314   1.370
 6908SOL     OW21622   2.190   4.889   6.924
 6908SOL    HW121623   2.191   4.907   0.003
 6908SOL    HW221624   2.261   4.823   6.902
 6909SOL     OW21625   5.194   5.012   2.121
 6909SOL    HW121626   5.185   5.029   2.023
 6909SOL    HW221627   5.103   5.009   2.162
 6910SOL     OW21628   1.546   2.792   3.099
 6910SOL    HW121629   1.532   2.706   3.050
 6910SOL    HW221630   1.508   2.867   3.045
 6911SOL     OW21631   4.044   0.016   5.114
 6911SOL    HW121632   3.977   0.066   5.060
 6911SOL    HW221633   4.071   6.953   5.065
 6912SOL     OW21634   2.597   3.296   6.363
 6912SOL    HW121635   2.692   3.266   6.360
 6912SOL    HW221636   2.579   3.356   6.285
 6913SOL     OW21637   5.106   6.139   4.849
 6913SOL    HW121638   5.063   6.072   4.788
 6913SOL    HW221639   5.111   6.101   4.941
 6914SOL     OW21640   6.001   4.238   2.351
 6914SOL    HW121641   6.069   4.197   2.290
 6914SOL    HW221642   6.047   4.280   2.428
 6915SOL     OW21643   1.190   2.833   2.037
 6915SOL    HW121644   1.118   2.797   1.977
 6915SOL    HW221645   1.156   2.839   2.130
 6916SOL     OW21646   5.365   1.537   5.489
 6916SOL    HW121647   5.278   1.498   5.459
 6916SOL    HW221648   5.426   1.464   5.519
 6917SOL     OW21649   4.472   5.791   2.015
 6917SOL    HW121650   4.562   5.753   1.992
 6917SOL    HW221651   4.411   5.786   1.936
 6918SOL     OW21652   0.514   2.754   2.844
 6918SOL    HW121653   0.445   2.826   2.847
 6918SOL    HW221654   0.604   2.795   2.829
 6919SOL     OW21655   6.361   6.168   3.031
 6919SOL    HW121656   6.447   6.137   3.071
 6919SOL    HW221657   6.340   6.260   3.063
 6920SOL     OW21658   5.572   6.789   5.801
 6920SOL    HW121659   5.608   6.862   5.858
 6920SOL    HW221660   5.646   6.731   5.768
 6921SOL     OW21661   4.050   0.242   4.079
 6921SOL    HW121662   4.141   0.202   4.086
 6921SOL    HW221663   3.983   0.178   4.118
 6922SOL     OW21664   1.708   6.253   4.908
 6922SOL    HW121665   1.627   6.252   4.967
 6922SOL    HW221666   1.755   6.164   4.916
 6923SOL     OW21667   5.899   6.604   2.472
 6923SOL    HW121668   5.946   6.655   2.400
 6923SOL    HW221669   5.844   6.667   2.527
 6924SOL     OW21670   3.079   5.453   0.910
 6924SOL    HW121671   3.115   5.416   0.996
 6924SOL    HW221672   3.008   5.392   0.875
 6925SOL     OW21673   4.685   5.881   5.988
 6925SOL    HW121674   4.614   5.941   5.950
 6925SOL    HW221675   4.775   5.918   5.964
 6926SOL     OW21676   2.263   2.121   0.381
 6926SOL    HW121677   2.192   2.059   0.412
 6926SOL    HW221678   2.236   2.163   0.295
 6927SOL     OW21679   3.741   1.408   0.184
 6927SOL    HW121680   3.717   1.374   0.275
 6927SOL    HW221681   3.834   1.444   0.185
 6928SOL     OW21682   5.056   5.805   1.190
 6928SOL    HW121683   4.960   5.779   1.188
 6928SOL    HW221684   5.086   5.818   1.284
 6929SOL     OW21685   5.386   5.963   1.554
 6929SOL    HW121686   5.328   6.018   1.615
 6929SOL    HW221687   5.467   6.016   1.530
 6930SOL     OW21688   0.661   1.070   0.495
 6930SOL    HW121689   0.723   1.063   0.573
 6930SOL    HW221690   0.679   0.994   0.432
 6931SOL     OW21691   1.761   2.057   0.985
 6931SOL    HW121692   1.831   2.039   1.055
 6931SOL    HW221693   1.683   1.996   1.000
 6932SOL     OW21694   4.938   5.251   1.263
 6932SOL    HW121695   4.928   5.342   1.223
 6932SOL    HW221696   5.035   5.226   1.267
 6933SOL     OW21697   3.781   6.641   6.227
 6933SOL    HW121698   3.851   6.659   6.157
 6933SOL    HW221699   3.747   6.728   6.263
 6934SOL     OW21700   5.105   3.462   6.249
 6934SOL    HW121701   5.025   3.463   6.189
 6934SOL    HW221702   5.149   3.552   6.247
 6935SOL     OW21703   4.397   5.625   2.744
 6935SOL    HW121704   4.435   5.548   2.797
 6935SOL    HW221705   4.465   5.656   2.678
 6936SOL     OW21706   0.315   2.097   4.139
 6936SOL    HW121707   0.268   2.063   4.058
 6936SOL    HW221708   0.410   2.119   4.115
 6937SOL     OW21709   5.717   6.167   1.036
 6937SOL    HW121710   5.638   6.106   1.024
 6937SOL    HW221711   5.771   6.168   0.952
 6938SOL     OW21712   0.784   1.702   4.526
 6938SOL    HW121713   0.859   1.693   4.461
 6938SOL    HW221714   0.769   1.799   4.546
 6939SOL     OW21715   6.456   5.503   3.272
 6939SOL    HW121716   6.549   5.471   3.255
 6939SOL    HW221717   6.395   5.467   3.202
 6940SOL     OW21718   4.580   6.564   0.323
 6940SOL    HW121719   4.571   6.652   0.371
 6940SOL    HW221720   4.663   6.518   0.356
 6941SOL     OW21721   3.087   3.479   2.315
 6941SOL    HW121722   3.052   3.397   2.360
 6941SOL    HW221723   3.182   3.494   2.341
 6942SOL     OW21724   6.053   6.651   1.856
 6942SOL    HW121725   6.122   6.595   1.809
 6942SOL    HW221726   5.994   6.695   1.788
 6943SOL     OW21727   4.501   4.678   0.567
 6943SOL    HW121728   4.490   4.774   0.542
 6943SOL    HW221729   4.435   4.654   0.638
 6944SOL     OW21730   0.951   4.936   6.119
 6944SOL    HW121731   0.960   5.031   6.148
 6944SOL    HW221732   1.040   4.903   6.086
 6945SOL     OW21733   6.682   2.357   0.786
 6945SOL    HW121734   6.673   2.372   0.884
 6945SOL    HW221735   6.723   2.268   0.770
 6946SOL     OW21736   3.690   6.183   1.893
 6946SOL    HW121737   3.680   6.083   1.886
 6946SOL    HW221738   3.636   6.216   1.970
 6947SOL     OW21739   3.832   5.492   5.969
 6947SOL    HW121740   3.902   5.559   5.943
 6947SOL    HW221741   3.752   5.502   5.910
 6948SOL     OW21742   0.476   6.017   1.437
 6948SOL    HW121743   0.467   5.939   1.499
 6948SOL    HW221744   0.466   6.102   1.488
 6949SOL     OW21745   2.721   2.409   3.046
 6949SOL    HW121746   2.709   2.400   2.948
 6949SOL    HW221747   2.683   2.496   3.077
 6950SOL     OW21748   1.674   0.222   4.461
 6950SOL    HW121749   1.610   0.176   4.399
 6950SOL    HW221750   1.714   0.155   4.523
 6951SOL     OW21751   6.435   5.615   6.620
 6951SOL    HW121752   6.526   5.650   6.640
 6951SOL    HW221753   6.387   5.678   6.559
 6952SOL     OW21754   2.562   4.524   2.934
 6952SOL    HW121755   2.655   4.558   2.925
 6952SOL    HW221756   2.513   4.538   2.848
 6953SOL     OW21757   5.177   6.695   0.483
 6953SOL    HW121758   5.142   6.708   0.575
 6953SOL    HW221759   5.132   6.616   0.441
 6954SOL     OW21760   0.179   3.468   1.480
 6954SOL    HW121761   0.197   3.565   1.468
 6954SOL    HW221762   0.080   3.452   1.478
 6955SOL     OW21763   4.936   0.448   2.126
 6955SOL    HW121764   4.850   0.396   2.132
 6955SOL    HW221765   4.932   0.511   2.049
 6956SOL     OW21766   5.621   5.595   2.748
 6956SOL    HW121767   5.675   5.665   2.703
 6956SOL    HW221768   5.531   5.589   2.705
 6957SOL     OW21769   5.642   6.129   6.693
 6957SOL    HW121770   5.710   6.164   6.758
 6957SOL    HW221771   5.689   6.095   6.611
 6958SOL     OW21772   3.498   3.381   4.149
 6958SOL    HW121773   3.414   3.328   4.146
 6958SOL    HW221774   3.480   3.475   4.123
 6959SOL     OW21775   1.674   4.076   2.577
 6959SOL    HW121776   1.766   4.089   2.615
 6959SOL    HW221777   1.652   3.978   2.575
 6960SOL     OW21778   2.013   4.085   0.944
 6960SOL    HW121779   1.973   4.153   1.005
 6960SOL    HW221780   2.030   4.001   0.995
 6961SOL     OW21781   5.157   1.256   4.801
 6961SOL    HW121782   5.174   1.194   4.877
 6961SOL    HW221783   5.220   1.233   4.726
 6962SOL     OW21784   4.110   6.198   0.852
 6962SOL    HW121785   4.074   6.267   0.789
 6962SOL    HW221786   4.137   6.242   0.938
 6963SOL     OW21787   5.470   5.474   6.788
 6963SOL    HW121788   5.434   5.381   6.783
 6963SOL    HW221789   5.397   5.537   6.815
 6964SOL     OW21790   3.257   0.024   5.587
 6964SOL    HW121791   3.331   0.074   5.542
 6964SOL    HW221792   3.210   0.084   5.651
 6965SOL     OW21793   1.382   1.872   6.563
 6965SOL    HW121794   1.462   1.931   6.550
 6965SOL    HW221795   1.400   1.782   6.522
 6966SOL     OW21796   1.168   0.915   2.373
 6966SOL    HW121797   1.108   0.853   2.425
 6966SOL    HW221798   1.231   0.960   2.435
 6967SOL     OW21799   3.680   1.610   5.443
 6967SOL    HW121800   3.654   1.697   5.485
 6967SOL    HW221801   3.621   1.537   5.478
 6968SOL     OW21802   2.751   0.692   2.916
 6968SOL    HW121803   2.659   0.655   2.931
 6968SOL    HW221804   2.767   0.769   2.977
 6969SOL     OW21805   3.554   2.176   1.027
 6969SOL    HW121806   3.594   2.084   1.021
 6969SOL    HW221807   3.501   2.195   0.944
 6970SOL     OW21808   3.464   4.378   5.913
 6970SOL    HW121809   3.400   4.314   5.868
 6970SOL    HW221810   3.504   4.438   5.844
 6971SOL     OW21811   5.225   5.024   1.214
 6971SOL    HW121812   5.167   4.948   1.184
 6971SOL    HW221813   5.268   5.066   1.134
 6972SOL     OW21814   5.366   3.831   2.614
 6972SOL    HW121815   5.286   3.876   2.654
 6972SOL    HW221816   5.338   3.776   2.536
 6973SOL     OW21817   0.788   2.200   3.312
 6973SOL    HW121818   0.756   2.144   3.236
 6973SOL    HW221819   0.771   2.297   3.292
 6974SOL     OW21820   2.900   3.445   2.641
 6974SOL    HW121821   2.872   3.388   2.563
 6974SOL    HW221822   2.903   3.541   2.614
 6975SOL     OW21823   2.525   6.394   4.865
 6975SOL    HW121824   2.494   6.457   4.936
 6975SOL    HW221825   2.500   6.300   4.890
 6976SOL     OW21826   5.660   3.762   5.762
 6976SOL    HW121827   5.577   3.743   5.815
 6976SOL    HW221828   5.661   3.859   5.737
 6977SOL     OW21829   4.023   4.316   1.629
 6977SOL    HW121830   3.974   4.245   1.578
 6977SOL    HW221831   3.958   4.379   1.670
 6978SOL     OW21832   4.977   3.262   1.156
 6978SOL    HW121833   5.019   3.233   1.070
 6978SOL    HW221834   5.030   3.337   1.195
 6979SOL     OW21835   1.499   2.859   1.255
 6979SOL    HW121836   1.469   2.897   1.342
 6979SOL    HW221837   1.439   2.784   1.229
 6980SOL     OW21838   1.725   1.151   3.533
 6980SOL    HW121839   1.723   1.126   3.436
 6980SOL    HW221840   1.634   1.182   3.562
 6981SOL     OW21841   3.204   3.682   6.236
 6981SOL    HW121842   3.200   3.602   6.295
 6981SOL    HW221843   3.300   3.703   6.215
 6982SOL     OW21844   1.034   0.671   3.212
 6982SOL    HW121845   1.022   0.729   3.130
 6982SOL    HW221846   1.005   0.722   3.293
 6983SOL     OW21847   4.535   1.618   5.247
 6983SOL    HW121848   4.469   1.546   5.270
 6983SOL    HW221849   4.492   1.683   5.184
 6984SOL     OW21850   1.672   1.873   2.728
 6984SOL    HW121851   1.625   1.943   2.674
 6984SOL    HW221852   1.607   1.829   2.790
 6985SOL     OW21853   6.364   4.944   6.968
 6985SOL    HW121854   6.313   5.028   6.985
 6985SOL    HW221855   6.321   4.868   7.018
 6986SOL     OW21856   3.758   6.556   6.637
 6986SOL    HW121857   3.836   6.615   6.616
 6986SOL    HW221858   3.692   6.606   6.693
 6987SOL     OW21859   0.239   1.811   5.391
 6987SOL    HW121860   0.189   1.826   5.477
 6987SOL    HW221861   0.196   1.863   5.318
 6988SOL     OW21862   2.042   6.964   5.873
 6988SOL    HW121863   1.977   0.015   5.846
 6988SOL    HW221864   2.063   6.973   5.970
 6989SOL     OW21865   6.491   4.829   2.348
 6989SOL    HW121866   6.571   4.874   2.309
 6989SOL    HW221867   6.505   4.730   2.350
 6990SOL     OW21868   3.771   2.794   1.718
 6990SOL    HW121869   3.733   2.702   1.728
 6990SOL    HW221870   3.868   2.787   1.692
 6991SOL     OW21871   5.169   4.609   3.301
 6991SOL    HW121872   5.226   4.584   3.223
 6991SOL    HW221873   5.092   4.547   3.308
 6992SOL     OW21874   6.989   6.180   0.423
 6992SOL    HW121875   0.012   6.103   0.375
 6992SOL    HW221876   6.896   6.192   0.390
 6993SOL     OW21877   6.180   0.550   1.347
 6993SOL    HW121878   6.136   0.632   1.384
 6993SOL    HW221879   6.120   0.471   1.359
 6994SOL     OW21880   1.398   0.176   4.027
 6994SOL    HW121881   1.349   0.197   4.112
 6994SOL    HW221882   1.350   0.218   3.950
 6995SOL     OW21883   0.501   3.860   0.271
 6995SOL    HW121884   0.497   3.920   0.351
 6995SOL    HW221885   0.413   3.815   0.259
 6996SOL     OW21886   1.090   0.683   0.417
 6996SOL    HW121887   1.050   0.633   0.341
 6996SOL    HW221888   1.063   0.779   0.412
 6997SOL     OW21889   6.961   4.880   5.449
 6997SOL    HW121890   6.925   4.804   5.504
 6997SOL    HW221891   6.974   4.850   5.355
 6998SOL     OW21892   0.482   1.710   1.297
 6998SOL    HW121893   0.435   1.627   1.270
 6998SOL    HW221894   0.449   1.787   1.242
 6999SOL     OW21895   0.734   2.546   6.583
 6999SOL    HW121896   0.658   2.535   6.520
 6999SOL    HW221897   0.786   2.461   6.589
 7000SOL     OW21898   6.448   0.203   2.014
 7000SOL    HW121899   6.477   0.265   1.941
 7000SOL    HW221900   6.489   0.232   2.101
 7001SOL     OW21901   1.153   1.621   5.121
 7001SOL    HW121902   1.082   1.616   5.051
 7001SOL    HW221903   1.210   1.538   5.117
 7002SOL     OW21904   1.415   5.420   3.944
 7002SOL    HW121905   1.342   5.474   3.903
 7002SOL    HW221906   1.446   5.350   3.880
 7003SOL     OW21907   5.222   5.074   1.502
 7003SOL    HW121908   5.123   5.075   1.512
 7003SOL    HW221909   5.246   5.040   1.411
 7004SOL     OW21910   1.051   5.371   0.456
 7004SOL    HW121911   0.989   5.301   0.492
 7004SOL    HW221912   1.141   5.332   0.439
 7005SOL     OW21913   1.315   0.190   6.668
 7005SOL    HW121914   1.256   0.252   6.720
 7005SOL    HW221915   1.410   0.220   6.677
 7006SOL     OW21916   6.597   6.661   3.262
 7006SOL    HW121917   6.685   6.693   3.297
 7006SOL    HW221918   6.563   6.726   3.194
 7007SOL     OW21919   4.491   0.896   5.320
 7007SOL    HW121920   4.573   0.840   5.311
 7007SOL    HW221921   4.445   0.874   5.406
 7008SOL     OW21922   6.670   4.505   4.226
 7008SOL    HW121923   6.770   4.499   4.233
 7008SOL    HW221924   6.628   4.449   4.298
 7009SOL     OW21925   4.029   6.837   1.953
 7009SOL    HW121926   4.036   6.754   1.897
 7009SOL    HW221927   4.007   6.914   1.893
 7010SOL     OW21928   5.830   3.896   2.992
 7010SOL    HW121929   5.803   3.982   3.034
 7010SOL    HW221930   5.775   3.880   2.910
 7011SOL     OW21931   3.970   6.711   0.820
 7011SOL    HW121932   3.918   6.652   0.759
 7011SOL    HW221933   3.914   6.790   0.845
 7012SOL     OW21934   1.355   2.501   1.031
 7012SOL    HW121935   1.335   2.407   1.058
 7012SOL    HW221936   1.439   2.531   1.076
 7013SOL     OW21937   2.360   0.778   6.677
 7013SOL    HW121938   2.407   0.819   6.598
 7013SOL    HW221939   2.406   0.692   6.702
 7014SOL     OW21940   5.857   3.277   1.261
 7014SOL    HW121941   5.895   3.194   1.220
 7014SOL    HW221942   5.908   3.299   1.344
 7015SOL     OW21943   5.849   4.688   2.653
 7015SOL    HW121944   5.846   4.786   2.672
 7015SOL    HW221945   5.817   4.670   2.561
 7016SOL     OW21946   3.122   5.387   1.221
 7016SOL    HW121947   3.219   5.366   1.211
 7016SOL    HW221948   3.091   5.358   1.311
 7017SOL     OW21949   3.261   4.934   3.054
 7017SOL    HW121950   3.331   4.908   2.988
 7017SOL    HW221951   3.290   4.909   3.146
 7018SOL     OW21952   5.614   3.391   4.065
 7018SOL    HW121953   5.540   3.370   4.001
 7018SOL    HW221954   5.696   3.414   4.014
 7019SOL     OW21955   4.807   5.212   2.585
 7019SOL    HW121956   4.886   5.265   2.553
 7019SOL    HW221957   4.795   5.226   2.683
 7020SOL     OW21958   0.424   3.813   6.907
 7020SOL    HW121959   0.488   3.779   6.977
 7020SOL    HW221960   0.445   3.771   6.819
 7021SOL     OW21961   1.439   3.132   4.674
 7021SOL    HW121962   1.441   3.232   4.680
 7021SOL    HW221963   1.507   3.095   4.737
 7022SOL     OW21964   4.344   0.931   0.292
 7022SOL    HW121965   4.444   0.926   0.301
 7022SOL    HW221966   4.303   0.846   0.325
 7023SOL     OW21967   0.383   2.278   1.830
 7023SOL    HW121968   0.353   2.313   1.741
 7023SOL    HW221969   0.430   2.191   1.817
 7024SOL     OW21970   3.703   3.208   3.444
 7024SOL    HW121971   3.792   3.205   3.399
 7024SOL    HW221972   3.708   3.266   3.526
 7025SOL     OW21973   3.308   0.722   0.372
 7025SOL    HW121974   3.283   0.785   0.446
 7025SOL    HW221975   3.371   0.653   0.408
 7026SOL     OW21976   3.915   2.172   2.324
 7026SOL    HW121977   3.886   2.077   2.311
 7026SOL    HW221978   3.853   2.233   2.274
 7027SOL     OW21979   2.618   6.084   3.577
 7027SOL    HW121980   2.543   6.085   3.511
 7027SOL    HW221981   2.639   5.989   3.603
 7028SOL     OW21982   2.086   0.210   3.818
 7028SOL    HW121983   2.153   0.174   3.883
 7028SOL    HW221984   2.117   0.299   3.785
 7029SOL     OW21985   3.024   3.657   5.651
 7029SOL    HW121986   3.076   3.742   5.649
 7029SOL    HW221987   2.969   3.650   5.569
 7030SOL     OW21988   0.986   2.164   4.854
 7030SOL    HW121989   0.900   2.208   4.879
 7030SOL    HW221990   1.001   2.174   4.755
 7031SOL     OW21991   4.508   6.367   0.675
 7031SOL    HW121992   4.449   6.404   0.604
 7031SOL    HW221993   4.466   6.379   0.764
 7032SOL     OW21994   4.402   0.523   4.231
 7032SOL    HW121995   4.379   0.542   4.326
 7032SOL    HW221996   4.336   0.459   4.192
 7033SOL     OW21997   1.540   2.568   4.180
 7033SOL    HW121998   1.563   2.663   4.163
 7033SOL    HW221999   1.550   2.548   4.278
 7034SOL     OW22000   6.480   2.821   3.358
 7034SOL    HW122001   6.573   2.857   3.344
 7034SOL    HW222002   6.413   2.890   3.331
 7035SOL     OW22003   2.019   0.264   1.760
 7035SOL    HW122004   2.032   0.180   1.813
 7035SOL    HW222005   1.993   0.241   1.666
 7036SOL     OW22006   0.257   2.190   2.637
 7036SOL    HW122007   0.224   2.258   2.703
 7036SOL    HW222008   0.258   2.230   2.545
 7037SOL     OW22009   0.510   1.226   5.893
 7037SOL    HW122010   0.499   1.315   5.936
 7037SOL    HW222011   0.600   1.220   5.850
 7038SOL     OW22012   2.749   4.568   5.560
 7038SOL    HW122013   2.737   4.607   5.469
 7038SOL    HW222014   2.803   4.484   5.553
 7039SOL     OW22015   0.943   5.242   3.708
 7039SOL    HW122016   1.003   5.205   3.779
 7039SOL    HW222017   0.857   5.272   3.749
 7040SOL     OW22018   4.495   2.145   5.216
 7040SOL    HW122019   4.555   2.133   5.137
 7040SOL    HW222020   4.538   2.107   5.297
 7041SOL     OW22021   1.078   1.109   3.366
 7041SOL    HW122022   1.065   1.208   3.359
 7041SOL    HW222023   1.174   1.089   3.387
 7042SOL     OW22024   4.549   6.060   4.893
 7042SOL    HW122025   4.575   6.035   4.986
 7042SOL    HW222026   4.597   6.143   4.865
 7043SOL     OW22027   2.309   4.263   3.826
 7043SOL    HW122028   2.282   4.340   3.769
 7043SOL    HW222029   2.408   4.263   3.838
 7044SOL     OW22030   5.038   0.324   4.848
 7044SOL    HW122031   4.986   0.356   4.928
 7044SOL    HW222032   4.975   0.313   4.771
 7045SOL     OW22033   5.962   5.409   2.742
 7045SOL    HW122034   5.958   5.499   2.697
 7045SOL    HW222035   5.885   5.400   2.805
 7046SOL     OW22036   3.182   2.046   4.117
 7046SOL    HW122037   3.126   2.105   4.174
 7046SOL    HW222038   3.182   1.953   4.154
 7047SOL     OW22039   0.380   1.002   1.240
 7047SOL    HW122040   0.365   0.913   1.198
 7047SOL    HW222041   0.393   1.070   1.168
 7048SOL     OW22042   6.221   6.412   5.078
 7048SOL    HW122043   6.139   6.443   5.125
 7048SOL    HW222044   6.298   6.414   5.141
 7049SOL     OW22045   3.954   1.158   2.056
 7049SOL    HW122046   3.901   1.080   2.090
 7049SOL    HW222047   3.939   1.236   2.116
 7050SOL     OW22048   3.470   4.937   0.653
 7050SOL    HW122049   3.534   4.877   0.605
 7050SOL    HW222050   3.476   4.920   0.752
 7051SOL     OW22051   6.787   6.783   1.246
 7051SOL    HW122052   6.768   6.790   1.148
 7051SOL    HW222053   6.846   6.705   1.263
 7052SOL     OW22054   5.486   6.766   3.223
 7052SOL    HW122055   5.480   6.723   3.133
 7052SOL    HW222056   5.495   6.865   3.212
 7053SOL     OW22057   1.449   3.468   4.176
 7053SOL    HW122058   1.535   3.476   4.125
 7053SOL    HW222059   1.465   3.491   4.272
 7054SOL     OW22060   0.259   0.033   1.240
 7054SOL    HW122061   0.219   6.972   1.198
 7054SOL    HW222062   0.187   0.099   1.262
 7055SOL     OW22063   2.381   6.880   6.895
 7055SOL    HW122064   2.337   6.828   6.967
 7055SOL    HW222065   2.312   6.910   6.829
 7056SOL     OW22066   6.919   5.689   1.221
 7056SOL    HW122067   6.916   5.640   1.134
 7056SOL    HW222068   6.829   5.683   1.265
 7057SOL     OW22069   3.161   5.356   4.063
 7057SOL    HW122070   3.167   5.268   4.110
 7057SOL    HW222071   3.185   5.430   4.126
 7058SOL     OW22072   5.411   2.164   6.377
 7058SOL    HW122073   5.457   2.230   6.317
 7058SOL    HW222074   5.469   2.145   6.456
 7059SOL     OW22075   1.881   1.314   4.944
 7059SOL    HW122076   1.871   1.265   5.031
 7059SOL    HW222077   1.872   1.249   4.869
 7060SOL     OW22078   3.642   6.621   2.037
 7060SOL    HW122079   3.555   6.571   2.040
 7060SOL    HW222080   3.645   6.678   1.955
 7061SOL     OW22081   0.871   2.294   2.372
 7061SOL    HW122082   0.805   2.342   2.430
 7061SOL    HW222083   0.912   2.359   2.307
 7062SOL     OW22084   4.288   1.802   4.414
 7062SOL    HW122085   4.243   1.792   4.325
 7062SOL    HW222086   4.219   1.805   4.486
 7063SOL     OW22087   0.429   6.649   2.298
 7063SOL    HW122088   0.349   6.647   2.358
 7063SOL    HW222089   0.400   6.673   2.205
 7064SOL     OW22090   5.097   1.607   5.833
 7064SOL    HW122091   5.084   1.581   5.929
 7064SOL    HW222092   5.044   1.546   5.774
 7065SOL     OW22093   3.330   4.500   5.395
 7065SOL    HW122094   3.408   4.516   5.454
 7065SOL    HW222095   3.348   4.422   5.335
 7066SOL     OW22096   4.535   0.894   6.684
 7066SOL    HW122097   4.449   0.945   6.681
 7066SOL    HW222098   4.608   0.948   6.642
 7067SOL     OW22099   1.392   3.515   0.004
 7067SOL    HW122100   1.383   3.610   6.995
 7067SOL    HW222101   1.484   3.482   7.004
 7068SOL     OW22102   5.666   4.435   4.204
 7068SOL    HW122103   5.587   4.495   4.196
 7068SOL    HW222104   5.697   4.407   4.113
 7069SOL     OW22105   5.789   1.587   5.838
 7069SOL    HW122106   5.872   1.533   5.849
 7069SOL    HW222107   5.777   1.611   5.741
 7070SOL     OW22108   0.455   6.350   4.663
 7070SOL    HW122109   0.501   6.299   4.590
 7070SOL    HW222110   0.363   6.313   4.677
 7071SOL     OW22111   5.002   6.661   6.475
 7071SOL    HW122112   5.095   6.625   6.461
 7071SOL    HW222113   4.952   6.600   6.536
 7072SOL     OW22114   1.629   4.308   6.652
 7072SOL    HW122115   1.589   4.271   6.568
 7072SOL    HW222116   1.594   4.256   6.730
 7073SOL     OW22117   3.981   0.453   3.007
 7073SOL    HW122118   4.052   0.518   3.035
 7073SOL    HW222119   3.905   0.503   2.965
 7074SOL     OW22120   6.349   3.741   3.765
 7074SOL    HW122121   6.411   3.663   3.773
 7074SOL    HW222122   6.343   3.769   3.669
 7075SOL     OW22123   3.329   4.986   5.081
 7075SOL    HW122124   3.335   4.889   5.106
 7075SOL    HW222125   3.245   5.025   5.119
 7076SOL     OW22126   6.131   2.772   1.780
 7076SOL    HW122127   6.160   2.861   1.817
 7076SOL    HW222128   6.165   2.763   1.686
 7077SOL     OW22129   2.693   4.723   2.703
 7077SOL    HW122130   2.686   4.682   2.612
 7077SOL    HW222131   2.620   4.791   2.714
 7078SOL     OW22132   5.297   6.534   0.819
 7078SOL    HW122133   5.342   6.604   0.764
 7078SOL    HW222134   5.365   6.488   0.876
 7079SOL     OW22135   1.483   6.706   4.184
 7079SOL    HW122136   1.577   6.676   4.168
 7079SOL    HW222137   1.452   6.762   4.107
 7080SOL     OW22138   4.047   1.746   4.565
 7080SOL    HW122139   3.991   1.668   4.538
 7080SOL    HW222140   4.011   1.785   4.650
 7081SOL     OW22141   1.869   0.089   0.109
 7081SOL    HW122142   1.824   0.106   0.196
 7081SOL    HW222143   1.920   0.003   0.113
 7082SOL     OW22144   6.947   3.859   1.545
 7082SOL    HW122145   6.939   3.943   1.599
 7082SOL    HW222146   6.983   3.785   1.603
 7083SOL     OW22147   6.928   2.258   2.375
 7083SOL    HW122148   7.006   2.207   2.339
 7083SOL    HW222149   6.881   2.305   2.300
 7084SOL     OW22150   0.668   5.510   5.856
 7084SOL    HW122151   0.642   5.567   5.778
 7084SOL    HW222152   0.674   5.415   5.827
 7085SOL     OW22153   7.019   2.441   2.577
 7085SOL    HW122154   6.949   2.383   2.536
 7085SOL    HW222155   0.022   2.516   2.515
 7086SOL     OW22156   5.673   0.425   6.943
 7086SOL    HW122157   5.735   0.503   6.940
 7086SOL    HW222158   5.725   0.342   6.962
 7087SOL     OW22159   4.929   3.567   2.928
 7087SOL    HW122160   4.856   3.499   2.919
 7087SOL    HW222161   4.989   3.561   2.849
 7088SOL     OW22162   5.629   1.588   4.917
 7088SOL    HW122163   5.562   1.568   4.845
 7088SOL    HW222164   5.594   1.662   4.975
 7089SOL     OW22165   3.056   5.287   2.444
 7089SOL    HW122166   3.023   5.291   2.538
 7089SOL    HW222167   3.119   5.210   2.434
 7090SOL     OW22168   2.824   1.373   0.754
 7090SOL    HW122169   2.811   1.318   0.836
 7090SOL    HW222170   2.854   1.315   0.679
 7091SOL     OW22171   0.833   0.191   0.779
 7091SOL    HW122172   0.855   0.255   0.853
 7091SOL    HW222173   0.902   0.119   0.775
 7092SOL     OW22174   4.003   2.477   6.976
 7092SOL    HW122175   4.034   2.521   6.892
 7092SOL    HW222176   3.912   2.439   6.962
 7093SOL     OW22177   3.440   3.840   1.273
 7093SOL    HW122178   3.455   3.808   1.180
 7093SOL    HW222179   3.431   3.939   1.274
 7094SOL     OW22180   1.637   6.487   5.559
 7094SOL    HW122181   1.537   6.489   5.552
 7094SOL    HW222182   1.663   6.461   5.652
 7095SOL     OW22183   3.320   4.717   5.219
 7095SOL    HW122184   3.226   4.749   5.235
 7095SOL    HW222185   3.338   4.636   5.274
 7096SOL     OW22186   6.815   0.695   1.293
 7096SOL    HW122187   6.914   0.697   1.304
 7096SOL    HW222188   6.791   0.728   1.201
 7097SOL     OW22189   5.679   0.304   2.063
 7097SOL    HW122190   5.582   0.281   2.058
 7097SOL    HW222191   5.733   0.227   2.031
 7098SOL     OW22192   2.017   7.000   4.620
 7098SOL    HW122193   1.950   6.953   4.562
 7098SOL    HW222194   1.992   6.987   4.716
 7099SOL     OW22195   3.341   1.924   3.904
 7099SOL    HW122196   3.286   1.976   3.970
 7099SOL    HW222197   3.354   1.980   3.822
 7100SOL     OW22198   0.573   3.567   0.615
 7100SOL    HW122199   0.535   3.613   0.696
 7100SOL    HW222200   0.565   3.468   0.626
 7101SOL     OW22201   2.646   6.333   5.145
 7101SOL    HW122202   2.638   6.289   5.235
 7101SOL    HW222203   2.706   6.279   5.087
 7102SOL     OW22204   5.283   0.831   1.077
 7102SOL    HW122205   5.231   0.777   1.010
 7102SOL    HW222206   5.311   0.772   1.153
 7103SOL     OW22207   5.117   5.065   2.502
 7103SOL    HW122208   5.062   5.077   2.584
 7103SOL    HW222209   5.160   4.975   2.503
 7104SOL     OW22210   5.464   3.018   3.225
 7104SOL    HW122211   5.464   3.011   3.324
 7104SOL    HW222212   5.513   2.940   3.185
 7105SOL     OW22213   3.190   4.029   3.955
 7105SOL    HW122214   3.183   4.039   3.856
 7105SOL    HW222215   3.277   4.068   3.986
 7106SOL     OW22216   3.282   2.868   1.053
 7106SOL    HW122217   3.381   2.874   1.041
 7106SOL    HW222218   3.262   2.818   1.137
 7107SOL     OW22219   3.981   0.453   0.282
 7107SOL    HW122220   4.074   0.477   0.309
 7107SOL    HW222221   3.975   0.450   0.183
 7108SOL     OW22222   2.618   6.622   2.882
 7108SOL    HW122223   2.651   6.654   2.971
 7108SOL    HW222224   2.613   6.698   2.818
 7109SOL     OW22225   1.280   0.652   6.547
 7109SOL    HW122226   1.320   0.726   6.493
 7109SOL    HW222227   1.346   0.577   6.555
 7110SOL     OW22228   3.333   6.481   4.381
 7110SOL    HW122229   3.318   6.383   4.369
 7110SOL    HW222230   3.349   6.523   4.291
 7111SOL     OW22231   1.166   0.633   4.306
 7111SOL    HW122232   1.246   0.682   4.340
 7111SOL    HW222233   1.115   0.593   4.382
 7112SOL     OW22234   2.409   4.342   4.520
 7112SOL    HW122235   2.451   4.344   4.429
 7112SOL    HW222236   2.343   4.266   4.524
 7113SOL     OW22237   2.866   5.068   5.130
 7113SOL    HW122238   2.931   4.998   5.099
 7113SOL    HW222239   2.786   5.023   5.171
 7114SOL     OW22240   4.579   5.460   1.640
 7114SOL    HW122241   4.551   5.514   1.561
 7114SOL    HW222242   4.525   5.485   1.720
 7115SOL     OW22243   5.868   4.539   6.924
 7115SOL    HW122244   5.768   4.536   6.915
 7115SOL    HW222245   5.893   4.520   7.018
 7116SOL     OW22246   5.984   4.247   3.756
 7116SOL    HW122247   5.996   4.154   3.792
 7116SOL    HW222248   5.892   4.256   3.719
 7117SOL     OW22249   6.098   6.681   4.174
 7117SOL    HW122250   6.156   6.712   4.250
 7117SOL    HW222251   6.077   6.758   4.114
 7118SOL     OW22252   3.837   4.332   5.231
 7118SOL    HW122253   3.805   4.269   5.161
 7118SOL    HW222254   3.927   4.303   5.264
 7119SOL     OW22255   5.358   0.843   5.340
 7119SOL    HW122256   5.392   0.786   5.265
 7119SOL    HW222257   5.434   0.882   5.391
 7120SOL     OW22258   5.225   1.191   1.388
 7120SOL    HW122259   5.211   1.257   1.314
 7120SOL    HW222260   5.322   1.174   1.400
 7121SOL     OW22261   0.795   6.502   3.537
 7121SOL    HW122262   0.846   6.443   3.474
 7121SOL    HW222263   0.860   6.558   3.590
 7122SOL     OW22264   2.564   6.584   5.671
 7122SOL    HW122265   2.599   6.493   5.648
 7122SOL    HW222266   2.554   6.638   5.587
 7123SOL     OW22267   6.003   4.955   5.060
 7123SOL    HW122268   5.991   4.860   5.031
 7123SOL    HW222269   5.916   5.003   5.052
 7124SOL     OW22270   1.399   2.686   1.687
 7124SOL    HW122271   1.389   2.682   1.786
 7124SOL    HW222272   1.491   2.659   1.661
 7125SOL     OW22273   0.605   0.292   2.091
 7125SOL    HW122274   0.568   0.253   2.006
 7125SOL    HW222275   0.533   0.295   2.160
 7126SOL     OW22276   4.068   6.203   1.470
 7126SOL    HW122277   4.091   6.157   1.384
 7126SOL    HW222278   3.972   6.186   1.492
 7127SOL     OW22279   3.283   6.016   5.142
 7127SOL    HW122280   3.224   6.094   5.162
 7127SOL    HW222281   3.334   5.992   5.224
 7128SOL     OW22282   3.595   4.524   6.692
 7128SOL    HW122283   3.656   4.603   6.683
 7128SOL    HW222284   3.605   4.486   6.784
 7129SOL     OW22285   6.865   1.910   0.475
 7129SOL    HW122286   6.898   1.883   0.565
 7129SOL    HW222287   6.939   1.955   0.424
 7130SOL     OW22288   2.984   0.071   4.402
 7130SOL    HW122289   3.039   7.017   4.363
 7130SOL    HW222290   3.038   0.154   4.406
 7131SOL     OW22291   3.584   0.857   2.364
 7131SOL    HW122292   3.505   0.867   2.303
 7131SOL    HW222293   3.558   0.803   2.444
 7132SOL     OW22294   5.323   4.243   6.804
 7132SOL    HW122295   5.303   4.316   6.739
 7132SOL    HW222296   5.245   4.179   6.807
 7133SOL     OW22297   3.756   5.723   3.488
 7133SOL    HW122298   3.725   5.797   3.548
 7133SOL    HW222299   3.775   5.642   3.543
 7134SOL     OW22300   5.836   5.886   1.572
 7134SOL    HW122301   5.828   5.800   1.521
 7134SOL    HW222302   5.921   5.885   1.625
 7135SOL     OW22303   2.089   3.270   2.090
 7135SOL    HW122304   1.991   3.262   2.070
 7135SOL    HW222305   2.120   3.363   2.069
 7136SOL     OW22306   2.832   1.656   1.709
 7136SOL    HW122307   2.900   1.688   1.775
 7136SOL    HW222308   2.750   1.625   1.758
 7137SOL     OW22309   2.767   1.953   1.701
 7137SOL    HW122310   2.820   1.873   1.670
 7137SOL    HW222311   2.697   1.922   1.766
 7138SOL     OW22312   1.908   1.209   1.398
 7138SOL    HW122313   1.996   1.243   1.432
 7138SOL    HW222314   1.865   1.153   1.468
 7139SOL     OW22315   5.202   5.683   2.220
 7139SOL    HW122316   5.299   5.703   2.231
 7139SOL    HW222317   5.166   5.735   2.142
 7140SOL     OW22318   5.930   3.860   0.804
 7140SOL    HW122319   6.018   3.896   0.771
 7140SOL    HW222320   5.866   3.936   0.816
 7141SOL     OW22321   3.823   6.571   1.401
 7141SOL    HW122322   3.843   6.482   1.359
 7141SOL    HW222323   3.742   6.611   1.358
 7142SOL     OW22324   3.259   0.947   4.140
 7142SOL    HW122325   3.288   0.859   4.102
 7142SOL    HW222326   3.193   0.990   4.079
 7143SOL     OW22327   2.201   4.652   6.577
 7143SOL    HW122328   2.273   4.586   6.599
 7143SOL    HW222329   2.185   4.652   6.478
 7144SOL     OW22330   0.090   1.371   4.302
 7144SOL    HW122331   0.068   1.430   4.380
 7144SOL    HW222332   0.013   1.369   4.239
 7145SOL     OW22333   4.884   1.578   0.248
 7145SOL    HW122334   4.903   1.553   0.343
 7145SOL    HW222335   4.889   1.496   0.191
 7146SOL     OW22336   2.242   1.046   4.789
 7146SOL    HW122337   2.191   1.051   4.703
 7146SOL    HW222338   2.286   1.134   4.807
 7147SOL     OW22339   5.502   4.877   2.995
 7147SOL    HW122340   5.496   4.895   2.897
 7147SOL    HW222341   5.410   4.861   3.031
 7148SOL     OW22342   6.433   6.381   1.568
 7148SOL    HW122343   6.481   6.467   1.549
 7148SOL    HW222344   6.449   6.317   1.493
 7149SOL     OW22345   6.673   4.565   3.596
 7149SOL    HW122346   6.731   4.489   3.565
 7149SOL    HW222347   6.731   4.637   3.634
 7150SOL     OW22348   4.164   3.531   0.019
 7150SOL    HW122349   4.130   3.557   6.949
 7150SOL    HW222350   4.184   3.613   0.073
 7151SOL     OW22351   3.367   0.419   1.002
 7151SOL    HW122352   3.454   0.420   0.952
 7151SOL    HW222353   3.359   0.503   1.056
 7152SOL     OW22354   6.764   1.165   6.666
 7152SOL    HW122355   6.732   1.223   6.741
 7152SOL    HW222356   6.827   1.097   6.702
 7153SOL     OW22357   4.252   6.193   1.687
 7153SOL    HW122358   4.207   6.154   1.768
 7153SOL    HW222359   4.184   6.205   1.615
 7154SOL     OW22360   4.510   1.470   2.496
 7154SOL    HW122361   4.422   1.425   2.483
 7154SOL    HW222362   4.514   1.551   2.437
 7155SOL     OW22363   3.025   1.857   2.412
 7155SOL    HW122364   3.088   1.874   2.336
 7155SOL    HW222365   2.981   1.768   2.399
 7156SOL     OW22366   5.660   3.511   1.517
 7156SOL    HW122367   5.582   3.453   1.493
 7156SOL    HW222368   5.641   3.605   1.490
 7157SOL     OW22369   6.050   4.397   6.792
 7157SOL    HW122370   5.967   4.432   6.837
 7157SOL    HW222371   6.098   4.473   6.748
 7158SOL     OW22372   5.644   7.005   3.916
 7158SOL    HW122373   5.679   0.019   4.003
 7158SOL    HW222374   5.639   6.905   3.920
 7159SOL     OW22375   6.721   5.004   4.120
 7159SOL    HW122376   6.683   5.016   4.028
 7159SOL    HW222377   6.751   5.092   4.156
 7160SOL     OW22378   5.541   6.670   2.680
 7160SOL    HW122379   5.625   6.723   2.667
 7160SOL    HW222380   5.537   6.597   2.613
 7161SOL     OW22381   4.137   3.412   3.419
 7161SOL    HW122382   4.127   3.502   3.462
 7161SOL    HW222383   4.128   3.341   3.489
 7162SOL     OW22384   0.152   5.063   2.074
 7162SOL    HW122385   0.138   5.019   1.985
 7162SOL    HW222386   0.137   5.162   2.064
 7163SOL     OW22387   1.222   1.954   2.690
 7163SOL    HW122388   1.161   1.875   2.690
 7163SOL    HW222389   1.234   1.986   2.596
 7164SOL     OW22390   1.714   0.915   5.944
 7164SOL    HW122391   1.756   0.827   5.920
 7164SOL    HW222392   1.785   0.983   5.959
 7165SOL     OW22393   5.585   6.878   0.333
 7165SOL    HW122394   5.499   6.900   0.287
 7165SOL    HW222395   5.639   6.961   0.347
 7166SOL     OW22396   5.271   0.340   5.758
 7166SOL    HW122397   5.256   0.351   5.856
 7166SOL    HW222398   5.247   0.425   5.711
 7167SOL     OW22399   6.063   1.693   5.000
 7167SOL    HW122400   6.159   1.718   5.011
 7167SOL    HW222401   6.039   1.620   5.065
 7168SOL     OW22402   2.372   0.706   2.427
 7168SOL    HW122403   2.394   0.614   2.458
 7168SOL    HW222404   2.276   0.711   2.400
 7169SOL     OW22405   1.758   4.512   5.022
 7169SOL    HW122406   1.751   4.413   5.030
 7169SOL    HW222407   1.677   4.548   4.976
 7170SOL     OW22408   4.416   0.590   1.872
 7170SOL    HW122409   4.459   0.583   1.782
 7170SOL    HW222410   4.320   0.616   1.861
 7171SOL     OW22411   5.445   5.299   0.700
 7171SOL    HW122412   5.523   5.237   0.710
 7171SOL    HW222413   5.454   5.375   0.764
 7172SOL     OW22414   1.891   1.141   4.723
 7172SOL    HW122415   1.860   1.103   4.636
 7172SOL    HW222416   1.931   1.232   4.707
 7173SOL     OW22417   5.957   5.859   7.015
 7173SOL    HW122418   5.953   5.958   0.003
 7173SOL    HW222419   6.040   5.832   6.966
 7174SOL     OW22420   5.364   4.706   1.485
 7174SOL    HW122421   5.265   4.703   1.471
 7174SOL    HW222422   5.410   4.659   1.409
 7175SOL     OW22423   5.793   3.751   5.107
 7175SOL    HW122424   5.726   3.677   5.108
 7175SOL    HW222425   5.777   3.812   5.184
 7176SOL     OW22426   0.700   1.426   4.274
 7176SOL    HW122427   0.766   1.501   4.275
 7176SOL    HW222428   0.616   1.455   4.319
 7177SOL     OW22429   2.080   5.593   5.244
 7177SOL    HW122430   2.168   5.616   5.285
 7177SOL    HW222431   2.066   5.647   5.161
 7178SOL     OW22432   0.437   0.902   5.588
 7178SOL    HW122433   0.406   0.987   5.630
 7178SOL    HW222434   0.486   0.847   5.656
 7179SOL     OW22435   2.901   5.314   6.201
 7179SOL    HW122436   2.925   5.264   6.284
 7179SOL    HW222437   2.833   5.385   6.223
 7180SOL     OW22438   1.663   4.752   1.445
 7180SOL    HW122439   1.706   4.698   1.517
 7180SOL    HW222440   1.733   4.804   1.397
 7181SOL     OW22441   2.485   1.362   5.482
 7181SOL    HW122442   2.543   1.326   5.555
 7181SOL    HW222443   2.542   1.392   5.406
 7182SOL     OW22444   0.581   3.090   4.089
 7182SOL    HW122445   0.622   3.167   4.040
 7182SOL    HW222446   0.650   3.049   4.149
 7183SOL     OW22447   1.659   6.375   1.726
 7183SOL    HW122448   1.679   6.440   1.800
 7183SOL    HW222449   1.718   6.395   1.647
 7184SOL     OW22450   5.963   1.061   3.345
 7184SOL    HW122451   5.977   1.001   3.424
 7184SOL    HW222452   5.874   1.105   3.354
 7185SOL     OW22453   5.200   1.070   5.361
 7185SOL    HW122454   5.238   0.977   5.367
 7185SOL    HW222455   5.116   1.075   5.416
 7186SOL     OW22456   0.164   0.208   0.244
 7186SOL    HW122457   0.261   0.185   0.241
 7186SOL    HW222458   0.114   0.134   0.289
 7187SOL     OW22459   2.886   3.313   5.037
 7187SOL    HW122460   2.911   3.303   4.941
 7187SOL    HW222461   2.791   3.342   5.044
 7188SOL     OW22462   4.232   4.860   0.102
 7188SOL    HW122463   4.216   4.957   0.082
 7188SOL    HW222464   4.231   4.846   0.201
 7189SOL     OW22465   6.067   2.822   5.482
 7189SOL    HW122466   6.010   2.903   5.496
 7189SOL    HW222467   6.161   2.851   5.463
 7190SOL     OW22468   5.928   5.595   1.187
 7190SOL    HW122469   5.946   5.569   1.091
 7190SOL    HW222470   5.855   5.663   1.190
 7191SOL     OW22471   0.861   4.158   2.912
 7191SOL    HW122472   0.894   4.097   2.984
 7191SOL    HW222473   0.933   4.223   2.887
 7192SOL     OW22474   1.687   4.696   6.431
 7192SOL    HW122475   1.735   4.626   6.378
 7192SOL    HW222476   1.598   4.660   6.461
 7193SOL     OW22477   2.827   1.867   2.596
 7193SOL    HW122478   2.747   1.814   2.568
 7193SOL    HW222479   2.896   1.865   2.524
 7194SOL     OW22480   2.699   2.557   0.274
 7194SOL    HW122481   2.601   2.537   0.277
 7194SOL    HW222482   2.744   2.514   0.353
 7195SOL     OW22483   0.165   3.789   6.995
 7195SOL    HW122484   0.246   3.774   6.939
 7195SOL    HW222485   0.084   3.754   6.947
 7196SOL     OW22486   2.948   3.817   2.373
 7196SOL    HW122487   2.904   3.755   2.308
 7196SOL    HW222488   3.031   3.854   2.332
 7197SOL     OW22489   1.545   3.681   5.294
 7197SOL    HW122490   1.573   3.605   5.352
 7197SOL    HW222491   1.458   3.659   5.250
 7198SOL     OW22492   6.976   0.854   0.454
 7198SOL    HW122493   0.036   0.866   0.513
 7198SOL    HW222494   6.899   0.905   0.493
 7199SOL     OW22495   0.905   0.777   2.489
 7199SOL    HW122496   0.840   0.788   2.564
 7199SOL    HW222497   0.855   0.760   2.404
 7200SOL     OW22498   2.070   2.237   0.743
 7200SOL    HW122499   2.081   2.179   0.824
 7200SOL    HW222500   2.110   2.326   0.761
 7201SOL     OW22501   6.169   5.505   3.894
 7201SOL    HW122502   6.138   5.580   3.835
 7201SOL    HW222503   6.102   5.490   3.967
 7202SOL     OW22504   5.236   6.642   6.066
 7202SOL    HW122505   5.151   6.625   6.115
 7202SOL    HW222506   5.258   6.739   6.069
 7203SOL     OW22507   0.501   1.040   2.235
 7203SOL    HW122508   0.487   1.138   2.220
 7203SOL    HW222509   0.548   1.001   2.156
 7204SOL     OW22510   6.635   1.215   0.772
 7204SOL    HW122511   6.647   1.120   0.742
 7204SOL    HW222512   6.571   1.218   0.849
 7205SOL     OW22513   1.900   2.574   4.888
 7205SOL    HW122514   1.975   2.624   4.844
 7205SOL    HW222515   1.922   2.560   4.984
 7206SOL     OW22516   1.634   1.812   1.251
 7206SOL    HW122517   1.574   1.881   1.211
 7206SOL    HW222518   1.699   1.780   1.182
 7207SOL     OW22519   1.609   2.182   4.133
 7207SOL    HW122520   1.670   2.249   4.089
 7207SOL    HW222521   1.664   2.112   4.178
 7208SOL     OW22522   3.864   0.446   4.326
 7208SOL    HW122523   3.905   0.468   4.238
 7208SOL    HW222524   3.827   0.529   4.367
 7209SOL     OW22525   2.187   2.386   2.543
 7209SOL    HW122526   2.121   2.459   2.562
 7209SOL    HW222527   2.271   2.427   2.506
 7210SOL     OW22528   2.699   1.845   3.117
 7210SOL    HW122529   2.781   1.832   3.172
 7210SOL    HW222530   2.618   1.821   3.171
 7211SOL     OW22531   3.035   6.173   5.125
 7211SOL    HW122532   3.003   6.266   5.109
 7211SOL    HW222533   3.029   6.120   5.040
 7212SOL     OW22534   6.000   5.331   5.738
 7212SOL    HW122535   6.005   5.431   5.749
 7212SOL    HW222536   6.072   5.288   5.792
 7213SOL     OW22537   3.332   0.332   0.506
 7213SOL    HW122538   3.246   0.306   0.549
 7213SOL    HW222539   3.343   0.282   0.420
 7214SOL     OW22540   0.280   1.121   6.412
 7214SOL    HW122541   0.190   1.149   6.379
 7214SOL    HW222542   0.349   1.142   6.342
 7215SOL     OW22543   0.078   2.268   3.362
 7215SOL    HW122544   0.094   2.301   3.455
 7215SOL    HW222545   0.090   2.342   3.297
 7216SOL     OW22546   3.111   6.555   2.493
 7216SOL    HW122547   3.026   6.556   2.440
 7216SOL    HW222548   3.125   6.644   2.536
 7217SOL     OW22549   1.197   4.246   3.649
 7217SOL    HW122550   1.280   4.198   3.676
 7217SOL    HW222551   1.126   4.179   3.625
 7218SOL     OW22552   6.794   3.064   4.171
 7218SOL    HW122553   6.797   3.084   4.269
 7218SOL    HW222554   6.717   3.002   4.153
 7219SOL     OW22555   2.908   6.593   1.591
 7219SOL    HW122556   2.931   6.634   1.503
 7219SOL    HW222557   2.988   6.593   1.651
 7220SOL     OW22558   6.810   4.023   4.912
 7220SOL    HW122559   6.721   3.979   4.905
 7220SOL    HW222560   6.848   4.007   5.003
 7221SOL     OW22561   3.118   6.250   4.756
 7221SOL    HW122562   3.098   6.171   4.814
 7221SOL    HW222563   3.198   6.298   4.791
 7222SOL     OW22564   5.959   6.575   3.225
 7222SOL    HW122565   6.044   6.611   3.185
 7222SOL    HW222566   5.907   6.650   3.265
 7223SOL     OW22567   2.426   2.080   0.796
 7223SOL    HW122568   2.512   2.041   0.830
 7223SOL    HW222569   2.441   2.117   0.704
 7224SOL     OW22570   4.339   2.340   4.009
 7224SOL    HW122571   4.350   2.425   4.059
 7224SOL    HW222572   4.415   2.279   4.031
 7225SOL     OW22573   2.086   6.443   0.287
 7225SOL    HW122574   2.176   6.463   0.325
 7225SOL    HW222575   2.015   6.486   0.343
 7226SOL     OW22576   5.926   0.563   0.675
 7226SOL    HW122577   5.920   0.616   0.590
 7226SOL    HW222578   5.878   0.476   0.664
 7227SOL     OW22579   2.881   0.881   2.531
 7227SOL    HW122580   2.792   0.925   2.533
 7227SOL    HW222581   2.874   0.794   2.481
 7228SOL     OW22582   0.288   1.837   2.988
 7228SOL    HW122583   0.224   1.907   3.018
 7228SOL    HW222584   0.340   1.870   2.909
 7229SOL     OW22585   0.084   6.714   4.438
 7229SOL    HW122586   0.168   6.667   4.410
 7229SOL    HW222587   0.105   6.777   4.513
 7230SOL     OW22588   2.641   4.959   3.964
 7230SOL    HW122589   2.588   4.881   3.998
 7230SOL    HW222590   2.733   4.956   4.005
 7231SOL     OW22591   3.677   0.473   0.936
 7231SOL    HW122592   3.743   0.547   0.946
 7231SOL    HW222593   3.678   0.440   0.841
 7232SOL     OW22594   4.997   6.695   2.522
 7232SOL    HW122595   4.980   6.604   2.559
 7232SOL    HW222596   5.085   6.728   2.554
 7233SOL     OW22597   6.183   1.864   5.721
 7233SOL    HW122598   6.101   1.830   5.676
 7233SOL    HW222599   6.264   1.824   5.678
 7234SOL     OW22600   5.192   3.932   3.280
 7234SOL    HW122601   5.210   3.872   3.202
 7234SOL    HW222602   5.161   3.878   3.357
 7235SOL     OW22603   6.104   5.944   1.615
 7235SOL    HW122604   6.146   5.866   1.569
 7235SOL    HW222605   6.161   5.972   1.692
 7236SOL     OW22606   1.604   2.535   2.898
 7236SOL    HW122607   1.528   2.476   2.870
 7236SOL    HW222608   1.686   2.480   2.912
 7237SOL     OW22609   4.904   6.734   0.262
 7237SOL    HW122610   4.993   6.778   0.248
 7237SOL    HW222611   4.854   6.734   0.176
 7238SOL     OW22612   4.695   2.479   6.930
 7238SOL    HW122613   4.599   2.452   6.937
 7238SOL    HW222614   4.746   2.439   7.005
 7239SOL     OW22615   0.539   3.567   2.284
 7239SOL    HW122616   0.508   3.479   2.248
 7239SOL    HW222617   0.631   3.586   2.250
 7240SOL     OW22618   6.770   1.836   6.279
 7240SOL    HW122619   6.676   1.813   6.302
 7240SOL    HW222620   6.824   1.844   6.363
 7241SOL     OW22621   1.902   0.362   0.275
 7241SOL    HW122622   1.813   0.328   0.305
 7241SOL    HW222623   1.950   0.402   0.353
 7242SOL     OW22624   6.972   5.891   5.190
 7242SOL    HW122625   6.966   5.958   5.116
 7242SOL    HW222626   6.947   5.801   5.155
 7243SOL     OW22627   6.786   3.794   6.724
 7243SOL    HW122628   6.820   3.861   6.789
 7243SOL    HW222629   6.854   3.779   6.652
 7244SOL     OW22630   0.460   6.790   0.637
 7244SOL    HW122631   0.532   6.859   0.646
 7244SOL    HW222632   0.379   6.831   0.596
 7245SOL     OW22633   1.102   2.537   5.986
 7245SOL    HW122634   1.177   2.560   5.925
 7245SOL    HW222635   1.090   2.609   6.053
 7246SOL     OW22636   2.814   0.437   4.266
 7246SOL    HW122637   2.894   0.461   4.211
 7246SOL    HW222638   2.793   0.340   4.253
 7247SOL     OW22639   3.161   2.388   5.525
 7247SOL    HW122640   3.162   2.288   5.525
 7247SOL    HW222641   3.121   2.421   5.439
 7248SOL     OW22642   2.885   0.382   3.956
 7248SOL    HW122643   2.789   0.356   3.970
 7248SOL    HW222644   2.917   0.345   3.869
 7249SOL     OW22645   4.215   4.654   2.213
 7249SOL    HW122646   4.216   4.674   2.311
 7249SOL    HW222647   4.224   4.555   2.199
 7250SOL     OW22648   5.435   4.820   5.826
 7250SOL    HW122649   5.361   4.753   5.831
 7250SOL    HW222650   5.455   4.855   5.917
 7251SOL     OW22651   0.869   0.216   6.073
 7251SOL    HW122652   0.876   0.148   6.146
 7251SOL    HW222653   0.929   0.189   5.997
 7252SOL     OW22654   2.874   3.637   2.209
 7252SOL    HW122655   2.787   3.589   2.215
 7252SOL    HW222656   2.948   3.573   2.231
 7253SOL     OW22657   1.877   6.662   5.848
 7253SOL    HW122658   1.942   6.679   5.921
 7253SOL    HW222659   1.899   6.575   5.803
 7254SOL     OW22660   5.605   5.453   4.003
 7254SOL    HW122661   5.643   5.467   3.911
 7254SOL    HW222662   5.670   5.399   4.057
 7255SOL     OW22663   4.852   3.390   0.016
 7255SOL    HW122664   4.778   3.410   6.972
 7255SOL    HW222665   4.813   3.365   0.105
 7256SOL     OW22666   4.279   6.398   5.801
 7256SOL    HW122667   4.238   6.372   5.713
 7256SOL    HW222668   4.260   6.327   5.869
 7257SOL     OW22669   0.378   1.810   4.994
 7257SOL    HW122670   0.422   1.764   5.071
 7257SOL    HW222671   0.316   1.746   4.948
 7258SOL     OW22672   5.776   2.228   2.024
 7258SOL    HW122673   5.825   2.289   2.087
 7258SOL    HW222674   5.838   2.156   1.993
 7259SOL     OW22675   1.173   3.557   2.405
 7259SOL    HW122676   1.187   3.602   2.493
 7259SOL    HW222677   1.202   3.461   2.411
 7260SOL     OW22678   4.775   2.560   1.028
 7260SOL    HW122679   4.859   2.535   1.077
 7260SOL    HW222680   4.697   2.547   1.088
 7261SOL     OW22681   0.495   3.917   1.232
 7261SOL    HW122682   0.503   4.015   1.215
 7261SOL    HW222683   0.532   3.895   1.322
 7262SOL     OW22684   5.537   1.031   6.496
 7262SOL    HW122685   5.482   0.986   6.567
 7262SOL    HW222686   5.483   1.041   6.413
 7263SOL     OW22687   0.303   6.610   0.488
 7263SOL    HW122688   0.297   6.642   0.583
 7263SOL    HW222689   0.279   6.513   0.484
 7264SOL     OW22690   5.444   1.104   1.116
 7264SOL    HW122691   5.402   1.028   1.165
 7264SOL    HW222692   5.520   1.142   1.169
 7265SOL     OW22693   6.003   5.316   4.898
 7265SOL    HW122694   5.916   5.296   4.944
 7265SOL    HW222695   6.028   5.238   4.840
 7266SOL     OW22696   6.539   0.910   3.896
 7266SOL    HW122697   6.452   0.928   3.941
 7266SOL    HW222698   6.529   0.832   3.834
 7267SOL     OW22699   6.649   6.675   4.951
 7267SOL    HW122700   6.666   6.688   4.853
 7267SOL    HW222701   6.707   6.737   5.004
 7268SOL     OW22702   0.088   5.582   4.495
 7268SOL    HW122703   0.019   5.616   4.431
 7268SOL    HW222704   0.067   5.614   4.587
 7269SOL     OW22705   1.968   6.069   5.822
 7269SOL    HW122706   1.891   6.115   5.779
 7269SOL    HW222707   1.982   6.106   5.914
 7270SOL     OW22708   0.204   1.974   3.921
 7270SOL    HW122709   0.145   1.893   3.921
 7270SOL    HW222710   0.296   1.948   3.892
 7271SOL     OW22711   1.563   5.177   4.088
 7271SOL    HW122712   1.645   5.234   4.096
 7271SOL    HW222713   1.534   5.173   3.992
 7272SOL     OW22714   6.505   5.757   1.864
 7272SOL    HW122715   6.463   5.667   1.870
 7272SOL    HW222716   6.580   5.754   1.798
 7273SOL     OW22717   5.011   3.765   6.784
 7273SOL    HW122718   4.963   3.762   6.871
 7273SOL    HW222719   4.954   3.812   6.717
 7274SOL     OW22720   0.307   4.332   6.936
 7274SOL    HW122721   0.319   4.235   6.958
 7274SOL    HW222722   0.209   4.354   6.934
 7275SOL     OW22723   0.231   5.854   3.012
 7275SOL    HW122724   0.229   5.771   2.955
 7275SOL    HW222725   0.244   5.828   3.108
 7276SOL     OW22726   5.521   0.478   3.717
 7276SOL    HW122727   5.519   0.399   3.778
 7276SOL    HW222728   5.597   0.468   3.652
 7277SOL     OW22729   4.791   0.687   5.517
 7277SOL    HW122730   4.701   0.672   5.556
 7277SOL    HW222731   4.856   0.621   5.555
 7278SOL     OW22732   3.201   3.818   1.037
 7278SOL    HW122733   3.286   3.872   1.037
 7278SOL    HW222734   3.170   3.805   1.132
 7279SOL     OW22735   4.356   5.964   0.120
 7279SOL    HW122736   4.365   5.956   0.020
 7279SOL    HW222737   4.385   6.055   0.148
 7280SOL     OW22738   6.860   0.328   4.373
 7280SOL    HW122739   6.799   0.354   4.298
 7280SOL    HW222740   6.841   0.234   4.400
 7281SOL     OW22741   3.062   2.227   6.915
 7281SOL    HW122742   3.144   2.283   6.903
 7281SOL    HW222743   3.022   2.246   7.005
 7282SOL     OW22744   5.995   5.155   2.620
 7282SOL    HW122745   6.027   5.250   2.613
 7282SOL    HW222746   5.915   5.142   2.560
 7283SOL     OW22747   2.823   1.399   3.327
 7283SOL    HW122748   2.775   1.347   3.257
 7283SOL    HW222749   2.904   1.442   3.287
 7284SOL     OW22750   0.678   3.623   5.730
 7284SOL    HW122751   0.696   3.529   5.701
 7284SOL    HW222752   0.651   3.678   5.651
 7285SOL     OW22753   5.312   3.727   2.364
 7285SOL    HW122754   5.391   3.675   2.330
 7285SOL    HW222755   5.286   3.795   2.296
 7286SOL     OW22756   3.050   1.778   1.020
 7286SOL    HW122757   2.958   1.740   1.013
 7286SOL    HW222758   3.045   1.871   1.055
 7287SOL     OW22759   7.000   2.227   6.360
 7287SOL    HW122760   0.026   2.138   6.361
 7287SOL    HW222761   0.029   2.291   6.419
 7288SOL     OW22762   3.661   1.145   6.957
 7288SOL    HW122763   3.584   1.192   7.000
 7288SOL    HW222764   3.634   1.116   6.864
 7289SOL     OW22765   6.392   1.643   3.537
 7289SOL    HW122766   6.421   1.548   3.548
 7289SOL    HW222767   6.340   1.672   3.618
 7290SOL     OW22768   3.491   0.078   5.454
 7290SOL    HW122769   3.458   7.013   5.414
 7290SOL    HW222770   3.581   0.064   5.494
 7291SOL     OW22771   1.607   6.743   1.124
 7291SOL    HW122772   1.564   6.662   1.084
 7291SOL    HW222773   1.662   6.789   1.055
 7292SOL     OW22774   2.659   1.083   3.864
 7292SOL    HW122775   2.734   1.045   3.810
 7292SOL    HW222776   2.626   1.014   3.928
 7293SOL     OW22777   1.661   1.873   5.539
 7293SOL    HW122778   1.597   1.889   5.464
 7293SOL    HW222779   1.644   1.784   5.580
 7294SOL     OW22780   2.194   5.185   0.417
 7294SOL    HW122781   2.112   5.135   0.444
 7294SOL    HW222782   2.177   5.231   0.330
 7295SOL     OW22783   1.010   2.411   0.948
 7295SOL    HW122784   1.064   2.489   0.918
 7295SOL    HW222785   1.011   2.341   0.877
 7296SOL     OW22786   2.529   5.237   1.201
 7296SOL    HW122787   2.561   5.328   1.178
 7296SOL    HW222788   2.575   5.169   1.144
 7297SOL     OW22789   3.884   5.575   0.902
 7297SOL    HW122790   3.877   5.477   0.916
 7297SOL    HW222791   3.833   5.623   0.974
 7298SOL     OW22792   4.736   4.383   5.564
 7298SOL    HW122793   4.736   4.367   5.663
 7298SOL    HW222794   4.822   4.428   5.538
 7299SOL     OW22795   0.155   1.547   0.285
 7299SOL    HW122796   0.204   1.463   0.307
 7299SOL    HW222797   0.088   1.529   0.213
 7300SOL     OW22798   6.191   5.775   2.477
 7300SOL    HW122799   6.167   5.754   2.382
 7300SOL    HW222800   6.242   5.861   2.480
 7301SOL     OW22801   6.691   0.984   4.731
 7301SOL    HW122802   6.715   1.026   4.819
 7301SOL    HW222803   6.595   1.002   4.710
 7302SOL     OW22804   0.746   1.508   6.053
 7302SOL    HW122805   0.839   1.480   6.076
 7302SOL    HW222806   0.704   1.552   6.132
 7303SOL     OW22807   4.610   0.441   6.451
 7303SOL    HW122808   4.658   0.433   6.363
 7303SOL    HW222809   4.672   0.414   6.525
 7304SOL     OW22810   3.953   4.453   0.366
 7304SOL    HW122811   4.038   4.488   0.326
 7304SOL    HW222812   3.933   4.363   0.329
 7305SOL     OW22813   4.516   1.527   0.789
 7305SOL    HW122814   4.448   1.589   0.752
 7305SOL    HW222815   4.538   1.456   0.722
 7306SOL     OW22816   5.203   2.664   1.353
 7306SOL    HW122817   5.247   2.621   1.275
 7306SOL    HW222818   5.251   2.749   1.376
 7307SOL     OW22819   2.911   0.281   1.864
 7307SOL    HW122820   2.832   0.324   1.906
 7307SOL    HW222821   2.929   0.324   1.775
 7308SOL     OW22822   0.056   4.132   5.501
 7308SOL    HW122823   0.112   4.049   5.505
 7308SOL    HW222824   0.085   4.189   5.424
 7309SOL     OW22825   5.307   5.915   0.440
 7309SOL    HW122826   5.305   5.816   0.454
 7309SOL    HW222827   5.393   5.941   0.395
 7310SOL     OW22828   2.055   3.976   1.610
 7310SOL    HW122829   2.087   3.888   1.573
 7310SOL    HW222830   2.002   4.025   1.541
 7311SOL     OW22831   3.514   2.025   2.133
 7311SOL    HW122832   3.573   2.097   2.094
 7311SOL    HW222833   3.571   1.960   2.183
 7312SOL     OW22834   0.244   3.475   6.236
 7312SOL    HW122835   0.296   3.390   6.225
 7312SOL    HW222836   0.159   3.469   6.183
 7313SOL     OW22837   3.883   1.704   6.339
 7313SOL    HW122838   3.946   1.678   6.413
 7313SOL    HW222839   3.932   1.758   6.271
 7314SOL     OW22840   6.574   3.363   5.176
 7314SOL    HW122841   6.652   3.339   5.234
 7314SOL    HW222842   6.489   3.346   5.225
 7315SOL     OW22843   0.015   0.522   2.775
 7315SOL    HW122844   6.960   0.542   2.837
 7315SOL    HW222845   0.009   0.581   2.694
 7316SOL     OW22846   2.997   3.846   6.104
 7316SOL    HW122847   2.936   3.767   6.098
 7316SOL    HW222848   3.077   3.823   6.160
 7317SOL     OW22849   4.660   0.882   2.749
 7317SOL    HW122850   4.631   0.975   2.770
 7317SOL    HW222851   4.626   0.856   2.659
 7318SOL     OW22852   1.185   1.406   0.824
 7318SOL    HW122853   1.216   1.494   0.861
 7318SOL    HW222854   1.157   1.419   0.729
 7319SOL     OW22855   6.099   3.791   6.202
 7319SOL    HW122856   6.028   3.790   6.132
 7319SOL    HW222857   6.155   3.709   6.194
 7320SOL     OW22858   6.211   3.474   1.927
 7320SOL    HW122859   6.133   3.514   1.879
 7320SOL    HW222860   6.255   3.544   1.983
 7321SOL     OW22861   3.222   6.391   5.251
 7321SOL    HW122862   3.188   6.473   5.295
 7321SOL    HW222863   3.211   6.399   5.152
 7322SOL     OW22864   0.166   2.686   2.853
 7322SOL    HW122865   0.187   2.607   2.795
 7322SOL    HW222866   0.208   2.768   2.815
 7323SOL     OW22867   2.060   2.032   1.553
 7323SOL    HW122868   1.992   2.103   1.538
 7323SOL    HW222869   2.029   1.946   1.513
 7324SOL     OW22870   5.062   6.418   2.631
 7324SOL    HW122871   5.006   6.339   2.604
 7324SOL    HW222872   5.148   6.417   2.580
 7325SOL     OW22873   3.689   6.506   0.230
 7325SOL    HW122874   3.689   6.445   0.150
 7325SOL    HW222875   3.783   6.527   0.255
 7326SOL     OW22876   2.838   6.628   5.408
 7326SOL    HW122877   2.870   6.704   5.465
 7326SOL    HW222878   2.916   6.573   5.379
 7327SOL     OW22879   6.624   2.669   5.132
 7327SOL    HW122880   6.644   2.592   5.072
 7327SOL    HW222881   6.649   2.755   5.086
 7328SOL     OW22882   3.512   1.106   5.777
 7328SOL    HW122883   3.600   1.150   5.759
 7328SOL    HW222884   3.439   1.174   5.775
 7329SOL     OW22885   4.548   3.952   1.675
 7329SOL    HW122886   4.589   4.032   1.631
 7329SOL    HW222887   4.452   3.972   1.697
 7330SOL     OW22888   2.944   2.213   0.166
 7330SOL    HW122889   2.888   2.132   0.149
 7330SOL    HW222890   2.947   2.230   0.264
 7331SOL     OW22891   5.812   0.032   2.028
 7331SOL    HW122892   5.876   6.981   1.999
 7331SOL    HW222893   5.720   7.014   2.034
 7332SOL     OW22894   2.015   5.977   0.284
 7332SOL    HW122895   1.919   5.962   0.304
 7332SOL    HW222896   2.071   5.915   0.339
 7333SOL     OW22897   0.050   3.289   3.649
 7333SOL    HW122898   0.085   3.199   3.674
 7333SOL    HW222899   0.111   3.360   3.683
 7334SOL     OW22900   3.746   6.386   6.947
 7334SOL    HW122901   3.766   6.398   6.850
 7334SOL    HW222902   3.648   6.373   6.959
 7335SOL     OW22903   1.983   2.898   2.731
 7335SOL    HW122904   2.036   2.813   2.735
 7335SOL    HW222905   2.040   2.970   2.693
 7336SOL     OW22906   1.751   6.374   3.049
 7336SOL    HW122907   1.690   6.363   3.128
 7336SOL    HW222908   1.835   6.322   3.065
 7337SOL     OW22909   0.685   2.948   2.104
 7337SOL    HW122910   0.679   3.028   2.044
 7337SOL    HW222911   0.593   2.922   2.134
 7338SOL     OW22912   6.353   3.076   1.177
 7338SOL    HW122913   6.336   2.983   1.210
 7338SOL    HW222914   6.316   3.142   1.242
 7339SOL     OW22915   4.959   6.632   3.788
 7339SOL    HW122916   4.972   6.534   3.805
 7339SOL    HW222917   5.023   6.684   3.845
 7340SOL     OW22918   1.393   1.016   0.899
 7340SOL    HW122919   1.309   1.027   0.952
 7340SOL    HW222920   1.372   1.022   0.801
 7341SOL     OW22921   6.582   2.710   6.814
 7341SOL    HW122922   6.648   2.659   6.870
 7341SOL    HW222923   6.494   2.713   6.861
 7342SOL     OW22924   6.266   1.719   1.824
 7342SOL    HW122925   6.332   1.646   1.843
 7342SOL    HW222926   6.177   1.678   1.805
 7343SOL     OW22927   4.475   3.028   0.129
 7343SOL    HW122928   4.557   3.044   0.074
 7343SOL    HW222929   4.395   3.022   0.069
 7344SOL     OW22930   0.968   6.681   6.317
 7344SOL    HW122931   0.884   6.649   6.363
 7344SOL    HW222932   1.047   6.659   6.374
 7345SOL     OW22933   4.012   3.646   5.613
 7345SOL    HW122934   3.917   3.676   5.608
 7345SOL    HW222935   4.072   3.725   5.610
 7346SOL     OW22936   3.649   5.536   2.674
 7346SOL    HW122937   3.655   5.502   2.580
 7346SOL    HW222938   3.709   5.481   2.732
 7347SOL     OW22939   0.639   1.910   0.670
 7347SOL    HW122940   0.548   1.900   0.710
 7347SOL    HW222941   0.709   1.891   0.740
 7348SOL     OW22942   1.447   3.386   3.865
 7348SOL    HW122943   1.354   3.353   3.880
 7348SOL    HW222944   1.452   3.483   3.888
 7349SOL     OW22945   4.460   0.159   2.223
 7349SOL    HW122946   4.383   0.163   2.286
 7349SOL    HW222947   4.518   0.081   2.247
 7350SOL     OW22948   2.617   2.022   5.714
 7350SOL    HW122949   2.686   2.009   5.643
 7350SOL    HW222950   2.595   2.120   5.722
 7351SOL     OW22951   5.653   5.944   3.437
 7351SOL    HW122952   5.726   5.879   3.454
 7351SOL    HW222953   5.564   5.898   3.446
 7352SOL     OW22954   0.476   1.686   2.713
 7352SOL    HW122955   0.445   1.769   2.761
 7352SOL    HW222956   0.471   1.702   2.615
 7353SOL     OW22957   0.397   0.205   6.653
 7353SOL    HW122958   0.453   0.207   6.736
 7353SOL    HW222959   0.311   0.255   6.670
 7354SOL     OW22960   2.081   0.906   5.050
 7354SOL    HW122961   2.162   0.935   4.999
 7354SOL    HW222962   2.042   0.984   5.098
 7355SOL     OW22963   0.590   1.758   6.859
 7355SOL    HW122964   0.599   1.741   6.957
 7355SOL    HW222965   0.495   1.778   6.836
 7356SOL     OW22966   3.690   3.500   6.237
 7356SOL    HW122967   3.768   3.527   6.293
 7356SOL    HW222968   3.714   3.504   6.140
 7357SOL     OW22969   3.023   5.874   2.238
 7357SOL    HW122970   3.106   5.838   2.280
 7357SOL    HW222971   2.950   5.806   2.245
 7358SOL     OW22972   6.699   3.641   2.892
 7358SOL    HW122973   6.603   3.645   2.866
 7358SOL    HW222974   6.710   3.680   2.984
 7359SOL     OW22975   4.165   2.163   5.917
 7359SOL    HW122976   4.156   2.242   5.855
 7359SOL    HW222977   4.214   2.090   5.870
 7360SOL     OW22978   2.522   3.405   5.527
 7360SOL    HW122979   2.571   3.414   5.613
 7360SOL    HW222980   2.558   3.326   5.476
 7361SOL     OW22981   5.355   1.102   2.666
 7361SOL    HW122982   5.258   1.116   2.647
 7361SOL    HW222983   5.392   1.035   2.602
 7362SOL     OW22984   2.743   5.751   6.082
 7362SOL    HW122985   2.809   5.713   6.018
 7362SOL    HW222986   2.789   5.813   6.145
 7363SOL     OW22987   4.436   0.940   1.435
 7363SOL    HW122988   4.513   0.957   1.373
 7363SOL    HW222989   4.359   0.998   1.408
 7364SOL     OW22990   4.452   0.283   1.981
 7364SOL    HW122991   4.453   0.259   2.078
 7364SOL    HW222992   4.435   0.380   1.970
 7365SOL     OW22993   0.329   6.061   2.263
 7365SOL    HW122994   0.292   6.032   2.352
 7365SOL    HW222995   0.318   5.988   2.197
 7366SOL     OW22996   2.654   6.202   5.392
 7366SOL    HW122997   2.741   6.165   5.359
 7366SOL    HW222998   2.669   6.251   5.478
 7367SOL     OW22999   3.677   2.514   0.343
 7367SOL    HW123000   3.695   2.575   0.265
 7367SOL    HW223001   3.732   2.431   0.334
 7368SOL     OW23002   3.714   2.898   2.949
 7368SOL    HW123003   3.746   2.849   3.030
 7368SOL    HW223004   3.616   2.914   2.956
 7369SOL     OW23005   3.782   2.890   1.221
 7369SOL    HW123006   3.744   2.804   1.186
 7369SOL    HW223007   3.791   2.956   1.146
 7370SOL     OW23008   2.864   2.313   5.870
 7370SOL    HW123009   2.924   2.233   5.871
 7370SOL    HW223010   2.777   2.289   5.828
 7371SOL     OW23011   3.281   6.587   3.849
 7371SOL    HW123012   3.188   6.594   3.813
 7371SOL    HW223013   3.281   6.528   3.930
 7372SOL     OW23014   4.343   6.736   4.849
 7372SOL    HW123015   4.303   6.765   4.936
 7372SOL    HW223016   4.361   6.815   4.792
 7373SOL     OW23017   5.765   1.909   4.946
 7373SOL    HW123018   5.791   1.813   4.933
 7373SOL    HW223019   5.749   1.926   5.043
 7374SOL     OW23020   1.797   2.077   4.882
 7374SOL    HW123021   1.811   2.175   4.898
 7374SOL    HW223022   1.747   2.038   4.959
 7375SOL     OW23023   2.195   2.504   2.101
 7375SOL    HW123024   2.173   2.416   2.059
 7375SOL    HW223025   2.289   2.502   2.134
 7376SOL     OW23026   1.070   3.147   1.237
 7376SOL    HW123027   0.978   3.166   1.271
 7376SOL    HW223028   1.137   3.168   1.307
 7377SOL     OW23029   3.939   4.920   0.921
 7377SOL    HW123030   3.872   4.968   0.978
 7377SOL    HW223031   3.905   4.913   0.828
 7378SOL     OW23032   1.408   6.958   4.862
 7378SOL    HW123033   1.389   6.975   4.959
 7378SOL    HW223034   1.440   6.865   4.850
 7379SOL     OW23035   2.732   0.976   1.856
 7379SOL    HW123036   2.735   1.036   1.777
 7379SOL    HW223037   2.825   0.950   1.883
 7380SOL     OW23038   6.610   4.181   3.560
 7380SOL    HW123039   6.648   4.113   3.624
 7380SOL    HW223040   6.589   4.265   3.609
 7381SOL     OW23041   3.978   2.821   0.642
 7381SOL    HW123042   3.883   2.854   0.635
 7381SOL    HW223043   4.030   2.853   0.562
 7382SOL     OW23044   6.785   2.198   5.755
 7382SOL    HW123045   6.713   2.255   5.718
 7382SOL    HW223046   6.753   2.103   5.762
 7383SOL     OW23047   2.170   5.706   1.844
 7383SOL    HW123048   2.177   5.615   1.885
 7383SOL    HW223049   2.078   5.720   1.808
 7384SOL     OW23050   6.663   0.145   1.695
 7384SOL    HW123051   6.567   0.154   1.666
 7384SOL    HW223052   6.700   0.060   1.658
 7385SOL     OW23053   2.957   4.967   2.649
 7385SOL    HW123054   2.911   4.885   2.681
 7385SOL    HW223055   2.946   5.040   2.717
 7386SOL     OW23056   6.270   2.706   6.926
 7386SOL    HW123057   6.197   2.752   6.876
 7386SOL    HW223058   6.234   2.623   6.969
 7387SOL     OW23059   6.624   5.508   5.729
 7387SOL    HW123060   6.685   5.581   5.759
 7387SOL    HW223061   6.626   5.503   5.629
 7388SOL     OW23062   1.474   5.083   1.995
 7388SOL    HW123063   1.535   5.011   2.028
 7388SOL    HW223064   1.438   5.058   1.906
 7389SOL     OW23065   6.973   3.716   0.664
 7389SOL    HW123066   0.052   3.723   0.670
 7389SOL    HW223067   6.937   3.791   0.610
 7390SOL     OW23068   2.751   1.714   2.192
 7390SOL    HW123069   2.795   1.677   2.274
 7390SOL    HW223070   2.818   1.767   2.140
 7391SOL     OW23071   4.122   3.631   2.831
 7391SOL    HW123072   4.033   3.618   2.873
 7391SOL    HW223073   4.194   3.618   2.899
 7392SOL     OW23074   3.483   6.036   6.873
 7392SOL    HW123075   3.439   6.122   6.849
 7392SOL    HW223076   3.451   5.963   6.812
 7393SOL     OW23077   6.165   4.445   3.306
 7393SOL    HW123078   6.246   4.389   3.317
 7393SOL    HW223079   6.180   4.535   3.348
 7394SOL     OW23080   1.895   3.104   6.263
 7394SOL    HW123081   1.860   3.096   6.170
 7394SOL    HW223082   1.976   3.163   6.263
 7395SOL     OW23083   2.208   2.857   1.367
 7395SOL    HW123084   2.134   2.795   1.393
 7395SOL    HW223085   2.230   2.918   1.443
 7396SOL     OW23086   2.449   6.464   1.807
 7396SOL    HW123087   2.385   6.446   1.732
 7396SOL    HW223088   2.542   6.440   1.777
 7397SOL     OW23089   4.971   3.510   4.525
 7397SOL    HW123090   4.923   3.438   4.473
 7397SOL    HW223091   4.975   3.484   4.621
 7398SOL     OW23092   0.926   4.958   3.005
 7398SOL    HW123093   0.952   4.928   3.097
 7398SOL    HW223094   1.007   4.961   2.946
 7399SOL     OW23095   6.641   2.974   5.107
 7399SOL    HW123096   6.613   3.020   5.023
 7399SOL    HW223097   6.634   3.038   5.184
 7400SOL     OW23098   5.151   2.078   5.664
 7400SOL    HW123099   5.245   2.069   5.631
 7400SOL    HW223100   5.145   2.045   5.758
 7401SOL     OW23101   1.939   2.497   3.522
 7401SOL    HW123102   1.938   2.446   3.435
 7401SOL    HW223103   1.888   2.446   3.591
 7402SOL     OW23104   3.002   4.620   5.898
 7402SOL    HW123105   3.020   4.564   5.817
 7402SOL    HW223106   3.055   4.585   5.975
 7403SOL     OW23107   1.824   3.044   2.914
 7403SOL    HW123108   1.877   3.115   2.959
 7403SOL    HW223109   1.878   3.002   2.841
 7404SOL     OW23110   2.902   3.709   1.481
 7404SOL    HW123111   2.870   3.795   1.522
 7404SOL    HW223112   2.971   3.668   1.541
 7405SOL     OW23113   2.946   5.384   4.939
 7405SOL    HW123114   2.999   5.303   4.915
 7405SOL    HW223115   2.990   5.432   5.014
 7406SOL     OW23116   0.987   1.541   5.319
 7406SOL    HW123117   0.903   1.498   5.285
 7406SOL    HW223118   1.037   1.581   5.242
 7407SOL     OW23119   1.206   6.331   6.414
 7407SOL    HW123120   1.116   6.291   6.429
 7407SOL    HW223121   1.259   6.272   6.352
 7408SOL     OW23122   3.498   4.032   5.587
 7408SOL    HW123123   3.409   4.014   5.544
 7408SOL    HW223124   3.571   4.002   5.526
 7409SOL     OW23125   5.384   4.443   0.015
 7409SOL    HW123126   5.380   4.420   0.112
 7409SOL    HW223127   5.368   4.360   6.981
 7410SOL     OW23128   0.704   0.174   0.162
 7410SOL    HW123129   0.645   0.252   0.182
 7410SOL    HW223130   0.710   0.115   0.242
 7411SOL     OW23131   1.752   1.101   6.464
 7411SOL    HW123132   1.792   1.009   6.458
 7411SOL    HW223133   1.762   1.135   6.558
 7412SOL     OW23134   3.991   6.389   0.696
 7412SOL    HW123135   3.934   6.469   0.714
 7412SOL    HW223136   3.958   6.341   0.615
 7413SOL     OW23137   4.617   4.301   3.362
 7413SOL    HW123138   4.591   4.256   3.277
 7413SOL    HW223139   4.603   4.400   3.354
 7414SOL     OW23140   1.972   1.926   4.458
 7414SOL    HW123141   2.003   1.955   4.548
 7414SOL    HW223142   1.900   1.857   4.467
 7415SOL     OW23143   3.298   5.862   5.969
 7415SOL    HW123144   3.295   5.913   5.883
 7415SOL    HW223145   3.334   5.921   6.042
 7416SOL     OW23146   1.986   1.453   2.458
 7416SOL    HW123147   1.952   1.381   2.519
 7416SOL    HW223148   1.966   1.542   2.498
 7417SOL     OW23149   1.831   2.049   2.470
 7417SOL    HW123150   1.738   2.046   2.506
 7417SOL    HW223151   1.834   2.001   2.383
 7418SOL     OW23152   1.678   4.746   0.237
 7418SOL    HW123153   1.631   4.823   0.194
 7418SOL    HW223154   1.647   4.661   0.193
 7419SOL     OW23155   6.232   3.809   4.000
 7419SOL    HW123156   6.178   3.730   4.029
 7419SOL    HW223157   6.271   3.791   3.910
 7420SOL     OW23158   6.767   5.703   1.480
 7420SOL    HW123159   6.704   5.714   1.403
 7420SOL    HW223160   6.742   5.766   1.553
 7421SOL     OW23161   4.255   3.913   1.218
 7421SOL    HW123162   4.163   3.887   1.187
 7421SOL    HW223163   4.270   4.010   1.198
 7422SOL     OW23164   6.223   4.036   2.194
 7422SOL    HW123165   6.153   3.965   2.192
 7422SOL    HW223166   6.194   4.114   2.139
 7423SOL     OW23167   5.628   2.413   5.025
 7423SOL    HW123168   5.725   2.424   5.049
 7423SOL    HW223169   5.580   2.368   5.100
 7424SOL     OW23170   6.734   1.785   5.254
 7424SOL    HW123171   6.680   1.838   5.319
 7424SOL    HW223172   6.809   1.739   5.301
 7425SOL     OW23173   5.097   0.029   0.422
 7425SOL    HW123174   5.107   6.960   0.380
 7425SOL    HW223175   5.044   0.021   0.506
 7426SOL     OW23176   3.312   2.109   5.530
 7426SOL    HW123177   3.223   2.090   5.489
 7426SOL    HW223178   3.370   2.156   5.464
 7427SOL     OW23179   3.667   1.053   4.002
 7427SOL    HW123180   3.689   1.150   3.991
 7427SOL    HW223181   3.751   0.999   4.002
 7428SOL     OW23182   4.488   0.485   5.328
 7428SOL    HW123183   4.520   0.576   5.300
 7428SOL    HW223184   4.417   0.454   5.266
 7429SOL     OW23185   0.975   6.448   3.118
 7429SOL    HW123186   0.988   6.373   3.183
 7429SOL    HW223187   0.964   6.411   3.026
 7430SOL     OW23188   6.874   4.089   1.706
 7430SOL    HW123189   6.901   4.157   1.774
 7430SOL    HW223190   6.809   4.024   1.747
 7431SOL     OW23191   1.986   2.165   3.522
 7431SOL    HW123192   1.923   2.089   3.539
 7431SOL    HW223193   1.993   2.181   3.424
 7432SOL     OW23194   1.789   0.246   3.409
 7432SOL    HW123195   1.753   0.184   3.478
 7432SOL    HW223196   1.883   0.222   3.388
 7433SOL     OW23197   3.402   6.547   6.694
 7433SOL    HW123198   3.469   6.608   6.651
 7433SOL    HW223199   3.416   6.547   6.794
 7434SOL     OW23200   4.801   6.042   5.771
 7434SOL    HW123201   4.872   6.112   5.764
 7434SOL    HW223202   4.713   6.083   5.746
 7435SOL     OW23203   4.571   6.066   1.725
 7435SOL    HW123204   4.478   6.060   1.762
 7435SOL    HW223205   4.605   6.159   1.736
 7436SOL     OW23206   4.694   4.273   6.207
 7436SOL    HW123207   4.640   4.260   6.124
 7436SOL    HW223208   4.759   4.348   6.192
 7437SOL     OW23209   3.027   6.213   1.578
 7437SOL    HW123210   2.964   6.135   1.581
 7437SOL    HW223211   3.022   6.262   1.665
 7438SOL     OW23212   1.527   0.386   0.179
 7438SOL    HW123213   1.453   0.320   0.166
 7438SOL    HW223214   1.564   0.412   0.090
 7439SOL     OW23215   1.811   5.625   5.284
 7439SOL    HW123216   1.908   5.644   5.270
 7439SOL    HW223217   1.781   5.557   5.217
 7440SOL     OW23218   6.025   3.090   3.529
 7440SOL    HW123219   5.984   3.098   3.438
 7440SOL    HW223220   6.004   3.172   3.582
 7441SOL     OW23221   5.888   6.723   3.838
 7441SOL    HW123222   5.882   6.665   3.919
 7441SOL    HW223223   5.830   6.686   3.766
 7442SOL     OW23224   5.929   1.037   6.286
 7442SOL    HW123225   5.934   0.962   6.221
 7442SOL    HW223226   5.967   1.007   6.374
 7443SOL     OW23227   6.788   5.433   1.560
 7443SOL    HW123228   6.724   5.397   1.627
 7443SOL    HW223229   6.763   5.527   1.536
 7444SOL     OW23230   6.490   1.409   6.142
 7444SOL    HW123231   6.416   1.476   6.150
 7444SOL    HW223232   6.556   1.442   6.075
 7445SOL     OW23233   3.507   6.987   1.371
 7445SOL    HW123234   3.423   7.010   1.322
 7445SOL    HW223235   3.572   0.043   1.365
 7446SOL     OW23236   4.904   2.641   0.342
 7446SOL    HW123237   4.923   2.593   0.257
 7446SOL    HW223238   4.900   2.576   0.418
 7447SOL     OW23239   6.798   4.389   6.483
 7447SOL    HW123240   6.707   4.372   6.447
 7447SOL    HW223241   6.859   4.315   6.456
 7448SOL     OW23242   5.362   6.400   5.596
 7448SOL    HW123243   5.412   6.472   5.547
 7448SOL    HW223244   5.265   6.422   5.597
 7449SOL     OW23245   0.363   5.449   0.463
 7449SOL    HW123246   0.451   5.401   0.463
 7449SOL    HW223247   0.330   5.456   0.369
 7450SOL     OW23248   5.103   2.315   5.512
 7450SOL    HW123249   5.105   2.404   5.558
 7450SOL    HW223250   5.131   2.244   5.576
 7451SOL     OW23251   5.597   5.174   2.780
 7451SOL    HW123252   5.655   5.234   2.835
 7451SOL    HW223253   5.511   5.221   2.758
 7452SOL     OW23254   6.444   6.236   4.129
 7452SOL    HW123255   6.476   6.222   4.035
 7452SOL    HW223256   6.346   6.222   4.134
 7453SOL     OW23257   4.952   5.756   6.419
 7453SOL    HW123258   4.921   5.719   6.507
 7453SOL    HW223259   4.875   5.797   6.371
 7454SOL     OW23260   3.085   1.569   0.399
 7454SOL    HW123261   3.059   1.637   0.330
 7454SOL    HW223262   3.031   1.583   0.482
 7455SOL     OW23263   6.174   3.098   2.562
 7455SOL    HW123264   6.085   3.113   2.521
 7455SOL    HW223265   6.191   3.000   2.570
 7456SOL     OW23266   2.558   1.895   5.345
 7456SOL    HW123267   2.513   1.982   5.362
 7456SOL    HW223268   2.657   1.909   5.342
 7457SOL     OW23269   2.872   0.007   3.719
 7457SOL    HW123270   2.959   6.981   3.702
 7457SOL    HW223271   2.885   0.106   3.717
 7458SOL     OW23272   1.166   0.372   5.314
 7458SOL    HW123273   1.079   0.386   5.266
 7458SOL    HW223274   1.152   0.385   5.412
 7459SOL     OW23275   6.151   1.416   2.374
 7459SOL    HW123276   6.202   1.382   2.453
 7459SOL    HW223277   6.210   1.416   2.293
 7460SOL     OW23278   1.610   6.619   0.173
 7460SOL    HW123279   1.652   6.535   0.139
 7460SOL    HW223280   1.511   6.606   0.179
 7461SOL     OW23281   6.424   6.345   5.261
 7461SOL    HW123282   6.486   6.424   5.257
 7461SOL    HW223283   6.361   6.356   5.338
 7462SOL     OW23284   1.376   5.548   1.092
 7462SOL    HW123285   1.318   5.627   1.105
 7462SOL    HW223286   1.400   5.508   1.180
 7463SOL     OW23287   3.183   4.608   0.538
 7463SOL    HW123288   3.095   4.596   0.585
 7463SOL    HW223289   3.257   4.597   0.604
 7464SOL     OW23290   6.987   6.074   4.635
 7464SOL    HW123291   7.012   6.014   4.711
 7464SOL    HW223292   6.887   6.078   4.627
 7465SOL     OW23293   2.725   5.435   0.546
 7465SOL    HW123294   2.699   5.370   0.474
 7465SOL    HW223295   2.656   5.433   0.618
 7466SOL     OW23296   0.479   1.000   6.229
 7466SOL    HW123297   0.489   0.933   6.302
 7466SOL    HW223298   0.486   0.955   6.140
 7467SOL     OW23299   0.374   2.640   6.153
 7467SOL    HW123300   0.321   2.725   6.145
 7467SOL    HW223301   0.349   2.578   6.079
 7468SOL     OW23302   5.083   2.730   3.752
 7468SOL    HW123303   5.013   2.711   3.821
 7468SOL    HW223304   5.166   2.678   3.773
 7469SOL     OW23305   6.495   2.097   0.081
 7469SOL    HW123306   6.565   2.109   0.011
 7469SOL    HW223307   6.436   2.178   0.085
 7470SOL     OW23308   5.338   4.295   3.893
 7470SOL    HW123309   5.242   4.272   3.907
 7470SOL    HW223310   5.387   4.283   3.980
 7471SOL     OW23311   5.131   6.115   5.962
 7471SOL    HW123312   5.101   6.021   5.978
 7471SOL    HW223313   5.214   6.133   6.014
 7472SOL     OW23314   6.314   1.109   5.374
 7472SOL    HW123315   6.289   1.205   5.388
 7472SOL    HW223316   6.338   1.095   5.278
 7473SOL     OW23317   5.216   6.932   3.827
 7473SOL    HW123318   5.202   7.007   3.891
 7473SOL    HW223319   5.173   6.955   3.739
 7474SOL     OW23320   6.443   2.419   6.952
 7474SOL    HW123321   6.523   2.376   6.995
 7474SOL    HW223322   6.386   2.460   0.003
 7475SOL     OW23323   4.378   2.399   2.321
 7475SOL    HW123324   4.360   2.358   2.231
 7475SOL    HW223325   4.321   2.355   2.390
 7476SOL     OW23326   2.264   2.110   3.008
 7476SOL    HW123327   2.364   2.119   3.007
 7476SOL    HW223328   2.237   2.051   3.083
 7477SOL     OW23329   0.468   3.295   4.735
 7477SOL    HW123330   0.431   3.228   4.671
 7477SOL    HW223331   0.568   3.291   4.733
 7478SOL     OW23332   5.326   3.116   5.028
 7478SOL    HW123333   5.363   3.087   5.116
 7478SOL    HW223334   5.269   3.043   4.990
 7479SOL     OW23335   5.502   3.114   0.206
 7479SOL    HW123336   5.437   3.185   0.232
 7479SOL    HW223337   5.469   3.068   0.123
 7480SOL     OW23338   1.877   5.348   2.523
 7480SOL    HW123339   1.809   5.296   2.471
 7480SOL    HW223340   1.874   5.444   2.497
 7481SOL     OW23341   6.216   4.625   6.772
 7481SOL    HW123342   6.216   4.600   6.869
 7481SOL    HW223343   6.180   4.717   6.762
 7482SOL     OW23344   4.355   2.248   2.764
 7482SOL    HW123345   4.405   2.257   2.678
 7482SOL    HW223346   4.386   2.318   2.829
 7483SOL     OW23347   4.427   2.443   4.819
 7483SOL    HW123348   4.408   2.424   4.723
 7483SOL    HW223349   4.341   2.446   4.871
 7484SOL     OW23350   1.898   5.611   4.233
 7484SOL    HW123351   1.813   5.559   4.222
 7484SOL    HW223352   1.882   5.707   4.208
 7485SOL     OW23353   3.103   6.760   3.560
 7485SOL    HW123354   3.061   6.757   3.470
 7485SOL    HW223355   3.090   6.851   3.599
 7486SOL     OW23356   0.702   6.029   0.170
 7486SOL    HW123357   0.653   6.051   0.086
 7486SOL    HW223358   0.730   6.114   0.215
 7487SOL     OW23359   4.678   0.714   2.970
 7487SOL    HW123360   4.672   0.785   2.900
 7487SOL    HW223361   4.586   0.687   2.998
 7488SOL     OW23362   1.327   6.122   4.204
 7488SOL    HW123363   1.344   6.161   4.295
 7488SOL    HW223364   1.269   6.184   4.152
 7489SOL     OW23365   6.331   3.671   7.020
 7489SOL    HW123366   6.303   3.754   6.971
 7489SOL    HW223367   6.419   3.640   6.984
 7490SOL     OW23368   1.263   1.900   1.944
 7490SOL    HW123369   1.216   1.821   1.904
 7490SOL    HW223370   1.263   1.975   1.878
 7491SOL     OW23371   4.666   2.601   0.620
 7491SOL    HW123372   4.750   2.549   0.605
 7491SOL    HW223373   4.587   2.541   0.611
 7492SOL     OW23374   1.846   1.210   4.240
 7492SOL    HW123375   1.857   1.299   4.194
 7492SOL    HW223376   1.935   1.168   4.252
 7493SOL     OW23377   6.692   3.565   5.472
 7493SOL    HW123378   6.597   3.538   5.484
 7493SOL    HW223379   6.747   3.483   5.453
 7494SOL     OW23380   5.672   1.004   4.024
 7494SOL    HW123381   5.606   0.937   4.059
 7494SOL    HW223382   5.680   1.079   4.090
 7495SOL     OW23383   2.238   2.953   4.470
 7495SOL    HW123384   2.159   2.897   4.494
 7495SOL    HW223385   2.286   2.981   4.553
 7496SOL     OW23386   5.797   3.219   3.737
 7496SOL    HW123387   5.756   3.187   3.651
 7496SOL    HW223388   5.811   3.318   3.732
 7497SOL     OW23389   1.698   6.316   1.231
 7497SOL    HW123390   1.728   6.412   1.233
 7497SOL    HW223391   1.777   6.257   1.245
 7498SOL     OW23392   2.954   0.677   3.930
 7498SOL    HW123393   2.860   0.651   3.909
 7498SOL    HW223394   3.014   0.654   3.853
 7499SOL     OW23395   4.564   1.854   3.508
 7499SOL    HW123396   4.644   1.909   3.487
 7499SOL    HW223397   4.533   1.806   3.425
 7500SOL     OW23398   3.632   6.184   3.805
 7500SOL    HW123399   3.657   6.097   3.848
 7500SOL    HW223400   3.611   6.251   3.876
 7501SOL     OW23401   5.419   3.081   4.232
 7501SOL    HW123402   5.388   3.095   4.138
 7501SOL    HW223403   5.431   3.170   4.277
 7502SOL     OW23404   3.643   6.923   4.021
 7502SOL    HW123405   3.597   6.894   4.105
 7502SOL    HW223406   3.591   6.999   3.979
 7503SOL     OW23407   1.797   6.142   0.596
 7503SOL    HW123408   1.780   6.068   0.531
 7503SOL    HW223409   1.789   6.230   0.549
 7504SOL     OW23410   0.553   6.303   2.326
 7504SOL    HW123411   0.479   6.320   2.262
 7504SOL    HW223412   0.531   6.223   2.383
 7505SOL     OW23413   0.336   1.610   5.729
 7505SOL    HW123414   0.411   1.608   5.664
 7505SOL    HW223415   0.250   1.590   5.681
 7506SOL     OW23416   3.435   2.145   3.190
 7506SOL    HW123417   3.494   2.223   3.171
 7506SOL    HW223418   3.356   2.147   3.128
 7507SOL     OW23419   6.579   3.327   4.495
 7507SOL    HW123420   6.507   3.395   4.482
 7507SOL    HW223421   6.660   3.353   4.441
 7508SOL     OW23422   1.752   5.750   0.249
 7508SOL    HW123423   1.806   5.695   0.184
 7508SOL    HW223424   1.663   5.771   0.208
 7509SOL     OW23425   5.503   4.144   0.238
 7509SOL    HW123426   5.508   4.059   0.290
 7509SOL    HW223427   5.460   4.127   0.149
 7510SOL     OW23428   4.015   3.616   3.845
 7510SOL    HW123429   4.022   3.693   3.909
 7510SOL    HW223430   4.084   3.548   3.868
 7511SOL     OW23431   2.857   6.047   3.099
 7511SOL    HW123432   2.901   6.132   3.127
 7511SOL    HW223433   2.926   5.975   3.088
 7512SOL     OW23434   2.895   0.831   6.506
 7512SOL    HW123435   2.962   0.765   6.472
 7512SOL    HW223436   2.850   0.876   6.429
 7513SOL     OW23437   1.940   2.028   3.254
 7513SOL    HW123438   2.038   2.047   3.261
 7513SOL    HW223439   1.923   1.975   3.171
 7514SOL     OW23440   1.573   4.736   3.536
 7514SOL    HW123441   1.475   4.748   3.521
 7514SOL    HW223442   1.616   4.709   3.451
 7515SOL     OW23443   6.629   4.254   5.215
 7515SOL    HW123444   6.727   4.244   5.230
 7515SOL    HW223445   6.598   4.341   5.253
 7516SOL     OW23446   1.029   5.422   6.026
 7516SOL    HW123447   0.971   5.380   5.957
 7516SOL    HW223448   1.020   5.522   6.020
 7517SOL     OW23449   1.676   2.319   7.007
 7517SOL    HW123450   1.589   2.304   0.032
 7517SOL    HW223451   1.750   2.282   0.043
 7518SOL     OW23452   4.723   2.769   3.576
 7518SOL    HW123453   4.635   2.721   3.570
 7518SOL    HW223454   4.797   2.704   3.556
 7519SOL     OW23455   5.368   0.009   4.434
 7519SOL    HW123456   5.373   7.006   4.531
 7519SOL    HW223457   5.407   0.100   4.419
 7520SOL     OW23458   1.216   1.505   2.633
 7520SOL    HW123459   1.169   1.576   2.685
 7520SOL    HW223460   1.149   1.436   2.603
 7521SOL     OW23461   4.817   1.952   4.640
 7521SOL    HW123462   4.869   1.969   4.556
 7521SOL    HW223463   4.862   1.881   4.693
 7522SOL     OW23464   0.889   0.018   4.708
 7522SOL    HW123465   0.989   0.021   4.704
 7522SOL    HW223466   0.852   0.031   4.616
 7523SOL     OW23467   5.088   0.799   6.013
 7523SOL    HW123468   5.086   0.864   6.089
 7523SOL    HW223469   5.174   0.747   6.015
 7524SOL     OW23470   0.148   2.732   4.722
 7524SOL    HW123471   0.107   2.802   4.663
 7524SOL    HW223472   0.243   2.755   4.740
 7525SOL     OW23473   4.159   6.565   6.775
 7525SOL    HW123474   4.145   6.474   6.736
 7525SOL    HW223475   4.071   6.608   6.792
 7526SOL     OW23476   2.304   2.949   1.814
 7526SOL    HW123477   2.314   2.878   1.884
 7526SOL    HW223478   2.237   3.017   1.844
 7527SOL     OW23479   3.506   5.709   3.990
 7527SOL    HW123480   3.556   5.629   3.958
 7527SOL    HW223481   3.563   5.791   3.980
 7528SOL     OW23482   5.270   1.828   6.892
 7528SOL    HW123483   5.232   1.774   6.816
 7528SOL    HW223484   5.279   1.923   6.864
 7529SOL     OW23485   5.615   1.755   3.660
 7529SOL    HW123486   5.620   1.729   3.563
 7529SOL    HW223487   5.608   1.854   3.668
 7530SOL     OW23488   6.611   1.452   2.311
 7530SOL    HW123489   6.605   1.356   2.284
 7530SOL    HW223490   6.526   1.480   2.355
 7531SOL     OW23491   4.914   3.179   3.408
 7531SOL    HW123492   4.904   3.226   3.496
 7531SOL    HW223493   4.910   3.246   3.334
 7532SOL     OW23494   4.587   6.263   6.283
 7532SOL    HW123495   4.683   6.237   6.276
 7532SOL    HW223496   4.538   6.195   6.338
 7533SOL     OW23497   4.278   2.829   1.649
 7533SOL    HW123498   4.308   2.919   1.680
 7533SOL    HW223499   4.277   2.827   1.549
 7534SOL     OW23500   4.959   6.838   4.656
 7534SOL    HW123501   5.024   6.799   4.590
 7534SOL    HW223502   4.869   6.796   4.642
 7535SOL     OW23503   1.484   6.519   5.053
 7535SOL    HW123504   1.464   6.614   5.025
 7535SOL    HW223505   1.426   6.457   5.001
 7536SOL     OW23506   5.368   6.006   3.896
 7536SOL    HW123507   5.358   6.020   3.994
 7536SOL    HW223508   5.453   6.047   3.864
 7537SOL     OW23509   1.786   5.654   2.022
 7537SOL    HW123510   1.807   5.557   2.010
 7537SOL    HW223511   1.772   5.673   2.119
 7538SOL     OW23512   1.358   2.896   1.491
 7538SOL    HW123513   1.372   2.830   1.564
 7538SOL    HW223514   1.371   2.989   1.526
 7539SOL     OW23515   1.386   5.246   3.037
 7539SOL    HW123516   1.457   5.313   3.060
 7539SOL    HW223517   1.424   5.178   2.974
 7540SOL     OW23518   5.073   6.065   4.541
 7540SOL    HW123519   5.063   6.048   4.443
 7540SOL    HW223520   5.001   6.126   4.572
 7541SOL     OW23521   0.521   4.103   6.739
 7541SOL    HW123522   0.512   4.199   6.713
 7541SOL    HW223523   0.480   4.088   6.830
 7542SOL     OW23524   6.766   5.671   5.154
 7542SOL    HW123525   6.820   5.614   5.215
 7542SOL    HW223526   6.671   5.638   5.153
 7543SOL     OW23527   2.915   0.742   4.878
 7543SOL    HW123528   2.892   0.699   4.791
 7543SOL    HW223529   3.012   0.768   4.877
 7544SOL     OW23530   0.280   2.589   4.309
 7544SOL    HW123531   0.200   2.568   4.364
 7544SOL    HW223532   0.334   2.661   4.353
 7545SOL     OW23533   0.420   6.027   6.181
 7545SOL    HW123534   0.328   5.990   6.172
 7545SOL    HW223535   0.436   6.093   6.108
 7546SOL     OW23536   4.562   2.360   1.934
 7546SOL    HW123537   4.526   2.440   1.886
 7546SOL    HW223538   4.502   2.339   2.012
 7547SOL     OW23539   4.796   0.653   1.457
 7547SOL    HW123540   4.787   0.564   1.412
 7547SOL    HW223541   4.757   0.724   1.398
 7548SOL     OW23542   4.346   2.157   6.768
 7548SOL    HW123543   4.403   2.081   6.800
 7548SOL    HW223544   4.253   2.145   6.802
 7549SOL     OW23545   3.473   2.474   6.399
 7549SOL    HW123546   3.558   2.425   6.417
 7549SOL    HW223547   3.461   2.484   6.300
 7550SOL     OW23548   1.782   4.420   3.720
 7550SOL    HW123549   1.801   4.447   3.626
 7550SOL    HW223550   1.689   4.448   3.745
 7551SOL     OW23551   4.974   3.043   5.497
 7551SOL    HW123552   5.042   3.031   5.424
 7551SOL    HW223553   4.892   3.084   5.459
 7552SOL     OW23554   1.723   5.668   4.860
 7552SOL    HW123555   1.767   5.705   4.779
 7552SOL    HW223556   1.720   5.738   4.931
 7553SOL     OW23557   6.199   6.172   5.971
 7553SOL    HW123558   6.144   6.248   5.936
 7553SOL    HW223559   6.182   6.090   5.916
 7554SOL     OW23560   5.357   0.948   0.706
 7554SOL    HW123561   5.314   0.961   0.795
 7554SOL    HW223562   5.381   1.038   0.668
 7555SOL     OW23563   3.252   6.241   6.387
 7555SOL    HW123564   3.327   6.262   6.324
 7555SOL    HW223565   3.224   6.324   6.434
 7556SOL     OW23566   1.111   1.460   0.536
 7556SOL    HW123567   1.053   1.512   0.599
 7556SOL    HW223568   1.169   1.523   0.485
 7557SOL     OW23569   4.733   0.374   0.146
 7557SOL    HW123570   4.634   0.359   0.143
 7557SOL    HW223571   4.775   0.307   0.207
 7558SOL     OW23572   1.475   2.781   3.700
 7558SOL    HW123573   1.521   2.712   3.644
 7558SOL    HW223574   1.463   2.865   3.647
 7559SOL     OW23575   3.834   2.339   5.338
 7559SOL    HW123576   3.846   2.249   5.378
 7559SOL    HW223577   3.909   2.399   5.367
 7560SOL     OW23578   5.988   0.022   0.172
 7560SOL    HW123579   6.021   6.984   0.097
 7560SOL    HW223580   6.060   0.030   0.241
 7561SOL     OW23581   5.284   3.074   5.537
 7561SOL    HW123582   5.255   3.161   5.578
 7561SOL    HW223583   5.323   3.016   5.609
 7562SOL     OW23584   1.127   4.916   4.833
 7562SOL    HW123585   1.198   4.863   4.787
 7562SOL    HW223586   1.052   4.855   4.858
 7563SOL     OW23587   2.802   6.419   2.536
 7563SOL    HW123588   2.863   6.476   2.590
 7563SOL    HW223589   2.839   6.327   2.528
 7564SOL     OW23590   4.405   0.581   4.757
 7564SOL    HW123591   4.338   0.639   4.804
 7564SOL    HW223592   4.497   0.613   4.778
 7565SOL     OW23593   5.907   4.298   6.122
 7565SOL    HW123594   5.969   4.260   6.191
 7565SOL    HW223595   5.943   4.279   6.031
 7566SOL     OW23596   5.549   4.877   2.507
 7566SOL    HW123597   5.641   4.852   2.536
 7566SOL    HW223598   5.524   4.823   2.427
 7567SOL     OW23599   1.039   1.645   4.883
 7567SOL    HW123600   1.017   1.734   4.844
 7567SOL    HW223601   1.065   1.581   4.811
 7568SOL     OW23602   5.721   5.611   2.407
 7568SOL    HW123603   5.743   5.518   2.436
 7568SOL    HW223604   5.707   5.668   2.488
 7569SOL     OW23605   3.793   4.693   6.736
 7569SOL    HW123606   3.836   4.779   6.707
 7569SOL    HW223607   3.830   4.667   6.826
 7570SOL     OW23608   0.161   2.418   3.669
 7570SOL    HW123609   0.241   2.467   3.702
 7570SOL    HW223610   0.084   2.482   3.662
 7571SOL     OW23611   5.421   3.306   3.115
 7571SOL    HW123612   5.374   3.272   3.034
 7571SOL    HW223613   5.423   3.235   3.185
 7572SOL     OW23614   4.919   6.772   2.947
 7572SOL    HW123615   5.004   6.773   3.000
 7572SOL    HW223616   4.901   6.678   2.916
 7573SOL     OW23617   5.833   0.508   6.120
 7573SOL    HW123618   5.757   0.567   6.149
 7573SOL    HW223619   5.850   0.522   6.022
 7574SOL     OW23620   5.946   1.607   4.176
 7574SOL    HW123621   5.920   1.694   4.135
 7574SOL    HW223622   5.892   1.591   4.258
 7575SOL     OW23623   6.076   6.375   0.860
 7575SOL    HW123624   6.165   6.339   0.889
 7575SOL    HW223625   6.089   6.467   0.822
 7576SOL     OW23626   4.751   2.743   0.826
 7576SOL    HW123627   4.760   2.687   0.908
 7576SOL    HW223628   4.705   2.691   0.754
 7577SOL     OW23629   0.107   6.328   0.007
 7577SOL    HW123630   0.009   6.335   0.025
 7577SOL    HW223631   0.159   6.362   0.085
 7578SOL     OW23632   0.609   5.334   2.269
 7578SOL    HW123633   0.600   5.353   2.171
 7578SOL    HW223634   0.534   5.376   2.319
 7579SOL     OW23635   6.556   1.724   1.328
 7579SOL    HW123636   6.630   1.787   1.353
 7579SOL    HW223637   6.488   1.722   1.402
 7580SOL     OW23638   1.618   4.553   3.284
 7580SOL    HW123639   1.621   4.567   3.185
 7580SOL    HW223640   1.546   4.488   3.306
 7581SOL     OW23641   0.886   1.153   1.134
 7581SOL    HW123642   0.818   1.227   1.132
 7581SOL    HW223643   0.960   1.175   1.070
 7582SOL     OW23644   4.597   1.476   4.136
 7582SOL    HW123645   4.610   1.393   4.190
 7582SOL    HW223646   4.631   1.555   4.187
 7583SOL     OW23647   5.445   3.673   3.475
 7583SOL    HW123648   5.357   3.627   3.467
 7583SOL    HW223649   5.501   3.653   3.394
 7584SOL     OW23650   1.075   6.623   2.383
 7584SOL    HW123651   1.035   6.555   2.321
 7584SOL    HW223652   1.045   6.603   2.477
 7585SOL     OW23653   1.014   1.928   6.877
 7585SOL    HW123654   0.958   1.970   6.949
 7585SOL    HW223655   0.957   1.863   6.825
 7586SOL     OW23656   1.319   0.499   1.843
 7586SOL    HW123657   1.379   0.567   1.883
 7586SOL    HW223658   1.359   0.464   1.758
 7587SOL     OW23659   2.967   1.197   0.584
 7587SOL    HW123660   3.005   1.105   0.599
 7587SOL    HW223661   2.958   1.213   0.485
 7588SOL     OW23662   1.241   2.633   4.124
 7588SOL    HW123663   1.269   2.718   4.169
 7588SOL    HW223664   1.309   2.607   4.056
 7589SOL     OW23665   0.295   1.473   3.316
 7589SOL    HW123666   0.246   1.545   3.365
 7589SOL    HW223667   0.320   1.505   3.225
 7590SOL     OW23668   6.323   1.672   6.891
 7590SOL    HW123669   6.378   1.729   6.951
 7590SOL    HW223670   6.226   1.697   6.900
 7591SOL     OW23671   4.735   2.670   6.732
 7591SOL    HW123672   4.702   2.642   6.642
 7591SOL    HW223673   4.730   2.591   6.794
 7592SOL     OW23674   5.981   4.533   4.740
 7592SOL    HW123675   6.072   4.492   4.751
 7592SOL    HW223676   5.967   4.601   4.812
 7593SOL     OW23677   6.733   2.391   6.059
 7593SOL    HW123678   6.752   2.294   6.070
 7593SOL    HW223679   6.634   2.405   6.059
 7594SOL     OW23680   0.752   4.627   1.438
 7594SOL    HW123681   0.810   4.698   1.398
 7594SOL    HW223682   0.668   4.618   1.385
 7595SOL     OW23683   6.602   3.123   6.394
 7595SOL    HW123684   6.682   3.074   6.430
 7595SOL    HW223685   6.628   3.218   6.377
 7596SOL     OW23686   3.186   0.533   5.018
 7596SOL    HW123687   3.283   0.517   5.037
 7596SOL    HW223688   3.177   0.579   4.929
 7597SOL     OW23689   2.097   6.166   2.696
 7597SOL    HW123690   2.120   6.154   2.793
 7597SOL    HW223691   2.100   6.263   2.673
 7598SOL     OW23692   5.880   0.321   2.917
 7598SOL    HW123693   5.932   0.399   2.883
 7598SOL    HW223694   5.801   0.305   2.857
 7599SOL     OW23695   4.723   3.347   1.242
 7599SOL    HW123696   4.822   3.330   1.237
 7599SOL    HW223697   4.675   3.284   1.181
 7600SOL     OW23698   1.641   1.270   3.840
 7600SOL    HW123699   1.598   1.301   3.925
 7600SOL    HW223700   1.570   1.244   3.775
 7601SOL     OW23701   3.203   5.309   1.820
 7601SOL    HW123702   3.132   5.379   1.814
 7601SOL    HW223703   3.272   5.337   1.888
 7602SOL     OW23704   6.979   2.596   0.049
 7602SOL    HW123705   6.991   2.679   7.015
 7602SOL    HW223706   0.047   2.571   0.091
 7603SOL     OW23707   2.357   6.678   5.824
 7603SOL    HW123708   2.405   6.755   5.867
 7603SOL    HW223709   2.418   6.633   5.759
 7604SOL     OW23710   1.514   2.147   5.132
 7604SOL    HW123711   1.433   2.134   5.076
 7604SOL    HW223712   1.574   2.068   5.125
 7605SOL     OW23713   1.211   0.212   0.300
 7605SOL    HW123714   1.166   0.132   0.341
 7605SOL    HW223715   1.207   0.289   0.364
 7606SOL     OW23716   5.877   2.293   4.613
 7606SOL    HW123717   5.909   2.382   4.647
 7606SOL    HW223718   5.943   2.258   4.546
 7607SOL     OW23719   3.795   5.886   0.566
 7607SOL    HW123720   3.714   5.941   0.546
 7607SOL    HW223721   3.768   5.792   0.585
 7608SOL     OW23722   5.392   2.830   6.254
 7608SOL    HW123723   5.435   2.920   6.242
 7608SOL    HW223724   5.399   2.778   6.168
 7609SOL     OW23725   0.452   3.345   3.907
 7609SOL    HW123726   0.493   3.424   3.862
 7609SOL    HW223727   0.421   3.280   3.838
 7610SOL     OW23728   3.489   5.221   6.545
 7610SOL    HW123729   3.439   5.307   6.553
 7610SOL    HW223730   3.529   5.198   6.634
 7611SOL     OW23731   4.958   3.766   1.485
 7611SOL    HW123732   4.934   3.670   1.474
 7611SOL    HW223733   4.913   3.802   1.567
 7612SOL     OW23734   3.771   2.039   2.971
 7612SOL    HW123735   3.824   1.982   2.908
 7612SOL    HW223736   3.782   2.135   2.947
 7613SOL     OW23737   1.003   2.336   1.984
 7613SOL    HW123738   0.961   2.402   2.047
 7613SOL    HW223739   1.093   2.370   1.956
 7614SOL     OW23740   5.129   3.471   1.058
 7614SOL    HW123741   5.057   3.466   0.989
 7614SOL    HW223742   5.182   3.555   1.045
 7615SOL     OW23743   5.727   3.563   5.601
 7615SOL    HW123744   5.737   3.476   5.650
 7615SOL    HW223745   5.696   3.634   5.664
 7616SOL     OW23746   5.936   0.146   3.437
 7616SOL    HW123747   6.027   0.106   3.450
 7616SOL    HW223748   5.926   0.175   3.342
 7617SOL     OW23749   4.970   5.040   3.304
 7617SOL    HW123750   5.049   5.052   3.365
 7617SOL    HW223751   4.930   4.949   3.320
 7618SOL     OW23752   1.339   2.665   0.217
 7618SOL    HW123753   1.334   2.648   0.315
 7618SOL    HW223754   1.424   2.628   0.181
 7619SOL     OW23755   0.471   2.457   4.133
 7619SOL    HW123756   0.390   2.503   4.170
 7619SOL    HW223757   0.456   2.359   4.132
 7620SOL     OW23758   3.487   4.447   0.236
 7620SOL    HW123759   3.538   4.361   0.237
 7620SOL    HW223760   3.448   4.461   0.145
 7621SOL     OW23761   0.133   6.172   0.861
 7621SOL    HW123762   0.062   6.239   0.842
 7621SOL    HW223763   0.113   6.126   0.948
 7622SOL     OW23764   4.405   4.355   0.329
 7622SOL    HW123765   4.365   4.280   0.276
 7622SOL    HW223766   4.442   4.320   0.415
 7623SOL     OW23767   4.033   4.694   1.060
 7623SOL    HW123768   4.018   4.785   1.021
 7623SOL    HW223769   3.946   4.656   1.090
 7624SOL     OW23770   0.265   2.972   2.531
 7624SOL    HW123771   0.180   2.969   2.584
 7624SOL    HW223772   0.343   2.982   2.593
 7625SOL     OW23773   5.578   2.049   0.331
 7625SOL    HW123774   5.603   2.121   0.267
 7625SOL    HW223775   5.651   1.980   0.333
 7626SOL     OW23776   6.324   0.804   5.760
 7626SOL    HW123777   6.404   0.765   5.806
 7626SOL    HW223778   6.342   0.810   5.662
 7627SOL     OW23779   3.770   2.057   0.073
 7627SOL    HW123780   3.714   2.091   0.149
 7627SOL    HW223781   3.713   2.002   0.012
 7628SOL     OW23782   3.761   3.022   1.000
 7628SOL    HW123783   3.782   3.118   1.018
 7628SOL    HW223784   3.828   2.986   0.934
 7629SOL     OW23785   6.087   3.538   4.083
 7629SOL    HW123786   6.168   3.488   4.116
 7629SOL    HW223787   6.009   3.517   4.141
 7630SOL     OW23788   1.369   6.820   5.645
 7630SOL    HW123789   1.272   6.807   5.628
 7630SOL    HW223790   1.385   6.912   5.681
 7631SOL     OW23791   2.136   0.152   5.120
 7631SOL    HW123792   2.073   0.076   5.139
 7631SOL    HW223793   2.118   0.227   5.184
 7632SOL     OW23794   4.203   5.192   1.192
 7632SOL    HW123795   4.243   5.272   1.236
 7632SOL    HW223796   4.191   5.119   1.259
 7633SOL     OW23797   6.012   0.152   1.789
 7633SOL    HW123798   6.099   0.103   1.785
 7633SOL    HW223799   5.936   0.086   1.782
 7634SOL     OW23800   1.282   1.711   1.209
 7634SOL    HW123801   1.335   1.694   1.292
 7634SOL    HW223802   1.213   1.781   1.227
 7635SOL     OW23803   2.447   5.114   4.664
 7635SOL    HW123804   2.538   5.151   4.680
 7635SOL    HW223805   2.434   5.031   4.719
 7636SOL     OW23806   0.321   4.683   4.200
 7636SOL    HW123807   0.340   4.588   4.176
 7636SOL    HW223808   0.378   4.709   4.278
 7637SOL     OW23809   0.849   6.015   3.916
 7637SOL    HW123810   0.846   5.929   3.967
 7637SOL    HW223811   0.760   6.033   3.874
 7638SOL     OW23812   0.980   5.348   1.313
 7638SOL    HW123813   1.064   5.293   1.309
 7638SOL    HW223814   0.977   5.408   1.233
 7639SOL     OW23815   0.111   0.892   0.212
 7639SOL    HW123816   0.113   0.818   0.145
 7639SOL    HW223817   0.075   0.858   0.299
 7640SOL     OW23818   3.372   1.586   6.624
 7640SOL    HW123819   3.361   1.505   6.683
 7640SOL    HW223820   3.470   1.604   6.612
 7641SOL     OW23821   6.695   3.910   3.119
 7641SOL    HW123822   6.700   3.962   3.205
 7641SOL    HW223823   6.786   3.872   3.098
 7642SOL     OW23824   5.739   1.237   2.814
 7642SOL    HW123825   5.713   1.268   2.723
 7642SOL    HW223826   5.747   1.316   2.875
 7643SOL     OW23827   5.359   1.834   3.056
 7643SOL    HW123828   5.326   1.909   2.999
 7643SOL    HW223829   5.315   1.749   3.027
 7644SOL     OW23830   4.934   3.242   2.166
 7644SOL    HW123831   4.867   3.185   2.119
 7644SOL    HW223832   4.980   3.188   2.237
 7645SOL     OW23833   3.295   3.811   5.288
 7645SOL    HW123834   3.229   3.743   5.319
 7645SOL    HW223835   3.388   3.774   5.298
 7646SOL     OW23836   0.896   2.893   2.989
 7646SOL    HW123837   0.890   2.841   3.074
 7646SOL    HW223838   0.990   2.894   2.956
 7647SOL     OW23839   0.446   2.778   4.428
 7647SOL    HW123840   0.502   2.768   4.346
 7647SOL    HW223841   0.503   2.811   4.504
 7648SOL     OW23842   2.235   1.867   3.139
 7648SOL    HW123843   2.167   1.824   3.198
 7648SOL    HW223844   2.279   1.798   3.082
 7649SOL     OW23845   0.730   1.088   4.837
 7649SOL    HW123846   0.787   1.010   4.864
 7649SOL    HW223847   0.674   1.063   4.758
 7650SOL     OW23848   4.604   1.187   1.147
 7650SOL    HW123849   4.518   1.216   1.105
 7650SOL    HW223850   4.665   1.266   1.156
 7651SOL     OW23851   2.113   5.177   4.505
 7651SOL    HW123852   2.060   5.203   4.586
 7651SOL    HW223853   2.197   5.230   4.501
 7652SOL     OW23854   5.901   2.126   4.808
 7652SOL    HW123855   5.835   2.078   4.866
 7652SOL    HW223856   5.855   2.164   4.728
 7653SOL     OW23857   0.852   1.587   7.018
 7653SOL    HW123858   0.777   1.577   0.063
 7653SOL    HW223859   0.815   1.596   6.925
 7654SOL     OW23860   5.532   2.644   4.707
 7654SOL    HW123861   5.602   2.582   4.671
 7654SOL    HW223862   5.481   2.597   4.780
 7655SOL     OW23863   3.507   0.307   3.567
 7655SOL    HW123864   3.501   0.250   3.648
 7655SOL    HW223865   3.577   0.271   3.506
 7656SOL     OW23866   6.420   3.325   5.698
 7656SOL    HW123867   6.398   3.365   5.786
 7656SOL    HW223868   6.451   3.231   5.711
 7657SOL     OW23869   1.796   3.688   4.687
 7657SOL    HW123870   1.854   3.719   4.763
 7657SOL    HW223871   1.851   3.682   4.604
 7658SOL     OW23872   2.769   0.543   0.983
 7658SOL    HW123873   2.794   0.446   0.977
 7658SOL    HW223874   2.812   0.583   1.064
 7659SOL     OW23875   4.376   4.045   6.031
 7659SOL    HW123876   4.312   4.052   6.107
 7659SOL    HW223877   4.348   3.973   5.968
 7660SOL     OW23878   6.705   6.072   4.721
 7660SOL    HW123879   6.652   6.092   4.638
 7660SOL    HW223880   6.662   6.117   4.800
 7661SOL     OW23881   4.524   2.354   6.425
 7661SOL    HW123882   4.588   2.392   6.358
 7661SOL    HW223883   4.459   2.425   6.453
 7662SOL     OW23884   0.756   2.040   2.846
 7662SOL    HW123885   0.837   2.098   2.835
 7662SOL    HW223886   0.706   2.068   2.928
 7663SOL     OW23887   5.616   5.661   6.039
 7663SOL    HW123888   5.591   5.614   6.124
 7663SOL    HW223889   5.624   5.594   5.965
 7664SOL     OW23890   4.233   1.028   2.961
 7664SOL    HW123891   4.216   0.957   3.029
 7664SOL    HW223892   4.151   1.084   2.950
 7665SOL     OW23893   5.529   2.342   3.813
 7665SOL    HW123894   5.586   2.392   3.879
 7665SOL    HW223895   5.533   2.244   3.834
 7666SOL     OW23896   6.225   6.383   3.891
 7666SOL    HW123897   6.189   6.290   3.886
 7666SOL    HW223898   6.222   6.415   3.986
 7667SOL     OW23899   4.653   6.790   1.888
 7667SOL    HW123900   4.669   6.741   1.802
 7667SOL    HW223901   4.555   6.799   1.903
 7668SOL     OW23902   2.601   4.983   1.057
 7668SOL    HW123903   2.693   4.974   1.018
 7668SOL    HW223904   2.589   4.914   1.128
 7669SOL     OW23905   3.961   0.247   6.018
 7669SOL    HW123906   3.992   0.329   5.969
 7669SOL    HW223907   3.984   0.257   6.115
 7670SOL     OW23908   0.797   6.710   0.367
 7670SOL    HW123909   0.735   6.788   0.359
 7670SOL    HW223910   0.891   6.741   0.358
 7671SOL     OW23911   5.284   6.878   2.377
 7671SOL    HW123912   5.200   6.917   2.340
 7671SOL    HW223913   5.270   6.852   2.472
 7672SOL     OW23914   6.659   4.525   3.004
 7672SOL    HW123915   6.604   4.451   2.966
 7672SOL    HW223916   6.660   4.518   3.104
 7673SOL     OW23917   1.151   5.542   2.932
 7673SOL    HW123918   1.091   5.471   2.969
 7673SOL    HW223919   1.137   5.627   2.984
 7674SOL     OW23920   4.085   0.735   4.290
 7674SOL    HW123921   4.166   0.787   4.263
 7674SOL    HW223922   4.091   0.642   4.252
 7675SOL     OW23923   3.373   6.722   3.577
 7675SOL    HW123924   3.273   6.724   3.576
 7675SOL    HW223925   3.405   6.629   3.558
 7676SOL     OW23926   3.148   2.800   6.179
 7676SOL    HW123927   3.132   2.790   6.081
 7676SOL    HW223928   3.119   2.716   6.226
 7677SOL     OW23929   6.667   4.723   1.130
 7677SOL    HW123930   6.739   4.694   1.193
 7677SOL    HW223931   6.705   4.731   1.038
 7678SOL     OW23932   1.666   2.157   5.567
 7678SOL    HW123933   1.663   2.059   5.548
 7678SOL    HW223934   1.711   2.173   5.654
 7679SOL     OW23935   1.955   5.344   5.363
 7679SOL    HW123936   2.031   5.342   5.427
 7679SOL    HW223937   1.951   5.434   5.319
 7680SOL     OW23938   1.483   0.143   5.526
 7680SOL    HW123939   1.433   0.108   5.447
 7680SOL    HW223940   1.562   0.196   5.495
 7681SOL     OW23941   2.922   2.313   6.675
 7681SOL    HW123942   2.831   2.353   6.663
 7681SOL    HW223943   2.952   2.327   6.769
 7682SOL     OW23944   3.446   1.944   2.839
 7682SOL    HW123945   3.436   1.986   2.749
 7682SOL    HW223946   3.389   1.993   2.906
 7683SOL     OW23947   0.360   1.110   4.513
 7683SOL    HW123948   0.372   1.176   4.587
 7683SOL    HW223949   0.372   1.155   4.425
 7684SOL     OW23950   3.996   1.843   1.929
 7684SOL    HW123951   3.988   1.942   1.925
 7684SOL    HW223952   4.081   1.819   1.977
 7685SOL     OW23953   3.853   1.556   6.684
 7685SOL    HW123954   3.791   1.541   6.761
 7685SOL    HW223955   3.892   1.648   6.689
 7686SOL     OW23956   4.896   0.425   4.608
 7686SOL    HW123957   4.858   0.431   4.516
 7686SOL    HW223958   4.985   0.472   4.611
 7687SOL     OW23959   5.259   5.588   4.891
 7687SOL    HW123960   5.162   5.568   4.881
 7687SOL    HW223961   5.272   5.687   4.896
 7688SOL     OW23962   0.279   5.418   5.546
 7688SOL    HW123963   0.260   5.339   5.487
 7688SOL    HW223964   0.283   5.388   5.641
 7689SOL     OW23965   4.770   0.438   1.699
 7689SOL    HW123966   4.713   0.507   1.655
 7689SOL    HW223967   4.712   0.364   1.732
 7690SOL     OW23968   5.681   4.990   0.250
 7690SOL    HW123969   5.756   4.972   0.314
 7690SOL    HW223970   5.596   4.950   0.285
 7691SOL     OW23971   4.631   4.656   2.323
 7691SOL    HW123972   4.597   4.575   2.274
 7691SOL    HW223973   4.650   4.631   2.418
 7692SOL     OW23974   0.996   5.769   1.483
 7692SOL    HW123975   0.955   5.840   1.425
 7692SOL    HW223976   1.084   5.802   1.517
 7693SOL     OW23977   3.165   0.865   0.928
 7693SOL    HW123978   3.167   0.767   0.906
 7693SOL    HW223979   3.250   0.890   0.974
 7694SOL     OW23980   5.647   2.528   4.447
 7694SOL    HW123981   5.643   2.628   4.438
 7694SOL    HW223982   5.556   2.493   4.468
 7695SOL     OW23983   6.131   0.298   2.448
 7695SOL    HW123984   6.226   0.322   2.468
 7695SOL    HW223985   6.129   0.227   2.378
 7696SOL     OW23986   0.252   2.113   6.149
 7696SOL    HW123987   0.287   2.147   6.062
 7696SOL    HW223988   0.245   2.014   6.146
 7697SOL     OW23989   3.311   0.257   2.849
 7697SOL    HW123990   3.402   0.266   2.889
 7697SOL    HW223991   3.317   0.269   2.750
 7698SOL     OW23992   6.123   2.929   6.389
 7698SOL    HW123993   6.172   2.924   6.477
 7698SOL    HW223994   6.179   2.887   6.318
 7699SOL     OW23995   2.116   5.215   6.938
 7699SOL    HW123996   2.207   5.193   6.900
 7699SOL    HW223997   2.068   5.277   6.876
 7700SOL     OW23998   4.646   6.305   3.161
 7700SOL    HW123999   4.624   6.210   3.182
 7700SOL    HW224000   4.599   6.365   3.226
 7701SOL     OW24001   6.914   1.833   6.035
 7701SOL    HW124002   6.872   1.825   6.126
 7701SOL    HW224003   6.937   1.929   6.017
 7702SOL     OW24004   4.737   0.016   6.121
 7702SOL    HW124005   4.649   0.056   6.097
 7702SOL    HW224006   4.747   6.948   6.074
 7703SOL     OW24007   6.448   0.430   4.900
 7703SOL    HW124008   6.490   0.365   4.838
 7703SOL    HW224009   6.511   0.449   4.976
 7704SOL     OW24010   6.869   1.296   4.152
 7704SOL    HW124011   6.897   1.380   4.107
 7704SOL    HW224012   6.772   1.280   4.135
 7705SOL     OW24013   2.134   5.028   0.656
 7705SOL    HW124014   2.080   4.946   0.672
 7705SOL    HW224015   2.192   5.015   0.575
 7706SOL     OW24016   3.519   3.184   3.233
 7706SOL    HW124017   3.501   3.086   3.220
 7706SOL    HW224018   3.589   3.196   3.303
 7707SOL     OW24019   0.125   5.259   6.210
 7707SOL    HW124020   0.035   5.297   6.189
 7707SOL    HW224021   0.128   5.228   6.305
 7708SOL     OW24022   1.504   6.836   3.769
 7708SOL    HW124023   1.493   6.738   3.756
 7708SOL    HW224024   1.591   6.853   3.816
 7709SOL     OW24025   6.748   4.986   1.133
 7709SOL    HW124026   6.690   4.904   1.139
 7709SOL    HW224027   6.702   5.061   1.180
 7710SOL     OW24028   1.574   2.543   0.578
 7710SOL    HW124029   1.535   2.612   0.639
 7710SOL    HW224030   1.501   2.497   0.528
 7711SOL     OW24031   6.240   5.631   5.570
 7711SOL    HW124032   6.180   5.621   5.490
 7711SOL    HW224033   6.336   5.630   5.540
 7712SOL     OW24034   6.400   4.507   6.158
 7712SOL    HW124035   6.392   4.464   6.068
 7712SOL    HW224036   6.311   4.504   6.204
 7713SOL     OW24037   1.866   4.146   0.721
 7713SOL    HW124038   1.937   4.141   0.792
 7713SOL    HW224039   1.776   4.151   0.764
 7714SOL     OW24040   0.075   6.951   4.945
 7714SOL    HW124041   0.104   6.953   5.041
 7714SOL    HW224042   0.112   0.011   4.898
 7715SOL     OW24043   2.226   2.876   6.107
 7715SOL    HW124044   2.226   2.901   6.010
 7715SOL    HW224045   2.283   2.795   6.121
 7716SOL     OW24046   0.790   4.861   6.629
 7716SOL    HW124047   0.858   4.858   6.556
 7716SOL    HW224048   0.703   4.823   6.596
 7717SOL     OW24049   1.387   2.075   5.720
 7717SOL    HW124050   1.360   2.063   5.816
 7717SOL    HW224051   1.486   2.071   5.712
 7718SOL     OW24052   0.411   3.263   2.553
 7718SOL    HW124053   0.390   3.278   2.456
 7718SOL    HW224054   0.455   3.174   2.563
 7719SOL     OW24055   1.681   4.057   4.650
 7719SOL    HW124056   1.780   4.055   4.658
 7719SOL    HW224057   1.656   4.070   4.554
 7720SOL     OW24058   5.771   2.210   6.377
 7720SOL    HW124059   5.705   2.226   6.450
 7720SOL    HW224060   5.854   2.170   6.415
 7721SOL     OW24061   1.343   0.712   2.344
 7721SOL    HW124062   1.274   0.784   2.349
 7721SOL    HW224063   1.307   0.634   2.294
 7722SOL     OW24064   2.222   5.022   4.068
 7722SOL    HW124065   2.233   4.984   4.160
 7722SOL    HW224066   2.222   5.122   4.073
 7723SOL     OW24067   4.988   3.011   6.875
 7723SOL    HW124068   4.984   3.105   6.841
 7723SOL    HW224069   4.972   2.948   6.799
 7724SOL     OW24070   3.192   4.220   0.683
 7724SOL    HW124071   3.221   4.144   0.743
 7724SOL    HW224072   3.248   4.221   0.601
 7725SOL     OW24073   6.059   2.626   2.546
 7725SOL    HW124074   5.964   2.638   2.515
 7725SOL    HW224075   6.060   2.610   2.644
 7726SOL     OW24076   1.249   2.848   6.078
 7726SOL    HW124077   1.173   2.903   6.046
 7726SOL    HW224078   1.325   2.908   6.105
 7727SOL     OW24079   5.544   2.226   1.889
 7727SOL    HW124080   5.618   2.220   1.955
 7727SOL    HW224081   5.496   2.313   1.901
 7728SOL     OW24082   2.208   2.492   5.217
 7728SOL    HW124083   2.284   2.505   5.153
 7728SOL    HW224084   2.230   2.536   5.305
 7729SOL     OW24085   6.526   1.695   2.141
 7729SOL    HW124086   6.564   1.712   2.232
 7729SOL    HW224087   6.456   1.624   2.148
 7730SOL     OW24088   5.396   4.529   5.063
 7730SOL    HW124089   5.357   4.546   4.972
 7730SOL    HW224090   5.449   4.609   5.091
 7731SOL     OW24091   5.806   0.273   0.688
 7731SOL    HW124092   5.755   0.326   0.757
 7731SOL    HW224093   5.779   0.177   0.693
 7732SOL     OW24094   4.145   0.179   0.166
 7732SOL    HW124095   4.117   0.268   0.201
 7732SOL    HW224096   4.122   0.173   0.069
 7733SOL     OW24097   6.356   5.871   2.734
 7733SOL    HW124098   6.374   5.856   2.831
 7733SOL    HW224099   6.287   5.806   2.703
 7734SOL     OW24100   2.570   4.664   5.058
 7734SOL    HW124101   2.668   4.682   5.049
 7734SOL    HW224102   2.533   4.636   4.969
 7735SOL     OW24103   6.502   6.462   0.226
 7735SOL    HW124104   6.543   6.446   0.316
 7735SOL    HW224105   6.424   6.401   0.214
 7736SOL     OW24106   2.799   2.671   0.630
 7736SOL    HW124107   2.809   2.592   0.570
 7736SOL    HW224108   2.818   2.643   0.725
 7737SOL     OW24109   3.737   5.304   1.558
 7737SOL    HW124110   3.701   5.229   1.503
 7737SOL    HW224111   3.705   5.294   1.652
 7738SOL     OW24112   2.828   5.904   6.704
 7738SOL    HW124113   2.759   5.970   6.675
 7738SOL    HW224114   2.784   5.815   6.719
 7739SOL     OW24115   1.270   2.354   1.872
 7739SOL    HW124116   1.344   2.337   1.937
 7739SOL    HW224117   1.308   2.372   1.782
 7740SOL     OW24118   2.164   0.696   2.666
 7740SOL    HW124119   2.168   0.783   2.716
 7740SOL    HW224120   2.163   0.714   2.568
 7741SOL     OW24121   1.754   4.947   5.598
 7741SOL    HW124122   1.842   4.941   5.550
 7741SOL    HW224123   1.699   4.866   5.578
 7742SOL     OW24124   4.143   1.312   3.723
 7742SOL    HW124125   4.208   1.238   3.705
 7742SOL    HW224126   4.185   1.378   3.785
 7743SOL     OW24127   5.149   1.096   6.827
 7743SOL    HW124128   5.240   1.114   6.789
 7743SOL    HW224129   5.157   1.085   6.926
 7744SOL     OW24130   0.843   5.965   4.946
 7744SOL    HW124131   0.814   5.915   5.027
 7744SOL    HW224132   0.911   5.911   4.895
 7745SOL     OW24133   2.183   6.549   6.755
 7745SOL    HW124134   2.201   6.451   6.763
 7745SOL    HW224135   2.129   6.580   6.833
 7746SOL     OW24136   1.176   6.295   1.237
 7746SOL    HW124137   1.215   6.204   1.253
 7746SOL    HW224138   1.247   6.356   1.203
 7747SOL     OW24139   6.760   6.078   0.735
 7747SOL    HW124140   6.811   6.100   0.818
 7747SOL    HW224141   6.704   6.156   0.708
 7748SOL     OW24142   3.853   2.883   5.188
 7748SOL    HW124143   3.938   2.838   5.161
 7748SOL    HW224144   3.870   2.981   5.201
 7749SOL     OW24145   3.394   3.902   3.129
 7749SOL    HW124146   3.390   3.836   3.053
 7749SOL    HW224147   3.420   3.854   3.213
 7750SOL     OW24148   5.084   5.337   6.186
 7750SOL    HW124149   5.006   5.378   6.234
 7750SOL    HW224150   5.101   5.246   6.224
 7751SOL     OW24151   0.512   1.378   3.973
 7751SOL    HW124152   0.563   1.399   4.056
 7751SOL    HW224153   0.414   1.385   3.991
 7752SOL     OW24154   5.563   5.103   5.188
 7752SOL    HW124155   5.607   5.164   5.254
 7752SOL    HW224156   5.546   5.014   5.230
 7753SOL     OW24157   2.699   0.492   4.494
 7753SOL    HW124158   2.600   0.473   4.500
 7753SOL    HW224159   2.729   0.479   4.399
 7754SOL     OW24160   5.842   0.702   0.899
 7754SOL    HW124161   5.821   0.800   0.894
 7754SOL    HW224162   5.858   0.667   0.807
 7755SOL     OW24163   0.360   6.664   5.636
 7755SOL    HW124164   0.411   6.624   5.712
 7755SOL    HW224165   0.419   6.725   5.584
 7756SOL     OW24166   2.429   5.672   2.060
 7756SOL    HW124167   2.403   5.768   2.071
 7756SOL    HW224168   2.443   5.631   2.150
 7757SOL     OW24169   4.573   5.938   5.132
 7757SOL    HW124170   4.575   5.844   5.098
 7757SOL    HW224171   4.537   5.938   5.225
 7758SOL     OW24172   1.982   2.520   5.992
 7758SOL    HW124173   1.952   2.515   6.087
 7758SOL    HW224174   2.003   2.429   5.958
 7759SOL     OW24175   2.097   0.657   5.153
 7759SOL    HW124176   2.052   0.662   5.242
 7759SOL    HW224177   2.090   0.745   5.106
 7760SOL     OW24178   6.117   2.952   2.265
 7760SOL    HW124179   6.017   2.957   2.266
 7760SOL    HW224180   6.145   2.856   2.272
 7761SOL     OW24181   2.892   6.681   6.051
 7761SOL    HW124182   2.930   6.617   6.118
 7761SOL    HW224183   2.892   6.639   5.960
 7762SOL     OW24184   3.756   0.583   6.394
 7762SOL    HW124185   3.794   0.630   6.474
 7762SOL    HW224186   3.825   0.578   6.322
 7763SOL     OW24187   1.344   1.615   0.954
 7763SOL    HW124188   1.442   1.597   0.959
 7763SOL    HW224189   1.312   1.654   1.041
 7764SOL     OW24190   3.887   3.418   2.494
 7764SOL    HW124191   3.853   3.358   2.567
 7764SOL    HW224192   3.810   3.446   2.436
 7765SOL     OW24193   6.510   3.570   4.127
 7765SOL    HW124194   6.445   3.502   4.162
 7765SOL    HW224195   6.487   3.660   4.162
 7766SOL     OW24196   5.473   1.683   0.034
 7766SOL    HW124197   5.475   1.584   0.021
 7766SOL    HW224198   5.412   1.725   6.987
 7767SOL     OW24199   3.774   6.208   3.420
 7767SOL    HW124200   3.806   6.125   3.374
 7767SOL    HW224201   3.676   6.200   3.439
 7768SOL     OW24202   3.720   5.002   2.924
 7768SOL    HW124203   3.768   4.997   3.011
 7768SOL    HW224204   3.764   4.942   2.857
 7769SOL     OW24205   4.705   1.586   1.804
 7769SOL    HW124206   4.760   1.510   1.838
 7769SOL    HW224207   4.765   1.659   1.771
 7770SOL     OW24208   2.561   4.558   2.156
 7770SOL    HW124209   2.650   4.513   2.158
 7770SOL    HW224210   2.562   4.629   2.086
 7771SOL     OW24211   2.655   2.352   4.749
 7771SOL    HW124212   2.617   2.442   4.726
 7771SOL    HW224213   2.606   2.314   4.827
 7772SOL     OW24214   5.115   1.381   3.401
 7772SOL    HW124215   5.074   1.418   3.318
 7772SOL    HW224216   5.178   1.449   3.441
 7773SOL     OW24217   3.944   4.645   6.288
 7773SOL    HW124218   3.993   4.727   6.320
 7773SOL    HW224219   3.854   4.641   6.331
 7774SOL     OW24220   5.363   1.646   5.752
 7774SOL    HW124221   5.347   1.626   5.655
 7774SOL    HW224222   5.277   1.638   5.802
 7775SOL     OW24223   3.214   6.449   3.115
 7775SOL    HW124224   3.249   6.530   3.163
 7775SOL    HW224225   3.281   6.419   3.047
 7776SOL     OW24226   3.259   3.356   5.854
 7776SOL    HW124227   3.169   3.391   5.829
 7776SOL    HW224228   3.318   3.355   5.773
 7777SOL     OW24229   2.635   1.545   5.329
 7777SOL    HW124230   2.560   1.572   5.269
 7777SOL    HW224231   2.704   1.496   5.275
 7778SOL     OW24232   5.575   0.341   0.379
 7778SOL    HW124233   5.489   0.291   0.366
 7778SOL    HW224234   5.562   0.411   0.449
 7779SOL     OW24235   3.589   2.835   0.674
 7779SOL    HW124236   3.653   2.764   0.644
 7779SOL    HW224237   3.634   2.924   0.674
 7780SOL     OW24238   1.590   5.684   4.330
 7780SOL    HW124239   1.670   5.731   4.367
 7780SOL    HW224240   1.521   5.752   4.304
 7781SOL     OW24241   1.074   3.866   5.989
 7781SOL    HW124242   0.988   3.876   6.040
 7781SOL    HW224243   1.057   3.811   5.907
 7782SOL     OW24244   1.590   3.935   5.550
 7782SOL    HW124245   1.594   3.951   5.452
 7782SOL    HW224246   1.503   3.892   5.573
 7783SOL     OW24247   2.772   6.616   5.802
 7783SOL    HW124248   2.679   6.634   5.771
 7783SOL    HW224249   2.808   6.536   5.755
 7784SOL     OW24250   1.557   2.784   6.974
 7784SOL    HW124251   1.495   2.861   6.989
 7784SOL    HW224252   1.583   2.744   0.042
 7785SOL     OW24253   1.753   6.631   4.154
 7785SOL    HW124254   1.792   6.603   4.242
 7785SOL    HW224255   1.822   6.679   4.101
 7786SOL     OW24256   3.239   5.063   5.459
 7786SOL    HW124257   3.186   5.056   5.374
 7786SOL    HW224258   3.216   4.986   5.518
 7787SOL     OW24259   2.318   2.214   5.234
 7787SOL    HW124260   2.253   2.289   5.232
 7787SOL    HW224261   2.279   2.137   5.285
 7788SOL     OW24262   1.800   1.299   1.745
 7788SOL    HW124263   1.740   1.222   1.721
 7788SOL    HW224264   1.779   1.377   1.687
 7789SOL     OW24265   2.476   0.302   1.141
 7789SOL    HW124266   2.522   0.327   1.056
 7789SOL    HW224267   2.528   0.339   1.219
 7790SOL     OW24268   6.359   4.600   3.058
 7790SOL    HW124269   6.338   4.692   3.092
 7790SOL    HW224270   6.426   4.557   3.119
 7791SOL     OW24271   2.536   6.053   4.016
 7791SOL    HW124272   2.592   5.976   3.986
 7791SOL    HW224273   2.439   6.029   4.007
 7792SOL     OW24274   1.646   5.251   5.989
 7792SOL    HW124275   1.690   5.336   5.962
 7792SOL    HW224276   1.667   5.231   6.084
 7793SOL     OW24277   1.721   1.385   5.566
 7793SOL    HW124278   1.790   1.442   5.520
 7793SOL    HW224279   1.742   1.289   5.551
 7794SOL     OW24280   5.197   4.962   4.473
 7794SOL    HW124281   5.102   4.992   4.485
 7794SOL    HW224282   5.256   5.042   4.461
 7795SOL     OW24283   2.142   4.213   5.093
 7795SOL    HW124284   2.210   4.158   5.044
 7795SOL    HW224285   2.079   4.153   5.143
 7796SOL     OW24286   3.293   4.053   3.397
 7796SOL    HW124287   3.232   4.081   3.324
 7796SOL    HW224288   3.305   3.953   3.394
 7797SOL     OW24289   0.144   5.425   3.241
 7797SOL    HW124290   0.111   5.484   3.316
 7797SOL    HW224291   0.234   5.457   3.212
 7798SOL     OW24292   2.324   5.653   6.986
 7798SOL    HW124293   2.249   5.699   6.938
 7798SOL    HW224294   2.411   5.691   6.957
 7799SOL     OW24295   6.615   5.364   1.753
 7799SOL    HW124296   6.530   5.400   1.715
 7799SOL    HW224297   6.659   5.434   1.809
 7800SOL     OW24298   0.923   4.136   1.445
 7800SOL    HW124299   0.986   4.107   1.517
 7800SOL    HW224300   0.928   4.235   1.434
 7801SOL     OW24301   2.623   1.648   1.221
 7801SOL    HW124302   2.694   1.698   1.271
 7801SOL    HW224303   2.664   1.573   1.170
 7802SOL     OW24304   6.419   3.261   0.946
 7802SOL    HW124305   6.422   3.218   1.036
 7802SOL    HW224306   6.369   3.347   0.951
 7803SOL     OW24307   4.269   3.774   5.605
 7803SOL    HW124308   4.311   3.685   5.618
 7803SOL    HW224309   4.310   3.820   5.526
 7804SOL     OW24310   6.301   1.078   4.305
 7804SOL    HW124311   6.224   1.020   4.333
 7804SOL    HW224312   6.386   1.029   4.320
 7805SOL     OW24313   5.077   1.898   1.089
 7805SOL    HW124314   5.027   1.976   1.127
 7805SOL    HW224315   5.077   1.904   0.989
 7806SOL     OW24316   5.975   3.460   5.919
 7806SOL    HW124317   6.020   3.547   5.895
 7806SOL    HW224318   5.938   3.466   6.012
 7807SOL     OW24319   0.102   4.937   6.287
 7807SOL    HW124320   0.064   4.963   6.198
 7807SOL    HW224321   0.202   4.933   6.280
 7808SOL     OW24322   0.397   2.805   4.824
 7808SOL    HW124323   0.478   2.791   4.768
 7808SOL    HW224324   0.424   2.835   4.915
 7809SOL     OW24325   2.527   6.159   4.525
 7809SOL    HW124326   2.476   6.242   4.546
 7809SOL    HW224327   2.611   6.183   4.476
 7810SOL     OW24328   2.985   0.434   5.725
 7810SOL    HW124329   2.987   0.436   5.625
 7810SOL    HW224330   3.064   0.483   5.761
 7811SOL     OW24331   6.264   4.304   4.160
 7811SOL    HW124332   6.302   4.245   4.232
 7811SOL    HW224333   6.165   4.312   4.172
 7812SOL     OW24334   1.468   1.795   4.034
 7812SOL    HW124335   1.483   1.738   3.953
 7812SOL    HW224336   1.513   1.754   4.113
 7813SOL     OW24337   4.743   2.620   6.226
 7813SOL    HW124338   4.744   2.520   6.237
 7813SOL    HW224339   4.837   2.653   6.220
 7814SOL     OW24340   6.838   2.108   3.148
 7814SOL    HW124341   6.750   2.060   3.140
 7814SOL    HW224342   6.887   2.074   3.229
 7815SOL     OW24343   4.972   1.214   6.458
 7815SOL    HW124344   5.025   1.295   6.432
 7815SOL    HW224345   4.875   1.230   6.438
 7816SOL     OW24346   1.906   2.956   5.980
 7816SOL    HW124347   1.882   3.003   5.896
 7816SOL    HW224348   1.998   2.918   5.973
 7817SOL     OW24349   6.083   3.375   3.596
 7817SOL    HW124350   6.089   3.455   3.656
 7817SOL    HW224351   6.174   3.356   3.557
 7818SOL     OW24352   5.371   0.634   2.203
 7818SOL    HW124353   5.342   0.576   2.127
 7818SOL    HW224354   5.375   0.729   2.172
 7819SOL     OW24355   0.368   3.029   1.841
 7819SOL    HW124356   0.421   2.960   1.793
 7819SOL    HW224357   0.278   3.037   1.800
 7820SOL     OW24358   1.719   2.323   4.994
 7820SOL    HW124359   1.632   2.291   5.030
 7820SOL    HW224360   1.747   2.405   5.044
 7821SOL     OW24361   4.364   5.663   1.044
 7821SOL    HW124362   4.323   5.708   1.124
 7821SOL    HW224363   4.443   5.608   1.074
 7822SOL     OW24364   0.165   0.166   5.357
 7822SOL    HW124365   0.223   0.215   5.293
 7822SOL    HW224366   0.222   0.110   5.417
 7823SOL     OW24367   2.215   4.133   4.577
 7823SOL    HW124368   2.189   4.068   4.506
 7823SOL    HW224369   2.230   4.084   4.663
 7824SOL     OW24370   6.656   2.423   5.002
 7824SOL    HW124371   6.750   2.396   4.980
 7824SOL    HW224372   6.630   2.385   5.091
 7825SOL     OW24373   2.777   3.085   0.012
 7825SOL    HW124374   2.819   3.041   6.953
 7825SOL    HW224375   2.848   3.114   0.076
 7826SOL     OW24376   6.871   1.275   0.373
 7826SOL    HW124377   6.897   1.362   0.414
 7826SOL    HW224378   6.948   1.239   0.321
 7827SOL     OW24379   0.597   5.793   2.411
 7827SOL    HW124380   0.545   5.738   2.477
 7827SOL    HW224381   0.581   5.759   2.319
 7828SOL     OW24382   6.524   4.316   6.373
 7828SOL    HW124383   6.552   4.232   6.326
 7828SOL    HW224384   6.472   4.374   6.310
 7829SOL     OW24385   3.226   3.201   1.289
 7829SOL    HW124386   3.263   3.292   1.307
 7829SOL    HW224387   3.244   3.176   1.193
 7830SOL     OW24388   3.489   5.130   5.558
 7830SOL    HW124389   3.420   5.096   5.494
 7830SOL    HW224390   3.552   5.191   5.510
 7831SOL     OW24391   2.166   1.052   1.529
 7831SOL    HW124392   2.225   1.133   1.523
 7831SOL    HW224393   2.181   0.995   1.448
 7832SOL     OW24394   5.503   0.300   4.528
 7832SOL    HW124395   5.581   0.248   4.563
 7832SOL    HW224396   5.425   0.288   4.591
 7833SOL     OW24397   1.535   0.561   4.582
 7833SOL    HW124398   1.554   0.544   4.485
 7833SOL    HW224399   1.569   0.485   4.637
 7834SOL     OW24400   0.013   1.794   3.847
 7834SOL    HW124401   0.014   1.694   3.848
 7834SOL    HW224402   6.953   1.827   3.898
 7835SOL     OW24403   3.680   1.822   4.629
 7835SOL    HW124404   3.675   1.866   4.719
 7835SOL    HW224405   3.748   1.870   4.573
 7836SOL     OW24406   3.721   3.992   5.430
 7836SOL    HW124407   3.821   3.984   5.435
 7836SOL    HW224408   3.689   3.965   5.339
 7837SOL     OW24409   5.554   6.296   6.960
 7837SOL    HW124410   5.540   6.346   6.874
 7837SOL    HW224411   5.487   6.327   0.007
 7838SOL     OW24412   4.905   5.138   1.498
 7838SOL    HW124413   4.876   5.044   1.479
 7838SOL    HW224414   4.892   5.194   1.416
 7839SOL     OW24415   5.527   3.784   4.769
 7839SOL    HW124416   5.455   3.812   4.706
 7839SOL    HW224417   5.496   3.706   4.823
 7840SOL     OW24418   0.896   4.249   3.941
 7840SOL    HW124419   0.840   4.301   4.005
 7840SOL    HW224420   0.839   4.213   3.868
 7841SOL     OW24421   4.740   2.066   6.443
 7841SOL    HW124422   4.735   2.077   6.344
 7841SOL    HW224423   4.648   2.078   6.483
 7842SOL     OW24424   2.226   1.745   2.308
 7842SOL    HW124425   2.314   1.788   2.289
 7842SOL    HW224426   2.194   1.773   2.398
 7843SOL     OW24427   6.664   0.203   3.992
 7843SOL    HW124428   6.689   0.231   3.899
 7843SOL    HW224429   6.731   0.138   4.027
 7844SOL     OW24430   3.744   0.569   2.132
 7844SOL    HW124431   3.733   0.533   2.039
 7844SOL    HW224432   3.840   0.560   2.160
 7845SOL     OW24433   5.287   1.942   1.265
 7845SOL    HW124434   5.220   1.933   1.191
 7845SOL    HW224435   5.284   1.861   1.323
 7846SOL     OW24436   1.248   2.074   0.609
 7846SOL    HW124437   1.283   1.981   0.598
 7846SOL    HW224438   1.263   2.125   0.524
 7847SOL     OW24439   6.187   1.711   3.799
 7847SOL    HW124440   6.210   1.803   3.830
 7847SOL    HW224441   6.124   1.717   3.721
 7848SOL     OW24442   2.589   4.580   0.823
 7848SOL    HW124443   2.629   4.492   0.847
 7848SOL    HW224444   2.501   4.566   0.778
 7849SOL     OW24445   5.890   3.160   5.141
 7849SOL    HW124446   5.842   3.215   5.210
 7849SOL    HW224447   5.921   3.220   5.067
 7850SOL     OW24448   6.682   1.502   3.923
 7850SOL    HW124449   6.754   1.552   3.971
 7850SOL    HW224450   6.677   1.533   3.828
 7851SOL     OW24451   0.847   3.180   1.869
 7851SOL    HW124452   0.809   3.272   1.881
 7851SOL    HW224453   0.900   3.155   1.949
 7852SOL     OW24454   2.981   1.014   0.259
 7852SOL    HW124455   2.920   0.965   0.196
 7852SOL    HW224456   2.943   1.105   0.277
 7853SOL     OW24457   4.408   3.058   1.726
 7853SOL    HW124458   4.483   3.049   1.791
 7853SOL    HW224459   4.335   3.113   1.767
 7854SOL     OW24460   4.033   2.127   6.189
 7854SOL    HW124461   4.068   2.194   6.255
 7854SOL    HW224462   4.095   2.125   6.110
 7855SOL     OW24463   4.742   6.198   4.137
 7855SOL    HW124464   4.740   6.114   4.084
 7855SOL    HW224465   4.825   6.250   4.116
 7856SOL     OW24466   1.754   4.718   5.246
 7856SOL    HW124467   1.705   4.793   5.201
 7856SOL    HW224468   1.751   4.637   5.188
 7857SOL     OW24469   5.005   4.095   0.567
 7857SOL    HW124470   5.019   4.186   0.527
 7857SOL    HW224471   4.908   4.081   0.583
 7858SOL     OW24472   6.973   5.574   4.787
 7858SOL    HW124473   0.022   5.599   4.855
 7858SOL    HW224474   6.883   5.601   4.819
 7859SOL     OW24475   4.601   3.152   6.597
 7859SOL    HW124476   4.624   3.077   6.659
 7859SOL    HW224477   4.545   3.117   6.522
 7860SOL     OW24478   3.855   1.269   4.163
 7860SOL    HW124479   3.797   1.333   4.212
 7860SOL    HW224480   3.916   1.222   4.227
 7861SOL     OW24481   2.615   5.650   1.837
 7861SOL    HW124482   2.700   5.603   1.862
 7861SOL    HW224483   2.553   5.650   1.915
 7862SOL     OW24484   2.618   5.337   2.108
 7862SOL    HW124485   2.538   5.390   2.136
 7862SOL    HW224486   2.621   5.250   2.157
 7863SOL     OW24487   0.518   4.164   3.306
 7863SOL    HW124488   0.455   4.192   3.235
 7863SOL    HW224489   0.512   4.065   3.320
 7864SOL     OW24490   1.954   6.091   6.361
 7864SOL    HW124491   1.965   5.996   6.387
 7864SOL    HW224492   2.044   6.134   6.351
 7865SOL     OW24493   5.971   6.310   4.037
 7865SOL    HW124494   5.897   6.278   3.977
 7865SOL    HW224495   5.955   6.406   4.060
 7866SOL     OW24496   2.037   0.452   4.846
 7866SOL    HW124497   2.045   0.551   4.848
 7866SOL    HW224498   1.976   0.424   4.772
 7867SOL     OW24499   5.385   0.087   3.464
 7867SOL    HW124500   5.481   0.084   3.437
 7867SOL    HW224501   5.374   0.045   3.554
 7868SOL     OW24502   3.716   5.292   1.124
 7868SOL    HW124503   3.780   5.296   1.201
 7868SOL    HW224504   3.766   5.297   1.038
 7869SOL     OW24505   4.812   4.850   5.674
 7869SOL    HW124506   4.866   4.815   5.598
 7869SOL    HW224507   4.861   4.926   5.717
 7870SOL     OW24508   4.928   0.292   5.117
 7870SOL    HW124509   4.851   0.256   5.065
 7870SOL    HW224510   4.928   0.252   5.209
 7871SOL     OW24511   5.526   1.200   1.981
 7871SOL    HW124512   5.518   1.258   2.061
 7871SOL    HW224513   5.482   1.243   1.903
 7872SOL     OW24514   1.788   4.892   2.590
 7872SOL    HW124515   1.722   4.821   2.565
 7872SOL    HW224516   1.858   4.854   2.650
 7873SOL     OW24517   6.270   1.316   0.896
 7873SOL    HW124518   6.284   1.302   0.799
 7873SOL    HW224519   6.339   1.266   0.948
 7874SOL     OW24520   5.455   2.904   0.949
 7874SOL    HW124521   5.530   2.967   0.968
 7874SOL    HW224522   5.460   2.826   1.012
 7875SOL     OW24523   4.039   3.557   6.793
 7875SOL    HW124524   4.109   3.538   6.723
 7875SOL    HW224525   3.970   3.618   6.756
 7876SOL     OW24526   0.916   0.299   3.037
 7876SOL    HW124527   0.900   0.394   3.010
 7876SOL    HW224528   0.998   0.264   2.990
 7877SOL     OW24529   6.477   1.395   2.934
 7877SOL    HW124530   6.452   1.452   3.013
 7877SOL    HW224531   6.396   1.344   2.903
 7878SOL     OW24532   4.877   3.846   3.302
 7878SOL    HW124533   4.951   3.909   3.281
 7878SOL    HW224534   4.884   3.817   3.398
 7879SOL     OW24535   3.403   5.258   3.317
 7879SOL    HW124536   3.437   5.210   3.398
 7879SOL    HW224537   3.303   5.257   3.318
 7880SOL     OW24538   2.259   3.407   0.940
 7880SOL    HW124539   2.355   3.434   0.933
 7880SOL    HW224540   2.204   3.461   0.876
 7881SOL     OW24541   5.129   4.112   4.430
 7881SOL    HW124542   5.161   4.028   4.386
 7881SOL    HW224543   5.121   4.185   4.362
 7882SOL     OW24544   2.575   3.870   1.508
 7882SOL    HW124545   2.669   3.902   1.524
 7882SOL    HW224546   2.522   3.881   1.592
 7883SOL     OW24547   0.705   0.634   5.280
 7883SOL    HW124548   0.739   0.600   5.367
 7883SOL    HW224549   0.629   0.697   5.296
 7884SOL     OW24550   0.882   3.674   3.927
 7884SOL    HW124551   0.798   3.715   3.960
 7884SOL    HW224552   0.934   3.741   3.874
 7885SOL     OW24553   6.502   5.454   0.981
 7885SOL    HW124554   6.427   5.519   0.977
 7885SOL    HW224555   6.470   5.364   0.951
 7886SOL     OW24556   4.668   5.956   0.245
 7886SOL    HW124557   4.676   5.978   0.147
 7886SOL    HW224558   4.628   6.033   0.293
 7887SOL     OW24559   3.641   1.786   6.901
 7887SOL    HW124560   3.603   1.762   6.812
 7887SOL    HW224561   3.574   1.767   6.972
 7888SOL     OW24562   5.185   0.232   3.615
 7888SOL    HW124563   5.252   0.187   3.555
 7888SOL    HW224564   5.195   0.331   3.608
 7889SOL     OW24565   0.753   5.731   1.593
 7889SOL    HW124566   0.721   5.639   1.571
 7889SOL    HW224567   0.836   5.751   1.541
 7890SOL     OW24568   2.138   3.818   2.177
 7890SOL    HW124569   2.052   3.862   2.204
 7890SOL    HW224570   2.129   3.719   2.185
 7891SOL     OW24571   2.374   4.995   2.211
 7891SOL    HW124572   2.448   5.041   2.261
 7891SOL    HW224573   2.297   5.058   2.200
 7892SOL     OW24574   1.959   2.573   5.153
 7892SOL    HW124575   1.944   2.625   5.237
 7892SOL    HW224576   2.051   2.534   5.154
 7893SOL     OW24577   5.810   6.781   1.397
 7893SOL    HW124578   5.770   6.853   1.340
 7893SOL    HW224579   5.743   6.710   1.414
 7894SOL     OW24580   2.630   6.462   2.096
 7894SOL    HW124581   2.549   6.518   2.081
 7894SOL    HW224582   2.691   6.470   2.018
 7895SOL     OW24583   6.706   1.192   4.922
 7895SOL    HW124584   6.742   1.157   5.008
 7895SOL    HW224585   6.612   1.226   4.936
 7896SOL     OW24586   4.670   3.854   5.571
 7896SOL    HW124587   4.599   3.887   5.634
 7896SOL    HW224588   4.653   3.891   5.480
 7897SOL     OW24589   2.095   4.265   6.359
 7897SOL    HW124590   2.002   4.302   6.359
 7897SOL    HW224591   2.151   4.315   6.293
 7898SOL     OW24592   4.669   2.009   3.812
 7898SOL    HW124593   4.736   1.937   3.794
 7898SOL    HW224594   4.697   2.061   3.892
 7899SOL     OW24595   6.734   2.122   2.126
 7899SOL    HW124596   6.770   2.205   2.083
 7899SOL    HW224597   6.687   2.146   2.210
 7900SOL     OW24598   1.445   5.448   1.344
 7900SOL    HW124599   1.409   5.489   1.428
 7900SOL    HW224600   1.543   5.433   1.354
 7901SOL     OW24601   5.884   0.308   5.764
 7901SOL    HW124602   5.883   0.212   5.792
 7901SOL    HW224603   5.799   0.352   5.793
 7902SOL     OW24604   4.797   4.892   1.436
 7902SOL    HW124605   4.759   4.884   1.344
 7902SOL    HW224606   4.820   4.802   1.472
 7903SOL     OW24607   6.134   1.851   0.222
 7903SOL    HW124608   6.165   1.892   0.308
 7903SOL    HW224609   6.055   1.901   0.188
 7904SOL     OW24610   6.539   0.774   2.562
 7904SOL    HW124611   6.471   0.758   2.634
 7904SOL    HW224612   6.499   0.834   2.492
 7905SOL     OW24613   4.193   1.784   1.219
 7905SOL    HW124614   4.223   1.817   1.309
 7905SOL    HW224615   4.250   1.825   1.148
 7906SOL     OW24616   6.357   6.005   6.740
 7906SOL    HW124617   6.319   5.951   6.665
 7906SOL    HW224618   6.408   6.083   6.703
 7907SOL     OW24619   6.364   2.564   4.219
 7907SOL    HW124620   6.434   2.594   4.284
 7907SOL    HW224621   6.406   2.554   4.128
 7908SOL     OW24622   0.942   0.875   3.418
 7908SOL    HW124623   0.984   0.963   3.399
 7908SOL    HW224624   0.873   0.884   3.490
 7909SOL     OW24625   4.915   3.773   4.815
 7909SOL    HW124626   4.886   3.869   4.823
 7909SOL    HW224627   4.881   3.721   4.893
 7910SOL     OW24628   4.112   2.882   5.536
 7910SOL    HW124629   4.175   2.827   5.481
 7910SOL    HW224630   4.020   2.844   5.529
 7911SOL     OW24631   6.755   5.061   0.464
 7911SOL    HW124632   6.775   5.112   0.548
 7911SOL    HW224633   6.758   4.963   0.483
 7912SOL     OW24634   6.163   5.530   6.564
 7912SOL    HW124635   6.259   5.505   6.575
 7912SOL    HW224636   6.121   5.540   6.654
 7913SOL     OW24637   0.398   5.385   6.304
 7913SOL    HW124638   0.421   5.413   6.210
 7913SOL    HW224639   0.315   5.330   6.302
 7914SOL     OW24640   6.606   5.217   1.241
 7914SOL    HW124641   6.585   5.297   1.297
 7914SOL    HW224642   6.522   5.165   1.224
 7915SOL     OW24643   5.058   2.061   2.944
 7915SOL    HW124644   4.978   2.120   2.950
 7915SOL    HW224645   5.029   1.966   2.944
 7916SOL     OW24646   5.525   3.311   5.331
 7916SOL    HW124647   5.480   3.225   5.308
 7916SOL    HW224648   5.462   3.369   5.383
 7917SOL     OW24649   3.871   3.548   4.298
 7917SOL    HW124650   3.876   3.463   4.245
 7917SOL    HW224651   3.780   3.588   4.289
 7918SOL     OW24652   5.766   1.595   1.846
 7918SOL    HW124653   5.734   1.504   1.874
 7918SOL    HW224654   5.723   1.621   1.760
 7919SOL     OW24655   6.429   4.047   2.952
 7919SOL    HW124656   6.517   4.063   2.907
 7919SOL    HW224657   6.356   4.055   2.885
 7920SOL     OW24658   0.066   4.844   1.705
 7920SOL    HW124659   0.056   4.832   1.607
 7920SOL    HW224660   0.163   4.842   1.729
 7921SOL     OW24661   3.005   6.237   1.288
 7921SOL    HW124662   3.023   6.245   1.386
 7921SOL    HW224663   2.936   6.167   1.272
 7922SOL     OW24664   6.875   5.316   0.044
 7922SOL    HW124665   6.951   5.373   0.013
 7922SOL    HW224666   6.805   5.311   6.993
 7923SOL     OW24667   1.704   1.564   2.863
 7923SOL    HW124668   1.663   1.631   2.925
 7923SOL    HW224669   1.681   1.589   2.768
 7924SOL     OW24670   2.929   6.337   3.907
 7924SOL    HW124671   2.837   6.361   3.874
 7924SOL    HW224672   2.997   6.389   3.856
 7925SOL     OW24673   6.531   1.768   5.996
 7925SOL    HW124674   6.544   1.816   6.083
 7925SOL    HW224675   6.439   1.787   5.961
 7926SOL     OW24676   3.483   0.885   3.509
 7926SOL    HW124677   3.386   0.893   3.487
 7926SOL    HW224678   3.494   0.870   3.608
 7927SOL     OW24679   4.657   5.449   4.825
 7927SOL    HW124680   4.622   5.381   4.760
 7927SOL    HW224681   4.702   5.522   4.774
 7928SOL     OW24682   1.551   4.789   2.961
 7928SOL    HW124683   1.621   4.720   2.943
 7928SOL    HW224684   1.570   4.832   3.050
 7929SOL     OW24685   4.075   3.714   4.564
 7929SOL    HW124686   3.989   3.664   4.573
 7929SOL    HW224687   4.137   3.664   4.504
 7930SOL     OW24688   4.741   5.455   3.617
 7930SOL    HW124689   4.772   5.464   3.523
 7930SOL    HW224690   4.751   5.542   3.664
 7931SOL     OW24691   2.207   2.920   6.939
 7931SOL    HW124692   2.221   2.869   6.854
 7931SOL    HW224693   2.270   2.885   7.009
 7932SOL     OW24694   2.641   0.387   6.925
 7932SOL    HW124695   2.613   0.482   6.941
 7932SOL    HW224696   2.573   0.326   6.966
 7933SOL     OW24697   1.085   6.216   6.887
 7933SOL    HW124698   1.014   6.189   6.822
 7933SOL    HW224699   1.168   6.242   6.836
 7934SOL     OW24700   2.522   3.248   0.655
 7934SOL    HW124701   2.542   3.151   0.667
 7934SOL    HW224702   2.423   3.260   0.639
 7935SOL     OW24703   4.897   5.738   0.189
 7935SOL    HW124704   4.944   5.801   0.251
 7935SOL    HW224705   4.865   5.789   0.109
 7936SOL     OW24706   3.501   5.980   3.201
 7936SOL    HW124707   3.586   6.011   3.158
 7936SOL    HW224708   3.494   6.018   3.293
 7937SOL     OW24709   5.346   6.914   5.221
 7937SOL    HW124710   5.354   6.970   5.303
 7937SOL    HW224711   5.433   6.868   5.203
 7938SOL     OW24712   4.395   5.056   4.795
 7938SOL    HW124713   4.342   4.977   4.825
 7938SOL    HW224714   4.334   5.124   4.755
 7939SOL     OW24715   1.096   1.363   5.740
 7939SOL    HW124716   1.150   1.282   5.765
 7939SOL    HW224717   1.017   1.334   5.686
 7940SOL     OW24718   2.447   5.625   1.614
 7940SOL    HW124719   2.484   5.638   1.706
 7940SOL    HW224720   2.516   5.582   1.556
 7941SOL     OW24721   0.090   0.776   1.067
 7941SOL    HW124722   0.081   0.705   1.137
 7941SOL    HW224723   0.059   0.864   1.105
 7942SOL     OW24724   0.411   6.478   1.931
 7942SOL    HW124725   0.393   6.435   2.019
 7942SOL    HW224726   0.331   6.530   1.902
 7943SOL     OW24727   5.530   2.063   1.156
 7943SOL    HW124728   5.562   2.154   1.182
 7943SOL    HW224729   5.435   2.052   1.183
 7944SOL     OW24730   0.105   2.930   1.706
 7944SOL    HW124731   0.142   2.990   1.635
 7944SOL    HW224732   0.057   2.985   1.774
 7945SOL     OW24733   4.911   0.101   2.614
 7945SOL    HW124734   4.999   0.148   2.606
 7945SOL    HW224735   4.860   0.109   2.529
 7946SOL     OW24736   1.740   2.175   5.838
 7946SOL    HW124737   1.806   2.250   5.835
 7946SOL    HW224738   1.751   2.123   5.922
 7947SOL     OW24739   4.046   2.765   6.693
 7947SOL    HW124740   4.077   2.859   6.678
 7947SOL    HW224741   4.066   2.710   6.612
 7948SOL     OW24742   6.931   6.906   0.778
 7948SOL    HW124743   6.879   6.856   0.709
 7948SOL    HW224744   6.905   6.874   0.869
 7949SOL     OW24745   5.329   4.836   4.267
 7949SOL    HW124746   5.426   4.837   4.294
 7949SOL    HW224747   5.277   4.896   4.328
 7950SOL     OW24748   4.487   5.342   3.521
 7950SOL    HW124749   4.586   5.333   3.510
 7950SOL    HW224750   4.442   5.315   3.436
 7951SOL     OW24751   2.429   3.611   1.183
 7951SOL    HW124752   2.467   3.697   1.216
 7951SOL    HW224753   2.494   3.567   1.121
 7952SOL     OW24754   6.803   2.981   6.476
 7952SOL    HW124755   6.821   2.946   6.569
 7952SOL    HW224756   6.825   2.910   6.409
 7953SOL     OW24757   2.249   2.642   3.273
 7953SOL    HW124758   2.266   2.730   3.317
 7953SOL    HW224759   2.236   2.571   3.342
 7954SOL     OW24760   4.828   5.235   4.685
 7954SOL    HW124761   4.842   5.334   4.685
 7954SOL    HW224762   4.916   5.189   4.694
 7955SOL     OW24763   0.108   6.555   6.772
 7955SOL    HW124764   0.174   6.527   6.842
 7955SOL    HW224765   0.104   6.655   6.768
 7956SOL     OW24766   0.340   5.940   3.593
 7956SOL    HW124767   0.247   5.975   3.604
 7956SOL    HW224768   0.382   5.979   3.512
 7957SOL     OW24769   1.517   2.008   0.129
 7957SOL    HW124770   1.514   1.931   0.066
 7957SOL    HW224771   1.610   2.046   0.131
 7958SOL     OW24772   3.663   5.990   4.349
 7958SOL    HW124773   3.692   5.914   4.407
 7958SOL    HW224774   3.565   5.983   4.332
 7959SOL     OW24775   5.739   4.409   0.482
 7959SOL    HW124776   5.827   4.365   0.464
 7959SOL    HW224777   5.671   4.339   0.502
 7960SOL     OW24778   3.343   1.896   1.308
 7960SOL    HW124779   3.298   1.860   1.226
 7960SOL    HW224780   3.305   1.985   1.331
 7961SOL     OW24781   1.836   6.645   6.150
 7961SOL    HW124782   1.933   6.627   6.169
 7961SOL    HW224783   1.803   6.580   6.082
 7962SOL     OW24784   2.250   0.996   0.865
 7962SOL    HW124785   2.160   0.958   0.887
 7962SOL    HW224786   2.320   0.950   0.920
 7963SOL     OW24787   0.162   1.249   5.316
 7963SOL    HW124788   0.102   1.193   5.374
 7963SOL    HW224789   0.117   1.265   5.228
 7964SOL     OW24790   5.797   5.079   3.715
 7964SOL    HW124791   5.741   5.007   3.757
 7964SOL    HW224792   5.828   5.142   3.786
 7965SOL     OW24793   4.233   2.497   0.109
 7965SOL    HW124794   4.165   2.462   0.045
 7965SOL    HW224795   4.256   2.592   0.086
 7966SOL     OW24796   1.506   3.980   4.950
 7966SOL    HW124797   1.600   4.014   4.947
 7966SOL    HW224798   1.482   3.956   5.044
 7967SOL     OW24799   2.880   5.586   3.433
 7967SOL    HW124800   2.874   5.543   3.523
 7967SOL    HW224801   2.973   5.619   3.417
 7968SOL     OW24802   2.656   2.478   3.431
 7968SOL    HW124803   2.709   2.401   3.466
 7968SOL    HW224804   2.622   2.533   3.507
 7969SOL     OW24805   3.709   0.191   2.336
 7969SOL    HW124806   3.743   0.103   2.303
 7969SOL    HW224807   3.609   0.191   2.331
 7970SOL     OW24808   6.925   3.801   3.098
 7970SOL    HW124809   6.992   3.839   3.034
 7970SOL    HW224810   6.942   3.703   3.108
 7971SOL     OW24811   2.661   1.050   2.423
 7971SOL    HW124812   2.631   1.038   2.328
 7971SOL    HW224813   2.699   1.141   2.434
 7972SOL     OW24814   6.612   4.435   1.527
 7972SOL    HW124815   6.533   4.373   1.525
 7972SOL    HW224816   6.692   4.387   1.493
 7973SOL     OW24817   5.347   3.587   3.873
 7973SOL    HW124818   5.354   3.685   3.888
 7973SOL    HW224819   5.422   3.556   3.815
 7974SOL     OW24820   5.836   0.287   4.643
 7974SOL    HW124821   5.829   0.387   4.644
 7974SOL    HW224822   5.780   0.249   4.716
 7975SOL     OW24823   4.458   0.779   4.112
 7975SOL    HW124824   4.442   0.681   4.105
 7975SOL    HW224825   4.393   0.819   4.176
 7976SOL     OW24826   0.876   6.820   5.596
 7976SOL    HW124827   0.822   6.869   5.664
 7976SOL    HW224828   0.823   6.809   5.512
 7977SOL     OW24829   4.926   6.013   2.706
 7977SOL    HW124830   4.897   5.939   2.646
 7977SOL    HW224831   4.882   6.098   2.678
 7978SOL     OW24832   4.624   3.987   6.338
 7978SOL    HW124833   4.647   3.900   6.294
 7978SOL    HW224834   4.674   4.061   6.293
 7979SOL     OW24835   3.271   0.319   4.769
 7979SOL    HW124836   3.305   0.290   4.680
 7979SOL    HW224837   3.281   0.418   4.779
 7980SOL     OW24838   3.728   5.824   0.228
 7980SOL    HW124839   3.781   5.745   0.197
 7980SOL    HW224840   3.779   5.908   0.208
 7981SOL     OW24841   0.801   5.282   2.030
 7981SOL    HW124842   0.750   5.197   2.017
 7981SOL    HW224843   0.739   5.359   2.019
 7982SOL     OW24844   6.770   2.270   0.253
 7982SOL    HW124845   6.709   2.349   0.245
 7982SOL    HW224846   6.865   2.301   0.254
 7983SOL     OW24847   5.634   1.623   3.374
 7983SOL    HW124848   5.618   1.534   3.417
 7983SOL    HW224849   5.719   1.662   3.408
 7984SOL     OW24850   0.952   2.085   2.034
 7984SOL    HW124851   0.936   2.060   1.939
 7984SOL    HW224852   0.963   2.184   2.041
 7985SOL     OW24853   1.615   0.555   2.178
 7985SOL    HW124854   1.632   0.631   2.241
 7985SOL    HW224855   1.572   0.590   2.095
 7986SOL     OW24856   3.653   1.476   6.828
 7986SOL    HW124857   3.612   1.390   6.798
 7986SOL    HW224858   3.605   1.509   6.910
 7987SOL     OW24859   0.129   3.418   5.788
 7987SOL    HW124860   0.099   3.499   5.737
 7987SOL    HW224861   0.228   3.424   5.804
 7988SOL     OW24862   2.526   2.274   5.002
 7988SOL    HW124863   2.489   2.269   5.094
 7988SOL    HW224864   2.589   2.198   4.986
 7989SOL     OW24865   3.476   2.775   5.169
 7989SOL    HW124866   3.393   2.722   5.186
 7989SOL    HW224867   3.528   2.784   5.254
 7990SOL     OW24868   1.310   3.000   3.872
 7990SOL    HW124869   1.376   2.955   3.932
 7990SOL    HW224870   1.233   3.034   3.927
 7991SOL     OW24871   6.915   2.732   6.362
 7991SOL    HW124872   6.936   2.721   6.459
 7991SOL    HW224873   7.000   2.729   6.309
 7992SOL     OW24874   1.389   6.476   1.165
 7992SOL    HW124875   1.326   6.547   1.133
 7992SOL    HW224876   1.471   6.477   1.107
 7993SOL     OW24877   2.101   5.779   6.913
 7993SOL    HW124878   2.003   5.777   6.932
 7993SOL    HW224879   2.122   5.859   6.857
 7994SOL     OW24880   4.697   0.705   3.990
 7994SOL    HW124881   4.766   0.685   4.059
 7994SOL    HW224882   4.624   0.760   4.031
 7995SOL     OW24883   4.177   5.715   3.970
 7995SOL    HW124884   4.097   5.696   4.028
 7995SOL    HW224885   4.235   5.634   3.965
 7996SOL     OW24886   3.653   6.596   4.317
 7996SOL    HW124887   3.627   6.503   4.344
 7996SOL    HW224888   3.734   6.625   4.368
 7997SOL     OW24889   6.508   1.825   1.047
 7997SOL    HW124890   6.425   1.773   1.067
 7997SOL    HW224891   6.585   1.762   1.039
 7998SOL     OW24892   4.990   5.128   0.033
 7998SOL    HW124893   5.010   5.120   0.131
 7998SOL    HW224894   5.058   5.186   7.009
 7999SOL     OW24895   1.276   0.117   5.332
 7999SOL    HW124896   1.233   0.195   5.288
 7999SOL    HW224897   1.206   0.052   5.362
 8000SOL     OW24898   5.702   0.526   6.509
 8000SOL    HW124899   5.642   0.603   6.486
 8000SOL    HW224900   5.758   0.549   6.588
 8001SOL     OW24901   2.281   6.348   1.621
 8001SOL    HW124902   2.213   6.288   1.664
 8001SOL    HW224903   2.304   6.313   1.531
 8002SOL     OW24904   0.225   3.449   5.257
 8002SOL    HW124905   0.202   3.362   5.213
 8002SOL    HW224906   0.319   3.447   5.289
 8003SOL     OW24907   3.045   4.806   2.893
 8003SOL    HW124908   3.116   4.817   2.963
 8003SOL    HW224909   3.080   4.839   2.805
 8004SOL     OW24910   2.432   4.371   3.169
 8004SOL    HW124911   2.355   4.353   3.107
 8004SOL    HW224912   2.509   4.408   3.117
 8005SOL     OW24913   3.114   1.026   2.202
 8005SOL    HW124914   3.178   1.102   2.212
 8005SOL    HW224915   3.050   1.027   2.279
 8006SOL     OW24916   2.415   5.688   0.281
 8006SOL    HW124917   2.396   5.729   0.192
 8006SOL    HW224918   2.493   5.626   0.273
 8007SOL     OW24919   0.975   0.066   3.863
 8007SOL    HW124920   0.912   0.022   3.799
 8007SOL    HW224921   1.066   0.027   3.851
 8008SOL     OW24922   5.221   6.462   6.399
 8008SOL    HW124923   5.304   6.420   6.363
 8008SOL    HW224924   5.152   6.467   6.326
 8009SOL     OW24925   6.390   0.629   3.028
 8009SOL    HW124926   6.331   0.553   3.053
 8009SOL    HW224927   6.480   0.595   3.001
 8010SOL     OW24928   2.597   1.645   6.738
 8010SOL    HW124929   2.662   1.688   6.676
 8010SOL    HW224930   2.568   1.711   6.807
 8011SOL     OW24931   2.468   2.057   1.289
 8011SOL    HW124932   2.385   2.110   1.271
 8011SOL    HW224933   2.484   1.993   1.214
 8012SOL     OW24934   1.479   6.171   1.038
 8012SOL    HW124935   1.532   6.137   0.960
 8012SOL    HW224936   1.541   6.216   1.103
 8013SOL     OW24937   6.199   4.751   4.474
 8013SOL    HW124938   6.267   4.785   4.409
 8013SOL    HW224939   6.148   4.676   4.434
 8014SOL     OW24940   1.706   5.810   6.445
 8014SOL    HW124941   1.736   5.715   6.431
 8014SOL    HW224942   1.765   5.853   6.513
 8015SOL     OW24943   3.089   2.348   0.731
 8015SOL    HW124944   3.168   2.399   0.696
 8015SOL    HW224945   3.087   2.353   0.831
 8016SOL     OW24946   4.520   0.496   0.530
 8016SOL    HW124947   4.595   0.553   0.562
 8016SOL    HW224948   4.549   0.401   0.525
 8017SOL     OW24949   0.357   4.230   5.534
 8017SOL    HW124950   0.323   4.147   5.579
 8017SOL    HW224951   0.441   4.260   5.578
 8018SOL     OW24952   5.051   1.829   5.625
 8018SOL    HW124953   5.042   1.774   5.707
 8018SOL    HW224954   5.100   1.914   5.647
 8019SOL     OW24955   1.566   4.639   0.493
 8019SOL    HW124956   1.662   4.631   0.469
 8019SOL    HW224957   1.526   4.547   0.499
 8020SOL     OW24958   5.519   6.360   6.691
 8020SOL    HW124959   5.563   6.409   6.616
 8020SOL    HW224960   5.543   6.263   6.686
 8021SOL     OW24961   0.734   1.235   1.816
 8021SOL    HW124962   0.823   1.202   1.783
 8021SOL    HW224963   0.708   1.316   1.764
 8022SOL     OW24964   4.059   0.900   2.580
 8022SOL    HW124965   4.017   0.979   2.534
 8022SOL    HW224966   4.159   0.909   2.576
 8023SOL     OW24967   6.236   6.531   2.863
 8023SOL    HW124968   6.270   6.450   2.911
 8023SOL    HW224969   6.312   6.593   2.845
 8024SOL     OW24970   3.849   5.256   6.302
 8024SOL    HW124971   3.776   5.260   6.234
 8024SOL    HW224972   3.813   5.282   6.392
 8025SOL     OW24973   3.376   6.803   6.184
 8025SOL    HW124974   3.337   6.853   6.106
 8025SOL    HW224975   3.314   6.730   6.212
 8026SOL     OW24976   0.361   4.047   6.983
 8026SOL    HW124977   0.378   4.053   0.062
 8026SOL    HW224978   0.380   3.955   6.952
 8027SOL     OW24979   4.856   1.961   5.187
 8027SOL    HW124980   4.846   1.984   5.090
 8027SOL    HW224981   4.924   2.021   5.228
 8028SOL     OW24982   4.303   5.413   5.904
 8028SOL    HW124983   4.348   5.348   5.844
 8028SOL    HW224984   4.204   5.400   5.900
 8029SOL     OW24985   5.144   4.245   6.443
 8029SOL    HW124986   5.072   4.214   6.380
 8029SOL    HW224987   5.162   4.174   6.510
 8030SOL     OW24988   5.337   4.247   5.712
 8030SOL    HW124989   5.312   4.324   5.654
 8030SOL    HW224990   5.382   4.281   5.795
 8031SOL     OW24991   4.541   4.912   2.389
 8031SOL    HW124992   4.576   4.829   2.347
 8031SOL    HW224993   4.591   4.931   2.473
 8032SOL     OW24994   6.046   3.597   5.103
 8032SOL    HW124995   6.119   3.658   5.072
 8032SOL    HW224996   5.961   3.648   5.111
 8033SOL     OW24997   5.396   2.687   6.883
 8033SOL    HW124998   5.412   2.663   6.979
 8033SOL    HW224999   5.299   2.702   6.869
 8034SOL     OW25000   6.702   0.171   5.337
 8034SOL    HW125001   6.626   0.224   5.300
 8034SOL    HW225002   6.698   0.170   5.437
 8035SOL     OW25003   5.852   6.329   5.692
 8035SOL    HW125004   5.752   6.324   5.700
 8035SOL    HW225005   5.879   6.306   5.598
 8036SOL     OW25006   1.921   3.715   1.661
 8036SOL    HW125007   1.935   3.629   1.612
 8036SOL    HW225008   2.008   3.746   1.699
 8037SOL     OW25009   1.968   3.147   1.055
 8037SOL    HW125010   2.068   3.135   1.056
 8037SOL    HW225011   1.924   3.064   1.089
 8038SOL     OW25012   5.996   2.193   3.280
 8038SOL    HW125013   6.067   2.171   3.346
 8038SOL    HW225014   6.027   2.168   3.188
 8039SOL     OW25015   1.828   6.614   2.887
 8039SOL    HW125016   1.748   6.673   2.896
 8039SOL    HW225017   1.810   6.527   2.933
 8040SOL     OW25018   0.479   5.497   0.731
 8040SOL    HW125019   0.527   5.462   0.651
 8040SOL    HW225020   0.493   5.595   0.738
 8041SOL     OW25021   3.561   1.738   1.351
 8041SOL    HW125022   3.542   1.641   1.340
 8041SOL    HW225023   3.479   1.791   1.327
 8042SOL     OW25024   3.681   2.965   1.940
 8042SOL    HW125025   3.715   2.890   1.882
 8042SOL    HW225026   3.725   2.960   2.029
 8043SOL     OW25027   2.633   0.703   0.805
 8043SOL    HW125028   2.656   0.620   0.755
 8043SOL    HW225029   2.686   0.708   0.889
 8044SOL     OW25030   3.122   3.078   1.506
 8044SOL    HW125031   3.167   3.121   1.429
 8044SOL    HW225032   3.188   3.024   1.558
 8045SOL     OW25033   5.923   1.666   2.796
 8045SOL    HW125034   5.943   1.634   2.704
 8045SOL    HW225035   5.872   1.596   2.846
 8046SOL     OW25036   5.546   4.383   5.850
 8046SOL    HW125037   5.549   4.467   5.904
 8046SOL    HW225038   5.634   4.368   5.806
 8047SOL     OW25039   3.395   5.440   4.724
 8047SOL    HW125040   3.394   5.368   4.793
 8047SOL    HW225041   3.419   5.401   4.635
 8048SOL     OW25042   5.719   1.047   5.384
 8048SOL    HW125043   5.636   1.092   5.351
 8048SOL    HW225044   5.697   0.955   5.416
 8049SOL     OW25045   0.909   6.620   1.128
 8049SOL    HW125046   0.908   6.539   1.069
 8049SOL    HW225047   0.890   6.593   1.222
 8050SOL     OW25048   1.563   3.079   1.093
 8050SOL    HW125049   1.480   3.120   1.055
 8050SOL    HW225050   1.539   2.997   1.145
 8051SOL     OW25051   4.835   0.204   2.923
 8051SOL    HW125052   4.843   0.186   2.825
 8051SOL    HW225053   4.874   0.293   2.944
 8052SOL     OW25054   3.514   1.584   2.280
 8052SOL    HW125055   3.418   1.587   2.309
 8052SOL    HW225056   3.518   1.583   2.180
 8053SOL     OW25057   3.890   3.810   2.989
 8053SOL    HW125058   3.958   3.786   3.059
 8053SOL    HW225059   3.799   3.782   3.020
 8054SOL     OW25060   4.423   6.882   4.586
 8054SOL    HW125061   4.410   6.970   4.632
 8054SOL    HW225062   4.515   6.848   4.606
 8055SOL     OW25063   0.531   0.552   6.211
 8055SOL    HW125064   0.547   0.569   6.114
 8055SOL    HW225065   0.608   0.501   6.249
 8056SOL     OW25066   4.020   1.222   2.934
 8056SOL    HW125067   3.957   1.154   2.897
 8056SOL    HW225068   3.979   1.313   2.928
 8057SOL     OW25069   2.833   0.243   2.692
 8057SOL    HW125070   2.808   0.157   2.647
 8057SOL    HW225071   2.903   0.290   2.638
 8058SOL     OW25072   3.015   6.925   2.701
 8058SOL    HW125073   3.016   6.958   2.607
 8058SOL    HW225074   3.017   7.003   2.764
 8059SOL     OW25075   3.835   2.160   4.645
 8059SOL    HW125076   3.886   2.149   4.559
 8059SOL    HW225077   3.899   2.155   4.722
 8060SOL     OW25078   0.543   1.378   5.036
 8060SOL    HW125079   0.473   1.313   5.066
 8060SOL    HW225080   0.617   1.380   5.104
 8061SOL     OW25081   6.539   5.614   2.629
 8061SOL    HW125082   6.601   5.649   2.558
 8061SOL    HW225083   6.454   5.584   2.587
 8062SOL     OW25084   1.637   4.128   4.386
 8062SOL    HW125085   1.575   4.081   4.324
 8062SOL    HW225086   1.725   4.143   4.340
 8063SOL     OW25087   2.092   3.758   0.065
 8063SOL    HW125088   2.182   3.758   0.020
 8063SOL    HW225089   2.024   3.797   0.002
 8064SOL     OW25090   0.372   4.561   0.072
 8064SOL    HW125091   0.386   4.467   0.043
 8064SOL    HW225092   0.284   4.569   0.119
 8065SOL     OW25093   4.368   0.034   4.809
 8065SOL    HW125094   4.268   0.020   4.807
 8065SOL    HW225095   4.389   0.128   4.784
 8066SOL     OW25096   1.619   1.140   6.985
 8066SOL    HW125097   1.534   1.087   6.981
 8066SOL    HW225098   1.653   1.140   0.059
 8067SOL     OW25099   4.038   3.031   1.642
 8067SOL    HW125100   3.946   3.017   1.679
 8067SOL    HW225101   4.034   3.026   1.542
 8068SOL     OW25102   6.750   5.406   4.925
 8068SOL    HW125103   6.825   5.360   4.973
 8068SOL    HW225104   6.780   5.432   4.834
 8069SOL     OW25105   2.331   6.145   1.385
 8069SOL    HW125106   2.269   6.074   1.353
 8069SOL    HW225107   2.417   6.103   1.416
 8070SOL     OW25108   3.337   5.580   1.572
 8070SOL    HW125109   3.238   5.590   1.582
 8070SOL    HW225110   3.383   5.640   1.639
 8071SOL     OW25111   4.238   6.620   5.103
 8071SOL    HW125112   4.281   6.530   5.104
 8071SOL    HW225113   4.145   6.612   5.066
 8072SOL     OW25114   4.406   1.418   0.563
 8072SOL    HW125115   4.388   1.334   0.614
 8072SOL    HW225116   4.424   1.396   0.467
 8073SOL     OW25117   5.026   6.866   6.220
 8073SOL    HW125118   4.971   6.888   6.300
 8073SOL    HW225119   4.966   6.832   6.147
 8074SOL     OW25120   2.738   3.375   0.551
 8074SOL    HW125121   2.789   3.415   0.627
 8074SOL    HW225122   2.643   3.363   0.578
 8075SOL     OW25123   6.501   1.260   1.626
 8075SOL    HW125124   6.545   1.311   1.551
 8075SOL    HW225125   6.565   1.192   1.662
 8076SOL     OW25126   4.878   2.512   5.341
 8076SOL    HW125127   4.957   2.455   5.321
 8076SOL    HW225128   4.797   2.475   5.295
 8077SOL     OW25129   0.923   6.706   1.407
 8077SOL    HW125130   1.006   6.714   1.461
 8077SOL    HW225131   0.903   6.793   1.362
 8078SOL     OW25132   6.437   1.705   0.439
 8078SOL    HW125133   6.428   1.792   0.390
 8078SOL    HW225134   6.372   1.703   0.515
 8079SOL     OW25135   6.413   2.153   2.997
 8079SOL    HW125136   6.447   2.103   3.077
 8079SOL    HW225137   6.423   2.251   3.013
 8080SOL     OW25138   2.026   3.448   0.763
 8080SOL    HW125139   1.962   3.496   0.824
 8080SOL    HW225140   2.079   3.515   0.711
 8081SOL     OW25141   5.583   1.386   5.595
 8081SOL    HW125142   5.677   1.357   5.612
 8081SOL    HW225143   5.520   1.316   5.628
 8082SOL     OW25144   5.856   2.497   3.346
 8082SOL    HW125145   5.900   2.462   3.263
 8082SOL    HW225146   5.785   2.433   3.376
 8083SOL     OW25147   5.176   3.501   2.438
 8083SOL    HW125148   5.212   3.591   2.411
 8083SOL    HW225149   5.213   3.431   2.378
 8084SOL     OW25150   6.405   6.076   1.241
 8084SOL    HW125151   6.489   6.130   1.239
 8084SOL    HW225152   6.341   6.116   1.307
 8085SOL     OW25153   5.693   6.996   1.273
 8085SOL    HW125154   5.602   6.969   1.241
 8085SOL    HW225155   5.736   0.035   1.206
 8086SOL     OW25156   4.325   0.210   4.132
 8086SOL    HW125157   4.385   0.204   4.212
 8086SOL    HW225158   4.364   0.274   4.066
 8087SOL     OW25159   2.577   2.465   1.189
 8087SOL    HW125160   2.617   2.374   1.200
 8087SOL    HW225161   2.650   2.534   1.191
 8088SOL     OW25162   6.067   1.150   2.045
 8088SOL    HW125163   6.019   1.200   2.117
 8088SOL    HW225164   6.005   1.083   2.004
 8089SOL     OW25165   5.088   3.313   0.121
 8089SOL    HW125166   5.108   3.230   0.068
 8089SOL    HW225167   5.008   3.359   0.082
 8090SOL     OW25168   5.317   2.010   6.608
 8090SOL    HW125169   5.297   2.069   6.529
 8090SOL    HW225170   5.385   1.941   6.582
 8091SOL     OW25171   3.226   4.664   6.986
 8091SOL    HW125172   3.194   4.734   0.030
 8091SOL    HW225173   3.167   4.664   6.905
 8092SOL     OW25174   1.268   1.361   4.510
 8092SOL    HW125175   1.198   1.300   4.473
 8092SOL    HW225176   1.278   1.345   4.608
 8093SOL     OW25177   6.053   5.562   1.428
 8093SOL    HW125178   6.008   5.552   1.339
 8093SOL    HW225179   6.000   5.514   1.498
 8094SOL     OW25180   1.763   4.221   6.327
 8094SOL    HW125181   1.794   4.136   6.284
 8094SOL    HW225182   1.667   4.236   6.305
 8095SOL     OW25183   6.046   3.647   4.696
 8095SOL    HW125184   6.021   3.550   4.701
 8095SOL    HW225185   6.061   3.672   4.601
 8096SOL     OW25186   2.834   5.335   3.000
 8096SOL    HW125187   2.833   5.247   2.953
 8096SOL    HW225188   2.780   5.401   2.948
 8097SOL     OW25189   4.898   0.274   3.257
 8097SOL    HW125190   4.894   0.298   3.354
 8097SOL    HW225191   4.925   0.355   3.204
 8098SOL     OW25192   2.332   5.680   3.988
 8098SOL    HW125193   2.319   5.757   3.926
 8098SOL    HW225194   2.270   5.688   4.066
 8099SOL     OW25195   5.829   6.892   4.508
 8099SOL    HW125196   5.813   6.905   4.606
 8099SOL    HW225197   5.925   6.910   4.488
 8100SOL     OW25198   0.481   6.783   0.312
 8100SOL    HW125199   0.411   6.836   0.265
 8100SOL    HW225200   0.437   6.720   0.377
 8101SOL     OW25201   1.380   6.951   5.155
 8101SOL    HW125202   1.351   0.018   5.193
 8101SOL    HW225203   1.328   6.877   5.198
 8102SOL     OW25204   0.654   5.276   6.231
 8102SOL    HW125205   0.561   5.311   6.221
 8102SOL    HW225206   0.653   5.197   6.293
 8103SOL     OW25207   3.906   1.498   1.982
 8103SOL    HW125208   3.843   1.573   1.964
 8103SOL    HW225209   3.996   1.519   1.944
 8104SOL     OW25210   3.985   6.770   5.718
 8104SOL    HW125211   4.004   6.778   5.620
 8104SOL    HW225212   4.009   6.856   5.764
 8105SOL     OW25213   2.668   2.087   3.874
 8105SOL    HW125214   2.639   2.164   3.818
 8105SOL    HW225215   2.736   2.033   3.823
 8106SOL     OW25216   1.427   4.382   3.374
 8106SOL    HW125217   1.415   4.310   3.442
 8106SOL    HW225218   1.411   4.346   3.283
 8107SOL     OW25219   2.212   6.283   5.821
 8107SOL    HW125220   2.263   6.198   5.808
 8107SOL    HW225221   2.139   6.289   5.754
 8108SOL     OW25222   6.664   3.679   4.729
 8108SOL    HW125223   6.631   3.587   4.708
 8108SOL    HW225224   6.656   3.697   4.827
 8109SOL     OW25225   2.147   4.784   5.143
 8109SOL    HW125226   2.096   4.740   5.069
 8109SOL    HW225227   2.185   4.870   5.110
 8110SOL     OW25228   2.337   6.560   0.363
 8110SOL    HW125229   2.313   6.625   0.436
 8110SOL    HW225230   2.341   6.609   0.276
 8111SOL     OW25231   2.520   6.567   5.098
 8111SOL    HW125232   2.587   6.640   5.114
 8111SOL    HW225233   2.561   6.479   5.123
 8112SOL     OW25234   2.967   0.502   5.450
 8112SOL    HW125235   2.874   0.536   5.461
 8112SOL    HW225236   3.021   0.566   5.395
 8113SOL     OW25237   3.503   2.319   0.476
 8113SOL    HW125238   3.554   2.303   0.561
 8113SOL    HW225239   3.531   2.406   0.436
 8114SOL     OW25240   2.087   3.087   2.584
 8114SOL    HW125241   2.157   3.057   2.519
 8114SOL    HW225242   1.998   3.089   2.539
 8115SOL     OW25243   3.532   1.435   1.382
 8115SOL    HW125244   3.621   1.421   1.424
 8115SOL    HW225245   3.460   1.405   1.446
 8116SOL     OW25246   6.275   6.861   5.263
 8116SOL    HW125247   6.305   6.864   5.168
 8116SOL    HW225248   6.317   6.937   5.313
 8117SOL     OW25249   1.563   1.737   4.310
 8117SOL    HW125250   1.534   1.829   4.334
 8117SOL    HW225251   1.531   1.672   4.379
 8118SOL     OW25252   0.950   4.184   5.508
 8118SOL    HW125253   0.979   4.279   5.499
 8118SOL    HW225254   0.862   4.171   5.463
 8119SOL     OW25255   0.288   5.392   3.685
 8119SOL    HW125256   0.360   5.328   3.712
 8119SOL    HW225257   0.199   5.351   3.703
 8120SOL     OW25258   4.179   4.339   0.683
 8120SOL    HW125259   4.268   4.377   0.712
 8120SOL    HW225260   4.122   4.325   0.764
 8121SOL     OW25261   0.131   6.644   2.798
 8121SOL    HW125262   0.193   6.678   2.868
 8121SOL    HW225263   0.178   6.577   2.740
 8122SOL     OW25264   0.627   5.355   1.373
 8122SOL    HW125265   0.618   5.282   1.305
 8122SOL    HW225266   0.670   5.435   1.332
 8123SOL     OW25267   1.106   6.972   6.306
 8123SOL    HW125268   1.079   6.877   6.327
 8123SOL    HW225269   1.143   6.976   6.214
 8124SOL     OW25270   1.602   5.951   1.229
 8124SOL    HW125271   1.699   5.950   1.255
 8124SOL    HW225272   1.594   5.946   1.130
 8125SOL     OW25273   6.093   4.591   2.684
 8125SOL    HW125274   5.996   4.609   2.668
 8125SOL    HW225275   6.148   4.667   2.648
 8126SOL     OW25276   5.746   4.183   3.097
 8126SOL    HW125277   5.662   4.235   3.112
 8126SOL    HW225278   5.825   4.245   3.099
 8127SOL     OW25279   2.104   5.377   0.803
 8127SOL    HW125280   2.032   5.423   0.752
 8127SOL    HW225281   2.064   5.325   0.878
 8128SOL     OW25282   3.189   2.707   6.678
 8128SOL    HW125283   3.112   2.709   6.614
 8128SOL    HW225284   3.213   2.801   6.703
 8129SOL     OW25285   5.541   0.746   6.457
 8129SOL    HW125286   5.448   0.714   6.441
 8129SOL    HW225287   5.547   0.844   6.438
 8130SOL     OW25288   0.936   5.196   6.202
 8130SOL    HW125289   0.837   5.200   6.213
 8130SOL    HW225290   0.967   5.275   6.149
 8131SOL     OW25291   3.380   1.281   0.359
 8131SOL    HW125292   3.294   1.321   0.326
 8131SOL    HW225293   3.362   1.193   0.401
 8132SOL     OW25294   6.145   5.232   4.560
 8132SOL    HW125295   6.238   5.221   4.593
 8132SOL    HW225296   6.143   5.298   4.485
 8133SOL     OW25297   3.127   5.412   3.352
 8133SOL    HW125298   3.043   5.438   3.304
 8133SOL    HW225299   3.205   5.459   3.311
 8134SOL     OW25300   1.855   2.071   4.231
 8134SOL    HW125301   1.931   2.049   4.293
 8134SOL    HW225302   1.887   2.136   4.162
 8135SOL     OW25303   3.303   5.096   2.033
 8135SOL    HW125304   3.361   5.031   1.984
 8135SOL    HW225305   3.264   5.052   2.114
 8136SOL     OW25306   3.664   5.387   2.422
 8136SOL    HW125307   3.662   5.287   2.415
 8136SOL    HW225308   3.759   5.418   2.431
 8137SOL     OW25309   1.788   3.165   5.042
 8137SOL    HW125310   1.866   3.210   4.999
 8137SOL    HW225311   1.806   3.156   5.140
 8138SOL     OW25312   5.821   1.933   2.274
 8138SOL    HW125313   5.869   1.860   2.323
 8138SOL    HW225314   5.725   1.935   2.303
 8139SOL     OW25315   0.897   3.034   3.346
 8139SOL    HW125316   0.833   3.038   3.423
 8139SOL    HW225317   0.867   3.096   3.273
 8140SOL     OW25318   4.559   6.965   0.214
 8140SOL    HW125319   4.538   0.020   0.151
 8140SOL    HW225320   4.474   6.929   0.251
 8141SOL     OW25321   4.962   1.481   5.622
 8141SOL    HW125322   5.021   1.445   5.549
 8141SOL    HW225323   4.869   1.492   5.588
 8142SOL     OW25324   2.274   5.918   0.121
 8142SOL    HW125325   2.198   5.949   0.177
 8142SOL    HW225326   2.241   5.851   0.054
 8143SOL     OW25327   5.215   4.579   0.613
 8143SOL    HW125328   5.271   4.508   0.656
 8143SOL    HW225329   5.217   4.566   0.513
 8144SOL     OW25330   0.623   5.691   5.664
 8144SOL    HW125331   0.606   5.681   5.566
 8144SOL    HW225332   0.703   5.750   5.678
 8145SOL     OW25333   5.716   5.719   0.784
 8145SOL    HW125334   5.773   5.792   0.745
 8145SOL    HW225335   5.623   5.752   0.795
 8146SOL     OW25336   6.026   0.101   4.569
 8146SOL    HW125337   5.947   0.151   4.604
 8146SOL    HW225338   6.045   0.129   4.475
 8147SOL     OW25339   0.717   0.584   6.465
 8147SOL    HW125340   0.735   0.524   6.388
 8147SOL    HW225341   0.772   0.556   6.543
 8148SOL     OW25342   4.202   4.091   6.882
 8148SOL    HW125343   4.298   4.079   6.857
 8148SOL    HW225344   4.193   4.170   6.942
 8149SOL     OW25345   1.230   0.109   4.682
 8149SOL    HW125346   1.282   0.146   4.760
 8149SOL    HW225347   1.255   0.158   4.599
 8150SOL     OW25348   0.757   3.284   0.918
 8150SOL    HW125349   0.688   3.264   0.988
 8150SOL    HW225350   0.714   3.280   0.828
 8151SOL     OW25351   6.041   4.730   3.789
 8151SOL    HW125352   6.062   4.822   3.822
 8151SOL    HW225353   6.104   4.664   3.831
 8152SOL     OW25354   4.526   1.723   3.249
 8152SOL    HW125355   4.436   1.681   3.255
 8152SOL    HW225356   4.519   1.811   3.202
 8153SOL     OW25357   0.848   0.580   3.674
 8153SOL    HW125358   0.908   0.547   3.601
 8153SOL    HW225359   0.863   0.526   3.757
 8154SOL     OW25360   2.274   1.522   3.410
 8154SOL    HW125361   2.175   1.527   3.427
 8154SOL    HW225362   2.291   1.464   3.330
 8155SOL     OW25363   1.373   4.565   2.476
 8155SOL    HW125364   1.339   4.471   2.466
 8155SOL    HW225365   1.372   4.591   2.573
 8156SOL     OW25366   5.853   5.318   1.130
 8156SOL    HW125367   5.914   5.242   1.152
 8156SOL    HW225368   5.894   5.404   1.162
 8157SOL     OW25369   6.183   3.444   6.256
 8157SOL    HW125370   6.113   3.372   6.257
 8157SOL    HW225371   6.274   3.402   6.262
 8158SOL     OW25372   5.579   4.875   6.076
 8158SOL    HW125373   5.513   4.897   6.148
 8158SOL    HW225374   5.645   4.950   6.067
 8159SOL     OW25375   3.956   6.674   6.017
 8159SOL    HW125376   3.931   6.654   5.922
 8159SOL    HW225377   3.949   6.772   6.033
 8160SOL     OW25378   5.559   1.501   3.136
 8160SOL    HW125379   5.585   1.556   3.216
 8160SOL    HW225380   5.474   1.452   3.157
 8161SOL     OW25381   5.458   3.524   0.138
 8161SOL    HW125382   5.424   3.431   0.148
 8161SOL    HW225383   5.425   3.580   0.214
 8162SOL     OW25384   0.071   4.890   6.878
 8162SOL    HW125385   0.045   4.955   6.949
 8162SOL    HW225386   0.023   4.912   6.793
 8163SOL     OW25387   4.272   4.823   5.404
 8163SOL    HW125388   4.357   4.858   5.365
 8163SOL    HW225389   4.275   4.832   5.504
 8164SOL     OW25390   4.614   0.841   0.022
 8164SOL    HW125391   4.573   0.920   6.997
 8164SOL    HW225392   4.627   0.768   6.976
 8165SOL     OW25393   6.257   2.809   6.622
 8165SOL    HW125394   6.333   2.829   6.560
 8165SOL    HW225395   6.289   2.753   6.698
 8166SOL     OW25396   1.541   2.031   3.909
 8166SOL    HW125397   1.549   1.943   3.957
 8166SOL    HW225398   1.545   2.106   3.976
 8167SOL     OW25399   6.385   1.331   4.272
 8167SOL    HW125400   6.349   1.244   4.306
 8167SOL    HW225401   6.309   1.386   4.237
 8168SOL     OW25402   2.150   0.828   1.313
 8168SOL    HW125403   2.129   0.781   1.227
 8168SOL    HW225404   2.082   0.803   1.382
 8169SOL     OW25405   4.786   1.787   0.135
 8169SOL    HW125406   4.695   1.798   0.174
 8169SOL    HW225407   4.828   1.704   0.169
 8170SOL     OW25408   6.707   3.999   2.065
 8170SOL    HW125409   6.678   4.095   2.068
 8170SOL    HW225410   6.706   3.968   1.970
 8171SOL     OW25411   1.536   1.348   6.841
 8171SOL    HW125412   1.562   1.256   6.872
 8171SOL    HW225413   1.461   1.382   6.899
 8172SOL     OW25414   0.417   2.003   1.618
 8172SOL    HW125415   0.319   1.984   1.618
 8172SOL    HW225416   0.467   1.917   1.608
 8173SOL     OW25417   6.161   2.443   2.374
 8173SOL    HW125418   6.133   2.520   2.432
 8173SOL    HW225419   6.082   2.410   2.322
 8174SOL     OW25420   1.463   6.227   2.328
 8174SOL    HW125421   1.522   6.273   2.395
 8174SOL    HW225422   1.369   6.262   2.337
 8175SOL     OW25423   0.989   2.283   4.222
 8175SOL    HW125424   1.005   2.188   4.250
 8175SOL    HW225425   1.062   2.312   4.160
 8176SOL     OW25426   1.942   4.474   1.425
 8176SOL    HW125427   1.939   4.449   1.522
 8176SOL    HW225428   2.031   4.451   1.387
 8177SOL     OW25429   3.495   1.100   2.951
 8177SOL    HW125430   3.563   1.105   3.025
 8177SOL    HW225431   3.460   1.192   2.933
 8178SOL     OW25432   2.668   6.546   0.505
 8178SOL    HW125433   2.666   6.538   0.605
 8178SOL    HW225434   2.761   6.531   0.472
 8179SOL     OW25435   5.243   0.826   4.451
 8179SOL    HW125436   5.338   0.803   4.469
 8179SOL    HW225437   5.238   0.914   4.404
 8180SOL     OW25438   5.659   6.814   6.557
 8180SOL    HW125439   5.564   6.827   6.531
 8180SOL    HW225440   5.711   6.896   6.536
 8181SOL     OW25441   0.776   1.069   0.737
 8181SOL    HW125442   0.721   1.019   0.804
 8181SOL    HW225443   0.870   1.076   0.770
 8182SOL     OW25444   3.665   3.671   5.050
 8182SOL    HW125445   3.740   3.612   5.083
 8182SOL    HW225446   3.597   3.615   5.003
 8183SOL     OW25447   6.581   0.724   5.011
 8183SOL    HW125448   6.550   0.682   4.926
 8183SOL    HW225449   6.514   0.709   5.083
 8184SOL     OW25450   1.441   6.971   6.753
 8184SOL    HW125451   1.536   6.998   6.742
 8184SOL    HW225452   1.381   0.026   6.727
 8185SOL     OW25453   1.537   0.715   0.818
 8185SOL    HW125454   1.511   0.808   0.792
 8185SOL    HW225455   1.475   0.682   0.889
 8186SOL     OW25456   1.458   5.190   6.387
 8186SOL    HW125457   1.402   5.114   6.354
 8186SOL    HW225458   1.402   5.253   6.440
 8187SOL     OW25459   2.453   1.658   5.494
 8187SOL    HW125460   2.499   1.570   5.478
 8187SOL    HW225461   2.488   1.726   5.429
 8188SOL     OW25462   4.362   1.836   3.922
 8188SOL    HW125463   4.389   1.924   3.961
 8188SOL    HW225464   4.333   1.849   3.827
 8189SOL     OW25465   4.870   4.968   3.675
 8189SOL    HW125466   4.911   4.911   3.603
 8189SOL    HW225467   4.865   4.916   3.760
 8190SOL     OW25468   5.584   3.666   3.223
 8190SOL    HW125469   5.542   3.745   3.179
 8190SOL    HW225470   5.684   3.675   3.219
 8191SOL     OW25471   4.486   5.056   2.000
 8191SOL    HW125472   4.552   5.008   2.058
 8191SOL    HW225473   4.533   5.096   1.921
 8192SOL     OW25474   1.745   5.175   2.943
 8192SOL    HW125475   1.700   5.265   2.942
 8192SOL    HW225476   1.676   5.103   2.934
 8193SOL     OW25477   0.005   5.299   4.694
 8193SOL    HW125478   0.017   5.396   4.715
 8193SOL    HW225479   6.989   5.290   4.601
 8194SOL     OW25480   4.674   6.907   0.943
 8194SOL    HW125481   4.653   6.938   1.035
 8194SOL    HW225482   4.722   6.980   0.893
 8195SOL     OW25483   5.841   6.575   4.061
 8195SOL    HW125484   5.917   6.606   4.118
 8195SOL    HW225485   5.763   6.637   4.070
 8196SOL     OW25486   4.602   0.805   0.353
 8196SOL    HW125487   4.686   0.812   0.299
 8196SOL    HW225488   4.619   0.748   0.434
 8197SOL     OW25489   4.922   1.741   1.670
 8197SOL    HW125490   5.010   1.744   1.717
 8197SOL    HW225491   4.860   1.808   1.710
 8198SOL     OW25492   2.868   0.645   1.661
 8198SOL    HW125493   2.925   0.654   1.743
 8198SOL    HW225494   2.772   0.632   1.687
 8199SOL     OW25495   4.459   2.719   5.963
 8199SOL    HW125496   4.533   2.737   5.898
 8199SOL    HW225497   4.435   2.622   5.960
 8200SOL     OW25498   5.656   4.311   1.844
 8200SOL    HW125499   5.610   4.388   1.887
 8200SOL    HW225500   5.750   4.305   1.879
 8201SOL     OW25501   0.401   0.845   4.931
 8201SOL    HW125502   0.450   0.786   4.867
 8201SOL    HW225503   0.303   0.824   4.927
 8202SOL     OW25504   0.318   6.302   2.154
 8202SOL    HW125505   0.234   6.345   2.187
 8202SOL    HW225506   0.337   6.221   2.209
 8203SOL     OW25507   2.062   2.279   6.838
 8203SOL    HW125508   2.113   2.323   6.913
 8203SOL    HW225509   2.126   2.226   6.782
 8204SOL     OW25510   4.334   3.596   0.836
 8204SOL    HW125511   4.420   3.572   0.790
 8204SOL    HW225512   4.288   3.669   0.785
 8205SOL     OW25513   0.730   2.400   0.203
 8205SOL    HW125514   0.675   2.422   0.283
 8205SOL    HW225515   0.718   2.303   0.180
 8206SOL     OW25516   4.575   1.287   0.022
 8206SOL    HW125517   4.592   1.190   0.005
 8206SOL    HW225518   4.568   1.335   6.955
 8207SOL     OW25519   3.254   3.278   4.122
 8207SOL    HW125520   3.236   3.353   4.058
 8207SOL    HW225521   3.176   3.216   4.123
 8208SOL     OW25522   0.533   1.230   0.297
 8208SOL    HW125523   0.594   1.200   0.371
 8208SOL    HW225524   0.553   1.177   0.215
 8209SOL     OW25525   0.163   0.849   5.221
 8209SOL    HW125526   0.147   0.831   5.124
 8209SOL    HW225527   0.253   0.812   5.247
 8210SOL     OW25528   1.616   2.583   0.180
 8210SOL    HW125529   1.600   2.581   0.279
 8210SOL    HW225530   1.642   2.492   0.149
 8211SOL     OW25531   3.224   4.216   1.213
 8211SOL    HW125532   3.292   4.161   1.262
 8211SOL    HW225533   3.134   4.173   1.223
 8212SOL     OW25534   1.112   2.037   3.106
 8212SOL    HW125535   1.045   1.962   3.102
 8212SOL    HW225536   1.064   2.124   3.108
 8213SOL     OW25537   6.867   4.715   2.206
 8213SOL    HW125538   6.889   4.628   2.250
 8213SOL    HW225539   6.843   4.698   2.110
 8214SOL     OW25540   5.825   4.952   3.344
 8214SOL    HW125541   5.883   4.916   3.418
 8214SOL    HW225542   5.850   4.908   3.258
 8215SOL     OW25543   3.474   5.738   5.048
 8215SOL    HW125544   3.538   5.780   5.113
 8215SOL    HW225545   3.495   5.770   4.955
 8216SOL     OW25546   5.347   5.702   4.252
 8216SOL    HW125547   5.249   5.713   4.239
 8216SOL    HW225548   5.369   5.716   4.349
 8217SOL     OW25549   1.839   4.607   0.462
 8217SOL    HW125550   1.862   4.571   0.552
 8217SOL    HW225551   1.915   4.664   0.428
 8218SOL     OW25552   0.853   1.772   6.729
 8218SOL    HW125553   0.881   1.835   6.656
 8218SOL    HW225554   0.754   1.775   6.740
 8219SOL     OW25555   4.935   2.128   0.863
 8219SOL    HW125556   4.917   2.220   0.827
 8219SOL    HW225557   4.955   2.134   0.960
 8220SOL     OW25558   3.828   2.920   3.238
 8220SOL    HW125559   3.874   2.870   3.311
 8220SOL    HW225560   3.840   3.018   3.252
 8221SOL     OW25561   4.721   5.932   4.052
 8221SOL    HW125562   4.765   5.862   4.108
 8221SOL    HW225563   4.622   5.925   4.062
 8222SOL     OW25564   5.345   1.622   2.257
 8222SOL    HW125565   5.278   1.691   2.285
 8222SOL    HW225566   5.303   1.560   2.191
 8223SOL     OW25567   1.038   4.578   5.461
 8223SOL    HW125568   1.013   4.502   5.401
 8223SOL    HW225569   1.034   4.664   5.409
 8224SOL     OW25570   0.930   2.639   2.870
 8224SOL    HW125571   0.900   2.731   2.893
 8224SOL    HW225572   0.872   2.572   2.917
 8225SOL     OW25573   4.319   1.198   0.736
 8225SOL    HW125574   4.401   1.143   0.718
 8225SOL    HW225575   4.239   1.151   0.700
 8226SOL     OW25576   4.894   0.567   1.885
 8226SOL    HW125577   4.939   0.648   1.847
 8226SOL    HW225578   4.842   0.520   1.813
 8227SOL     OW25579   0.650   2.462   3.826
 8227SOL    HW125580   0.730   2.490   3.772
 8227SOL    HW225581   0.659   2.498   3.919
 8228SOL     OW25582   7.001   2.891   5.712
 8228SOL    HW125583   6.977   2.986   5.731
 8228SOL    HW225584   6.926   2.831   5.742
 8229SOL     OW25585   3.227   4.902   0.331
 8229SOL    HW125586   3.214   5.000   0.321
 8229SOL    HW225587   3.320   4.878   0.302
 8230SOL     OW25588   5.321   0.051   5.447
 8230SOL    HW125589   5.328   0.146   5.416
 8230SOL    HW225590   5.259   0.045   5.525
 8231SOL     OW25591   3.807   6.108   1.601
 8231SOL    HW125592   3.808   6.142   1.695
 8231SOL    HW225593   3.751   6.168   1.545
 8232SOL     OW25594   4.601   1.179   0.730
 8232SOL    HW125595   4.580   1.088   0.695
 8232SOL    HW225596   4.694   1.181   0.767
 8233SOL     OW25597   0.780   5.936   6.398
 8233SOL    HW125598   0.772   5.855   6.339
 8233SOL    HW225599   0.850   5.918   6.468
 8234SOL     OW25600   2.384   3.091   0.341
 8234SOL    HW125601   2.363   3.182   0.306
 8234SOL    HW225602   2.376   3.024   0.268
 8235SOL     OW25603   2.199   2.757   0.830
 8235SOL    HW125604   2.238   2.746   0.922
 8235SOL    HW225605   2.101   2.778   0.839
 8236SOL     OW25606   6.508   3.885   0.172
 8236SOL    HW125607   6.557   3.804   0.203
 8236SOL    HW225608   6.434   3.905   0.236
 8237SOL     OW25609   4.853   6.235   4.626
 8237SOL    HW125610   4.799   6.265   4.704
 8237SOL    HW225611   4.915   6.309   4.599
 8238SOL     OW25612   1.710   3.759   0.075
 8238SOL    HW125613   1.772   3.838   0.078
 8238SOL    HW225614   1.700   3.721   0.167
 8239SOL     OW25615   6.355   1.825   5.533
 8239SOL    HW125616   6.446   1.785   5.543
 8239SOL    HW225617   6.362   1.913   5.487
 8240SOL     OW25618   3.532   3.739   2.546
 8240SOL    HW125619   3.562   3.778   2.633
 8240SOL    HW225620   3.549   3.641   2.546
 8241SOL     OW25621   3.445   6.383   0.341
 8241SOL    HW125622   3.518   6.318   0.320
 8241SOL    HW225623   3.457   6.466   0.286
 8242SOL     OW25624   1.405   4.590   5.877
 8242SOL    HW125625   1.387   4.622   5.970
 8242SOL    HW225626   1.348   4.511   5.857
 8243SOL     OW25627   0.977   2.923   6.746
 8243SOL    HW125628   0.903   2.863   6.719
 8243SOL    HW225629   1.060   2.869   6.761
 8244SOL     OW25630   0.598   6.605   3.322
 8244SOL    HW125631   0.683   6.584   3.371
 8244SOL    HW225632   0.521   6.602   3.386
 8245SOL     OW25633   3.706   1.011   2.583
 8245SOL    HW125634   3.671   1.102   2.560
 8245SOL    HW225635   3.653   0.942   2.534
 8246SOL     OW25636   6.840   4.003   5.591
 8246SOL    HW125637   6.821   4.025   5.686
 8246SOL    HW225638   6.911   4.064   5.555
 8247SOL     OW25639   0.937   1.126   1.665
 8247SOL    HW125640   1.016   1.070   1.640
 8247SOL    HW225641   0.859   1.100   1.608
 8248SOL     OW25642   5.797   4.576   3.550
 8248SOL    HW125643   5.797   4.589   3.451
 8248SOL    HW225644   5.833   4.659   3.594
 8249SOL     OW25645   1.937   3.710   4.958
 8249SOL    HW125646   2.034   3.719   4.981
 8249SOL    HW225647   1.899   3.629   5.004
 8250SOL     OW25648   3.146   3.995   2.322
 8250SOL    HW125649   3.213   3.991   2.396
 8250SOL    HW225650   3.094   4.081   2.329
 8251SOL     OW25651   6.045   2.675   4.630
 8251SOL    HW125652   6.050   2.646   4.534
 8251SOL    HW225653   5.968   2.629   4.674
 8252SOL     OW25654   3.095   3.359   0.254
 8252SOL    HW125655   3.111   3.458   0.256
 8252SOL    HW225656   3.133   3.318   0.337
 8253SOL     OW25657   3.258   3.626   4.972
 8253SOL    HW125658   3.312   3.694   4.923
 8253SOL    HW225659   3.310   3.540   4.979
 8254SOL     OW25660   4.264   4.792   4.663
 8254SOL    HW125661   4.218   4.731   4.599
 8254SOL    HW225662   4.295   4.874   4.614
 8255SOL     OW25663   3.764   6.132   4.682
 8255SOL    HW125664   3.770   6.072   4.603
 8255SOL    HW225665   3.741   6.078   4.763
 8256SOL     OW25666   6.468   0.094   2.779
 8256SOL    HW125667   6.506   0.129   2.865
 8256SOL    HW225668   6.394   0.154   2.748
 8257SOL     OW25669   6.716   4.064   3.334
 8257SOL    HW125670   6.815   4.071   3.321
 8257SOL    HW225671   6.690   4.109   3.419
 8258SOL     OW25672   5.176   1.211   0.477
 8258SOL    HW125673   5.232   1.179   0.401
 8258SOL    HW225674   5.234   1.258   0.544
 8259SOL     OW25675   4.034   1.790   3.842
 8259SOL    HW125676   4.075   1.872   3.882
 8259SOL    HW225677   3.989   1.814   3.755
 8260SOL     OW25678   2.872   0.594   1.217
 8260SOL    HW125679   2.951   0.653   1.234
 8260SOL    HW225680   2.797   0.621   1.278
 8261SOL     OW25681   6.076   1.427   1.177
 8261SOL    HW125682   6.055   1.334   1.148
 8261SOL    HW225683   6.172   1.448   1.156
 8262SOL     OW25684   0.556   2.628   0.743
 8262SOL    HW125685   0.588   2.685   0.819
 8262SOL    HW225686   0.505   2.684   0.678
 8263SOL     OW25687   0.059   2.241   0.218
 8263SOL    HW125688   0.050   2.324   0.274
 8263SOL    HW225689   0.047   2.264   0.122
 8264SOL     OW25690   1.313   5.930   2.429
 8264SOL    HW125691   1.252   5.852   2.414
 8264SOL    HW225692   1.337   5.970   2.341
 8265SOL     OW25693   1.114   6.781   1.571
 8265SOL    HW125694   1.139   6.698   1.620
 8265SOL    HW225695   1.184   6.802   1.502
 8266SOL     OW25696   1.874   0.364   3.039
 8266SOL    HW125697   1.826   0.299   2.981
 8266SOL    HW225698   1.821   0.449   3.045
 8267SOL     OW25699   1.828   2.985   1.217
 8267SOL    HW125700   1.751   3.034   1.176
 8267SOL    HW225701   1.794   2.921   1.287
 8268SOL     OW25702   2.368   6.399   6.299
 8268SOL    HW125703   2.379   6.391   6.200
 8268SOL    HW225704   2.329   6.488   6.321
 8269SOL     OW25705   5.956   1.495   1.400
 8269SOL    HW125706   6.029   1.477   1.335
 8269SOL    HW225707   5.953   1.423   1.469
 8270SOL     OW25708   2.497   0.145   4.682
 8270SOL    HW125709   2.443   0.073   4.725
 8270SOL    HW225710   2.590   0.112   4.667
 8271SOL     OW25711   0.054   0.881   2.127
 8271SOL    HW125712   0.095   0.901   2.038
 8271SOL    HW225713   0.069   0.784   2.148
 8272SOL     OW25714   4.925   1.018   1.233
 8272SOL    HW125715   4.979   1.019   1.149
 8272SOL    HW225716   4.958   1.090   1.294
 8273SOL     OW25717   1.875   6.501   0.953
 8273SOL    HW125718   1.855   6.517   1.050
 8273SOL    HW225719   1.793   6.468   0.907
 8274SOL     OW25720   4.760   4.789   3.363
 8274SOL    HW125721   4.697   4.853   3.405
 8274SOL    HW225722   4.835   4.768   3.426
 8275SOL     OW25723   4.234   1.190   6.033
 8275SOL    HW125724   4.310   1.216   5.973
 8275SOL    HW225725   4.197   1.102   6.002
 8276SOL     OW25726   1.215   2.102   3.650
 8276SOL    HW125727   1.183   2.015   3.689
 8276SOL    HW225728   1.181   2.110   3.557
 8277SOL     OW25729   0.497   0.622   0.017
 8277SOL    HW125730   0.554   0.611   0.098
 8277SOL    HW225731   0.551   0.665   6.965
 8278SOL     OW25732   2.672   1.741   6.337
 8278SOL    HW125733   2.600   1.673   6.349
 8278SOL    HW225734   2.630   1.830   6.319
 8279SOL     OW25735   0.950   0.081   4.247
 8279SOL    HW125736   0.927   0.125   4.161
 8279SOL    HW225737   1.008   0.002   4.230
 8280SOL     OW25738   2.607   2.910   0.170
 8280SOL    HW125739   2.684   2.966   0.139
 8280SOL    HW225740   2.636   2.853   0.246
 8281SOL     OW25741   1.563   5.143   1.362
 8281SOL    HW125742   1.554   5.180   1.270
 8281SOL    HW225743   1.584   5.217   1.426
 8282SOL     OW25744   5.435   3.618   6.744
 8282SOL    HW125745   5.467   3.710   6.720
 8282SOL    HW225746   5.409   3.570   6.661
 8283SOL     OW25747   1.137   4.582   6.386
 8283SOL    HW125748   1.055   4.555   6.436
 8283SOL    HW225749   1.169   4.506   6.329
 8284SOL     OW25750   0.718   3.777   1.689
 8284SOL    HW125751   0.810   3.741   1.675
 8284SOL    HW225752   0.686   3.820   1.604
 8285SOL     OW25753   3.978   3.144   5.219
 8285SOL    HW125754   4.062   3.106   5.259
 8285SOL    HW225755   3.999   3.180   5.128
 8286SOL     OW25756   5.277   3.341   6.809
 8286SOL    HW125757   5.279   3.273   6.882
 8286SOL    HW225758   5.282   3.433   6.849
 8287SOL     OW25759   2.172   4.936   4.378
 8287SOL    HW125760   2.254   4.881   4.393
 8287SOL    HW225761   2.171   5.013   4.442
 8288SOL     OW25762   2.865   1.852   1.985
 8288SOL    HW125763   2.779   1.885   1.948
 8288SOL    HW225764   2.935   1.922   1.974
 8289SOL     OW25765   0.468   6.514   1.426
 8289SOL    HW125766   0.554   6.565   1.434
 8289SOL    HW225767   0.480   6.424   1.467
 8290SOL     OW25768   5.995   0.905   0.525
 8290SOL    HW125769   6.043   0.865   0.448
 8290SOL    HW225770   6.058   0.959   0.580
 8291SOL     OW25771   4.333   6.158   6.840
 8291SOL    HW125772   4.404   6.212   6.884
 8291SOL    HW225773   4.243   6.189   6.870
 8292SOL     OW25774   2.748   6.353   6.869
 8292SOL    HW125775   2.699   6.268   6.892
 8292SOL    HW225776   2.720   6.384   6.778
 8293SOL     OW25777   3.257   6.916   0.508
 8293SOL    HW125778   3.169   6.882   0.476
 8293SOL    HW225779   3.315   6.839   0.535
 8294SOL     OW25780   5.867   4.477   5.130
 8294SOL    HW125781   5.963   4.454   5.112
 8294SOL    HW225782   5.862   4.537   5.209
 8295SOL     OW25783   5.362   5.348   1.992
 8295SOL    HW125784   5.438   5.293   2.028
 8295SOL    HW225785   5.304   5.292   1.934
 8296SOL     OW25786   2.554   6.756   6.435
 8296SOL    HW125787   2.512   6.691   6.499
 8296SOL    HW225788   2.551   6.717   6.343
 8297SOL     OW25789   6.494   2.787   2.252
 8297SOL    HW125790   6.394   2.780   2.260
 8297SOL    HW225791   6.536   2.701   2.280
 8298SOL     OW25792   5.823   2.435   1.522
 8298SOL    HW125793   5.872   2.521   1.538
 8298SOL    HW225794   5.831   2.377   1.603
 8299SOL     OW25795   6.845   2.663   1.931
 8299SOL    HW125796   6.758   2.620   1.910
 8299SOL    HW225797   6.837   2.762   1.921
 8300SOL     OW25798   1.158   5.754   5.562
 8300SOL    HW125799   1.143   5.734   5.465
 8300SOL    HW225800   1.080   5.805   5.598
 8301SOL     OW25801   3.999   1.942   1.553
 8301SOL    HW125802   3.960   2.000   1.625
 8301SOL    HW225803   3.959   1.851   1.559
 8302SOL     OW25804   5.828   5.861   5.984
 8302SOL    HW125805   5.776   5.776   5.979
 8302SOL    HW225806   5.876   5.876   5.897
 8303SOL     OW25807   6.742   0.851   3.654
 8303SOL    HW125808   6.703   0.759   3.656
 8303SOL    HW225809   6.806   0.861   3.730
 8304SOL     OW25810   1.358   3.002   6.994
 8304SOL    HW125811   1.301   3.040   0.046
 8304SOL    HW225812   1.359   3.065   6.916
 8305SOL     OW25813   3.990   5.171   4.521
 8305SOL    HW125814   3.929   5.109   4.571
 8305SOL    HW225815   3.972   5.265   4.550
 8306SOL     OW25816   0.481   2.897   5.084
 8306SOL    HW125817   0.431   2.932   5.163
 8306SOL    HW225818   0.542   2.823   5.113
 8307SOL     OW25819   4.214   5.287   1.923
 8307SOL    HW125820   4.146   5.260   1.855
 8307SOL    HW225821   4.281   5.348   1.881
 8308SOL     OW25822   4.324   5.964   1.408
 8308SOL    HW125823   4.243   5.997   1.360
 8308SOL    HW225824   4.394   6.036   1.407
 8309SOL     OW25825   6.350   5.843   3.548
 8309SOL    HW125826   6.447   5.822   3.542
 8309SOL    HW225827   6.336   5.942   3.536
 8310SOL     OW25828   1.233   3.907   0.479
 8310SOL    HW125829   1.241   3.858   0.392
 8310SOL    HW225830   1.178   3.989   0.466
 8311SOL     OW25831   0.393   1.206   5.161
 8311SOL    HW125832   0.441   1.120   5.178
 8311SOL    HW225833   0.315   1.213   5.222
 8312SOL     OW25834   4.296   5.888   1.710
 8312SOL    HW125835   4.338   5.913   1.623
 8312SOL    HW225836   4.200   5.917   1.710
 8313SOL     OW25837   4.534   0.953   2.066
 8313SOL    HW125838   4.537   1.051   2.046
 8313SOL    HW225839   4.552   0.901   1.983
 8314SOL     OW25840   4.669   6.448   1.347
 8314SOL    HW125841   4.645   6.545   1.356
 8314SOL    HW225842   4.633   6.412   1.261
 8315SOL     OW25843   3.838   3.668   0.922
 8315SOL    HW125844   3.806   3.663   1.016
 8315SOL    HW225845   3.933   3.636   0.917
 8316SOL     OW25846   0.979   2.903   1.592
 8316SOL    HW125847   0.998   2.879   1.687
 8316SOL    HW225848   1.042   2.855   1.531
 8317SOL     OW25849   2.113   3.087   2.282
 8317SOL    HW125850   2.025   3.040   2.284
 8317SOL    HW225851   2.114   3.155   2.209
 8318SOL     OW25852   4.374   1.729   4.691
 8318SOL    HW125853   4.323   1.810   4.720
 8318SOL    HW225854   4.394   1.736   4.593
 8319SOL     OW25855   3.231   1.687   6.409
 8319SOL    HW125856   3.229   1.783   6.437
 8319SOL    HW225857   3.265   1.631   6.484
 8320SOL     OW25858   3.481   4.811   1.387
 8320SOL    HW125859   3.462   4.714   1.403
 8320SOL    HW225860   3.511   4.853   1.473
 8321SOL     OW25861   6.837   1.482   6.775
 8321SOL    HW125862   6.925   1.435   6.775
 8321SOL    HW225863   6.770   1.427   6.824
 8322SOL     OW25864   0.416   0.075   0.382
 8322SOL    HW125865   0.446   0.021   0.304
 8322SOL    HW225866   0.361   0.018   0.444
 8323SOL     OW25867   6.771   6.575   3.070
 8323SOL    HW125868   6.694   6.555   3.130
 8323SOL    HW225869   6.748   6.652   3.010
 8324SOL     OW25870   6.372   0.711   2.058
 8324SOL    HW125871   6.410   0.725   1.967
 8324SOL    HW225872   6.418   0.773   2.122
 8325SOL     OW25873   3.384   3.243   4.435
 8325SOL    HW125874   3.306   3.197   4.478
 8325SOL    HW225875   3.438   3.177   4.383
 8326SOL     OW25876   4.399   3.273   5.418
 8326SOL    HW125877   4.339   3.322   5.481
 8326SOL    HW225878   4.443   3.338   5.357
 8327SOL     OW25879   5.431   2.706   6.020
 8327SOL    HW125880   5.454   2.615   5.984
 8327SOL    HW225881   5.473   2.776   5.962
 8328SOL     OW25882   2.492   4.147   6.178
 8328SOL    HW125883   2.435   4.149   6.096
 8328SOL    HW225884   2.582   4.186   6.157
 8329SOL     OW25885   0.237   3.793   6.343
 8329SOL    HW125886   0.311   3.726   6.334
 8329SOL    HW225887   0.252   3.849   6.424
 8330SOL     OW25888   2.034   6.866   0.674
 8330SOL    HW125889   2.113   6.926   0.684
 8330SOL    HW225890   2.016   6.819   0.760
 8331SOL     OW25891   2.664   0.890   1.181
 8331SOL    HW125892   2.694   0.936   1.265
 8331SOL    HW225893   2.693   0.943   1.102
 8332SOL     OW25894   5.098   4.755   2.805
 8332SOL    HW125895   5.192   4.729   2.783
 8332SOL    HW225896   5.063   4.697   2.878
 8333SOL     OW25897   0.460   6.299   6.579
 8333SOL    HW125898   0.499   6.227   6.521
 8333SOL    HW225899   0.381   6.263   6.627
 8334SOL     OW25900   4.918   1.630   3.541
 8334SOL    HW125901   4.918   1.539   3.581
 8334SOL    HW225902   5.009   1.671   3.554
 8335SOL     OW25903   6.281   5.247   5.098
 8335SOL    HW125904   6.277   5.184   5.020
 8335SOL    HW225905   6.366   5.299   5.094
 8336SOL     OW25906   0.126   0.578   1.555
 8336SOL    HW125907   0.097   0.488   1.587
 8336SOL    HW225908   0.124   0.580   1.455
 8337SOL     OW25909   1.042   6.651   3.271
 8337SOL    HW125910   1.100   6.618   3.345
 8337SOL    HW225911   1.022   6.575   3.209
 8338SOL     OW25912   1.624   5.092   2.293
 8338SOL    HW125913   1.551   5.116   2.358
 8338SOL    HW225914   1.614   4.997   2.266
 8339SOL     OW25915   5.889   0.693   1.427
 8339SOL    HW125916   5.965   0.666   1.485
 8339SOL    HW225917   5.802   0.669   1.471
 8340SOL     OW25918   4.942   4.107   0.899
 8340SOL    HW125919   4.863   4.152   0.856
 8340SOL    HW225920   5.025   4.132   0.849
 8341SOL     OW25921   2.682   6.053   0.260
 8341SOL    HW125922   2.585   6.071   0.244
 8341SOL    HW225923   2.692   5.988   0.335
 8342SOL     OW25924   3.468   0.741   1.617
 8342SOL    HW125925   3.519   0.686   1.551
 8342SOL    HW225926   3.389   0.690   1.650
 8343SOL     OW25927   0.923   4.757   6.324
 8343SOL    HW125928   1.014   4.719   6.337
 8343SOL    HW225929   0.924   4.822   6.247
 8344SOL     OW25930   4.856   0.299   5.547
 8344SOL    HW125931   4.858   0.203   5.574
 8344SOL    HW225932   4.794   0.310   5.468
 8345SOL     OW25933   5.353   2.224   3.357
 8345SOL    HW125934   5.320   2.318   3.352
 8345SOL    HW225935   5.453   2.224   3.362
 8346SOL     OW25936   2.890   5.045   0.299
 8346SOL    HW125937   2.824   4.971   0.317
 8346SOL    HW225938   2.912   5.048   0.202
 8347SOL     OW25939   3.529   0.014   4.679
 8347SOL    HW125940   3.454   6.974   4.651
 8347SOL    HW225941   3.595   0.022   4.604
 8348SOL     OW25942   1.373   0.021   1.614
 8348SOL    HW125943   1.352   6.951   1.577
 8348SOL    HW225944   1.339   0.092   1.552
 8349SOL     OW25945   5.842   5.113   1.791
 8349SOL    HW125946   5.766   5.157   1.744
 8349SOL    HW225947   5.825   5.014   1.796
 8350SOL     OW25948   4.373   1.105   4.660
 8350SOL    HW125949   4.407   1.198   4.674
 8350SOL    HW225950   4.432   1.057   4.595
 8351SOL     OW25951   4.672   4.966   4.668
 8351SOL    HW125952   4.674   5.063   4.692
 8351SOL    HW225953   4.577   4.937   4.656
 8352SOL     OW25954   6.721   0.072   1.997
 8352SOL    HW125955   6.628   0.072   1.960
 8352SOL    HW225956   6.750   0.166   2.016
 8353SOL     OW25957   5.544   3.894   2.109
 8353SOL    HW125958   5.578   3.939   2.027
 8353SOL    HW225959   5.590   3.806   2.120
 8354SOL     OW25960   3.426   0.720   6.799
 8354SOL    HW125961   3.342   0.754   6.841
 8354SOL    HW225962   3.505   0.754   6.850
 8355SOL     OW25963   3.405   0.466   6.649
 8355SOL    HW125964   3.416   0.559   6.683
 8355SOL    HW225965   3.318   0.429   6.682
 8356SOL     OW25966   1.279   6.796   0.452
 8356SOL    HW125967   1.258   6.698   0.455
 8356SOL    HW225968   1.321   6.824   0.538
 8357SOL     OW25969   3.694   6.424   6.124
 8357SOL    HW125970   3.710   6.516   6.160
 8357SOL    HW225971   3.700   6.425   6.025
 8358SOL     OW25972   1.641   2.553   4.755
 8358SOL    HW125973   1.575   2.492   4.799
 8358SOL    HW225974   1.729   2.547   4.802
 8359SOL     OW25975   3.309   5.903   4.219
 8359SOL    HW125976   3.251   5.975   4.257
 8359SOL    HW225977   3.252   5.833   4.177
 8360SOL     OW25978   3.357   6.398   2.429
 8360SOL    HW125979   3.259   6.419   2.429
 8360SOL    HW225980   3.408   6.480   2.403
 8361SOL     OW25981   1.721   0.748   1.773
 8361SOL    HW125982   1.750   0.807   1.699
 8361SOL    HW225983   1.762   0.778   1.859
 8362SOL     OW25984   2.261   2.382   0.535
 8362SOL    HW125985   2.227   2.290   0.513
 8362SOL    HW225986   2.183   2.442   0.554
 8363SOL     OW25987   0.925   2.615   0.305
 8363SOL    HW125988   0.981   2.686   0.263
 8363SOL    HW225989   0.860   2.578   0.238
 8364SOL     OW25990   6.834   3.633   3.506
 8364SOL    HW125991   6.755   3.608   3.561
 8364SOL    HW225992   6.876   3.550   3.469
 8365SOL     OW25993   1.744   3.926   1.679
 8365SOL    HW125994   1.812   3.853   1.673
 8365SOL    HW225995   1.652   3.887   1.680
 8366SOL     OW25996   4.132   5.385   2.441
 8366SOL    HW125997   4.151   5.431   2.354
 8366SOL    HW225998   4.052   5.326   2.430
 8367SOL     OW25999   4.051   6.112   4.164
 8367SOL    HW126000   4.150   6.100   4.160
 8367SOL    HW226001   4.022   6.178   4.094
 8368SOL     OW26002   3.020   6.441   6.188
 8368SOL    HW126003   3.101   6.471   6.239
 8368SOL    HW226004   2.959   6.390   6.249
 8369SOL     OW26005   1.871   0.857   6.822
 8369SOL    HW126006   1.834   0.765   6.836
 8369SOL    HW226007   1.971   0.855   6.834
 8370SOL     OW26008   3.274   2.111   5.872
 8370SOL    HW126009   3.312   2.076   5.787
 8370SOL    HW226010   3.346   2.119   5.941
 8371SOL     OW26011   1.617   4.225   0.804
 8371SOL    HW126012   1.604   4.177   0.890
 8371SOL    HW226013   1.546   4.294   0.793
 8372SOL     OW26014   0.526   6.054   2.938
 8372SOL    HW126015   0.470   6.076   3.017
 8372SOL    HW226016   0.614   6.100   2.945
 8373SOL     OW26017   0.811   0.257   5.037
 8373SOL    HW126018   0.758   0.184   4.994
 8373SOL    HW226019   0.895   0.273   4.984
 8374SOL     OW26020   6.558   0.290   6.462
 8374SOL    HW126021   6.486   0.225   6.486
 8374SOL    HW226022   6.526   0.350   6.389
 8375SOL     OW26023   3.473   6.401   5.872
 8375SOL    HW126024   3.375   6.404   5.894
 8375SOL    HW226025   3.496   6.309   5.840
 8376SOL     OW26026   2.294   6.641   4.300
 8376SOL    HW126027   2.334   6.695   4.225
 8376SOL    HW226028   2.248   6.702   4.364
 8377SOL     OW26029   5.720   5.969   1.798
 8377SOL    HW126030   5.637   5.914   1.797
 8377SOL    HW226031   5.772   5.953   1.714
 8378SOL     OW26032   4.432   4.491   2.970
 8378SOL    HW126033   4.333   4.486   2.985
 8378SOL    HW226034   4.455   4.440   2.887
 8379SOL     OW26035   6.971   2.941   1.061
 8379SOL    HW126036   6.915   2.930   0.979
 8379SOL    HW226037   7.020   2.855   1.080
 8380SOL     OW26038   6.616   1.069   2.440
 8380SOL    HW126039   6.634   0.975   2.469
 8380SOL    HW226040   6.691   1.128   2.469
 8381SOL     OW26041   0.679   4.213   4.749
 8381SOL    HW126042   0.722   4.137   4.700
 8381SOL    HW226043   0.746   4.286   4.764
 8382SOL     OW26044   1.278   1.572   2.077
 8382SOL    HW126045   1.217   1.612   2.144
 8382SOL    HW226046   1.278   1.473   2.086
 8383SOL     OW26047   2.288   1.638   6.366
 8383SOL    HW126048   2.293   1.677   6.458
 8383SOL    HW226049   2.375   1.594   6.344
 8384SOL     OW26050   0.241   6.926   0.542
 8384SOL    HW126051   0.174   6.986   0.499
 8384SOL    HW226052   0.223   6.920   0.640
 8385SOL     OW26053   5.805   3.031   1.473
 8385SOL    HW126054   5.901   3.058   1.472
 8385SOL    HW226055   5.775   3.009   1.381
 8386SOL     OW26056   0.963   4.126   2.505
 8386SOL    HW126057   0.972   4.130   2.406
 8386SOL    HW226058   0.912   4.205   2.538
 8387SOL     OW26059   0.878   1.507   1.274
 8387SOL    HW126060   0.947   1.465   1.333
 8387SOL    HW226061   0.857   1.599   1.307
 8388SOL     OW26062   1.645   6.167   0.815
 8388SOL    HW126063   1.712   6.125   0.753
 8388SOL    HW226064   1.600   6.244   0.769
 8389SOL     OW26065   5.380   3.284   2.341
 8389SOL    HW126066   5.460   3.341   2.359
 8389SOL    HW226067   5.401   3.189   2.363
 8390SOL     OW26068   3.559   1.424   6.344
 8390SOL    HW126069   3.603   1.485   6.277
 8390SOL    HW226070   3.543   1.475   6.429
 8391SOL     OW26071   5.868   6.404   1.056
 8391SOL    HW126072   5.960   6.380   1.023
 8391SOL    HW226073   5.814   6.322   1.067
 8392SOL     OW26074   5.672   3.936   3.947
 8392SOL    HW126075   5.721   3.920   4.032
 8392SOL    HW226076   5.712   3.880   3.874
 8393SOL     OW26077   5.690   0.718   2.426
 8393SOL    HW126078   5.733   0.693   2.513
 8393SOL    HW226079   5.668   0.635   2.375
 8394SOL     OW26080   5.897   2.993   1.810
 8394SOL    HW126081   5.895   2.902   1.852
 8394SOL    HW226082   5.805   3.018   1.781
 8395SOL     OW26083   3.224   6.549   5.686
 8395SOL    HW126084   3.317   6.532   5.719
 8395SOL    HW226085   3.194   6.640   5.715
 8396SOL     OW26086   4.452   4.762   3.627
 8396SOL    HW126087   4.489   4.842   3.579
 8396SOL    HW226088   4.512   4.738   3.703
 8397SOL     OW26089   0.716   0.974   3.575
 8397SOL    HW126090   0.633   0.957   3.521
 8397SOL    HW226091   0.717   0.912   3.653
 8398SOL     OW26092   5.053   1.968   6.661
 8398SOL    HW126093   5.029   1.974   6.758
 8398SOL    HW226094   5.152   1.978   6.650
 8399SOL     OW26095   6.463   6.604   6.547
 8399SOL    HW126096   6.547   6.608   6.601
 8399SOL    HW226097   6.478   6.653   6.461
 8400SOL     OW26098   1.379   2.248   4.230
 8400SOL    HW126099   1.329   2.315   4.174
 8400SOL    HW226100   1.464   2.223   4.184
 8401SOL     OW26101   2.073   0.924   5.525
 8401SOL    HW126102   1.982   0.906   5.563
 8401SOL    HW226103   2.128   0.972   5.593
 8402SOL     OW26104   5.378   1.412   6.111
 8402SOL    HW126105   5.427   1.351   6.173
 8402SOL    HW226106   5.443   1.474   6.067
 8403SOL     OW26107   0.575   3.798   4.385
 8403SOL    HW126108   0.666   3.771   4.354
 8403SOL    HW226109   0.568   3.782   4.484
 8404SOL     OW26110   3.258   0.610   5.762
 8404SOL    HW126111   3.325   0.684   5.765
 8404SOL    HW226112   3.273   0.548   5.838
 8405SOL     OW26113   3.661   1.629   6.191
 8405SOL    HW126114   3.609   1.706   6.156
 8405SOL    HW226115   3.738   1.662   6.246
 8406SOL     OW26116   4.343   0.174   0.745
 8406SOL    HW126117   4.311   0.257   0.700
 8406SOL    HW226118   4.353   0.101   0.677
 8407SOL     OW26119   4.588   6.462   3.632
 8407SOL    HW126120   4.667   6.484   3.575
 8407SOL    HW226121   4.539   6.384   3.593
 8408SOL     OW26122   5.165   5.281   6.923
 8408SOL    HW126123   5.234   5.215   6.951
 8408SOL    HW226124   5.190   5.372   6.956
 8409SOL     OW26125   4.854   2.452   1.999
 8409SOL    HW126126   4.838   2.377   2.063
 8409SOL    HW226127   4.772   2.509   1.993
 8410SOL     OW26128   5.824   2.268   1.741
 8410SOL    HW126129   5.863   2.176   1.744
 8410SOL    HW226130   5.752   2.276   1.810
 8411SOL     OW26131   0.439   6.205   0.929
 8411SOL    HW126132   0.494   6.288   0.943
 8411SOL    HW226133   0.354   6.229   0.883
 8412SOL     OW26134   3.984   2.893   0.915
 8412SOL    HW126135   3.989   2.850   0.825
 8412SOL    HW226136   4.055   2.854   0.974
 8413SOL     OW26137   4.087   5.724   6.168
 8413SOL    HW126138   4.020   5.790   6.200
 8413SOL    HW226139   4.053   5.631   6.186
 8414SOL     OW26140   1.842   1.481   2.236
 8414SOL    HW126141   1.783   1.554   2.271
 8414SOL    HW226142   1.892   1.439   2.311
 8415SOL     OW26143   2.731   6.578   3.897
 8415SOL    HW126144   2.728   6.678   3.887
 8415SOL    HW226145   2.647   6.548   3.944
 8416SOL     OW26146   6.483   1.533   4.735
 8416SOL    HW126147   6.393   1.545   4.693
 8416SOL    HW226148   6.526   1.450   4.698
 8417SOL     OW26149   2.059   3.374   5.360
 8417SOL    HW126150   2.134   3.369   5.427
 8417SOL    HW226151   2.046   3.469   5.333
 8418SOL     OW26152   0.190   5.637   2.113
 8418SOL    HW126153   0.227   5.730   2.103
 8418SOL    HW226154   0.095   5.642   2.142
 8419SOL     OW26155   6.137   1.800   3.378
 8419SOL    HW126156   6.115   1.782   3.282
 8419SOL    HW226157   6.085   1.736   3.436
 8420SOL     OW26158   3.020   6.825   2.215
 8420SOL    HW126159   2.984   6.873   2.135
 8420SOL    HW226160   2.977   6.735   2.222
 8421SOL     OW26161   3.022   5.600   6.961
 8421SOL    HW126162   2.993   5.677   7.019
 8421SOL    HW226163   3.065   5.635   6.878
 8422SOL     OW26164   4.577   2.586   2.238
 8422SOL    HW126165   4.483   2.575   2.273
 8422SOL    HW226166   4.576   2.579   2.138
 8423SOL     OW26167   4.472   4.274   5.621
 8423SOL    HW126168   4.475   4.185   5.668
 8423SOL    HW226169   4.563   4.296   5.586
 8424SOL     OW26170   1.985   1.544   3.487
 8424SOL    HW126171   1.926   1.587   3.555
 8424SOL    HW226172   1.979   1.445   3.495
 8425SOL     OW26173   3.415   3.790   4.325
 8425SOL    HW126174   3.335   3.789   4.264
 8425SOL    HW226175   3.451   3.883   4.331
 8426SOL     OW26176   3.553   3.225   2.458
 8426SOL    HW126177   3.540   3.223   2.359
 8426SOL    HW226178   3.640   3.182   2.481
 8427SOL     OW26179   3.179   3.628   3.235
 8427SOL    HW126180   3.089   3.621   3.191
 8427SOL    HW226181   3.250   3.600   3.170
 8428SOL     OW26182   0.502   0.111   1.362
 8428SOL    HW126183   0.415   0.073   1.331
 8428SOL    HW226184   0.565   0.036   1.381
 8429SOL     OW26185   1.959   5.283   5.941
 8429SOL    HW126186   1.904   5.281   5.858
 8429SOL    HW226187   1.907   5.330   6.014
 8430SOL     OW26188   3.853   4.868   3.938
 8430SOL    HW126189   3.946   4.833   3.942
 8430SOL    HW226190   3.818   4.860   3.845
 8431SOL     OW26191   3.166   4.304   6.672
 8431SOL    HW126192   3.236   4.376   6.675
 8431SOL    HW226193   3.132   4.287   6.764
 8432SOL     OW26194   6.853   5.109   5.576
 8432SOL    HW126195   6.916   5.046   5.532
 8432SOL    HW226196   6.783   5.139   5.511
 8433SOL     OW26197   4.387   2.724   1.055
 8433SOL    HW126198   4.306   2.666   1.063
 8433SOL    HW226199   4.420   2.749   1.146
 8434SOL     OW26200   2.196   5.859   4.415
 8434SOL    HW126201   2.189   5.955   4.387
 8434SOL    HW226202   2.290   5.840   4.445
 8435SOL     OW26203   5.268   0.686   2.989
 8435SOL    HW126204   5.251   0.635   3.073
 8435SOL    HW226205   5.365   0.677   2.963
 8436SOL     OW26206   2.728   5.896   3.913
 8436SOL    HW126207   2.819   5.889   3.955
 8436SOL    HW226208   2.737   5.892   3.814
 8437SOL     OW26209   1.873   2.587   2.358
 8437SOL    HW126210   1.832   2.496   2.370
 8437SOL    HW226211   1.849   2.645   2.436
 8438SOL     OW26212   2.218   3.958   3.099
 8438SOL    HW126213   2.142   4.022   3.097
 8438SOL    HW226214   2.296   3.998   3.051
 8439SOL     OW26215   6.356   5.395   3.493
 8439SOL    HW126216   6.408   5.435   3.418
 8439SOL    HW226217   6.259   5.412   3.479
 8440SOL     OW26218   2.141   1.656   3.697
 8440SOL    HW126219   2.185   1.573   3.662
 8440SOL    HW226220   2.202   1.701   3.762
 8441SOL     OW26221   5.503   5.657   5.302
 8441SOL    HW126222   5.513   5.623   5.209
 8441SOL    HW226223   5.520   5.584   5.367
 8442SOL     OW26224   3.447   0.495   5.085
 8442SOL    HW126225   3.450   0.580   5.136
 8442SOL    HW226226   3.418   0.421   5.146
 8443SOL     OW26227   2.229   4.993   3.721
 8443SOL    HW126228   2.315   4.945   3.712
 8443SOL    HW226229   2.154   4.933   3.692
 8444SOL     OW26230   3.515   6.136   3.516
 8444SOL    HW126231   3.416   6.146   3.510
 8444SOL    HW226232   3.541   6.115   3.610
 8445SOL     OW26233   2.347   0.535   0.503
 8445SOL    HW126234   2.378   0.629   0.519
 8445SOL    HW226235   2.410   0.490   0.440
 8446SOL     OW26236   6.927   6.055   4.978
 8446SOL    HW126237   6.847   6.111   4.955
 8446SOL    HW226238   7.010   6.105   4.953
 8447SOL     OW26239   3.560   1.490   2.024
 8447SOL    HW126240   3.562   1.399   2.066
 8447SOL    HW226241   3.474   1.503   1.975
 8448SOL     OW26242   4.782   6.001   3.735
 8448SOL    HW126243   4.864   6.035   3.781
 8448SOL    HW226244   4.700   6.034   3.783
 8449SOL     OW26245   0.743   3.305   4.016
 8449SOL    HW126246   0.756   3.339   4.109
 8449SOL    HW226247   0.757   3.380   3.951
 8450SOL     OW26248   0.414   0.522   0.778
 8450SOL    HW126249   0.351   0.597   0.799
 8450SOL    HW226250   0.379   0.437   0.817
 8451SOL     OW26251   3.067   0.929   0.507
 8451SOL    HW126252   3.002   0.865   0.547
 8451SOL    HW226253   3.049   0.938   0.409
 8452SOL     OW26254   4.969   2.325   4.123
 8452SOL    HW126255   5.051   2.298   4.071
 8452SOL    HW226256   4.985   2.415   4.165
 8453SOL     OW26257   0.450   4.972   6.935
 8453SOL    HW126258   0.544   4.990   6.906
 8453SOL    HW226259   0.412   4.897   6.881
 8454SOL     OW26260   0.533   4.746   0.168
 8454SOL    HW126261   0.500   4.838   0.187
 8454SOL    HW226262   0.461   4.693   0.123
 8455SOL     OW26263   0.008   1.386   2.809
 8455SOL    HW126264   0.029   1.475   2.849
 8455SOL    HW226265   6.931   1.365   2.823
 8456SOL     OW26266   4.753   0.827   3.514
 8456SOL    HW126267   4.778   0.876   3.598
 8456SOL    HW226268   4.775   0.884   3.435
 8457SOL     OW26269   6.690   6.533   4.483
 8457SOL    HW126270   6.617   6.512   4.417
 8457SOL    HW226271   6.778   6.509   4.443
 8458SOL     OW26272   0.823   0.356   0.534
 8458SOL    HW126273   0.852   0.307   0.616
 8458SOL    HW226274   0.868   0.316   0.454
 8459SOL     OW26275   1.685   5.840   3.230
 8459SOL    HW126276   1.661   5.754   3.275
 8459SOL    HW226277   1.635   5.915   3.272
 8460SOL     OW26278   4.355   3.942   5.404
 8460SOL    HW126279   4.314   4.026   5.369
 8460SOL    HW226280   4.453   3.943   5.386
 8461SOL     OW26281   0.501   2.521   5.515
 8461SOL    HW126282   0.563   2.444   5.498
 8461SOL    HW226283   0.459   2.549   5.429
 8462SOL     OW26284   3.048   1.963   1.234
 8462SOL    HW126285   3.016   1.901   1.306
 8462SOL    HW226286   3.070   2.052   1.274
 8463SOL     OW26287   6.457   6.811   1.668
 8463SOL    HW126288   6.449   6.730   1.727
 8463SOL    HW226289   6.407   6.887   1.709
 8464SOL     OW26290   5.524   3.510   4.603
 8464SOL    HW126291   5.610   3.561   4.613
 8464SOL    HW226292   5.520   3.471   4.511
 8465SOL     OW26293   1.570   1.812   0.627
 8465SOL    HW126294   1.594   1.719   0.598
 8465SOL    HW226295   1.613   1.878   0.566
 8466SOL     OW26296   1.245   5.544   3.771
 8466SOL    HW126297   1.191   5.627   3.785
 8466SOL    HW226298   1.250   5.524   3.673
 8467SOL     OW26299   3.050   5.739   0.915
 8467SOL    HW126300   2.950   5.740   0.918
 8467SOL    HW226301   3.082   5.644   0.910
 8468SOL     OW26302   4.005   2.084   0.551
 8468SOL    HW126303   3.975   1.995   0.585
 8468SOL    HW226304   4.019   2.079   0.452
 8469SOL     OW26305   2.946   3.216   6.496
 8469SOL    HW126306   3.004   3.283   6.449
 8469SOL    HW226307   2.892   3.262   6.566
 8470SOL     OW26308   1.959   2.671   1.366
 8470SOL    HW126309   2.005   2.633   1.447
 8470SOL    HW226310   1.884   2.731   1.395
 8471SOL     OW26311   2.671   0.633   3.844
 8471SOL    HW126312   2.649   0.662   3.751
 8471SOL    HW226313   2.659   0.534   3.851
 8472SOL     OW26314   0.387   6.562   4.872
 8472SOL    HW126315   0.425   6.509   4.795
 8472SOL    HW226316   0.318   6.626   4.837
 8473SOL     OW26317   6.979   5.786   7.006
 8473SOL    HW126318   0.028   5.851   6.977
 8473SOL    HW226319   6.893   5.834   0.002
 8474SOL     OW26320   3.037   3.149   1.769
 8474SOL    HW126321   3.090   3.234   1.775
 8474SOL    HW226322   3.047   3.110   1.677
 8475SOL     OW26323   6.337   1.908   2.383
 8475SOL    HW126324   6.245   1.934   2.413
 8475SOL    HW226325   6.337   1.895   2.284
 8476SOL     OW26326   6.222   6.945   1.790
 8476SOL    HW126327   6.225   6.960   1.889
 8476SOL    HW226328   6.185   6.854   1.771
 8477SOL     OW26329   2.866   6.288   0.936
 8477SOL    HW126330   2.898   6.354   1.004
 8477SOL    HW226331   2.912   6.305   0.849
 8478SOL     OW26332   1.812   0.441   5.714
 8478SOL    HW126333   1.738   0.502   5.742
 8478SOL    HW226334   1.890   0.452   5.775
 8479SOL     OW26335   6.067   0.813   0.265
 8479SOL    HW126336   6.016   0.735   0.301
 8479SOL    HW226337   6.148   0.779   0.216
 8480SOL     OW26338   3.218   1.181   1.501
 8480SOL    HW126339   3.275   1.101   1.521
 8480SOL    HW226340   3.276   1.259   1.478
 8481SOL     OW26341   4.021   1.153   4.353
 8481SOL    HW126342   4.049   1.141   4.448
 8481SOL    HW226343   4.101   1.166   4.295
 8482SOL     OW26344   2.141   0.238   2.140
 8482SOL    HW126345   2.177   0.285   2.059
 8482SOL    HW226346   2.044   0.260   2.150
 8483SOL     OW26347   3.177   5.595   2.767
 8483SOL    HW126348   3.226   5.513   2.736
 8483SOL    HW226349   3.146   5.648   2.688
 8484SOL     OW26350   6.884   4.704   2.964
 8484SOL    HW126351   6.874   4.803   2.969
 8484SOL    HW226352   6.965   4.681   2.910
 8485SOL     OW26353   2.128   3.583   0.532
 8485SOL    HW126354   2.042   3.544   0.501
 8485SOL    HW226355   2.173   3.630   0.455
 8486SOL     OW26356   5.066   1.194   2.627
 8486SOL    HW126357   5.048   1.288   2.657
 8486SOL    HW226358   4.985   1.157   2.582
 8487SOL     OW26359   5.357   0.212   0.922
 8487SOL    HW126360   5.346   0.157   0.840
 8487SOL    HW226361   5.363   0.308   0.898
 8488SOL     OW26362   5.551   5.546   4.586
 8488SOL    HW126363   5.611   5.558   4.665
 8488SOL    HW226364   5.606   5.542   4.503
 8489SOL     OW26365   5.675   5.503   1.591
 8489SOL    HW126366   5.763   5.457   1.580
 8489SOL    HW226367   5.633   5.517   1.502
 8490SOL     OW26368   4.682   5.750   3.419
 8490SOL    HW126369   4.699   5.658   3.383
 8490SOL    HW226370   4.769   5.799   3.427
 8491SOL     OW26371   2.567   0.654   1.726
 8491SOL    HW126372   2.527   0.742   1.703
 8491SOL    HW226373   2.505   0.581   1.700
 8492SOL     OW26374   5.088   3.673   5.466
 8492SOL    HW126375   5.175   3.686   5.513
 8492SOL    HW226376   5.082   3.737   5.389
 8493SOL     OW26377   3.680   1.671   0.365
 8493SOL    HW126378   3.652   1.581   0.398
 8493SOL    HW226379   3.779   1.680   0.370
 8494SOL     OW26380   2.016   5.396   6.712
 8494SOL    HW126381   2.053   5.489   6.713
 8494SOL    HW226382   2.016   5.361   6.619
 8495SOL     OW26383   0.025   3.289   0.679
 8495SOL    HW126384   0.022   3.249   0.770
 8495SOL    HW226385   0.087   3.368   0.679
 8496SOL     OW26386   0.733   1.588   3.632
 8496SOL    HW126387   0.639   1.566   3.603
 8496SOL    HW226388   0.741   1.686   3.648
 8497SOL     OW26389   5.418   5.965   4.156
 8497SOL    HW126390   5.422   6.024   4.237
 8497SOL    HW226391   5.387   5.874   4.183
 8498SOL     OW26392   0.331   6.860   1.705
 8498SOL    HW126393   0.310   6.910   1.790
 8498SOL    HW226394   0.269   6.891   1.633
 8499SOL     OW26395   2.405   5.194   6.431
 8499SOL    HW126396   2.309   5.168   6.442
 8499SOL    HW226397   2.463   5.113   6.443
 8500SOL     OW26398   2.592   0.237   5.297
 8500SOL    HW126399   2.597   0.336   5.299
 8500SOL    HW226400   2.566   0.206   5.206
 8501SOL     OW26401   1.604   2.971   6.724
 8501SOL    HW126402   1.597   2.905   6.798
 8501SOL    HW226403   1.688   3.025   6.735
 8502SOL     OW26404   0.561   5.237   1.601
 8502SOL    HW126405   0.584   5.302   1.529
 8502SOL    HW226406   0.572   5.144   1.566
 8503SOL     OW26407   0.710   5.121   3.440
 8503SOL    HW126408   0.619   5.081   3.452
 8503SOL    HW226409   0.775   5.074   3.499
 8504SOL     OW26410   1.734   6.241   3.570
 8504SOL    HW126411   1.807   6.302   3.601
 8504SOL    HW226412   1.750   6.216   3.474
 8505SOL     OW26413   5.288   4.124   3.555
 8505SOL    HW126414   5.361   4.128   3.487
 8505SOL    HW226415   5.294   4.038   3.606
 8506SOL     OW26416   1.055   6.676   0.212
 8506SOL    HW126417   1.069   6.583   0.247
 8506SOL    HW226418   0.968   6.681   0.163
 8507SOL     OW26419   2.317   0.804   5.438
 8507SOL    HW126420   2.340   0.838   5.347
 8507SOL    HW226421   2.228   0.839   5.466
 8508SOL     OW26422   6.171   3.069   5.220
 8508SOL    HW126423   6.223   3.048   5.137
 8508SOL    HW226424   6.077   3.093   5.196
 8509SOL     OW26425   6.065   0.853   4.644
 8509SOL    HW126426   6.086   0.815   4.734
 8509SOL    HW226427   5.983   0.911   4.650
 8510SOL     OW26428   6.617   5.835   3.469
 8510SOL    HW126429   6.564   5.796   3.394
 8510SOL    HW226430   6.681   5.903   3.433
 8511SOL     OW26431   5.594   4.004   1.521
 8511SOL    HW126432   5.655   4.081   1.506
 8511SOL    HW226433   5.528   4.025   1.593
 8512SOL     OW26434   4.223   2.215   0.194
 8512SOL    HW126435   4.229   2.226   0.293
 8512SOL    HW226436   4.229   2.304   0.150
 8513SOL     OW26437   4.995   3.843   0.868
 8513SOL    HW126438   4.982   3.941   0.878
 8513SOL    HW226439   5.003   3.800   0.958
 8514SOL     OW26440   2.682   2.388   3.782
 8514SOL    HW126441   2.669   2.486   3.799
 8514SOL    HW226442   2.607   2.354   3.725
 8515SOL     OW26443   0.028   1.302   6.817
 8515SOL    HW126444   0.126   1.301   6.838
 8515SOL    HW226445   7.011   1.210   6.829
 8516SOL     OW26446   5.965   3.002   2.736
 8516SOL    HW126447   5.905   3.051   2.673
 8516SOL    HW226448   6.060   3.028   2.719
 8517SOL     OW26449   2.006   2.726   5.771
 8517SOL    HW126450   1.993   2.640   5.821
 8517SOL    HW226451   1.918   2.761   5.741
 8518SOL     OW26452   4.987   4.016   6.024
 8518SOL    HW126453   4.965   3.921   6.005
 8518SOL    HW226454   4.972   4.071   5.941
 8519SOL     OW26455   0.928   4.524   0.422
 8519SOL    HW126456   1.002   4.577   0.465
 8519SOL    HW226457   0.850   4.585   0.405
 8520SOL     OW26458   3.301   3.187   5.313
 8520SOL    HW126459   3.273   3.106   5.364
 8520SOL    HW226460   3.388   3.168   5.266
 8521SOL     OW26461   2.228   6.547   5.416
 8521SOL    HW126462   2.244   6.590   5.327
 8521SOL    HW226463   2.316   6.527   5.459
 8522SOL     OW26464   0.652   0.268   1.092
 8522SOL    HW126465   0.731   0.207   1.101
 8522SOL    HW226466   0.569   0.213   1.079
 8523SOL     OW26467   3.183   0.080   6.818
 8523SOL    HW126468   3.261   0.080   6.882
 8523SOL    HW226469   3.112   0.019   6.853
 8524SOL     OW26470   1.513   4.434   4.761
 8524SOL    HW126471   1.538   4.517   4.812
 8524SOL    HW226472   1.433   4.392   4.803
 8525SOL     OW26473   5.567   5.034   1.332
 8525SOL    HW126474   5.528   5.008   1.420
 8525SOL    HW226475   5.665   5.010   1.331
 8526SOL     OW26476   3.187   6.443   0.446
 8526SOL    HW126477   3.143   6.354   0.459
 8526SOL    HW226478   3.284   6.436   0.468
 8527SOL     OW26479   3.598   0.866   6.982
 8527SOL    HW126480   3.639   0.946   0.005
 8527SOL    HW226481   3.517   0.838   0.014
 8528SOL     OW26482   4.633   1.813   1.210
 8528SOL    HW126483   4.674   1.904   1.209
 8528SOL    HW226484   4.604   1.789   1.117
 8529SOL     OW26485   1.571   6.637   6.651
 8529SOL    HW126486   1.487   6.584   6.641
 8529SOL    HW226487   1.592   6.683   6.565
 8530SOL     OW26488   3.190   4.101   4.508
 8530SOL    HW126489   3.149   4.107   4.418
 8530SOL    HW226490   3.181   4.008   4.543
 8531SOL     OW26491   0.020   5.572   2.901
 8531SOL    HW126492   0.103   5.545   2.851
 8531SOL    HW226493   0.002   5.504   2.973
 8532SOL     OW26494   3.938   6.882   4.405
 8532SOL    HW126495   3.989   6.798   4.389
 8532SOL    HW226496   3.932   6.934   4.319
 8533SOL     OW26497   1.431   6.109   0.034
 8533SOL    HW126498   1.431   6.195   7.003
 8533SOL    HW226499   1.501   6.048   7.018
 8534SOL     OW26500   4.520   2.575   3.558
 8534SOL    HW126501   4.526   2.533   3.467
 8534SOL    HW226502   4.441   2.537   3.606
 8535SOL     OW26503   6.032   1.281   4.281
 8535SOL    HW126504   6.022   1.379   4.261
 8535SOL    HW226505   6.128   1.259   4.295
 8536SOL     OW26506   1.140   2.373   5.007
 8536SOL    HW126507   1.043   2.353   4.996
 8536SOL    HW226508   1.175   2.327   5.088
 8537SOL     OW26509   5.930   1.392   3.441
 8537SOL    HW126510   5.904   1.311   3.494
 8537SOL    HW226511   5.942   1.470   3.502
 8538SOL     OW26512   1.777   1.414   0.009
 8538SOL    HW126513   1.754   1.333   0.063
 8538SOL    HW226514   1.707   1.428   6.959
 8539SOL     OW26515   6.550   2.120   2.346
 8539SOL    HW126516   6.486   2.197   2.349
 8539SOL    HW226517   6.499   2.035   2.352
 8540SOL     OW26518   5.428   0.343   6.923
 8540SOL    HW126519   5.445   0.263   6.980
 8540SOL    HW226520   5.513   0.395   6.912
 8541SOL     OW26521   3.269   1.853   3.469
 8541SOL    HW126522   3.323   1.936   3.465
 8541SOL    HW226523   3.252   1.828   3.564
 8542SOL     OW26524   3.106   4.385   6.426
 8542SOL    HW126525   3.120   4.484   6.419
 8542SOL    HW226526   3.134   4.355   6.517
 8543SOL     OW26527   1.644   1.661   0.883
 8543SOL    HW126528   1.737   1.673   0.918
 8543SOL    HW226529   1.619   1.740   0.826
 8544SOL     OW26530   5.316   3.056   3.944
 8544SOL    HW126531   5.400   3.009   3.916
 8544SOL    HW226532   5.249   3.051   3.870
 8545SOL     OW26533   4.733   6.771   6.016
 8545SOL    HW126534   4.637   6.755   6.039
 8545SOL    HW226535   4.780   6.683   6.006
 8546SOL     OW26536   6.300   2.352   3.610
 8546SOL    HW126537   6.244   2.341   3.692
 8546SOL    HW226538   6.242   2.381   3.533
 8547SOL     OW26539   1.684   6.080   6.355
 8547SOL    HW126540   1.780   6.109   6.353
 8547SOL    HW226541   1.680   5.981   6.372
 8548SOL     OW26542   6.249   2.420   5.137
 8548SOL    HW126543   6.220   2.511   5.167
 8548SOL    HW226544   6.212   2.402   5.046
 8549SOL     OW26545   0.043   3.581   4.345
 8549SOL    HW126546   0.107   3.642   4.392
 8549SOL    HW226547   6.971   3.619   4.349
 8550SOL     OW26548   1.681   5.031   0.085
 8550SOL    HW126549   1.781   5.034   0.080
 8550SOL    HW226550   1.645   4.999   7.017
 8551SOL     OW26551   3.607   4.236   6.601
 8551SOL    HW126552   3.548   4.225   6.521
 8551SOL    HW226553   3.629   4.333   6.614
 8552SOL     OW26554   2.911   5.973   3.471
 8552SOL    HW126555   2.838   5.941   3.532
 8552SOL    HW226556   2.918   5.911   3.393
 8553SOL     OW26557   5.166   5.874   0.116
 8553SOL    HW126558   5.208   5.863   0.206
 8553SOL    HW226559   5.186   5.794   0.060
 8554SOL     OW26560   0.381   4.873   0.489
 8554SOL    HW126561   0.335   4.934   0.554
 8554SOL    HW226562   0.376   4.912   0.397
 8555SOL     OW26563   1.244   0.666   2.799
 8555SOL    HW126564   1.326   0.624   2.759
 8555SOL    HW226565   1.165   0.648   2.741
 8556SOL     OW26566   0.700   0.200   3.307
 8556SOL    HW126567   0.659   0.253   3.233
 8556SOL    HW226568   0.648   0.215   3.391
 8557SOL     OW26569   6.295   0.399   1.781
 8557SOL    HW126570   6.392   0.411   1.800
 8557SOL    HW226571   6.279   0.404   1.682
 8558SOL     OW26572   2.474   5.426   2.696
 8558SOL    HW126573   2.469   5.351   2.761
 8558SOL    HW226574   2.542   5.493   2.727
 8559SOL     OW26575   0.365   0.678   2.281
 8559SOL    HW126576   0.266   0.667   2.272
 8559SOL    HW226577   0.387   0.776   2.284
 8560SOL     OW26578   6.987   0.144   0.671
 8560SOL    HW126579   6.976   0.058   0.722
 8560SOL    HW226580   6.914   0.207   0.695
 8561SOL     OW26581   4.561   5.923   2.257
 8561SOL    HW126582   4.504   5.974   2.321
 8561SOL    HW226583   4.508   5.900   2.176
 8562SOL     OW26584   5.121   6.436   4.810
 8562SOL    HW126585   5.083   6.481   4.891
 8562SOL    HW226586   5.128   6.338   4.827
 8563SOL     OW26587   2.850   3.327   6.756
 8563SOL    HW126588   2.788   3.329   6.835
 8563SOL    HW226589   2.820   3.395   6.689
 8564SOL     OW26590   1.725   0.905   3.218
 8564SOL    HW126591   1.625   0.906   3.210
 8564SOL    HW226592   1.752   0.845   3.293
 8565SOL     OW26593   3.933   6.828   1.430
 8565SOL    HW126594   3.895   6.843   1.521
 8565SOL    HW226595   3.898   6.742   1.393
 8566SOL     OW26596   0.856   1.587   2.975
 8566SOL    HW126597   0.829   1.491   2.983
 8566SOL    HW226598   0.775   1.645   2.988
 8567SOL     OW26599   6.202   1.610   1.413
 8567SOL    HW126600   6.282   1.652   1.457
 8567SOL    HW226601   6.148   1.562   1.481
 8568SOL     OW26602   5.262   1.478   6.801
 8568SOL    HW126603   5.177   1.482   6.748
 8568SOL    HW226604   5.241   1.487   6.898
 8569SOL     OW26605   4.746   1.381   5.422
 8569SOL    HW126606   4.760   1.436   5.340
 8569SOL    HW226607   4.651   1.390   5.453
 8570SOL     OW26608   1.265   4.029   6.077
 8570SOL    HW126609   1.329   4.046   6.002
 8570SOL    HW226610   1.200   3.958   6.050
 8571SOL     OW26611   0.063   5.228   5.429
 8571SOL    HW126612   7.018   5.289   5.382
 8571SOL    HW226613   0.039   5.222   5.526
 8572SOL     OW26614   2.393   5.180   5.615
 8572SOL    HW126615   2.433   5.091   5.593
 8572SOL    HW226616   2.458   5.252   5.590
 8573SOL     OW26617   3.827   5.860   6.874
 8573SOL    HW126618   3.790   5.797   6.805
 8573SOL    HW226619   3.914   5.823   6.908
 8574SOL     OW26620   1.144   4.883   5.788
 8574SOL    HW126621   1.207   4.955   5.818
 8574SOL    HW226622   1.118   4.899   5.693
 8575SOL     OW26623   2.671   2.419   6.664
 8575SOL    HW126624   2.683   2.518   6.669
 8575SOL    HW226625   2.642   2.384   6.753
 8576SOL     OW26626   0.597   6.898   1.427
 8576SOL    HW126627   0.589   6.821   1.364
 8576SOL    HW226628   0.578   6.868   1.520
 8577SOL     OW26629   6.297   5.194   4.127
 8577SOL    HW126630   6.356   5.272   4.149
 8577SOL    HW226631   6.336   5.142   4.051
 8578SOL     OW26632   4.768   0.295   4.393
 8578SOL    HW126633   4.806   0.281   4.302
 8578SOL    HW226634   4.739   0.207   4.432
 8579SOL     OW26635   1.000   4.938   3.269
 8579SOL    HW126636   1.059   5.007   3.312
 8579SOL    HW226637   0.944   4.893   3.339
 8580SOL     OW26638   2.413   7.000   1.957
 8580SOL    HW126639   2.412   0.074   1.925
 8580SOL    HW226640   2.504   6.961   1.944
 8581SOL     OW26641   3.449   2.151   1.457
 8581SOL    HW126642   3.430   2.180   1.551
 8581SOL    HW226643   3.407   2.215   1.393
 8582SOL     OW26644   5.057   4.709   2.372
 8582SOL    HW126645   4.978   4.647   2.368
 8582SOL    HW226646   5.131   4.665   2.422
 8583SOL     OW26647   6.193   0.768   6.356
 8583SOL    HW126648   6.255   0.702   6.397
 8583SOL    HW226649   6.101   0.729   6.350
 8584SOL     OW26650   0.292   4.478   0.484
 8584SOL    HW126651   0.291   4.539   0.404
 8584SOL    HW226652   0.199   4.446   0.501
 8585SOL     OW26653   0.254   0.343   0.892
 8585SOL    HW126654   0.262   0.316   0.796
 8585SOL    HW226655   0.187   0.417   0.900
 8586SOL     OW26656   2.962   6.266   2.888
 8586SOL    HW126657   3.032   6.208   2.845
 8586SOL    HW226658   2.985   6.278   2.985
 8587SOL     OW26659   0.615   0.954   3.083
 8587SOL    HW126660   0.669   1.028   3.122
 8587SOL    HW226661   0.531   0.992   3.043
 8588SOL     OW26662   3.410   1.764   0.872
 8588SOL    HW126663   3.317   1.739   0.844
 8588SOL    HW226664   3.434   1.718   0.957
 8589SOL     OW26665   3.716   1.548   4.623
 8589SOL    HW126666   3.771   1.527   4.543
 8589SOL    HW226667   3.709   1.647   4.635
 8590SOL     OW26668   6.716   5.769   4.612
 8590SOL    HW126669   6.619   5.794   4.606
 8590SOL    HW226670   6.752   5.797   4.700
 8591SOL     OW26671   0.745   4.501   6.705
 8591SOL    HW126672   0.832   4.474   6.747
 8591SOL    HW226673   0.691   4.554   6.770
 8592SOL     OW26674   0.177   4.626   0.261
 8592SOL    HW126675   0.104   4.573   0.217
 8592SOL    HW226676   0.152   4.723   0.262
 8593SOL     OW26677   0.975   6.825   1.975
 8593SOL    HW126678   1.072   6.846   1.987
 8593SOL    HW226679   0.965   6.744   1.917
 8594SOL     OW26680   3.089   4.055   4.260
 8594SOL    HW126681   3.071   4.072   4.163
 8594SOL    HW226682   3.076   3.958   4.280
 8595SOL     OW26683   2.073   2.294   2.886
 8595SOL    HW126684   2.130   2.234   2.943
 8595SOL    HW226685   2.030   2.240   2.814
 8596SOL     OW26686   5.847   5.491   2.079
 8596SOL    HW126687   5.875   5.554   2.151
 8596SOL    HW226688   5.848   5.397   2.115
 8597SOL     OW26689   3.965   2.090   1.294
 8597SOL    HW126690   3.977   2.030   1.372
 8597SOL    HW226691   3.867   2.103   1.277
 8598SOL     OW26692   6.944   5.066   0.970
 8598SOL    HW126693   6.900   5.025   1.051
 8598SOL    HW226694   6.998   4.997   0.923
 8599SOL     OW26695   1.094   3.063   4.004
 8599SOL    HW126696   1.094   2.969   4.037
 8599SOL    HW226697   1.046   3.121   4.070
 8600SOL     OW26698   6.221   4.629   6.504
 8600SOL    HW126699   6.216   4.632   6.603
 8600SOL    HW226700   6.299   4.683   6.472
 8601SOL     OW26701   0.407   1.221   4.761
 8601SOL    HW126702   0.500   1.194   4.786
 8601SOL    HW226703   0.405   1.319   4.738
 8602SOL     OW26704   2.760   6.733   3.113
 8602SOL    HW126705   2.850   6.705   3.147
 8602SOL    HW226706   2.759   6.831   3.098
 8603SOL     OW26707   3.465   3.869   7.011
 8603SOL    HW126708   3.423   3.934   6.948
 8603SOL    HW226709   3.409   3.786   7.016
 8604SOL     OW26710   6.442   2.728   3.627
 8604SOL    HW126711   6.433   2.784   3.545
 8604SOL    HW226712   6.505   2.652   3.610
 8605SOL     OW26713   3.960   5.251   4.261
 8605SOL    HW126714   3.978   5.205   4.347
 8605SOL    HW226715   3.982   5.190   4.185
 8606SOL     OW26716   2.541   4.122   5.765
 8606SOL    HW126717   2.541   4.064   5.684
 8606SOL    HW226718   2.617   4.096   5.824
 8607SOL     OW26719   3.652   5.566   1.105
 8607SOL    HW126720   3.673   5.469   1.115
 8607SOL    HW226721   3.597   5.596   1.183
 8608SOL     OW26722   4.351   5.029   2.678
 8608SOL    HW126723   4.395   4.946   2.644
 8608SOL    HW226724   4.379   5.107   2.622
 8609SOL     OW26725   3.527   0.234   4.266
 8609SOL    HW126726   3.452   0.171   4.247
 8609SOL    HW226727   3.502   0.326   4.237
 8610SOL     OW26728   1.159   7.009   3.185
 8610SOL    HW126729   1.180   0.029   3.274
 8610SOL    HW226730   1.188   6.913   3.185
 8611SOL     OW26731   1.394   2.193   4.691
 8611SOL    HW126732   1.387   2.267   4.625
 8611SOL    HW226733   1.483   2.147   4.681
 8612SOL     OW26734   2.872   3.503   6.482
 8612SOL    HW126735   2.862   3.593   6.524
 8612SOL    HW226736   2.964   3.496   6.442
 8613SOL     OW26737   2.136   1.510   1.102
 8613SOL    HW126738   2.052   1.505   1.048
 8613SOL    HW226739   2.212   1.535   1.043
 8614SOL     OW26740   0.616   4.056   2.879
 8614SOL    HW126741   0.639   3.962   2.903
 8614SOL    HW226742   0.698   4.114   2.887
 8615SOL     OW26743   4.631   2.038   5.426
 8615SOL    HW126744   4.580   1.953   5.437
 8615SOL    HW226745   4.720   2.019   5.385
 8616SOL     OW26746   0.507   4.647   0.594
 8616SOL    HW126747   0.418   4.604   0.579
 8616SOL    HW226748   0.496   4.747   0.595
 8617SOL     OW26749   6.456   1.982   0.338
 8617SOL    HW126750   6.517   2.040   0.391
 8617SOL    HW226751   6.458   2.009   0.242
 8618SOL     OW26752   4.364   6.719   1.928
 8618SOL    HW126753   4.301   6.712   1.851
 8618SOL    HW226754   4.379   6.815   1.951
 8619SOL     OW26755   4.182   5.182   0.349
 8619SOL    HW126756   4.221   5.274   0.357
 8619SOL    HW226757   4.200   5.131   0.433
 8620SOL     OW26758   6.086   6.854   2.622
 8620SOL    HW126759   6.170   6.820   2.579
 8620SOL    HW226760   6.091   6.954   2.629
 8621SOL     OW26761   6.256   1.232   3.906
 8621SOL    HW126762   6.230   1.146   3.952
 8621SOL    HW226763   6.186   1.301   3.924
 8622SOL     OW26764   4.981   4.372   0.003
 8622SOL    HW126765   5.054   4.311   0.032
 8622SOL    HW226766   4.986   4.457   0.056
 8623SOL     OW26767   0.584   4.584   3.102
 8623SOL    HW126768   0.592   4.644   3.181
 8623SOL    HW226769   0.612   4.491   3.128
 8624SOL     OW26770   1.277   4.614   3.424
 8624SOL    HW126771   1.312   4.523   3.399
 8624SOL    HW226772   1.221   4.606   3.507
 8625SOL     OW26773   4.678   0.551   4.364
 8625SOL    HW126774   4.692   0.453   4.378
 8625SOL    HW226775   4.586   0.566   4.328
 8626SOL     OW26776   3.778   3.345   4.142
 8626SOL    HW126777   3.780   3.248   4.166
 8626SOL    HW226778   3.683   3.377   4.139
 8627SOL     OW26779   1.239   0.842   1.843
 8627SOL    HW126780   1.281   0.805   1.761
 8627SOL    HW226781   1.286   0.806   1.924
 8628SOL     OW26782   6.362   6.849   0.650
 8628SOL    HW126783   6.318   6.930   0.690
 8628SOL    HW226784   6.292   6.780   0.629
 8629SOL     OW26785   1.822   4.591   4.422
 8629SOL    HW126786   1.801   4.571   4.327
 8629SOL    HW226787   1.863   4.682   4.429
 8630SOL     OW26788   6.088   4.121   4.902
 8630SOL    HW126789   6.084   4.025   4.875
 8630SOL    HW226790   6.114   4.127   4.998
 8631SOL     OW26791   3.961   6.264   5.880
 8631SOL    HW126792   3.970   6.337   5.812
 8631SOL    HW226793   4.050   6.245   5.920
 8632SOL     OW26794   3.415   6.609   4.173
 8632SOL    HW126795   3.426   6.556   4.090
 8632SOL    HW226796   3.495   6.595   4.232
 8633SOL     OW26797   5.478   1.350   4.233
 8633SOL    HW126798   5.531   1.350   4.148
 8633SOL    HW226799   5.492   1.263   4.280
 8634SOL     OW26800   6.800   3.622   1.522
 8634SOL    HW126801   6.705   3.653   1.515
 8634SOL    HW226802   6.861   3.697   1.496
 8635SOL     OW26803   5.959   3.759   5.817
 8635SOL    HW126804   5.931   3.771   5.912
 8635SOL    HW226805   5.878   3.766   5.758
 8636SOL     OW26806   6.212   4.898   6.661
 8636SOL    HW126807   6.173   4.972   6.716
 8636SOL    HW226808   6.303   4.925   6.628
 8637SOL     OW26809   1.912   0.889   0.395
 8637SOL    HW126810   2.000   0.917   0.433
 8637SOL    HW226811   1.849   0.867   0.470
 8638SOL     OW26812   2.037   3.249   0.253
 8638SOL    HW126813   1.980   3.180   0.298
 8638SOL    HW226814   2.007   3.340   0.282
 8639SOL     OW26815   5.407   2.570   1.755
 8639SOL    HW126816   5.356   2.553   1.839
 8639SOL    HW226817   5.344   2.572   1.678
 8640SOL     OW26818   4.834   3.986   0.346
 8640SOL    HW126819   4.904   3.975   0.416
 8640SOL    HW226820   4.877   4.005   0.258
 8641SOL     OW26821   6.600   3.830   3.900
 8641SOL    HW126822   6.619   3.924   3.929
 8641SOL    HW226823   6.502   3.820   3.885
 8642SOL     OW26824   4.621   0.351   2.480
 8642SOL    HW126825   4.521   0.349   2.470
 8642SOL    HW226826   4.646   0.406   2.560
 8643SOL     OW26827   4.699   6.800   0.033
 8643SOL    HW126828   4.614   6.804   0.085
 8643SOL    HW226829   4.737   6.892   0.023
 8644SOL     OW26830   5.226   2.608   5.145
 8644SOL    HW126831   5.201   2.671   5.219
 8644SOL    HW226832   5.243   2.517   5.184
 8645SOL     OW26833   5.822   4.969   1.343
 8645SOL    HW126834   5.897   5.021   1.300
 8645SOL    HW226835   5.860   4.906   1.410
 8646SOL     OW26836   5.094   1.026   1.014
 8646SOL    HW126837   5.167   0.963   1.039
 8646SOL    HW226838   5.134   1.110   0.976
 8647SOL     OW26839   3.489   4.812   0.183
 8647SOL    HW126840   3.537   4.881   0.130
 8647SOL    HW226841   3.555   4.756   0.233
 8648SOL     OW26842   5.866   0.991   4.774
 8648SOL    HW126843   5.808   0.943   4.839
 8648SOL    HW226844   5.872   1.087   4.799
 8649SOL     OW26845   5.987   4.527   5.569
 8649SOL    HW126846   5.910   4.490   5.516
 8649SOL    HW226847   6.024   4.607   5.522
 8650SOL     OW26848   1.971   4.985   3.938
 8650SOL    HW126849   1.909   5.060   3.915
 8650SOL    HW226850   2.065   5.017   3.939
 8651SOL     OW26851   3.880   1.037   0.638
 8651SOL    HW126852   3.851   1.132   0.624
 8651SOL    HW226853   3.942   1.033   0.716
 8652SOL     OW26854   1.873   4.305   3.245
 8652SOL    HW126855   1.785   4.265   3.217
 8652SOL    HW226856   1.882   4.297   3.344
 8653SOL     OW26857   6.638   2.482   6.531
 8653SOL    HW126858   6.663   2.543   6.456
 8653SOL    HW226859   6.601   2.397   6.493
 8654SOL     OW26860   0.193   6.036   2.538
 8654SOL    HW126861   0.205   6.040   2.637
 8654SOL    HW226862   0.143   6.116   2.506
 8655SOL     OW26863   6.069   0.295   4.202
 8655SOL    HW126864   6.125   0.377   4.191
 8655SOL    HW226865   5.982   0.321   4.244
 8656SOL     OW26866   6.032   1.053   1.042
 8656SOL    HW126867   5.995   1.092   1.127
 8656SOL    HW226868   6.017   1.118   0.967
 8657SOL     OW26869   4.070   5.173   6.180
 8657SOL    HW126870   4.000   5.183   6.250
 8657SOL    HW226871   4.035   5.206   6.093
 8658SOL     OW26872   4.726   5.179   6.972
 8658SOL    HW126873   4.662   5.103   6.960
 8658SOL    HW226874   4.816   5.143   6.993
 8659SOL     OW26875   4.897   0.734   3.138
 8659SOL    HW126876   4.817   0.729   3.078
 8659SOL    HW226877   4.947   0.819   3.121
 8660SOL     OW26878   5.970   3.917   0.471
 8660SOL    HW126879   5.927   3.827   0.466
 8660SOL    HW226880   5.922   3.980   0.410
 8661SOL     OW26881   5.890   4.258   2.025
 8661SOL    HW126882   5.830   4.272   2.104
 8661SOL    HW226883   5.985   4.267   2.055
 8662SOL     OW26884   5.609   6.490   1.822
 8662SOL    HW126885   5.648   6.414   1.770
 8662SOL    HW226886   5.657   6.497   1.910
 8663SOL     OW26887   2.493   5.733   0.546
 8663SOL    HW126888   2.578   5.737   0.600
 8663SOL    HW226889   2.515   5.703   0.453
 8664SOL     OW26890   4.518   5.034   0.254
 8664SOL    HW126891   4.499   5.046   0.156
 8664SOL    HW226892   4.616   5.047   0.270
 8665SOL     OW26893   5.288   5.681   5.849
 8665SOL    HW126894   5.349   5.603   5.854
 8665SOL    HW226895   5.230   5.673   5.768
 8666SOL     OW26896   5.459   2.255   5.192
 8666SOL    HW126897   5.491   2.187   5.257
 8666SOL    HW226898   5.404   2.210   5.121
 8667SOL     OW26899   5.051   2.259   3.227
 8667SOL    HW126900   4.969   2.278   3.174
 8667SOL    HW226901   5.094   2.345   3.254
 8668SOL     OW26902   5.047   2.402   3.733
 8668SOL    HW126903   5.113   2.446   3.672
 8668SOL    HW226904   4.997   2.472   3.783
 8669SOL     OW26905   3.839   0.230   6.459
 8669SOL    HW126906   3.848   0.169   6.538
 8669SOL    HW226907   3.762   0.292   6.474
 8670SOL     OW26908   3.633   5.360   5.402
 8670SOL    HW126909   3.677   5.379   5.315
 8670SOL    HW226910   3.668   5.423   5.472
 8671SOL     OW26911   5.297   0.786   4.025
 8671SOL    HW126912   5.200   0.775   4.048
 8671SOL    HW226913   5.320   0.727   3.948
 8672SOL     OW26914   2.455   5.888   4.475
 8672SOL    HW126915   2.452   5.916   4.571
 8672SOL    HW226916   2.482   5.966   4.419
 8673SOL     OW26917   0.604   0.603   0.277
 8673SOL    HW126918   0.558   0.648   0.353
 8673SOL    HW226919   0.575   0.508   0.271
 8674SOL     OW26920   6.767   6.029   2.222
 8674SOL    HW126921   6.821   6.014   2.140
 8674SOL    HW226922   6.810   5.981   2.299
 8675SOL     OW26923   3.481   2.117   4.120
 8675SOL    HW126924   3.500   2.019   4.128
 8675SOL    HW226925   3.392   2.137   4.160
 8676SOL     OW26926   3.202   0.538   3.274
 8676SOL    HW126927   3.145   0.459   3.296
 8676SOL    HW226928   3.168   0.619   3.322
 8677SOL     OW26929   2.295   5.716   6.456
 8677SOL    HW126930   2.258   5.624   6.440
 8677SOL    HW226931   2.369   5.734   6.391
 8678SOL     OW26932   0.858   6.947   0.031
 8678SOL    HW126933   0.948   6.958   0.074
 8678SOL    HW226934   0.792   7.005   0.078
 8679SOL     OW26935   5.651   2.081   4.158
 8679SOL    HW126936   5.608   2.122   4.238
 8679SOL    HW226937   5.750   2.086   4.167
 8680SOL     OW26938   0.873   3.512   1.251
 8680SOL    HW126939   0.973   3.516   1.254
 8680SOL    HW226940   0.836   3.602   1.275
 8681SOL     OW26941   4.761   4.668   6.759
 8681SOL    HW126942   4.781   4.765   6.763
 8681SOL    HW226943   4.674   4.650   6.805
 8682SOL     OW26944   3.700   6.370   2.877
 8682SOL    HW126945   3.686   6.462   2.839
 8682SOL    HW226946   3.780   6.370   2.936
 8683SOL     OW26947   1.442   2.509   2.344
 8683SOL    HW126948   1.490   2.498   2.257
 8683SOL    HW226949   1.487   2.453   2.414
 8684SOL     OW26950   0.611   3.049   4.459
 8684SOL    HW126951   0.655   3.026   4.546
 8684SOL    HW226952   0.512   3.037   4.468
 8685SOL     OW26953   1.351   1.977   5.967
 8685SOL    HW126954   1.385   1.985   6.061
 8685SOL    HW226955   1.272   2.037   5.955
 8686SOL     OW26956   6.668   1.952   1.917
 8686SOL    HW126957   6.700   1.866   1.956
 8686SOL    HW226958   6.678   2.025   1.985
 8687SOL     OW26959   3.597   6.222   2.678
 8687SOL    HW126960   3.659   6.158   2.633
 8687SOL    HW226961   3.647   6.278   2.744
 8688SOL     OW26962   2.929   6.363   0.057
 8688SOL    HW126963   2.904   6.348   0.153
 8688SOL    HW226964   2.846   6.376   0.003
 8689SOL     OW26965   3.596   6.167   0.350
 8689SOL    HW126966   3.676   6.157   0.292
 8689SOL    HW226967   3.557   6.076   0.368
 8690SOL     OW26968   1.636   2.481   3.765
 8690SOL    HW126969   1.580   2.477   3.683
 8690SOL    HW226970   1.728   2.513   3.741
 8691SOL     OW26971   4.362   2.790   6.445
 8691SOL    HW126972   4.351   2.801   6.544
 8691SOL    HW226973   4.391   2.877   6.405
 8692SOL     OW26974   3.675   1.969   2.580
 8692SOL    HW126975   3.599   2.009   2.633
 8692SOL    HW226976   3.728   1.908   2.639
 8693SOL     OW26977   5.622   1.853   1.019
 8693SOL    HW126978   5.622   1.915   1.097
 8693SOL    HW226979   5.527   1.835   0.991
 8694SOL     OW26980   4.691   0.312   6.693
 8694SOL    HW126981   4.764   0.261   6.648
 8694SOL    HW226982   4.730   0.375   6.760
 8695SOL     OW26983   4.410   2.407   6.022
 8695SOL    HW126984   4.359   2.375   5.942
 8695SOL    HW226985   4.506   2.380   6.013
 8696SOL     OW26986   3.491   5.760   0.966
 8696SOL    HW126987   3.476   5.701   0.887
 8696SOL    HW226988   3.582   5.743   1.003
 8697SOL     OW26989   6.621   3.752   0.795
 8697SOL    HW126990   6.608   3.708   0.706
 8697SOL    HW226991   6.706   3.804   0.795
 8698SOL     OW26992   5.577   6.050   3.743
 8698SOL    HW126993   5.559   6.123   3.677
 8698SOL    HW226994   5.585   5.963   3.695
 8699SOL     OW26995   0.796   2.272   5.446
 8699SOL    HW126996   0.737   2.201   5.485
 8699SOL    HW226997   0.879   2.282   5.501
 8700SOL     OW26998   2.368   0.809   4.792
 8700SOL    HW126999   2.353   0.733   4.855
 8700SOL    HW227000   2.297   0.878   4.805
 8701SOL     OW27001   0.980   0.822   6.192
 8701SOL    HW127002   0.908   0.887   6.167
 8701SOL    HW227003   1.057   0.832   6.130
 8702SOL     OW27004   5.498   4.752   0.263
 8702SOL    HW127005   5.582   4.704   0.238
 8702SOL    HW227006   5.435   4.750   0.185
 8703SOL     OW27007   3.030   5.891   1.536
 8703SOL    HW127008   2.984   5.873   1.622
 8703SOL    HW227009   2.968   5.872   1.459
 8704SOL     OW27010   6.436   3.666   2.850
 8704SOL    HW127011   6.397   3.621   2.770
 8704SOL    HW227012   6.365   3.721   2.895
 8705SOL     OW27013   5.186   0.969   0.053
 8705SOL    HW127014   5.201   0.894   0.118
 8705SOL    HW227015   5.141   1.045   0.100
 8706SOL     OW27016   4.691   2.336   5.931
 8706SOL    HW127017   4.713   2.332   6.028
 8706SOL    HW227018   4.704   2.245   5.891
 8707SOL     OW27019   4.921   2.291   0.327
 8707SOL    HW127020   4.930   2.340   0.414
 8707SOL    HW227021   4.887   2.198   0.345
 8708SOL     OW27022   4.196   1.494   1.911
 8708SOL    HW127023   4.241   1.536   1.832
 8708SOL    HW227024   4.258   1.495   1.989
 8709SOL     OW27025   6.549   4.987   6.764
 8709SOL    HW127026   6.487   4.956   6.836
 8709SOL    HW227027   6.604   4.910   6.732
 8710SOL     OW27028   2.260   2.904   3.342
 8710SOL    HW127029   2.169   2.916   3.302
 8710SOL    HW227030   2.268   2.961   3.424
 8711SOL     OW27031   0.067   6.422   2.221
 8711SOL    HW127032   0.003   6.366   2.168
 8711SOL    HW227033   0.039   6.517   2.219
 8712SOL     OW27034   4.023   2.092   4.024
 8712SOL    HW127035   3.924   2.095   4.033
 8712SOL    HW227036   4.064   2.069   4.113
 8713SOL     OW27037   6.937   4.239   3.700
 8713SOL    HW127038   6.899   4.149   3.717
 8713SOL    HW227039   0.010   4.231   3.667
 8714SOL     OW27040   0.762   1.257   5.806
 8714SOL    HW127041   0.814   1.223   5.728
 8714SOL    HW227042   0.822   1.266   5.885
 8715SOL     OW27043   5.255   0.637   1.278
 8715SOL    HW127044   5.222   0.554   1.232
 8715SOL    HW227045   5.178   0.695   1.302
 8716SOL     OW27046   1.111   1.951   1.210
 8716SOL    HW127047   1.064   1.993   1.288
 8716SOL    HW227048   1.059   1.968   1.127
 8717SOL     OW27049   4.105   3.775   2.326
 8717SOL    HW127050   4.103   3.865   2.369
 8717SOL    HW227051   4.084   3.704   2.394
 8718SOL     OW27052   0.887   2.299   5.200
 8718SOL    HW127053   0.845   2.317   5.289
 8718SOL    HW227054   0.949   2.221   5.209
 8719SOL     OW27055   2.192   0.219   5.998
 8719SOL    HW127056   2.246   0.181   5.922
 8719SOL    HW227057   2.241   0.296   6.038
 8720SOL     OW27058   6.910   5.428   5.354
 8720SOL    HW127059   6.862   5.502   5.399
 8720SOL    HW227060   6.844   5.364   5.314
 8721SOL     OW27061   6.230   2.264   3.901
 8721SOL    HW127062   6.300   2.329   3.872
 8721SOL    HW227063   6.158   2.313   3.951
 8722SOL     OW27064   4.027   0.464   0.950
 8722SOL    HW127065   3.972   0.442   1.030
 8722SOL    HW227066   4.122   0.477   0.977
 8723SOL     OW27067   5.552   5.942   1.027
 8723SOL    HW127068   5.517   5.900   0.944
 8723SOL    HW227069   5.475   5.976   1.082
 8724SOL     OW27070   5.922   6.985   4.989
 8724SOL    HW127071   5.987   6.910   4.998
 8724SOL    HW227072   5.870   6.995   5.074
 8725SOL     OW27073   1.931   0.517   0.060
 8725SOL    HW127074   1.928   0.615   0.080
 8725SOL    HW227075   1.916   0.465   0.145
 8726SOL     OW27076   6.382   0.428   1.525
 8726SOL    HW127077   6.316   0.465   1.460
 8726SOL    HW227078   6.475   0.449   1.495
 8727SOL     OW27079   6.694   6.492   2.026
 8727SOL    HW127080   6.738   6.500   1.936
 8727SOL    HW227081   6.735   6.558   2.089
 8728SOL     OW27082   4.174   0.304   4.940
 8728SOL    HW127083   4.243   0.306   4.868
 8728SOL    HW227084   4.148   0.210   4.960
 8729SOL     OW27085   4.940   5.808   3.477
 8729SOL    HW127086   5.012   5.738   3.481
 8729SOL    HW227087   4.982   5.898   3.468
 8730SOL     OW27088   6.628   5.584   2.911
 8730SOL    HW127089   6.721   5.606   2.942
 8730SOL    HW227090   6.614   5.619   2.818
 8731SOL     OW27091   1.890   1.805   3.075
 8731SOL    HW127092   1.960   1.751   3.029
 8731SOL    HW227093   1.866   1.884   3.018
 8732SOL     OW27094   5.340   4.345   1.895
 8732SOL    HW127095   5.330   4.247   1.880
 8732SOL    HW227096   5.412   4.362   1.961
 8733SOL     OW27097   1.528   6.089   3.109
 8733SOL    HW127098   1.447   6.145   3.090
 8733SOL    HW227099   1.564   6.052   3.023
 8734SOL     OW27100   1.240   4.783   1.516
 8734SOL    HW127101   1.322   4.840   1.524
 8734SOL    HW227102   1.246   4.706   1.579
 8735SOL     OW27103   0.736   1.968   7.010
 8735SOL    HW127104   0.697   1.884   6.971
 8735SOL    HW227105   0.800   1.945   0.063
 8736SOL     OW27106   0.537   6.542   0.147
 8736SOL    HW127107   0.553   6.638   0.170
 8736SOL    HW227108   0.614   6.487   0.180
 8737SOL     OW27109   3.755   6.882   6.376
 8737SOL    HW127110   3.842   6.898   6.423
 8737SOL    HW227111   3.681   6.878   6.443
 8738SOL     OW27112   1.464   3.849   4.477
 8738SOL    HW127113   1.541   3.827   4.417
 8738SOL    HW227114   1.487   3.825   4.571
 8739SOL     OW27115   6.404   4.832   6.404
 8739SOL    HW127116   6.482   4.812   6.344
 8739SOL    HW227117   6.367   4.922   6.382
 8740SOL     OW27118   4.109   0.772   5.781
 8740SOL    HW127119   4.097   0.677   5.751
 8740SOL    HW227120   4.103   0.833   5.702
 8741SOL     OW27121   1.896   1.832   1.471
 8741SOL    HW127122   1.847   1.825   1.383
 8741SOL    HW227123   1.830   1.827   1.546
 8742SOL     OW27124   4.874   5.878   1.733
 8742SOL    HW127125   4.848   5.790   1.692
 8742SOL    HW227126   4.834   5.885   1.824
 8743SOL     OW27127   2.059   6.900   2.543
 8743SOL    HW127128   2.138   6.888   2.484
 8743SOL    HW227129   2.085   6.882   2.638
 8744SOL     OW27130   3.687   2.501   6.033
 8744SOL    HW127131   3.719   2.578   5.977
 8744SOL    HW227132   3.587   2.503   6.036
 8745SOL     OW27133   6.078   2.487   5.880
 8745SOL    HW127134   6.087   2.475   5.781
 8745SOL    HW227135   6.062   2.398   5.923
 8746SOL     OW27136   4.185   4.210   5.569
 8746SOL    HW127137   4.283   4.227   5.576
 8746SOL    HW227138   4.164   4.168   5.481
 8747SOL     OW27139   0.765   2.643   3.497
 8747SOL    HW127140   0.693   2.664   3.563
 8747SOL    HW227141   0.825   2.722   3.486
 8748SOL     OW27142   0.886   0.539   6.738
 8748SOL    HW127143   0.969   0.521   6.685
 8748SOL    HW227144   0.855   0.454   6.781
 8749SOL     OW27145   2.858   0.294   4.633
 8749SOL    HW127146   2.793   0.364   4.606
 8749SOL    HW227147   2.941   0.301   4.577
 8750SOL     OW27148   2.273   3.040   5.405
 8750SOL    HW127149   2.266   3.121   5.462
 8750SOL    HW227150   2.332   3.059   5.326
 8751SOL     OW27151   6.836   0.320   2.051
 8751SOL    HW127152   6.830   0.360   2.142
 8751SOL    HW227153   6.923   0.346   2.009
 8752SOL     OW27154   3.069   4.238   0.208
 8752SOL    HW127155   2.969   4.244   0.214
 8752SOL    HW227156   3.109   4.327   0.230
 8753SOL     OW27157   5.011   1.477   4.642
 8753SOL    HW127158   4.975   1.436   4.558
 8753SOL    HW227159   5.082   1.419   4.681
 8754SOL     OW27160   0.643   2.121   5.638
 8754SOL    HW127161   0.631   2.147   5.734
 8754SOL    HW227162   0.555   2.092   5.600
 8755SOL     OW27163   2.919   1.485   6.689
 8755SOL    HW127164   2.854   1.556   6.662
 8755SOL    HW227165   2.976   1.461   6.611
 8756SOL     OW27166   2.238   3.061   3.580
 8756SOL    HW127167   2.203   3.114   3.657
 8756SOL    HW227168   2.286   2.980   3.614
 8757SOL     OW27169   6.272   6.376   6.153
 8757SOL    HW127170   6.317   6.424   6.078
 8757SOL    HW227171   6.242   6.286   6.121
 8758SOL     OW27172   5.409   6.145   2.390
 8758SOL    HW127173   5.312   6.171   2.390
 8758SOL    HW227174   5.462   6.215   2.342
 8759SOL     OW27175   4.446   1.275   6.256
 8759SOL    HW127176   4.376   1.301   6.322
 8759SOL    HW227177   4.421   1.189   6.212
 8760SOL     OW27178   1.990   1.581   4.813
 8760SOL    HW127179   1.952   1.526   4.887
 8760SOL    HW227180   2.002   1.524   4.732
 8761SOL     OW27181   4.767   0.488   1.222
 8761SOL    HW127182   4.815   0.413   1.175
 8761SOL    HW227183   4.800   0.575   1.186
 8762SOL     OW27184   1.160   3.262   2.742
 8762SOL    HW127185   1.201   3.171   2.750
 8762SOL    HW227186   1.214   3.327   2.796
 8763SOL     OW27187   6.087   6.212   4.926
 8763SOL    HW127188   6.071   6.207   4.828
 8763SOL    HW227189   6.152   6.285   4.946
 8764SOL     OW27190   5.030   1.430   4.040
 8764SOL    HW127191   4.960   1.498   4.062
 8764SOL    HW227192   5.078   1.404   4.124
 8765SOL     OW27193   6.054   6.743   5.067
 8765SOL    HW127194   6.020   6.651   5.046
 8765SOL    HW227195   6.128   6.737   5.134
 8766SOL     OW27196   3.515   4.884   3.521
 8766SOL    HW127197   3.590   4.831   3.560
 8766SOL    HW227198   3.552   4.951   3.456
 8767SOL     OW27199   4.366   0.530   2.491
 8767SOL    HW127200   4.316   0.536   2.405
 8767SOL    HW227201   4.348   0.442   2.534
 8768SOL     OW27202   2.297   3.317   0.191
 8768SOL    HW127203   2.209   3.286   0.228
 8768SOL    HW227204   2.283   3.399   0.136
 8769SOL     OW27205   0.809   0.089   5.472
 8769SOL    HW127206   0.739   0.099   5.401
 8769SOL    HW227207   0.879   0.025   5.441
 8770SOL     OW27208   4.853   3.862   1.983
 8770SOL    HW127209   4.807   3.917   2.053
 8770SOL    HW227210   4.898   3.784   2.026
 8771SOL     OW27211   2.093   1.144   6.078
 8771SOL    HW127212   2.019   1.112   6.137
 8771SOL    HW227213   2.077   1.239   6.053
 8772SOL     OW27214   5.646   0.127   6.835
 8772SOL    HW127215   5.718   0.067   6.870
 8772SOL    HW227216   5.687   0.197   6.777
 8773SOL     OW27217   3.819   2.098   3.380
 8773SOL    HW127218   3.765   2.019   3.409
 8773SOL    HW227219   3.839   2.155   3.459
 8774SOL     OW27220   1.596   1.422   0.527
 8774SOL    HW127221   1.642   1.405   0.614
 8774SOL    HW227222   1.511   1.471   0.544
 8775SOL     OW27223   5.726   0.090   4.153
 8775SOL    HW127224   5.723   0.100   4.253
 8775SOL    HW227225   5.709   0.178   4.110
 8776SOL     OW27226   3.833   3.034   4.879
 8776SOL    HW127227   3.874   2.943   4.884
 8776SOL    HW227228   3.737   3.029   4.905
 8777SOL     OW27229   0.022   4.795   1.419
 8777SOL    HW127230   0.040   4.890   1.392
 8777SOL    HW227231   6.948   4.771   1.394
 8778SOL     OW27232   0.427   1.775   3.826
 8778SOL    HW127233   0.473   1.722   3.897
 8778SOL    HW227234   0.416   1.718   3.744
 8779SOL     OW27235   1.444   5.585   2.478
 8779SOL    HW127236   1.491   5.670   2.455
 8779SOL    HW227237   1.498   5.535   2.547
 8780SOL     OW27238   1.509   5.640   3.654
 8780SOL    HW127239   1.476   5.554   3.692
 8780SOL    HW227240   1.529   5.704   3.728
 8781SOL     OW27241   6.793   1.329   3.580
 8781SOL    HW127242   6.728   1.403   3.570
 8781SOL    HW227243   6.745   1.244   3.600
 8782SOL     OW27244   5.914   0.943   1.938
 8782SOL    HW127245   5.923   0.932   1.838
 8782SOL    HW227246   5.986   0.891   1.983
 8783SOL     OW27247   6.112   4.019   3.855
 8783SOL    HW127248   6.135   4.011   3.757
 8783SOL    HW227249   6.152   3.942   3.904
 8784SOL     OW27250   5.143   4.694   5.165
 8784SOL    HW127251   5.130   4.786   5.130
 8784SOL    HW227252   5.239   4.681   5.190
 8785SOL     OW27253   5.572   3.891   0.352
 8785SOL    HW127254   5.635   3.865   0.279
 8785SOL    HW227255   5.508   3.815   0.370
 8786SOL     OW27256   2.180   6.945   6.744
 8786SOL    HW127257   2.089   6.904   6.752
 8786SOL    HW227258   2.183   7.001   6.661
 8787SOL     OW27259   1.540   2.941   2.409
 8787SOL    HW127260   1.576   2.968   2.498
 8787SOL    HW227261   1.516   3.023   2.357
 8788SOL     OW27262   6.500   2.315   5.213
 8788SOL    HW127263   6.429   2.338   5.148
 8788SOL    HW227264   6.465   2.326   5.306
 8789SOL     OW27265   6.263   0.211   6.332
 8789SOL    HW127266   6.198   0.190   6.258
 8789SOL    HW227267   6.297   0.126   6.371
 8790SOL     OW27268   6.736   1.069   0.136
 8790SOL    HW127269   6.685   1.134   0.192
 8790SOL    HW227270   6.823   1.047   0.180
 8791SOL     OW27271   5.192   0.096   5.710
 8791SOL    HW127272   5.108   0.132   5.671
 8791SOL    HW227273   5.250   0.172   5.741
 8792SOL     OW27274   3.701   6.865   3.177
 8792SOL    HW127275   3.637   6.934   3.211
 8792SOL    HW227276   3.712   6.794   3.246
 8793SOL     OW27277   1.874   5.853   4.120
 8793SOL    HW127278   1.836   5.932   4.072
 8793SOL    HW227279   1.912   5.789   4.054
 8794SOL     OW27280   3.394   6.646   3.206
 8794SOL    HW127281   3.487   6.678   3.188
 8794SOL    HW227282   3.329   6.720   3.187
 8795SOL     OW27283   1.709   6.538   5.242
 8795SOL    HW127284   1.757   6.451   5.255
 8795SOL    HW227285   1.642   6.528   5.168
 8796SOL     OW27286   4.150   1.643   5.366
 8796SOL    HW127287   4.185   1.579   5.298
 8796SOL    HW227288   4.065   1.607   5.405
 8797SOL     OW27289   1.726   6.327   6.534
 8797SOL    HW127290   1.741   6.367   6.624
 8797SOL    HW227291   1.814   6.309   6.490
 8798SOL     OW27292   5.975   4.100   5.890
 8798SOL    HW127293   5.985   4.005   5.919
 8798SOL    HW227294   6.048   4.123   5.826
 8799SOL     OW27295   2.228   4.458   3.649
 8799SOL    HW127296   2.285   4.466   3.567
 8799SOL    HW227297   2.165   4.536   3.652
 8800SOL     OW27298   5.365   3.920   5.366
 8800SOL    HW127299   5.334   3.831   5.334
 8800SOL    HW227300   5.289   3.970   5.406
 8801SOL     OW27301   2.159   1.490   4.082
 8801SOL    HW127302   2.238   1.471   4.023
 8801SOL    HW227303   2.114   1.574   4.051
 8802SOL     OW27304   1.306   0.269   1.125
 8802SOL    HW127305   1.352   0.349   1.162
 8802SOL    HW227306   1.207   0.278   1.138
 8803SOL     OW27307   1.415   4.689   6.155
 8803SOL    HW127308   1.507   4.655   6.137
 8803SOL    HW227309   1.404   4.708   6.252
 8804SOL     OW27310   4.314   1.069   1.886
 8804SOL    HW127311   4.252   1.141   1.854
 8804SOL    HW227312   4.382   1.108   1.948
 8805SOL     OW27313   1.492   0.345   3.683
 8805SOL    HW127314   1.395   0.355   3.704
 8805SOL    HW227315   1.544   0.417   3.729
 8806SOL     OW27316   1.990   5.120   1.236
 8806SOL    HW127317   1.959   5.150   1.327
 8806SOL    HW227318   1.958   5.027   1.220
 8807SOL     OW27319   6.386   5.391   5.816
 8807SOL    HW127320   6.469   5.447   5.809
 8807SOL    HW227321   6.320   5.422   5.748
 8808SOL     OW27322   5.294   1.635   0.689
 8808SOL    HW127323   5.286   1.731   0.661
 8808SOL    HW227324   5.242   1.621   0.773
 8809SOL     OW27325   5.232   3.712   1.633
 8809SOL    HW127326   5.192   3.769   1.562
 8809SOL    HW227327   5.160   3.680   1.695
 8810SOL     OW27328   5.770   1.509   4.690
 8810SOL    HW127329   5.725   1.528   4.777
 8810SOL    HW227330   5.865   1.540   4.695
 8811SOL     OW27331   2.316   1.839   4.147
 8811SOL    HW127332   2.265   1.792   4.220
 8811SOL    HW227333   2.413   1.843   4.171
 8812SOL     OW27334   0.457   0.678   0.485
 8812SOL    HW127335   0.405   0.761   0.470
 8812SOL    HW227336   0.395   0.600   0.488
 8813SOL     OW27337   1.243   5.265   1.274
 8813SOL    HW127338   1.322   5.324   1.291
 8813SOL    HW227339   1.274   5.172   1.256
 8814SOL     OW27340   0.140   0.427   6.825
 8814SOL    HW127341   0.205   0.391   6.891
 8814SOL    HW227342   0.072   0.483   6.872
 8815SOL     OW27343   6.628   5.673   1.247
 8815SOL    HW127344   6.647   5.675   1.149
 8815SOL    HW227345   6.580   5.589   1.271
 8816SOL     OW27346   1.321   6.841   1.405
 8816SOL    HW127347   1.370   6.914   1.357
 8816SOL    HW227348   1.311   6.762   1.344
 8817SOL     OW27349   0.985   6.282   5.365
 8817SOL    HW127350   1.040   6.229   5.430
 8817SOL    HW227351   0.900   6.312   5.410
 8818SOL     OW27352   6.959   3.868   3.539
 8818SOL    HW127353   0.020   3.833   3.586
 8818SOL    HW227354   6.898   3.792   3.518
 8819SOL     OW27355   4.371   6.620   4.061
 8819SOL    HW127356   4.470   6.604   4.064
 8819SOL    HW227357   4.323   6.533   4.048
 8820SOL     OW27358   2.035   2.595   4.061
 8820SOL    HW127359   2.089   2.672   4.028
 8820SOL    HW227360   1.941   2.604   4.028
 8821SOL     OW27361   2.032   6.843   6.399
 8821SOL    HW127362   2.076   6.930   6.424
 8821SOL    HW227363   2.097   6.768   6.410
 8822SOL     OW27364   0.593   0.703   3.193
 8822SOL    HW127365   0.670   0.665   3.245
 8822SOL    HW227366   0.621   0.788   3.148
 8823SOL     OW27367   1.970   0.157   0.991
 8823SOL    HW127368   1.887   0.161   0.935
 8823SOL    HW227369   1.972   0.071   1.042
 8824SOL     OW27370   2.623   3.682   0.739
 8824SOL    HW127371   2.600   3.738   0.659
 8824SOL    HW227372   2.694   3.728   0.792
 8825SOL     OW27373   1.366   1.060   2.528
 8825SOL    HW127374   1.465   1.073   2.527
 8825SOL    HW227375   1.341   0.999   2.604
 8826SOL     OW27376   6.096   2.315   0.378
 8826SOL    HW127377   6.133   2.323   0.471
 8826SOL    HW227378   6.073   2.220   0.359
 8827SOL     OW27379   3.047   0.708   3.422
 8827SOL    HW127380   2.991   0.757   3.356
 8827SOL    HW227381   2.988   0.655   3.483
 8828SOL     OW27382   3.869   5.533   3.641
 8828SOL    HW127383   3.866   5.467   3.565
 8828SOL    HW227384   3.937   5.503   3.708
 8829SOL     OW27385   7.013   3.497   0.084
 8829SOL    HW127386   6.915   3.481   0.088
 8829SOL    HW227387   0.027   3.473   7.013
 8830SOL     OW27388   6.661   1.296   6.887
 8830SOL    HW127389   6.564   1.318   6.876
 8830SOL    HW227390   6.677   1.264   6.981
 8831SOL     OW27391   5.640   0.997   3.510
 8831SOL    HW127392   5.565   1.035   3.457
 8831SOL    HW227393   5.611   0.986   3.605
 8832SOL     OW27394   0.100   6.740   2.041
 8832SOL    HW127395   0.119   6.709   1.948
 8832SOL    HW227396   0.185   6.770   2.084
 8833SOL     OW27397   2.017   5.814   5.050
 8833SOL    HW127398   2.072   5.895   5.072
 8833SOL    HW227399   1.920   5.837   5.059
 8834SOL     OW27400   5.451   2.849   4.546
 8834SOL    HW127401   5.468   2.787   4.622
 8834SOL    HW227402   5.527   2.844   4.481
 8835SOL     OW27403   6.278   0.160   5.371
 8835SOL    HW127404   6.181   0.184   5.362
 8835SOL    HW227405   6.328   0.193   5.290
 8836SOL     OW27406   4.156   0.781   0.986
 8836SOL    HW127407   4.079   0.789   0.922
 8836SOL    HW227408   4.181   0.872   1.019
 8837SOL     OW27409   1.020   0.393   2.476
 8837SOL    HW127410   1.011   0.296   2.497
 8837SOL    HW227411   1.104   0.408   2.423
 8838SOL     OW27412   2.573   5.039   3.565
 8838SOL    HW127413   2.559   5.110   3.635
 8838SOL    HW227414   2.670   5.012   3.564
 8839SOL     OW27415   5.618   6.273   3.099
 8839SOL    HW127416   5.717   6.263   3.093
 8839SOL    HW227417   5.580   6.278   3.006
 8840SOL     OW27418   6.413   2.349   2.371
 8840SOL    HW127419   6.478   2.416   2.334
 8840SOL    HW227420   6.325   2.393   2.387
 8841SOL     OW27421   1.090   1.174   4.713
 8841SOL    HW127422   1.105   1.086   4.669
 8841SOL    HW227423   1.121   1.171   4.808
 8842SOL     OW27424   3.536   2.881   0.965
 8842SOL    HW127425   3.533   2.874   0.866
 8842SOL    HW227426   3.622   2.922   0.993
 8843SOL     OW27427   1.258   2.995   5.426
 8843SOL    HW127428   1.260   3.092   5.404
 8843SOL    HW227429   1.286   2.981   5.521
 8844SOL     OW27430   5.791   1.473   6.296
 8844SOL    HW127431   5.731   1.551   6.279
 8844SOL    HW227432   5.751   1.415   6.368
 8845SOL     OW27433   4.172   3.870   0.267
 8845SOL    HW127434   4.232   3.849   0.344
 8845SOL    HW227435   4.221   3.856   0.181
 8846SOL     OW27436   1.890   5.460   3.437
 8846SOL    HW127437   1.811   5.512   3.404
 8846SOL    HW227438   1.859   5.376   3.480
 8847SOL     OW27439   2.772   0.678   2.231
 8847SOL    HW127440   2.810   0.677   2.323
 8847SOL    HW227441   2.832   0.626   2.169
 8848SOL     OW27442   2.285   1.228   0.981
 8848SOL    HW127443   2.195   1.230   1.025
 8848SOL    HW227444   2.294   1.146   0.925
 8849SOL     OW27445   2.009   5.832   2.906
 8849SOL    HW127446   2.062   5.842   2.822
 8849SOL    HW227447   2.050   5.761   2.963
 8850SOL     OW27448   2.738   1.663   0.179
 8850SOL    HW127449   2.836   1.661   0.156
 8850SOL    HW227450   2.706   1.570   0.195
 8851SOL     OW27451   1.631   4.831   2.160
 8851SOL    HW127452   1.579   4.748   2.182
 8851SOL    HW227453   1.728   4.815   2.176
 8852SOL     OW27454   0.997   2.058   5.800
 8852SOL    HW127455   0.994   2.144   5.750
 8852SOL    HW227456   1.010   1.982   5.737
 8853SOL     OW27457   3.047   0.943   1.905
 8853SOL    HW127458   3.077   0.954   2.000
 8853SOL    HW227459   3.112   0.988   1.844
 8854SOL     OW27460   1.647   2.769   5.089
 8854SOL    HW127461   1.644   2.673   5.120
 8854SOL    HW227462   1.736   2.787   5.048
 8855SOL     OW27463   6.259   5.761   1.452
 8855SOL    HW127464   6.185   5.694   1.459
 8855SOL    HW227465   6.264   5.795   1.358
 8856SOL     OW27466   6.116   5.563   6.155
 8856SOL    HW127467   6.047   5.548   6.083
 8856SOL    HW227468   6.089   5.515   6.238
 8857SOL     OW27469   6.893   2.060   5.368
 8857SOL    HW127470   6.881   2.156   5.394
 8857SOL    HW227471   6.826   2.004   5.417
 8858SOL     OW27472   0.553   4.724   5.307
 8858SOL    HW127473   0.561   4.669   5.390
 8858SOL    HW227474   0.479   4.790   5.318
 8859SOL     OW27475   0.776   0.805   3.797
 8859SOL    HW127476   0.798   0.721   3.747
 8859SOL    HW227477   0.839   0.815   3.874
 8860SOL     OW27478   0.043   2.677   1.135
 8860SOL    HW127479   6.987   2.655   1.197
 8860SOL    HW227480   0.056   2.603   1.070
 8861SOL     OW27481   4.074   1.432   0.917
 8861SOL    HW127482   4.157   1.438   0.972
 8861SOL    HW227483   4.026   1.519   0.918
 8862SOL     OW27484   4.769   5.811   4.314
 8862SOL    HW127485   4.728   5.729   4.355
 8862SOL    HW227486   4.791   5.877   4.386
 8863SOL     OW27487   1.827   4.528   3.467
 8863SOL    HW127488   1.749   4.518   3.405
 8863SOL    HW227489   1.890   4.597   3.432
 8864SOL     OW27490   4.791   3.634   6.575
 8864SOL    HW127491   4.863   3.565   6.577
 8864SOL    HW227492   4.744   3.630   6.487
 8865SOL     OW27493   2.744   1.604   5.562
 8865SOL    HW127494   2.666   1.625   5.621
 8865SOL    HW227495   2.717   1.615   5.466
 8866SOL     OW27496   5.451   5.885   2.480
 8866SOL    HW127497   5.430   5.879   2.578
 8866SOL    HW227498   5.439   5.979   2.449
 8867SOL     OW27499   6.605   3.370   2.992
 8867SOL    HW127500   6.595   3.469   2.988
 8867SOL    HW227501   6.648   3.337   2.908
 8868SOL     OW27502   6.828   3.218   2.553
 8868SOL    HW127503   6.912   3.222   2.500
 8868SOL    HW227504   6.753   3.258   2.500
 8869SOL     OW27505   4.780   5.548   4.584
 8869SOL    HW127506   4.701   5.598   4.547
 8869SOL    HW227507   4.864   5.587   4.546
 8870SOL     OW27508   1.992   0.052   1.896
 8870SOL    HW127509   2.026   6.979   1.883
 8870SOL    HW227510   1.934   0.056   1.977
 8871SOL     OW27511   1.616   0.993   2.798
 8871SOL    HW127512   1.664   0.921   2.748
 8871SOL    HW227513   1.521   0.965   2.813
 8872SOL     OW27514   0.536   4.365   6.299
 8872SOL    HW127515   0.470   4.391   6.229
 8872SOL    HW227516   0.626   4.403   6.275
 8873SOL     OW27517   1.890   0.393   2.169
 8873SOL    HW127518   1.803   0.346   2.181
 8873SOL    HW227519   1.894   0.433   2.077
 8874SOL     OW27520   1.831   5.011   0.932
 8874SOL    HW127521   1.753   4.988   0.991
 8874SOL    HW227522   1.817   4.971   0.841
 8875SOL     OW27523   6.942   2.880   3.751
 8875SOL    HW127524   6.876   2.944   3.711
 8875SOL    HW227525   6.948   2.895   3.849
 8876SOL     OW27526   2.865   0.582   6.285
 8876SOL    HW127527   2.927   0.540   6.219
 8876SOL    HW227528   2.887   0.680   6.293
 8877SOL     OW27529   1.311   3.535   1.759
 8877SOL    HW127530   1.279   3.441   1.759
 8877SOL    HW227531   1.269   3.585   1.683
 8878SOL     OW27532   3.643   4.788   0.517
 8878SOL    HW127533   3.725   4.841   0.536
 8878SOL    HW227534   3.665   4.711   0.457
 8879SOL     OW27535   6.532   4.867   2.614
 8879SOL    HW127536   6.467   4.813   2.669
 8879SOL    HW227537   6.524   4.841   2.518
 8880SOL     OW27538   4.386   6.656   3.718
 8880SOL    HW127539   4.402   6.754   3.729
 8880SOL    HW227540   4.470   6.611   3.688
 8881SOL     OW27541   4.499   5.109   4.132
 8881SOL    HW127542   4.556   5.191   4.136
 8881SOL    HW227543   4.485   5.073   4.224
 8882SOL     OW27544   3.751   1.054   0.391
 8882SOL    HW127545   3.800   1.045   0.478
 8882SOL    HW227546   3.653   1.057   0.408
 8883SOL     OW27547   0.167   0.028   6.124
 8883SOL    HW127548   0.101   0.002   6.194
 8883SOL    HW227549   0.255   0.049   6.168
 8884SOL     OW27550   5.493   4.234   4.887
 8884SOL    HW127551   5.570   4.282   4.843
 8884SOL    HW227552   5.519   4.207   4.979
 8885SOL     OW27553   5.536   5.444   0.044
 8885SOL    HW127554   5.607   5.381   0.075
 8885SOL    HW227555   5.530   5.441   6.965
 8886SOL     OW27556   3.758   5.091   6.647
 8886SOL    HW127557   3.788   5.181   6.615
 8886SOL    HW227558   3.687   5.102   6.716
 8887SOL     OW27559   4.264   6.977   0.307
 8887SOL    HW127560   4.209   0.032   0.269
 8887SOL    HW227561   4.207   6.896   0.316
 8888SOL     OW27562   1.961   1.872   3.669
 8888SOL    HW127563   2.026   1.801   3.642
 8888SOL    HW227564   2.011   1.948   3.710
 8889SOL     OW27565   0.032   6.694   6.210
 8889SOL    HW127566   0.116   6.653   6.245
 8889SOL    HW227567   0.053   6.782   6.167
 8890SOL     OW27568   6.855   6.364   0.025
 8890SOL    HW127569   6.838   6.338   0.120
 8890SOL    HW227570   6.769   6.369   6.996
 8891SOL     OW27571   5.588   4.484   6.759
 8891SOL    HW127572   5.612   4.387   6.772
 8891SOL    HW227573   5.539   4.516   6.840
 8892SOL     OW27574   3.398   4.999   3.728
 8892SOL    HW127575   3.434   4.946   3.651
 8892SOL    HW227576   3.365   5.088   3.694
 8893SOL     OW27577   1.611   4.915   5.075
 8893SOL    HW127578   1.668   4.994   5.099
 8893SOL    HW227579   1.525   4.946   5.036
 8894SOL     OW27580   5.099   1.904   0.799
 8894SOL    HW127581   5.159   1.911   0.719
 8894SOL    HW227582   5.038   1.983   0.802
 8895SOL     OW27583   0.934   3.108   0.798
 8895SOL    HW127584   0.864   3.049   0.758
 8895SOL    HW227585   0.897   3.152   0.880
 8896SOL     OW27586   0.621   2.802   4.666
 8896SOL    HW127587   0.670   2.882   4.701
 8896SOL    HW227588   0.686   2.738   4.625
 8897SOL     OW27589   1.745   3.829   3.780
 8897SOL    HW127590   1.733   3.735   3.748
 8897SOL    HW227591   1.737   3.892   3.703
 8898SOL     OW27592   5.067   3.540   2.693
 8898SOL    HW127593   5.150   3.494   2.726
 8898SOL    HW227594   5.080   3.565   2.597
 8899SOL     OW27595   6.864   4.603   6.304
 8899SOL    HW127596   6.917   4.678   6.344
 8899SOL    HW227597   6.839   4.537   6.375
 8900SOL     OW27598   5.812   1.910   3.442
 8900SOL    HW127599   5.795   1.920   3.344
 8900SOL    HW227600   5.806   1.999   3.486
 8901SOL     OW27601   0.663   2.192   3.648
 8901SOL    HW127602   0.719   2.129   3.594
 8901SOL    HW227603   0.722   2.239   3.715
 8902SOL     OW27604   1.195   4.634   0.126
 8902SOL    HW127605   1.288   4.607   0.098
 8902SOL    HW227606   1.196   4.729   0.157
 8903SOL     OW27607   1.404   1.164   4.994
 8903SOL    HW127608   1.411   1.130   4.900
 8903SOL    HW227609   1.487   1.139   5.044
 8904SOL     OW27610   0.376   1.659   2.460
 8904SOL    HW127611   0.417   1.571   2.486
 8904SOL    HW227612   0.388   1.673   2.362
 8905SOL     OW27613   1.672   3.007   2.654
 8905SOL    HW127614   1.648   2.927   2.709
 8905SOL    HW227615   1.642   3.090   2.702
 8906SOL     OW27616   0.872   6.799   0.914
 8906SOL    HW127617   0.906   6.748   0.834
 8906SOL    HW227618   0.901   6.753   0.998
 8907SOL     OW27619   3.292   2.608   5.288
 8907SOL    HW127620   3.260   2.514   5.270
 8907SOL    HW227621   3.228   2.673   5.247
 8908SOL     OW27622   1.207   4.871   0.556
 8908SOL    HW127623   1.205   4.933   0.635
 8908SOL    HW227624   1.172   4.781   0.583
 8909SOL     OW27625   2.618   1.185   6.277
 8909SOL    HW127626   2.584   1.244   6.204
 8909SOL    HW227627   2.567   1.203   6.361
 8910SOL     OW27628   1.035   2.550   5.222
 8910SOL    HW127629   0.979   2.577   5.300
 8910SOL    HW227630   1.014   2.456   5.197
 8911SOL     OW27631   5.180   1.746   4.046
 8911SOL    HW127632   5.085   1.746   4.076
 8911SOL    HW227633   5.189   1.689   3.964
 8912SOL     OW27634   3.972   3.754   5.325
 8912SOL    HW127635   3.933   3.662   5.325
 8912SOL    HW227636   3.972   3.790   5.418
 8913SOL     OW27637   5.525   5.185   6.910
 8913SOL    HW127638   5.454   5.125   6.948
 8913SOL    HW227639   5.498   5.215   6.818
 8914SOL     OW27640   5.422   6.443   5.017
 8914SOL    HW127641   5.514   6.469   5.047
 8914SOL    HW227642   5.355   6.471   5.086
 8915SOL     OW27643   1.210   1.125   4.036
 8915SOL    HW127644   1.220   1.221   4.061
 8915SOL    HW227645   1.124   1.111   3.987
 8916SOL     OW27646   5.794   1.638   6.619
 8916SOL    HW127647   5.866   1.585   6.575
 8916SOL    HW227648   5.744   1.690   6.550
 8917SOL     OW27649   6.128   1.703   0.674
 8917SOL    HW127650   6.101   1.695   0.770
 8917SOL    HW227651   6.227   1.704   0.666
 8918SOL     OW27652   1.695   5.449   1.142
 8918SOL    HW127653   1.736   5.451   1.233
 8918SOL    HW227654   1.714   5.536   1.095
 8919SOL     OW27655   5.450   4.515   6.510
 8919SOL    HW127656   5.519   4.512   6.582
 8919SOL    HW227657   5.359   4.509   6.550
 8920SOL     OW27658   0.277   1.228   6.850
 8920SOL    HW127659   0.353   1.290   6.873
 8920SOL    HW227660   0.299   1.178   6.767
 8921SOL     OW27661   1.151   2.873   1.114
 8921SOL    HW127662   1.139   2.802   1.184
 8921SOL    HW227663   1.135   2.963   1.155
 8922SOL     OW27664   3.650   6.648   2.777
 8922SOL    HW127665   3.559   6.632   2.739
 8922SOL    HW227666   3.660   6.745   2.799
 8923SOL     OW27667   1.334   1.810   5.766
 8923SOL    HW127668   1.331   1.865   5.849
 8923SOL    HW227669   1.421   1.761   5.761
 8924SOL     OW27670   5.473   5.788   4.483
 8924SOL    HW127671   5.505   5.706   4.531
 8924SOL    HW227672   5.411   5.839   4.543
 8925SOL     OW27673   0.885   1.181   2.744
 8925SOL    HW127674   0.812   1.113   2.738
 8925SOL    HW227675   0.886   1.222   2.835
 8926SOL     OW27676   6.284   3.889   5.730
 8926SOL    HW127677   6.330   3.869   5.817
 8926SOL    HW227678   6.344   3.862   5.654
 8927SOL     OW27679   6.420   2.315   5.485
 8927SOL    HW127680   6.369   2.400   5.489
 8927SOL    HW227681   6.456   2.293   5.576
 8928SOL     OW27682   2.332   0.593   5.639
 8928SOL    HW127683   2.364   0.655   5.568
 8928SOL    HW227684   2.385   0.508   5.636
 8929SOL     OW27685   6.164   2.665   5.211
 8929SOL    HW127686   6.196   2.755   5.180
 8929SOL    HW227687   6.064   2.667   5.221
 8930SOL     OW27688   0.873   3.653   2.798
 8930SOL    HW127689   0.897   3.573   2.742
 8930SOL    HW227690   0.901   3.736   2.751
 8931SOL     OW27691   3.391   2.787   1.532
 8931SOL    HW127692   3.378   2.838   1.617
 8931SOL    HW227693   3.482   2.804   1.496
 8932SOL     OW27694   0.434   1.615   3.098
 8932SOL    HW127695   0.511   1.669   3.132
 8932SOL    HW227696   0.361   1.676   3.068
 8933SOL     OW27697   3.307   2.397   6.594
 8933SOL    HW127698   3.225   2.367   6.547
 8933SOL    HW227699   3.372   2.434   6.527
 8934SOL     OW27700   3.697   5.324   4.350
 8934SOL    HW127701   3.783   5.279   4.326
 8934SOL    HW227702   3.668   5.294   4.441
 8935SOL     OW27703   0.121   5.276   0.985
 8935SOL    HW127704   0.123   5.374   0.965
 8935SOL    HW227705   0.028   5.241   0.972
 8936SOL     OW27706   1.600   3.537   0.802
 8936SOL    HW127707   1.527   3.598   0.770
 8936SOL    HW227708   1.598   3.452   0.748
 8937SOL     OW27709   0.083   6.669   5.257
 8937SOL    HW127710   0.030   6.705   5.334
 8937SOL    HW227711   0.154   6.735   5.232
 8938SOL     OW27712   0.137   5.402   1.252
 8938SOL    HW127713   0.078   5.339   1.201
 8938SOL    HW227714   0.186   5.462   1.188
 8939SOL     OW27715   4.963   2.525   4.560
 8939SOL    HW127716   4.954   2.613   4.606
 8939SOL    HW227717   5.060   2.498   4.560
 8940SOL     OW27718   6.883   0.742   3.915
 8940SOL    HW127719   6.827   0.764   3.994
 8940SOL    HW227720   6.978   0.767   3.934
 8941SOL     OW27721   6.035   2.251   5.456
 8941SOL    HW127722   6.071   2.234   5.365
 8941SOL    HW227723   6.081   2.190   5.522
 8942SOL     OW27724   6.986   3.178   5.768
 8942SOL    HW127725   0.032   3.252   5.782
 8942SOL    HW227726   6.909   3.189   5.831
 8943SOL     OW27727   5.498   4.233   0.524
 8943SOL    HW127728   5.437   4.309   0.543
 8943SOL    HW227729   5.479   4.198   0.432
 8944SOL     OW27730   5.058   5.336   5.719
 8944SOL    HW127731   5.086   5.244   5.691
 8944SOL    HW227732   5.000   5.330   5.801
 8945SOL     OW27733   1.936   0.242   4.165
 8945SOL    HW127734   1.960   0.170   4.231
 8945SOL    HW227735   1.947   0.331   4.208
 8946SOL     OW27736   3.307   2.085   5.027
 8946SOL    HW127737   3.316   2.068   4.929
 8946SOL    HW227738   3.217   2.123   5.046
 8947SOL     OW27739   1.782   3.946   4.973
 8947SOL    HW127740   1.783   3.964   5.072
 8947SOL    HW227741   1.831   3.860   4.955
 8948SOL     OW27742   5.458   5.580   3.639
 8948SOL    HW127743   5.360   5.596   3.655
 8948SOL    HW227744   5.471   5.549   3.545
 8949SOL     OW27745   2.227   0.193   6.846
 8949SOL    HW127746   2.142   0.217   6.893
 8949SOL    HW227747   2.217   0.103   6.804
 8950SOL     OW27748   4.602   3.270   5.602
 8950SOL    HW127749   4.617   3.175   5.630
 8950SOL    HW227750   4.531   3.272   5.531
 8951SOL     OW27751   1.677   2.315   5.300
 8951SOL    HW127752   1.625   2.389   5.257
 8951SOL    HW227753   1.629   2.228   5.286
 8952SOL     OW27754   1.261   1.296   2.126
 8952SOL    HW127755   1.242   1.294   2.224
 8952SOL    HW227756   1.219   1.217   2.082
 8953SOL     OW27757   1.406   3.782   6.944
 8953SOL    HW127758   1.311   3.802   6.967
 8953SOL    HW227759   1.466   3.849   6.987
 8954SOL     OW27760   0.189   5.899   5.348
 8954SOL    HW127761   0.102   5.867   5.312
 8954SOL    HW227762   0.180   5.995   5.377
 8955SOL     OW27763   6.846   4.280   3.207
 8955SOL    HW127764   6.761   4.227   3.201
 8955SOL    HW227765   6.905   4.240   3.277
 8956SOL     OW27766   6.829   1.398   6.507
 8956SOL    HW127767   6.844   1.455   6.588
 8956SOL    HW227768   6.795   1.309   6.535
 8957SOL     OW27769   3.147   4.421   1.409
 8957SOL    HW127770   3.152   4.323   1.387
 8957SOL    HW227771   3.108   4.433   1.500
 8958SOL     OW27772   0.732   0.493   4.229
 8958SOL    HW127773   0.705   0.433   4.154
 8958SOL    HW227774   0.661   0.563   4.243
 8959SOL     OW27775   1.411   4.664   0.725
 8959SOL    HW127776   1.452   4.663   0.634
 8959SOL    HW227777   1.401   4.759   0.756
 8960SOL     OW27778   4.513   5.312   2.795
 8960SOL    HW127779   4.510   5.230   2.853
 8960SOL    HW227780   4.457   5.298   2.714
 8961SOL     OW27781   1.503   2.004   4.352
 8961SOL    HW127782   1.437   2.044   4.288
 8961SOL    HW227783   1.570   2.074   4.378
 8962SOL     OW27784   5.773   6.795   2.629
 8962SOL    HW127785   5.804   6.890   2.635
 8962SOL    HW227786   5.813   6.742   2.704
 8963SOL     OW27787   4.947   6.353   4.063
 8963SOL    HW127788   4.900   6.440   4.072
 8963SOL    HW227789   5.040   6.368   4.028
 8964SOL     OW27790   5.757   4.634   2.401
 8964SOL    HW127791   5.696   4.676   2.333
 8964SOL    HW227792   5.851   4.663   2.383
 8965SOL     OW27793   1.602   4.750   1.015
 8965SOL    HW127794   1.629   4.800   1.098
 8965SOL    HW227795   1.615   4.652   1.030
 8966SOL     OW27796   1.850   3.082   5.621
 8966SOL    HW127797   1.860   2.985   5.642
 8966SOL    HW227798   1.760   3.114   5.650
 8967SOL     OW27799   3.113   6.332   1.827
 8967SOL    HW127800   3.205   6.312   1.794
 8967SOL    HW227801   3.118   6.387   1.910
 8968SOL     OW27802   4.759   5.412   2.800
 8968SOL    HW127803   4.666   5.379   2.815
 8968SOL    HW227804   4.760   5.512   2.798
 8969SOL     OW27805   5.930   0.631   3.687
 8969SOL    HW127806   5.901   0.663   3.777
 8969SOL    HW227807   5.894   0.693   3.617
 8970SOL     OW27808   3.305   2.759   0.524
 8970SOL    HW127809   3.220   2.789   0.567
 8970SOL    HW227810   3.383   2.784   0.582
 8971SOL     OW27811   3.371   5.962   2.330
 8971SOL    HW127812   3.341   5.888   2.389
 8971SOL    HW227813   3.421   5.925   2.252
 8972SOL     OW27814   4.688   5.949   6.985
 8972SOL    HW127815   4.709   5.884   6.912
 8972SOL    HW227816   4.735   6.035   6.967
 8973SOL     OW27817   1.098   3.918   1.821
 8973SOL    HW127818   1.090   4.018   1.815
 8973SOL    HW227819   1.190   3.893   1.850
 8974SOL     OW27820   0.758   4.450   6.147
 8974SOL    HW127821   0.765   4.455   6.047
 8974SOL    HW227822   0.832   4.393   6.183
 8975SOL     OW27823   2.635   0.989   7.014
 8975SOL    HW127824   2.721   0.968   6.967
 8975SOL    HW227825   2.599   0.906   0.037
 8976SOL     OW27826   1.221   5.169   5.254
 8976SOL    HW127827   1.181   5.080   5.231
 8976SOL    HW227828   1.319   5.157   5.272
 8977SOL     OW27829   6.009   1.465   6.524
 8977SOL    HW127830   6.091   1.522   6.515
 8977SOL    HW227831   6.005   1.401   6.448
 8978SOL     OW27832   6.164   6.146   6.915
 8978SOL    HW127833   6.216   6.104   6.840
 8978SOL    HW227834   6.098   6.210   6.877
 8979SOL     OW27835   1.837   3.299   4.503
 8979SOL    HW127836   1.817   3.309   4.601
 8979SOL    HW227837   1.933   3.320   4.486
 8980SOL     OW27838   2.585   3.467   5.815
 8980SOL    HW127839   2.490   3.494   5.799
 8980SOL    HW227840   2.639   3.547   5.840
 8981SOL     OW27841   3.979   1.554   4.948
 8981SOL    HW127842   3.959   1.642   4.905
 8981SOL    HW227843   3.935   1.550   5.038
 8982SOL     OW27844   1.669   2.954   0.276
 8982SOL    HW127845   1.684   2.860   0.245
 8982SOL    HW227846   1.579   2.985   0.245
 8983SOL     OW27847   3.069   5.795   6.608
 8983SOL    HW127848   3.046   5.702   6.581
 8983SOL    HW227849   2.986   5.846   6.627
 8984SOL     OW27850   1.605   6.797   2.918
 8984SOL    HW127851   1.587   6.893   2.940
 8984SOL    HW227852   1.521   6.743   2.932
 8985SOL     OW27853   3.922   2.374   0.844
 8985SOL    HW127854   3.823   2.362   0.837
 8985SOL    HW227855   3.955   2.330   0.928
 8986SOL     OW27856   3.939   4.835   2.813
 8986SOL    HW127857   3.937   4.785   2.900
 8986SOL    HW227858   4.016   4.898   2.813
 8987SOL     OW27859   4.037   6.229   2.861
 8987SOL    HW127860   3.991   6.157   2.808
 8987SOL    HW227861   4.065   6.303   2.798
 8988SOL     OW27862   0.935   5.441   4.136
 8988SOL    HW127863   1.022   5.444   4.184
 8988SOL    HW227864   0.866   5.494   4.187
 8989SOL     OW27865   4.329   3.216   6.807
 8989SOL    HW127866   4.296   3.310   6.802
 8989SOL    HW227867   4.428   3.216   6.820
 8990SOL     OW27868   0.779   4.683   4.089
 8990SOL    HW127869   0.717   4.761   4.088
 8990SOL    HW227870   0.871   4.714   4.061
 8991SOL     OW27871   1.234   3.695   4.531
 8991SOL    HW127872   1.181   3.711   4.614
 8991SOL    HW227873   1.276   3.781   4.502
 8992SOL     OW27874   4.891   1.663   1.153
 8992SOL    HW127875   4.889   1.754   1.195
 8992SOL    HW227876   4.894   1.673   1.054
 8993SOL     OW27877   3.721   3.402   0.262
 8993SOL    HW127878   3.744   3.482   0.317
 8993SOL    HW227879   3.632   3.416   0.218
 8994SOL     OW27880   1.349   4.769   4.741
 8994SOL    HW127881   1.303   4.687   4.707
 8994SOL    HW227882   1.436   4.744   4.782
 8995SOL     OW27883   6.990   2.025   0.038
 8995SOL    HW127884   0.022   2.037   0.122
 8995SOL    HW227885   6.914   1.962   0.054
 8996SOL     OW27886   5.474   4.207   6.491
 8996SOL    HW127887   5.462   4.297   6.449
 8996SOL    HW227888   5.404   4.144   6.457
 8997SOL     OW27889   4.463   1.256   5.879
 8997SOL    HW127890   4.517   1.338   5.865
 8997SOL    HW227891   4.518   1.175   5.855
 8998SOL     OW27892   5.776   3.334   4.488
 8998SOL    HW127893   5.683   3.313   4.518
 8998SOL    HW227894   5.794   3.289   4.401
 8999SOL     OW27895   5.021   6.538   6.211
 8999SOL    HW127896   4.974   6.589   6.284
 8999SOL    HW227897   4.955   6.478   6.166
 9000SOL     OW27898   1.836   3.098   2.476
 9000SOL    HW127899   1.764   3.079   2.543
 9000SOL    HW227900   1.836   3.027   2.406
 9001SOL     OW27901   0.856   5.124   1.453
 9001SOL    HW127902   0.884   5.130   1.549
 9001SOL    HW227903   0.885   5.207   1.404
 9002SOL     OW27904   1.997   4.708   5.552
 9002SOL    HW127905   1.983   4.789   5.495
 9002SOL    HW227906   2.067   4.650   5.511
 9003SOL     OW27907   5.566   3.895   0.900
 9003SOL    HW127908   5.513   3.844   0.832
 9003SOL    HW227909   5.620   3.832   0.955
 9004SOL     OW27910   4.468   5.194   0.688
 9004SOL    HW127911   4.559   5.156   0.706
 9004SOL    HW227912   4.468   5.236   0.597
 9005SOL     OW27913   6.629   1.981   5.480
 9005SOL    HW127914   6.616   1.985   5.579
 9005SOL    HW227915   6.542   2.001   5.435
 9006SOL     OW27916   3.194   6.265   1.033
 9006SOL    HW127917   3.153   6.193   1.090
 9006SOL    HW227918   3.227   6.339   1.092
 9007SOL     OW27919   2.520   1.323   2.450
 9007SOL    HW127920   2.517   1.391   2.377
 9007SOL    HW227921   2.586   1.352   2.520
 9008SOL     OW27922   6.991   4.917   2.716
 9008SOL    HW127923   6.984   4.937   2.814
 9008SOL    HW227924   6.950   4.992   2.664
 9009SOL     OW27925   3.443   5.248   1.127
 9009SOL    HW127926   3.443   5.212   1.220
 9009SOL    HW227927   3.538   5.257   1.095
 9010SOL     OW27928   1.992   6.390   4.388
 9010SOL    HW127929   2.090   6.369   4.384
 9010SOL    HW227930   1.980   6.489   4.398
 9011SOL     OW27931   4.261   0.629   1.448
 9011SOL    HW127932   4.207   0.547   1.431
 9011SOL    HW227933   4.213   0.689   1.512
 9012SOL     OW27934   2.190   5.303   0.181
 9012SOL    HW127935   2.149   5.275   0.095
 9012SOL    HW227936   2.272   5.358   0.163
 9013SOL     OW27937   0.922   0.833   5.791
 9013SOL    HW127938   0.958   0.925   5.807
 9013SOL    HW227939   0.822   0.834   5.800
 9014SOL     OW27940   6.200   2.630   0.874
 9014SOL    HW127941   6.176   2.637   0.778
 9014SOL    HW227942   6.148   2.556   0.917
 9015SOL     OW27943   4.765   2.294   1.765
 9015SOL    HW127944   4.851   2.299   1.815
 9015SOL    HW227945   4.689   2.314   1.828
 9016SOL     OW27946   6.047   5.544   6.810
 9016SOL    HW127947   6.105   5.478   6.858
 9016SOL    HW227948   6.042   5.628   6.863
 9017SOL     OW27949   4.587   1.132   4.122
 9017SOL    HW127950   4.528   1.087   4.055
 9017SOL    HW227951   4.656   1.186   4.074
 9018SOL     OW27952   2.414   3.664   5.487
 9018SOL    HW127953   2.455   3.573   5.484
 9018SOL    HW227954   2.385   3.691   5.395
 9019SOL     OW27955   0.981   4.564   2.692
 9019SOL    HW127956   0.990   4.625   2.613
 9019SOL    HW227957   0.917   4.604   2.758
 9020SOL     OW27958   6.773   4.225   1.022
 9020SOL    HW127959   6.862   4.218   1.067
 9020SOL    HW227960   6.701   4.193   1.084
 9021SOL     OW27961   6.262   1.232   2.889
 9021SOL    HW127962   6.207   1.209   2.969
 9021SOL    HW227963   6.215   1.302   2.834
 9022SOL     OW27964   3.443   1.317   6.739
 9022SOL    HW127965   3.395   1.276   6.662
 9022SOL    HW227966   3.377   1.342   6.810
 9023SOL     OW27967   3.935   3.853   1.599
 9023SOL    HW127968   3.951   3.787   1.672
 9023SOL    HW227969   3.843   3.840   1.561
 9024SOL     OW27970   1.283   4.466   5.202
 9024SOL    HW127971   1.365   4.516   5.228
 9024SOL    HW227972   1.217   4.528   5.159
 9025SOL     OW27973   0.052   5.550   0.940
 9025SOL    HW127974   0.044   5.650   0.944
 9025SOL    HW227975   0.089   5.524   0.851
 9026SOL     OW27976   3.610   2.374   0.739
 9026SOL    HW127977   3.602   2.473   0.727
 9026SOL    HW227978   3.527   2.338   0.783
 9027SOL     OW27979   0.767   3.162   3.149
 9027SOL    HW127980   0.791   3.079   3.099
 9027SOL    HW227981   0.668   3.165   3.162
 9028SOL     OW27982   3.722   3.237   5.323
 9028SOL    HW127983   3.676   3.172   5.384
 9028SOL    HW227984   3.800   3.192   5.279
 9029SOL     OW27985   3.773   6.725   4.800
 9029SOL    HW127986   3.745   6.634   4.770
 9029SOL    HW227987   3.698   6.770   4.848
 9030SOL     OW27988   2.405   2.038   3.975
 9030SOL    HW127989   2.502   2.045   3.953
 9030SOL    HW227990   2.392   1.972   4.049
 9031SOL     OW27991   4.329   6.863   4.335
 9031SOL    HW127992   4.230   6.849   4.329
 9031SOL    HW227993   4.357   6.862   4.431
 9032SOL     OW27994   4.952   4.087   1.163
 9032SOL    HW127995   4.945   4.093   1.064
 9032SOL    HW227996   4.878   4.030   1.199
 9033SOL     OW27997   0.622   4.554   2.174
 9033SOL    HW127998   0.657   4.462   2.156
 9033SOL    HW227999   0.656   4.585   2.263
 9034SOL     OW28000   3.319   6.098   4.545
 9034SOL    HW128001   3.282   6.030   4.608
 9034SOL    HW228002   3.274   6.089   4.456
 9035SOL     OW28003   2.080   5.555   0.267
 9035SOL    HW128004   2.148   5.487   0.239
 9035SOL    HW228005   2.121   5.618   0.333
 9036SOL     OW28006   1.918   4.025   5.308
 9036SOL    HW128007   1.971   4.071   5.380
 9036SOL    HW228008   1.860   4.091   5.262
 9037SOL     OW28009   1.190   3.319   3.926
 9037SOL    HW128010   1.158   3.226   3.942
 9037SOL    HW228011   1.145   3.381   3.991
 9038SOL     OW28012   4.550   2.764   6.989
 9038SOL    HW128013   4.573   2.684   6.932
 9038SOL    HW228014   4.610   2.766   0.048
 9039SOL     OW28015   2.957   4.836   6.410
 9039SOL    HW128016   2.968   4.934   6.394
 9039SOL    HW228017   2.889   4.821   6.482
 9040SOL     OW28018   2.742   2.340   2.336
 9040SOL    HW128019   2.788   2.365   2.251
 9040SOL    HW228020   2.785   2.259   2.375
 9041SOL     OW28021   1.665   2.354   1.106
 9041SOL    HW128022   1.735   2.387   1.169
 9041SOL    HW228023   1.705   2.341   1.015
 9042SOL     OW28024   3.780   0.202   4.339
 9042SOL    HW128025   3.821   0.293   4.330
 9042SOL    HW228026   3.686   0.205   4.306
 9043SOL     OW28027   2.516   1.510   6.345
 9043SOL    HW128028   2.499   1.443   6.418
 9043SOL    HW228029   2.525   1.463   6.258
 9044SOL     OW28030   6.924   1.069   6.890
 9044SOL    HW128031   6.839   1.057   6.941
 9044SOL    HW228032   6.963   0.979   6.868
 9045SOL     OW28033   3.395   0.621   2.806
 9045SOL    HW128034   3.430   0.560   2.877
 9045SOL    HW228035   3.343   0.695   2.848
 9046SOL     OW28036   3.954   3.924   2.726
 9046SOL    HW128037   3.973   3.849   2.662
 9046SOL    HW228038   3.964   3.891   2.820
 9047SOL     OW28039   1.089   3.949   4.741
 9047SOL    HW128040   1.049   3.992   4.661
 9047SOL    HW228041   1.186   3.931   4.724
 9048SOL     OW28042   6.225   2.493   6.256
 9048SOL    HW128043   6.206   2.455   6.346
 9048SOL    HW228044   6.234   2.592   6.262
 9049SOL     OW28045   4.271   6.180   5.623
 9049SOL    HW128046   4.368   6.167   5.645
 9049SOL    HW228047   4.231   6.093   5.596
 9050SOL     OW28048   0.313   3.355   1.736
 9050SOL    HW128049   0.361   3.273   1.706
 9050SOL    HW228050   0.246   3.383   1.667
 9051SOL     OW28051   2.180   0.431   1.904
 9051SOL    HW128052   2.102   0.380   1.866
 9051SOL    HW228053   2.149   0.488   1.980
 9052SOL     OW28054   2.000   2.999   4.110
 9052SOL    HW128055   2.051   2.946   4.042
 9052SOL    HW228056   1.948   2.937   4.169
 9053SOL     OW28057   1.724   1.257   1.106
 9053SOL    HW128058   1.626   1.261   1.085
 9053SOL    HW228059   1.739   1.190   1.179
 9054SOL     OW28060   2.432   5.918   4.817
 9054SOL    HW128061   2.344   5.871   4.810
 9054SOL    HW228062   2.504   5.858   4.781
 9055SOL     OW28063   6.521   2.997   4.009
 9055SOL    HW128064   6.548   3.019   4.102
 9055SOL    HW228065   6.421   2.993   4.003
 9056SOL     OW28066   6.767   1.762   1.694
 9056SOL    HW128067   6.818   1.847   1.712
 9056SOL    HW228068   6.715   1.737   1.776
 9057SOL     OW28069   4.665   2.380   5.085
 9057SOL    HW128070   4.598   2.384   5.159
 9057SOL    HW228071   4.666   2.466   5.035
 9058SOL     OW28072   1.330   0.605   1.006
 9058SOL    HW128073   1.234   0.632   1.008
 9058SOL    HW228074   1.363   0.588   1.099
 9059SOL     OW28075   0.950   2.242   2.999
 9059SOL    HW128076   1.006   2.242   2.916
 9059SOL    HW228077   0.889   2.321   2.999
 9060SOL     OW28078   6.159   2.745   4.216
 9060SOL    HW128079   6.214   2.664   4.197
 9060SOL    HW228080   6.073   2.717   4.259
 9061SOL     OW28081   3.163   5.579   2.330
 9061SOL    HW128082   3.159   5.488   2.371
 9061SOL    HW228083   3.133   5.574   2.235
 9062SOL     OW28084   1.366   5.737   1.470
 9062SOL    HW128085   1.336   5.818   1.521
 9062SOL    HW228086   1.346   5.750   1.373
 9063SOL     OW28087   2.908   0.574   3.607
 9063SOL    HW128088   2.811   0.597   3.604
 9063SOL    HW228089   2.920   0.482   3.644
 9064SOL     OW28090   6.681   3.624   6.551
 9064SOL    HW128091   6.652   3.547   6.607
 9064SOL    HW228092   6.716   3.697   6.609
 9065SOL     OW28093   3.667   0.135   0.576
 9065SOL    HW128094   3.636   0.228   0.596
 9065SOL    HW228095   3.592   0.082   0.536
 9066SOL     OW28096   5.217   0.046   0.759
 9066SOL    HW128097   5.169   6.979   0.765
 9066SOL    HW228098   5.160   0.112   0.710
 9067SOL     OW28099   1.565   0.377   3.422
 9067SOL    HW128100   1.539   0.367   3.518
 9067SOL    HW228101   1.662   0.352   3.411
 9068SOL     OW28102   0.711   0.030   4.906
 9068SOL    HW128103   0.770   0.023   4.825
 9068SOL    HW228104   0.616   0.019   4.879
 9069SOL     OW28105   1.222   2.822   6.816
 9069SOL    HW128106   1.243   2.867   6.902
 9069SOL    HW228107   1.301   2.768   6.787
 9070SOL     OW28108   2.186   3.924   4.754
 9070SOL    HW128109   2.184   3.826   4.769
 9070SOL    HW228110   2.235   3.968   4.830
 9071SOL     OW28111   6.527   6.074   0.977
 9071SOL    HW128112   6.565   6.059   1.068
 9071SOL    HW228113   6.510   5.986   0.932
 9072SOL     OW28114   6.913   3.362   1.021
 9072SOL    HW128115   6.932   3.415   1.103
 9072SOL    HW228116   6.993   3.305   0.999
 9073SOL     OW28117   1.775   6.964   1.726
 9073SOL    HW128118   1.761   6.865   1.728
 9073SOL    HW228119   1.868   6.986   1.756
 9074SOL     OW28120   1.619   0.775   2.340
 9074SOL    HW128121   1.649   0.859   2.383
 9074SOL    HW228122   1.521   0.763   2.355
 9075SOL     OW28123   6.391   0.829   2.327
 9075SOL    HW128124   6.487   0.814   2.305
 9075SOL    HW228125   6.360   0.913   2.282
 9076SOL     OW28126   0.426   1.255   6.600
 9076SOL    HW128127   0.345   1.207   6.565
 9076SOL    HW228128   0.482   1.285   6.522
 9077SOL     OW28129   4.447   6.327   1.954
 9077SOL    HW128130   4.502   6.318   1.871
 9077SOL    HW228131   4.478   6.405   2.007
 9078SOL     OW28132   3.924   3.502   5.034
 9078SOL    HW128133   3.972   3.561   4.970
 9078SOL    HW228134   3.928   3.407   5.002
 9079SOL     OW28135   3.071   0.603   4.481
 9079SOL    HW128136   3.061   0.608   4.382
 9079SOL    HW228137   2.987   0.635   4.525
 9080SOL     OW28138   5.148   2.652   0.115
 9080SOL    HW128139   5.081   2.726   0.110
 9080SOL    HW228140   5.105   2.566   0.088
 9081SOL     OW28141   5.373   5.973   2.768
 9081SOL    HW128142   5.326   6.057   2.743
 9081SOL    HW228143   5.466   5.994   2.798
 9082SOL     OW28144   1.685   6.907   3.998
 9082SOL    HW128145   1.680   6.923   4.097
 9082SOL    HW228146   1.734   6.982   3.954
 9083SOL     OW28147   4.676   4.586   5.866
 9083SOL    HW128148   4.653   4.600   5.963
 9083SOL    HW228149   4.596   4.606   5.810
 9084SOL     OW28150   3.780   3.360   2.755
 9084SOL    HW128151   3.725   3.305   2.818
 9084SOL    HW228152   3.848   3.412   2.806
 9085SOL     OW28153   2.389   0.756   0.647
 9085SOL    HW128154   2.461   0.749   0.717
 9085SOL    HW228155   2.300   0.761   0.692
 9086SOL     OW28156   0.520   4.059   0.510
 9086SOL    HW128157   0.491   4.096   0.598
 9086SOL    HW228158   0.611   4.095   0.487
 9087SOL     OW28159   5.144   3.241   2.577
 9087SOL    HW128160   5.153   3.183   2.496
 9087SOL    HW228161   5.122   3.334   2.549
 9088SOL     OW28162   6.191   0.076   0.331
 9088SOL    HW128163   6.143   0.123   0.405
 9088SOL    HW228164   6.280   0.044   0.364
 9089SOL     OW28165   5.037   6.184   5.727
 9089SOL    HW128166   5.077   6.156   5.815
 9089SOL    HW228167   5.092   6.148   5.652
 9090SOL     OW28168   6.392   0.686   4.784
 9090SOL    HW128169   6.312   0.730   4.825
 9090SOL    HW228170   6.398   0.591   4.817
 9091SOL     OW28171   3.053   3.873   6.901
 9091SOL    HW128172   2.982   3.809   6.932
 9091SOL    HW228173   3.011   3.945   6.845
 9092SOL     OW28174   6.415   1.423   6.865
 9092SOL    HW128175   6.387   1.387   6.954
 9092SOL    HW228176   6.371   1.511   6.849
 9093SOL     OW28177   1.429   6.047   5.394
 9093SOL    HW128178   1.455   5.963   5.347
 9093SOL    HW228179   1.394   6.113   5.327
 9094SOL     OW28180   0.482   3.470   2.713
 9094SOL    HW128181   0.447   3.389   2.665
 9094SOL    HW228182   0.531   3.528   2.648
 9095SOL     OW28183   4.533   4.916   5.681
 9095SOL    HW128184   4.620   4.878   5.712
 9095SOL    HW228185   4.468   4.842   5.663
 9096SOL     OW28186   6.709   5.105   3.361
 9096SOL    HW128187   6.755   5.055   3.288
 9096SOL    HW228188   6.660   5.041   3.420
 9097SOL     OW28189   0.935   2.661   6.425
 9097SOL    HW128190   0.967   2.600   6.353
 9097SOL    HW228191   0.863   2.616   6.478
 9098SOL     OW28192   2.322   2.045   4.997
 9098SOL    HW128193   2.284   1.956   5.023
 9098SOL    HW228194   2.314   2.109   5.074
 9099SOL     OW28195   2.475   3.057   5.800
 9099SOL    HW128196   2.529   3.002   5.736
 9099SOL    HW228197   2.476   3.015   5.890
 9100SOL     OW28198   1.317   4.291   2.461
 9100SOL    HW128199   1.365   4.218   2.412
 9100SOL    HW228200   1.258   4.251   2.531
 9101SOL     OW28201   2.921   1.603   2.387
 9101SOL    HW128202   2.923   1.516   2.337
 9101SOL    HW228203   2.934   1.586   2.485
 9102SOL     OW28204   4.742   6.484   2.548
 9102SOL    HW128205   4.733   6.556   2.479
 9102SOL    HW228206   4.708   6.519   2.636
 9103SOL     OW28207   6.070   1.842   6.854
 9103SOL    HW128208   6.085   1.937   6.880
 9103SOL    HW228209   6.074   1.833   6.755
 9104SOL     OW28210   0.271   0.764   0.872
 9104SOL    HW128211   0.359   0.802   0.901
 9104SOL    HW228212   0.203   0.781   0.944
 9105SOL     OW28213   1.946   0.156   5.508
 9105SOL    HW128214   2.007   0.234   5.494
 9105SOL    HW228215   1.941   0.135   5.606
 9106SOL     OW28216   0.949   4.017   0.142
 9106SOL    HW128217   0.862   3.971   0.126
 9106SOL    HW228218   0.951   4.104   0.092
 9107SOL     OW28219   2.525   0.703   6.371
 9107SOL    HW128220   2.538   0.751   6.284
 9107SOL    HW228221   2.428   0.683   6.383
 9108SOL     OW28222   5.203   5.014   5.656
 9108SOL    HW128223   5.240   4.923   5.638
 9108SOL    HW228224   5.252   5.054   5.733
 9109SOL     OW28225   5.582   3.086   2.143
 9109SOL    HW128226   5.587   3.134   2.055
 9109SOL    HW228227   5.552   2.992   2.127
 9110SOL     OW28228   1.527   5.712   5.402
 9110SOL    HW128229   1.500   5.682   5.493
 9110SOL    HW228230   1.625   5.701   5.390
 9111SOL     OW28231   4.732   3.014   5.666
 9111SOL    HW128232   4.796   2.996   5.591
 9111SOL    HW228233   4.717   2.929   5.717
 9112SOL     OW28234   1.945   5.179   2.725
 9112SOL    HW128235   1.923   5.238   2.648
 9112SOL    HW228236   1.861   5.158   2.776
 9113SOL     OW28237   5.318   2.135   3.102
 9113SOL    HW128238   5.222   2.136   3.072
 9113SOL    HW228239   5.323   2.161   3.198
 9114SOL     OW28240   1.630   6.229   4.630
 9114SOL    HW128241   1.658   6.239   4.726
 9114SOL    HW228242   1.710   6.241   4.571
 9115SOL     OW28243   5.597   5.082   3.473
 9115SOL    HW128244   5.658   5.131   3.536
 9115SOL    HW228245   5.650   5.017   3.419
 9116SOL     OW28246   0.418   6.498   3.141
 9116SOL    HW128247   0.486   6.553   3.189
 9116SOL    HW228248   0.329   6.510   3.185
 9117SOL     OW28249   4.192   1.129   6.945
 9117SOL    HW128250   4.094   1.147   6.933
 9117SOL    HW228251   4.217   1.143   0.020
 9118SOL     OW28252   6.243   3.863   0.442
 9118SOL    HW128253   6.244   3.799   0.365
 9118SOL    HW228254   6.149   3.879   0.470
 9119SOL     OW28255   3.810   6.066   1.255
 9119SOL    HW128256   3.764   6.007   1.321
 9119SOL    HW228257   3.742   6.107   1.194
 9120SOL     OW28258   6.538   2.606   5.818
 9120SOL    HW128259   6.495   2.668   5.752
 9120SOL    HW228260   6.506   2.627   5.910
 9121SOL     OW28261   3.838   0.430   5.780
 9121SOL    HW128262   3.809   0.441   5.875
 9121SOL    HW228263   3.757   0.417   5.722
 9122SOL     OW28264   2.390   4.441   1.996
 9122SOL    HW128265   2.422   4.464   1.904
 9122SOL    HW228266   2.452   4.480   2.064
 9123SOL     OW28267   1.224   0.786   3.420
 9123SOL    HW128268   1.125   0.787   3.434
 9123SOL    HW228269   1.267   0.728   3.489
 9124SOL     OW28270   3.434   5.151   1.397
 9124SOL    HW128271   3.513   5.094   1.417
 9124SOL    HW228272   3.401   5.194   1.481
 9125SOL     OW28273   3.471   6.455   6.993
 9125SOL    HW128274   3.495   6.546   0.005
 9125SOL    HW228275   3.375   6.454   6.966
 9126SOL     OW28276   4.199   5.042   0.586
 9126SOL    HW128277   4.125   5.104   0.609
 9126SOL    HW228278   4.209   4.973   0.658
 9127SOL     OW28279   6.924   3.425   5.041
 9127SOL    HW128280   6.999   3.491   5.033
 9127SOL    HW228281   6.961   3.333   5.052
 9128SOL     OW28282   5.849   3.032   4.550
 9128SOL    HW128283   5.909   3.101   4.591
 9128SOL    HW228284   5.757   3.069   4.540
 9129SOL     OW28285   2.270   1.860   0.883
 9129SOL    HW128286   2.204   1.824   0.817
 9129SOL    HW228287   2.324   1.932   0.840
 9130SOL     OW28288   2.783   4.186   5.516
 9130SOL    HW128289   2.771   4.163   5.420
 9130SOL    HW228290   2.700   4.231   5.550
 9131SOL     OW28291   6.202   3.108   0.803
 9131SOL    HW128292   6.156   3.031   0.846
 9131SOL    HW228293   6.266   3.149   0.868
 9132SOL     OW28294   1.013   4.038   3.128
 9132SOL    HW128295   0.954   3.974   3.177
 9132SOL    HW228296   0.992   4.132   3.155
 9133SOL     OW28297   4.243   0.565   1.121
 9133SOL    HW128298   4.328   0.580   1.171
 9133SOL    HW228299   4.210   0.652   1.084
 9134SOL     OW28300   4.569   5.509   1.123
 9134SOL    HW128301   4.626   5.462   1.056
 9134SOL    HW228302   4.626   5.567   1.181
 9135SOL     OW28303   0.936   6.082   1.890
 9135SOL    HW128304   0.903   6.129   1.971
 9135SOL    HW228305   0.860   6.033   1.846
 9136SOL     OW28306   5.372   4.798   6.445
 9136SOL    HW128307   5.386   4.835   6.537
 9136SOL    HW228308   5.422   4.712   6.436
 9137SOL     OW28309   4.130   5.915   6.673
 9137SOL    HW128310   4.044   5.964   6.689
 9137SOL    HW228311   4.117   5.818   6.688
 9138SOL     OW28312   3.115   2.619   0.395
 9138SOL    HW128313   3.202   2.653   0.431
 9138SOL    HW228314   3.063   2.695   0.357
 9139SOL     OW28315   7.002   0.124   1.319
 9139SOL    HW128316   6.996   0.223   1.330
 9139SOL    HW228317   6.972   0.099   1.227
 9140SOL     OW28318   0.714   4.069   2.350
 9140SOL    HW128319   0.641   4.019   2.305
 9140SOL    HW228320   0.801   4.022   2.337
 9141SOL     OW28321   6.638   5.378   6.125
 9141SOL    HW128322   6.603   5.468   6.152
 9141SOL    HW228323   6.616   5.311   6.196
 9142SOL     OW28324   1.168   3.672   2.649
 9142SOL    HW128325   1.197   3.683   2.745
 9142SOL    HW228326   1.086   3.728   2.633
 9143SOL     OW28327   0.195   3.665   3.153
 9143SOL    HW128328   0.106   3.628   3.126
 9143SOL    HW228329   0.243   3.699   3.072
 9144SOL     OW28330   2.697   5.285   5.102
 9144SOL    HW128331   2.783   5.257   5.061
 9144SOL    HW228332   2.705   5.284   5.202
 9145SOL     OW28333   1.273   6.721   6.591
 9145SOL    HW128334   1.342   6.784   6.628
 9145SOL    HW228335   1.201   6.707   6.659
 9146SOL     OW28336   5.565   3.509   3.674
 9146SOL    HW128337   5.556   3.414   3.646
 9146SOL    HW228338   5.528   3.568   3.603
 9147SOL     OW28339   5.179   0.174   3.901
 9147SOL    HW128340   5.168   0.264   3.944
 9147SOL    HW228341   5.193   0.185   3.803
 9148SOL     OW28342   6.374   0.134   1.525
 9148SOL    HW128343   6.287   0.087   1.539
 9148SOL    HW228344   6.360   0.232   1.534
 9149SOL     OW28345   6.038   4.221   1.458
 9149SOL    HW128346   6.100   4.203   1.382
 9149SOL    HW228347   6.032   4.139   1.516
 9150SOL     OW28348   3.164   3.946   0.142
 9150SOL    HW128349   3.123   3.922   0.054
 9150SOL    HW228350   3.125   4.033   0.174
 9151SOL     OW28351   1.704   3.552   3.745
 9151SOL    HW128352   1.625   3.492   3.734
 9151SOL    HW228353   1.759   3.549   3.662
 9152SOL     OW28354   1.757   4.152   3.638
 9152SOL    HW128355   1.841   4.139   3.586
 9152SOL    HW228356   1.746   4.248   3.661
 9153SOL     OW28357   0.328   2.977   6.607
 9153SOL    HW128358   0.348   2.972   6.705
 9153SOL    HW228359   0.387   2.912   6.558
 9154SOL     OW28360   6.130   4.882   3.013
 9154SOL    HW128361   6.133   4.860   3.110
 9154SOL    HW228362   6.222   4.883   2.976
 9155SOL     OW28363   0.474   5.630   2.604
 9155SOL    HW128364   0.541   5.665   2.669
 9155SOL    HW228365   0.462   5.532   2.618
 9156SOL     OW28366   6.767   4.072   0.006
 9156SOL    HW128367   6.673   4.047   7.004
 9156SOL    HW228368   6.807   4.003   0.066
 9157SOL     OW28369   3.127   4.549   6.109
 9157SOL    HW128370   3.209   4.604   6.125
 9157SOL    HW228371   3.089   4.520   6.197
 9158SOL     OW28372   0.232   3.502   3.755
 9158SOL    HW128373   0.314   3.529   3.705
 9158SOL    HW228374   0.237   3.535   3.849
 9159SOL     OW28375   3.604   1.110   3.442
 9159SOL    HW128376   3.568   1.018   3.462
 9159SOL    HW228377   3.630   1.115   3.346
 9160SOL     OW28378   0.376   4.578   6.696
 9160SOL    HW128379   0.466   4.607   6.662
 9160SOL    HW228380   0.344   4.642   6.765
 9161SOL     OW28381   5.715   3.779   1.477
 9161SOL    HW128382   5.702   3.771   1.378
 9161SOL    HW228383   5.675   3.864   1.509
 9162SOL     OW28384   5.105   2.150   2.237
 9162SOL    HW128385   5.063   2.063   2.263
 9162SOL    HW228386   5.140   2.143   2.143
 9163SOL     OW28387   1.299   2.137   2.889
 9163SOL    HW128388   1.277   2.066   2.822
 9163SOL    HW228389   1.236   2.130   2.967
 9164SOL     OW28390   2.472   0.501   6.692
 9164SOL    HW128391   2.494   0.460   6.603
 9164SOL    HW228392   2.531   0.461   6.762
 9165SOL     OW28393   5.019   2.792   5.555
 9165SOL    HW128394   4.928   2.769   5.519
 9165SOL    HW228395   5.029   2.891   5.560
 9166SOL     OW28396   5.134   5.553   1.676
 9166SOL    HW128397   5.081   5.468   1.676
 9166SOL    HW228398   5.232   5.532   1.677
 9167SOL     OW28399   1.465   0.651   5.565
 9167SOL    HW128400   1.545   0.659   5.623
 9167SOL    HW228401   1.419   0.564   5.582
 9168SOL     OW28402   6.585   6.179   4.501
 9168SOL    HW128403   6.580   6.267   4.547
 9168SOL    HW228404   6.617   6.192   4.407
 9169SOL     OW28405   6.289   6.369   0.626
 9169SOL    HW128406   6.275   6.467   0.614
 9169SOL    HW228407   6.213   6.330   0.677
 9170SOL     OW28408   1.654   1.287   5.992
 9170SOL    HW128409   1.588   1.294   5.917
 9170SOL    HW228410   1.653   1.371   6.045
 9171SOL     OW28411   3.178   4.880   0.651
 9171SOL    HW128412   3.278   4.880   0.658
 9171SOL    HW228413   3.149   4.817   0.580
 9172SOL     OW28414   5.218   1.316   4.278
 9172SOL    HW128415   5.311   1.335   4.248
 9172SOL    HW228416   5.181   1.396   4.324
 9173SOL     OW28417   6.240   2.863   3.981
 9173SOL    HW128418   6.203   2.864   4.074
 9173SOL    HW228419   6.270   2.770   3.959
 9174SOL     OW28420   0.145   5.614   0.064
 9174SOL    HW128421   0.074   5.684   0.063
 9174SOL    HW228422   0.234   5.656   0.047
 9175SOL     OW28423   1.517   0.488   6.598
 9175SOL    HW128424   1.522   0.408   6.538
 9175SOL    HW228425   1.523   0.459   6.693
 9176SOL     OW28426   1.482   1.666   2.595
 9176SOL    HW128427   1.417   1.613   2.541
 9176SOL    HW228428   1.441   1.693   2.681
 9177SOL     OW28429   0.165   4.273   3.572
 9177SOL    HW128430   0.193   4.310   3.484
 9177SOL    HW228431   0.246   4.255   3.628
 9178SOL     OW28432   1.723   6.375   0.462
 9178SOL    HW128433   1.659   6.342   0.393
 9178SOL    HW228434   1.768   6.458   0.428
 9179SOL     OW28435   4.327   6.348   5.086
 9179SOL    HW128436   4.281   6.270   5.128
 9179SOL    HW228437   4.354   6.325   4.992
 9180SOL     OW28438   0.273   1.638   4.141
 9180SOL    HW128439   0.363   1.679   4.151
 9180SOL    HW228440   0.274   1.572   4.066
 9181SOL     OW28441   3.781   2.062   3.737
 9181SOL    HW128442   3.769   2.063   3.837
 9181SOL    HW228443   3.707   2.010   3.695
 9182SOL     OW28444   1.715   1.233   3.195
 9182SOL    HW128445   1.722   1.328   3.224
 9182SOL    HW228446   1.794   1.209   3.138
 9183SOL     OW28447   6.037   2.694   6.079
 9183SOL    HW128448   5.939   2.674   6.071
 9183SOL    HW228449   6.087   2.643   6.010
 9184SOL     OW28450   3.793   3.311   1.284
 9184SOL    HW128451   3.835   3.400   1.303
 9184SOL    HW228452   3.760   3.310   1.189
 9185SOL     OW28453   0.756   0.374   6.276
 9185SOL    HW128454   0.792   0.287   6.242
 9185SOL    HW228455   0.825   0.445   6.268
 9186SOL     OW28456   5.365   0.698   6.164
 9186SOL    HW128457   5.290   0.736   6.219
 9186SOL    HW228458   5.379   0.602   6.191
 9187SOL     OW28459   5.109   1.694   0.437
 9187SOL    HW128460   5.070   1.693   0.345
 9187SOL    HW228461   5.069   1.620   0.492
 9188SOL     OW28462   0.821   0.142   2.205
 9188SOL    HW128463   0.903   0.177   2.160
 9188SOL    HW228464   0.743   0.150   2.143
 9189SOL     OW28465   3.375   1.552   3.686
 9189SOL    HW128466   3.346   1.488   3.758
 9189SOL    HW228467   3.313   1.631   3.686
 9190SOL     OW28468   6.072   3.779   5.506
 9190SOL    HW128469   5.980   3.794   5.470
 9190SOL    HW228470   6.095   3.852   5.570
 9191SOL     OW28471   5.040   6.207   6.408
 9191SOL    HW128472   5.063   6.298   6.442
 9191SOL    HW228473   5.088   6.138   6.462
 9192SOL     OW28474   6.853   4.292   5.635
 9192SOL    HW128475   6.771   4.322   5.684
 9192SOL    HW228476   6.826   4.252   5.547
 9193SOL     OW28477   3.518   3.013   3.535
 9193SOL    HW128478   3.569   3.096   3.513
 9193SOL    HW228479   3.512   3.002   3.634
 9194SOL     OW28480   2.846   5.032   2.945
 9194SOL    HW128481   2.846   4.932   2.941
 9194SOL    HW228482   2.923   5.064   3.000
 9195SOL     OW28483   0.502   3.093   3.169
 9195SOL    HW128484   0.419   3.117   3.219
 9195SOL    HW228485   0.496   2.999   3.137
 9196SOL     OW28486   4.827   0.403   3.514
 9196SOL    HW128487   4.739   0.435   3.548
 9196SOL    HW228488   4.848   0.314   3.554
 9197SOL     OW28489   3.374   2.944   6.238
 9197SOL    HW128490   3.426   2.862   6.261
 9197SOL    HW228491   3.278   2.920   6.224
 9198SOL     OW28492   5.642   2.992   5.524
 9198SOL    HW128493   5.623   2.944   5.439
 9198SOL    HW228494   5.739   2.982   5.548
 9199SOL     OW28495   1.490   4.226   6.410
 9199SOL    HW128496   1.459   4.210   6.316
 9199SOL    HW228497   1.488   4.140   6.462
 9200SOL     OW28498   6.279   0.158   0.681
 9200SOL    HW128499   6.273   0.163   0.781
 9200SOL    HW228500   6.359   0.208   0.650
 9201SOL     OW28501   0.351   3.788   2.238
 9201SOL    HW128502   0.429   3.735   2.273
 9201SOL    HW228503   0.334   3.866   2.298
 9202SOL     OW28504   3.159   5.534   4.359
 9202SOL    HW128505   3.138   5.560   4.453
 9202SOL    HW228506   3.111   5.596   4.296
 9203SOL     OW28507   5.096   1.198   5.784
 9203SOL    HW128508   5.098   1.283   5.731
 9203SOL    HW228509   5.008   1.152   5.769
 9204SOL     OW28510   5.090   4.135   3.036
 9204SOL    HW128511   5.009   4.096   2.994
 9204SOL    HW228512   5.070   4.157   3.132
 9205SOL     OW28513   5.364   2.585   2.677
 9205SOL    HW128514   5.333   2.536   2.758
 9205SOL    HW228515   5.321   2.676   2.674
 9206SOL     OW28516   0.969   6.243   3.263
 9206SOL    HW128517   1.024   6.237   3.346
 9206SOL    HW228518   0.874   6.220   3.283
 9207SOL     OW28519   4.071   6.210   0.211
 9207SOL    HW128520   4.168   6.199   0.229
 9207SOL    HW228521   4.022   6.221   0.297
 9208SOL     OW28522   5.308   3.570   2.000
 9208SOL    HW128523   5.378   3.534   1.939
 9208SOL    HW228524   5.288   3.503   2.072
 9209SOL     OW28525   4.342   1.170   2.762
 9209SOL    HW128526   4.303   1.120   2.839
 9209SOL    HW228527   4.328   1.117   2.678
 9210SOL     OW28528   1.725   7.020   1.301
 9210SOL    HW128529   1.691   0.040   1.216
 9210SOL    HW228530   1.684   0.047   1.379
 9211SOL     OW28531   5.101   1.447   6.431
 9211SOL    HW128532   5.201   1.454   6.434
 9211SOL    HW228533   5.061   1.532   6.464
 9212SOL     OW28534   5.545   3.860   4.285
 9212SOL    HW128535   5.549   3.802   4.204
 9212SOL    HW228536   5.456   3.850   4.330
 9213SOL     OW28537   5.854   6.829   3.549
 9213SOL    HW128538   5.940   6.828   3.600
 9213SOL    HW228539   5.797   6.905   3.582
 9214SOL     OW28540   2.233   2.074   4.348
 9214SOL    HW128541   2.184   2.081   4.435
 9214SOL    HW228542   2.330   2.055   4.366
 9215SOL     OW28543   0.329   4.007   2.826
 9215SOL    HW128544   0.275   4.092   2.823
 9215SOL    HW228545   0.426   4.029   2.816
 9216SOL     OW28546   2.199   5.783   4.835
 9216SOL    HW128547   2.181   5.718   4.761
 9216SOL    HW228548   2.120   5.787   4.896
 9217SOL     OW28549   4.337   0.896   6.380
 9217SOL    HW128550   4.310   0.965   6.447
 9217SOL    HW228551   4.386   0.822   6.426
 9218SOL     OW28552   6.171   5.789   5.969
 9218SOL    HW128553   6.168   5.711   6.033
 9218SOL    HW228554   6.246   5.850   5.994
 9219SOL     OW28555   3.553   3.217   5.132
 9219SOL    HW128556   3.632   3.242   5.188
 9219SOL    HW228557   3.585   3.174   5.048
 9220SOL     OW28558   1.720   6.124   3.297
 9220SOL    HW128559   1.810   6.145   3.259
 9220SOL    HW228560   1.653   6.120   3.223
 9221SOL     OW28561   2.462   0.989   6.509
 9221SOL    HW128562   2.495   1.042   6.587
 9221SOL    HW228563   2.376   1.027   6.477
 9222SOL     OW28564   1.366   3.820   3.338
 9222SOL    HW128565   1.457   3.784   3.357
 9222SOL    HW228566   1.302   3.789   3.409
 9223SOL     OW28567   1.017   3.931   4.180
 9223SOL    HW128568   1.058   3.982   4.103
 9223SOL    HW228569   1.090   3.898   4.240
 9224SOL     OW28570   2.124   4.110   3.923
 9224SOL    HW128571   2.038   4.161   3.928
 9224SOL    HW228572   2.194   4.168   3.882
 9225SOL     OW28573   4.612   6.963   6.774
 9225SOL    HW128574   4.519   6.930   6.792
 9225SOL    HW228575   4.634   6.950   6.678
 9226SOL     OW28576   0.593   0.809   0.695
 9226SOL    HW128577   0.672   0.756   0.665
 9226SOL    HW228578   0.513   0.781   0.643
 9227SOL     OW28579   2.320   5.293   0.632
 9227SOL    HW128580   2.258   5.369   0.653
 9227SOL    HW228581   2.306   5.264   0.537
 9228SOL     OW28582   3.189   2.908   5.812
 9228SOL    HW128583   3.281   2.940   5.833
 9228SOL    HW228584   3.165   2.832   5.872
 9229SOL     OW28585   6.881   4.676   6.874
 9229SOL    HW128586   6.911   4.619   6.798
 9229SOL    HW228587   6.939   4.757   6.880
 9230SOL     OW28588   4.873   1.658   4.068
 9230SOL    HW128589   4.799   1.661   4.000
 9230SOL    HW228590   4.843   1.702   4.152
 9231SOL     OW28591   0.643   5.287   4.720
 9231SOL    HW128592   0.652   5.349   4.798
 9231SOL    HW228593   0.719   5.222   4.721
 9232SOL     OW28594   1.242   5.255   1.561
 9232SOL    HW128595   1.223   5.265   1.463
 9232SOL    HW228596   1.287   5.337   1.596
 9233SOL     OW28597   0.949   0.259   0.084
 9233SOL    HW128598   0.859   0.234   0.120
 9233SOL    HW228599   1.015   0.264   0.160
 9234SOL     OW28600   2.085   4.784   0.947
 9234SOL    HW128601   2.006   4.809   0.892
 9234SOL    HW228602   2.127   4.701   0.910
 9235SOL     OW28603   2.603   2.532   4.273
 9235SOL    HW128604   2.539   2.467   4.313
 9235SOL    HW228605   2.556   2.590   4.207
 9236SOL     OW28606   2.140   3.727   6.306
 9236SOL    HW128607   2.146   3.827   6.311
 9236SOL    HW228608   2.071   3.695   6.370
 9237SOL     OW28609   6.370   5.116   3.593
 9237SOL    HW128610   6.433   5.038   3.595
 9237SOL    HW228611   6.416   5.195   3.551
 9238SOL     OW28612   1.814   3.256   5.416
 9238SOL    HW128613   1.900   3.298   5.390
 9238SOL    HW228614   1.830   3.186   5.486
 9239SOL     OW28615   0.790   4.851   0.069
 9239SOL    HW128616   0.735   4.773   0.039
 9239SOL    HW228617   0.774   4.868   0.166
 9240SOL     OW28618   4.527   2.496   2.758
 9240SOL    HW128619   4.487   2.570   2.703
 9240SOL    HW228620   4.478   2.487   2.844
 9241SOL     OW28621   5.728   6.733   0.842
 9241SOL    HW128622   5.715   6.713   0.939
 9241SOL    HW228623   5.709   6.650   0.789
 9242SOL     OW28624   1.367   2.081   1.299
 9242SOL    HW128625   1.389   2.141   1.222
 9242SOL    HW228626   1.272   2.050   1.290
 9243SOL     OW28627   1.150   0.391   0.761
 9243SOL    HW128628   1.089   0.467   0.738
 9243SOL    HW228629   1.108   0.335   0.832
 9244SOL     OW28630   4.451   6.505   4.818
 9244SOL    HW128631   4.391   6.463   4.749
 9244SOL    HW228632   4.417   6.596   4.840
 9245SOL     OW28633   0.869   4.618   2.934
 9245SOL    HW128634   0.773   4.646   2.931
 9245SOL    HW228635   0.898   4.611   3.030
 9246SOL     OW28636   6.991   0.864   4.611
 9246SOL    HW128637   6.985   0.892   4.707
 9246SOL    HW228638   0.065   0.878   4.579
 9247SOL     OW28639   4.046   5.915   3.152
 9247SOL    HW128640   4.125   5.976   3.157
 9247SOL    HW228641   4.064   5.832   3.204
 9248SOL     OW28642   2.681   0.822   5.251
 9248SOL    HW128643   2.620   0.831   5.330
 9248SOL    HW228644   2.630   0.844   5.168
 9249SOL     OW28645   3.626   5.043   1.893
 9249SOL    HW128646   3.596   5.040   1.797
 9249SOL    HW228647   3.588   4.965   1.942
 9250SOL     OW28648   0.366   3.023   3.923
 9250SOL    HW128649   0.445   3.059   3.972
 9250SOL    HW228650   0.282   3.055   3.966
 9251SOL     OW28651   3.176   2.826   0.792
 9251SOL    HW128652   3.153   2.730   0.778
 9251SOL    HW228653   3.238   2.834   0.870
 9252SOL     OW28654   5.357   0.329   5.396
 9252SOL    HW128655   5.260   0.346   5.416
 9252SOL    HW228656   5.413   0.394   5.448
 9253SOL     OW28657   1.345   4.763   5.139
 9253SOL    HW128658   1.353   4.744   5.237
 9253SOL    HW228659   1.416   4.828   5.112
 9254SOL     OW28660   6.470   4.999   3.226
 9254SOL    HW128661   6.558   5.030   3.261
 9254SOL    HW228662   6.407   5.076   3.219
 9255SOL     OW28663   6.562   4.817   0.483
 9255SOL    HW128664   6.495   4.743   0.480
 9255SOL    HW228665   6.651   4.783   0.451
 9256SOL     OW28666   1.954   6.427   1.877
 9256SOL    HW128667   1.898   6.440   1.959
 9256SOL    HW228668   1.986   6.333   1.872
 9257SOL     OW28669   0.429   5.116   4.135
 9257SOL    HW128670   0.357   5.048   4.150
 9257SOL    HW228671   0.391   5.208   4.146
 9258SOL     OW28672   3.428   4.567   0.670
 9258SOL    HW128673   3.485   4.486   0.678
 9258SOL    HW228674   3.469   4.631   0.605
 9259SOL     OW28675   2.314   2.229   6.729
 9259SOL    HW128676   2.378   2.252   6.803
 9259SOL    HW228677   2.342   2.276   6.645
 9260SOL     OW28678   5.558   3.060   4.886
 9260SOL    HW128679   5.593   3.153   4.893
 9260SOL    HW228680   5.466   3.055   4.926
 9261SOL     OW28681   4.120   2.213   1.813
 9261SOL    HW128682   4.048   2.168   1.866
 9261SOL    HW228683   4.089   2.228   1.720
 9262SOL     OW28684   6.124   6.380   3.632
 9262SOL    HW128685   6.163   6.387   3.724
 9262SOL    HW228686   6.029   6.350   3.638
 9263SOL     OW28687   2.130   3.501   3.681
 9263SOL    HW128688   2.105   3.522   3.775
 9263SOL    HW228689   2.176   3.412   3.677
 9264SOL     OW28690   4.806   4.218   6.881
 9264SOL    HW128691   4.878   4.277   6.919
 9264SOL    HW228692   4.819   4.209   6.782
 9265SOL     OW28693   4.914   1.994   0.283
 9265SOL    HW128694   5.007   1.999   0.247
 9265SOL    HW228695   4.858   1.937   0.224
 9266SOL     OW28696   6.988   4.167   1.189
 9266SOL    HW128697   0.068   4.162   1.188
 9266SOL    HW228698   6.958   4.206   1.276
 9267SOL     OW28699   0.554   0.952   4.056
 9267SOL    HW128700   0.644   0.918   4.030
 9267SOL    HW228701   0.564   1.019   4.130
 9268SOL     OW28702   0.710   6.408   1.946
 9268SOL    HW128703   0.706   6.354   2.030
 9268SOL    HW228704   0.618   6.439   1.922
 9269SOL     OW28705   4.123   0.249   0.537
 9269SOL    HW128706   4.049   0.280   0.597
 9269SOL    HW228707   4.093   0.168   0.486
 9270SOL     OW28708   2.562   0.797   5.578
 9270SOL    HW128709   2.467   0.805   5.549
 9270SOL    HW228710   2.613   0.878   5.549
 9271SOL     OW28711   1.170   0.220   5.948
 9271SOL    HW128712   1.219   0.150   6.000
 9271SOL    HW228713   1.130   0.178   5.866
 9272SOL     OW28714   6.966   6.456   5.938
 9272SOL    HW128715   6.935   6.364   5.912
 9272SOL    HW228716   6.886   6.514   5.953
 9273SOL     OW28717   4.843   5.216   4.344
 9273SOL    HW128718   4.932   5.259   4.332
 9273SOL    HW228719   4.773   5.271   4.299
 9274SOL     OW28720   0.768   3.199   0.370
 9274SOL    HW128721   0.779   3.279   0.311
 9274SOL    HW228722   0.858   3.161   0.391
 9275SOL     OW28723   0.943   6.335   1.134
 9275SOL    HW128724   0.880   6.349   1.210
 9275SOL    HW228725   1.034   6.314   1.171
 9276SOL     OW28726   3.079   4.832   0.132
 9276SOL    HW128727   3.122   4.857   0.219
 9276SOL    HW228728   3.012   4.902   0.107
 9277SOL     OW28729   4.935   4.994   2.277
 9277SOL    HW128730   4.927   4.900   2.311
 9277SOL    HW228731   4.978   5.051   2.347
 9278SOL     OW28732   0.610   0.771   4.433
 9278SOL    HW128733   0.572   0.746   4.522
 9278SOL    HW228734   0.564   0.720   4.361
 9279SOL     OW28735   4.114   5.485   1.549
 9279SOL    HW128736   4.190   5.510   1.608
 9279SOL    HW228737   4.130   5.520   1.457
 9280SOL     OW28738   1.644   1.294   2.731
 9280SOL    HW128739   1.664   1.198   2.709
 9280SOL    HW228740   1.709   1.326   2.799
 9281SOL     OW28741   3.017   4.573   0.190
 9281SOL    HW128742   3.029   4.671   0.172
 9281SOL    HW228743   3.103   4.534   0.224
 9282SOL     OW28744   3.377   0.093   4.909
 9282SOL    HW128745   3.439   0.077   4.832
 9282SOL    HW228746   3.298   0.146   4.878
 9283SOL     OW28747   4.099   6.222   6.950
 9283SOL    HW128748   4.011   6.180   6.929
 9283SOL    HW228749   4.110   6.228   0.029
 9284SOL     OW28750   3.163   4.191   5.227
 9284SOL    HW128751   3.132   4.282   5.255
 9284SOL    HW228752   3.241   4.200   5.165
 9285SOL     OW28753   6.865   3.833   2.453
 9285SOL    HW128754   6.945   3.810   2.398
 9285SOL    HW228755   6.894   3.869   2.542
 9286SOL     OW28756   4.776   5.654   1.620
 9286SOL    HW128757   4.849   5.642   1.552
 9286SOL    HW228758   4.731   5.567   1.636
 9287SOL     OW28759   3.198   4.664   6.440
 9287SOL    HW128760   3.257   4.679   6.360
 9287SOL    HW228761   3.137   4.742   6.451
 9288SOL     OW28762   4.177   1.786   3.405
 9288SOL    HW128763   4.211   1.846   3.332
 9288SOL    HW228764   4.209   1.693   3.390
 9289SOL     OW28765   4.817   6.570   6.968
 9289SOL    HW128766   4.768   6.490   7.002
 9289SOL    HW228767   4.763   6.652   6.984
 9290SOL     OW28768   5.750   0.533   4.872
 9290SOL    HW128769   5.767   0.508   4.967
 9290SOL    HW228770   5.655   0.513   4.848
 9291SOL     OW28771   1.407   5.372   5.603
 9291SOL    HW128772   1.348   5.365   5.684
 9291SOL    HW228773   1.420   5.281   5.564
 9292SOL     OW28774   1.590   1.733   6.110
 9292SOL    HW128775   1.593   1.814   6.169
 9292SOL    HW228776   1.636   1.753   6.023
 9293SOL     OW28777   4.810   2.919   6.040
 9293SOL    HW128778   4.860   2.840   6.075
 9293SOL    HW228779   4.875   2.988   6.007
 9294SOL     OW28780   4.547   1.696   0.309
 9294SOL    HW128781   4.565   1.598   0.321
 9294SOL    HW228782   4.583   1.746   0.388
 9295SOL     OW28783   0.730   1.415   5.275
 9295SOL    HW128784   0.760   1.330   5.231
 9295SOL    HW228785   0.674   1.393   5.355
 9296SOL     OW28786   2.496   4.546   0.502
 9296SOL    HW128787   2.438   4.562   0.581
 9296SOL    HW228788   2.571   4.485   0.528
 9297SOL     OW28789   5.997   6.695   2.814
 9297SOL    HW128790   6.019   6.760   2.742
 9297SOL    HW228791   6.072   6.629   2.824
 9298SOL     OW28792   1.497   6.317   5.876
 9298SOL    HW128793   1.453   6.397   5.916
 9298SOL    HW228794   1.541   6.263   5.948
 9299SOL     OW28795   2.321   2.572   4.791
 9299SOL    HW128796   2.300   2.474   4.801
 9299SOL    HW228797   2.402   2.583   4.735
 9300SOL     OW28798   1.723   6.216   5.751
 9300SOL    HW128799   1.709   6.182   5.658
 9300SOL    HW228800   1.643   6.267   5.781
 9301SOL     OW28801   0.398   3.833   4.858
 9301SOL    HW128802   0.429   3.912   4.910
 9301SOL    HW228803   0.436   3.749   4.898
 9302SOL     OW28804   2.136   3.441   4.691
 9302SOL    HW128805   2.143   3.533   4.654
 9302SOL    HW228806   2.136   3.375   4.616
 9303SOL     OW28807   2.529   4.692   1.064
 9303SOL    HW128808   2.529   4.655   0.971
 9303SOL    HW228809   2.434   4.707   1.093
 9304SOL     OW28810   5.142   5.129   0.247
 9304SOL    HW128811   5.224   5.183   0.262
 9304SOL    HW228812   5.102   5.105   0.336
 9305SOL     OW28813   2.917   1.631   1.442
 9305SOL    HW128814   2.854   1.697   1.400
 9305SOL    HW228815   2.893   1.618   1.538
 9306SOL     OW28816   0.456   4.973   4.983
 9306SOL    HW128817   0.389   4.903   5.007
 9306SOL    HW228818   0.410   5.051   4.940
 9307SOL     OW28819   2.811   2.838   1.598
 9307SOL    HW128820   2.729   2.831   1.655
 9307SOL    HW228821   2.891   2.815   1.652
 9308SOL     OW28822   1.817   4.149   1.527
 9308SOL    HW128823   1.797   4.071   1.586
 9308SOL    HW228824   1.889   4.205   1.568
 9309SOL     OW28825   4.401   5.637   5.304
 9309SOL    HW128826   4.427   5.668   5.396
 9309SOL    HW228827   4.465   5.675   5.237
 9310SOL     OW28828   4.821   6.110   6.243
 9310SOL    HW128829   4.904   6.134   6.295
 9310SOL    HW228830   4.804   6.012   6.251
 9311SOL     OW28831   4.863   3.430   1.904
 9311SOL    HW128832   4.812   3.457   1.823
 9311SOL    HW228833   4.863   3.330   1.912
 9312SOL     OW28834   0.756   2.384   0.987
 9312SOL    HW128835   0.706   2.467   1.012
 9312SOL    HW228836   0.854   2.405   0.980
 9313SOL     OW28837   0.898   0.049   1.896
 9313SOL    HW128838   0.957   0.108   1.950
 9313SOL    HW228839   0.911   6.974   1.925
 9314SOL     OW28840   4.825   2.944   0.333
 9314SOL    HW128841   4.747   2.987   0.379
 9314SOL    HW228842   4.849   2.859   0.380
 9315SOL     OW28843   5.796   0.966   6.650
 9315SOL    HW128844   5.882   0.990   6.605
 9315SOL    HW228845   5.720   0.986   6.588
 9316SOL     OW28846   3.968   1.250   5.375
 9316SOL    HW128847   3.956   1.333   5.320
 9316SOL    HW228848   4.062   1.243   5.406
 9317SOL     OW28849   3.798   5.952   3.303
 9317SOL    HW128850   3.788   5.874   3.364
 9317SOL    HW228851   3.877   5.939   3.244
 9318SOL     OW28852   4.791   5.761   1.098
 9318SOL    HW128853   4.740   5.822   1.158
 9318SOL    HW228854   4.729   5.720   1.031
 9319SOL     OW28855   2.314   4.541   0.745
 9319SOL    HW128856   2.286   4.538   0.840
 9319SOL    HW228857   2.239   4.509   0.687
 9320SOL     OW28858   6.216   6.584   6.361
 9320SOL    HW128859   6.259   6.523   6.294
 9320SOL    HW228860   6.239   6.554   6.454
 9321SOL     OW28861   0.318   3.365   4.966
 9321SOL    HW128862   0.338   3.462   4.980
 9321SOL    HW228863   0.384   3.326   4.901
 9322SOL     OW28864   5.805   4.268   5.810
 9322SOL    HW128865   5.868   4.199   5.846
 9322SOL    HW228866   5.853   4.356   5.805
 9323SOL     OW28867   1.536   3.011   3.466
 9323SOL    HW128868   1.448   3.053   3.449
 9323SOL    HW228869   1.531   2.913   3.443
 9324SOL     OW28870   0.593   3.914   1.483
 9324SOL    HW128871   0.622   4.009   1.472
 9324SOL    HW228872   0.507   3.911   1.533
 9325SOL     OW28873   1.371   5.152   2.400
 9325SOL    HW128874   1.371   5.233   2.458
 9325SOL    HW228875   1.342   5.073   2.453
 9326SOL     OW28876   4.141   4.107   0.518
 9326SOL    HW128877   4.167   4.201   0.543
 9326SOL    HW228878   4.174   4.044   0.588
 9327SOL     OW28879   4.340   0.830   3.407
 9327SOL    HW128880   4.302   0.753   3.458
 9327SOL    HW228881   4.402   0.882   3.466
 9328SOL     OW28882   2.780   6.175   4.413
 9328SOL    HW128883   2.783   6.117   4.332
 9328SOL    HW228884   2.778   6.117   4.495
 9329SOL     OW28885   0.348   5.754   6.473
 9329SOL    HW128886   0.278   5.727   6.538
 9329SOL    HW228887   0.351   5.853   6.465
 9330SOL     OW28888   5.974   6.206   6.330
 9330SOL    HW128889   5.910   6.258   6.273
 9330SOL    HW228890   6.005   6.125   6.279
 9331SOL     OW28891   1.483   3.393   4.700
 9331SOL    HW128892   1.428   3.448   4.762
 9331SOL    HW228893   1.574   3.379   4.738
 9332SOL     OW28894   4.687   5.358   0.934
 9332SOL    HW128895   4.697   5.280   0.873
 9332SOL    HW228896   4.750   5.430   0.908
 9333SOL     OW28897   3.561   5.086   0.431
 9333SOL    HW128898   3.652   5.051   0.408
 9333SOL    HW228899   3.510   5.017   0.482
 9334SOL     OW28900   5.092   6.433   5.621
 9334SOL    HW128901   5.050   6.355   5.667
 9334SOL    HW228902   5.076   6.515   5.676
 9335SOL     OW28903   2.110   2.379   1.157
 9335SOL    HW128904   2.176   2.333   1.097
 9335SOL    HW228905   2.116   2.478   1.143
 9336SOL     OW28906   6.764   1.122   5.169
 9336SOL    HW128907   6.675   1.134   5.211
 9336SOL    HW228908   6.817   1.055   5.221
 9337SOL     OW28909   3.623   0.271   6.128
 9337SOL    HW128910   3.652   0.181   6.092
 9337SOL    HW228911   3.649   0.277   6.224
 9338SOL     OW28912   6.312   6.064   0.109
 9338SOL    HW128913   6.395   6.079   0.055
 9338SOL    HW228914   6.232   6.083   0.052
 9339SOL     OW28915   6.167   4.727   5.423
 9339SOL    HW128916   6.251   4.686   5.458
 9339SOL    HW228917   6.185   4.769   5.334
 9340SOL     OW28918   3.739   6.055   2.522
 9340SOL    HW128919   3.685   6.040   2.439
 9340SOL    HW228920   3.836   6.042   2.502
 9341SOL     OW28921   5.551   4.169   6.910
 9341SOL    HW128922   5.472   4.212   6.865
 9341SOL    HW228923   5.628   4.166   6.846
 9342SOL     OW28924   2.566   7.013   4.071
 9342SOL    HW128925   2.558   0.087   4.102
 9342SOL    HW228926   2.623   6.961   4.134
 9343SOL     OW28927   4.767   4.284   1.965
 9343SOL    HW128928   4.669   4.295   1.979
 9343SOL    HW228929   4.817   4.348   2.023
 9344SOL     OW28930   6.064   5.522   5.082
 9344SOL    HW128931   6.061   5.580   5.000
 9344SOL    HW228932   6.067   5.426   5.055
 9345SOL     OW28933   0.125   6.402   0.425
 9345SOL    HW128934   0.061   6.325   0.434
 9345SOL    HW228935   0.175   6.394   0.340
 9346SOL     OW28936   5.594   6.843   1.827
 9346SOL    HW128937   5.627   6.751   1.807
 9346SOL    HW228938   5.519   6.838   1.892
 9347SOL     OW28939   4.440   5.780   0.431
 9347SOL    HW128940   4.436   5.787   0.331
 9347SOL    HW228941   4.532   5.754   0.459
 9348SOL     OW28942   2.163   5.968   1.912
 9348SOL    HW128943   2.229   5.978   1.987
 9348SOL    HW228944   2.156   5.871   1.887
 9349SOL     OW28945   6.284   4.896   1.500
 9349SOL    HW128946   6.210   4.958   1.528
 9349SOL    HW228947   6.270   4.806   1.543
 9350SOL     OW28948   0.041   1.205   5.095
 9350SOL    HW128949   6.972   1.164   5.111
 9350SOL    HW228950   0.091   1.153   5.026
 9351SOL     OW28951   2.692   1.238   5.739
 9351SOL    HW128952   2.611   1.271   5.788
 9351SOL    HW228953   2.760   1.206   5.805
 9352SOL     OW28954   2.992   2.436   6.096
 9352SOL    HW128955   2.996   2.347   6.052
 9352SOL    HW228956   2.920   2.491   6.054
 9353SOL     OW28957   0.952   3.873   1.348
 9353SOL    HW128958   0.956   3.970   1.370
 9353SOL    HW228959   1.037   3.844   1.305
 9354SOL     OW28960   5.707   1.906   1.382
 9354SOL    HW128961   5.771   1.981   1.367
 9354SOL    HW228962   5.613   1.939   1.368
 9355SOL     OW28963   6.647   0.053   3.447
 9355SOL    HW128964   6.591   6.991   3.460
 9355SOL    HW228965   6.742   0.027   3.431
 9356SOL     OW28966   4.363   5.231   2.223
 9356SOL    HW128967   4.405   5.319   2.201
 9356SOL    HW228968   4.405   5.194   2.306
 9357SOL     OW28969   3.016   3.198   0.910
 9357SOL    HW128970   2.937   3.155   0.953
 9357SOL    HW228971   3.051   3.138   0.838
 9358SOL     OW28972   6.157   4.337   2.101
 9358SOL    HW128973   6.206   4.372   2.181
 9358SOL    HW228974   6.218   4.339   2.022
 9359SOL     OW28975   6.992   4.211   6.441
 9359SOL    HW128976   0.061   4.251   6.465
 9359SOL    HW228977   6.988   4.117   6.472
 9360SOL     OW28978   2.257   0.778   6.085
 9360SOL    HW128979   2.263   0.738   6.176
 9360SOL    HW228980   2.273   0.707   6.016
 9361SOL     OW28981   3.022   6.331   2.261
 9361SOL    HW128982   3.046   6.257   2.199
 9361SOL    HW228983   3.008   6.294   2.353
 9362SOL     OW28984   2.431   1.333   2.065
 9362SOL    HW128985   2.409   1.236   2.064
 9362SOL    HW228986   2.347   1.386   2.072
 9363SOL     OW28987   3.192   6.009   2.837
 9363SOL    HW128988   3.238   6.048   2.757
 9363SOL    HW228989   3.258   5.959   2.892
 9364SOL     OW28990   4.312   3.177   6.357
 9364SOL    HW128991   4.242   3.113   6.324
 9364SOL    HW228992   4.402   3.133   6.355
 9365SOL     OW28993   2.798   1.755   4.912
 9365SOL    HW128994   2.848   1.672   4.936
 9365SOL    HW228995   2.739   1.737   4.833
 9366SOL     OW28996   3.595   1.925   0.472
 9366SOL    HW128997   3.562   1.834   0.450
 9366SOL    HW228998   3.670   1.918   0.539
 9367SOL     OW28999   6.773   6.031   3.364
 9367SOL    HW129000   6.817   6.047   3.276
 9367SOL    HW229001   6.843   6.024   3.436
 9368SOL     OW29002   3.256   2.108   1.781
 9368SOL    HW129003   3.320   2.181   1.755
 9368SOL    HW229004   3.188   2.097   1.709
 9369SOL     OW29005   6.583   1.673   5.648
 9369SOL    HW129006   6.558   1.604   5.716
 9369SOL    HW229007   6.661   1.640   5.594
 9370SOL     OW29008   5.964   1.013   2.785
 9370SOL    HW129009   6.000   1.077   2.852
 9370SOL    HW229010   5.869   0.990   2.808
 9371SOL     OW29011   1.097   5.572   0.275
 9371SOL    HW129012   1.016   5.589   0.219
 9371SOL    HW229013   1.078   5.498   0.340
 9372SOL     OW29014   5.754   6.734   3.304
 9372SOL    HW129015   5.655   6.746   3.294
 9372SOL    HW229016   5.783   6.773   3.392
 9373SOL     OW29017   4.283   1.388   3.435
 9373SOL    HW129018   4.353   1.458   3.450
 9373SOL    HW229019   4.324   1.297   3.446
 9374SOL     OW29020   5.701   2.677   0.091
 9374SOL    HW129021   5.627   2.620   0.129
 9374SOL    HW229022   5.735   2.738   0.162
 9375SOL     OW29023   6.735   0.955   2.901
 9375SOL    HW129024   6.638   0.959   2.925
 9375SOL    HW229025   6.746   0.921   2.808
 9376SOL     OW29026   3.038   3.445   0.563
 9376SOL    HW129027   2.955   3.422   0.513
 9376SOL    HW229028   3.021   3.437   0.661
 9377SOL     OW29029   6.397   5.530   4.011
 9377SOL    HW129030   6.319   5.519   3.950
 9377SOL    HW229031   6.482   5.510   3.962
 9378SOL     OW29032   2.971   6.951   6.889
 9378SOL    HW129033   2.892   7.009   6.908
 9378SOL    HW229034   2.956   6.901   6.804
 9379SOL     OW29035   4.565   4.594   3.811
 9379SOL    HW129036   4.658   4.613   3.844
 9379SOL    HW229037   4.519   4.532   3.874
 9380SOL     OW29038   6.603   6.617   5.639
 9380SOL    HW129039   6.584   6.672   5.558
 9380SOL    HW229040   6.604   6.520   5.614
 9381SOL     OW29041   2.610   2.840   5.381
 9381SOL    HW129042   2.558   2.755   5.387
 9381SOL    HW229043   2.576   2.894   5.304
 9382SOL     OW29044   4.184   0.684   3.054
 9382SOL    HW129045   4.163   0.760   3.117
 9382SOL    HW229046   4.282   0.682   3.036
 9383SOL     OW29047   3.286   6.894   4.618
 9383SOL    HW129048   3.211   6.890   4.685
 9383SOL    HW229049   3.249   6.880   4.526
 9384SOL     OW29050   4.709   6.148   2.319
 9384SOL    HW129051   4.655   6.199   2.386
 9384SOL    HW229052   4.658   6.066   2.292
 9385SOL     OW29053   3.902   1.438   3.133
 9385SOL    HW129054   3.812   1.482   3.131
 9385SOL    HW229055   3.897   1.357   3.192
 9386SOL     OW29056   3.564   6.528   5.014
 9386SOL    HW129057   3.472   6.569   5.015
 9386SOL    HW229058   3.604   6.540   4.923
 9387SOL     OW29059   3.281   6.429   1.282
 9387SOL    HW129060   3.302   6.526   1.268
 9387SOL    HW229061   3.285   6.408   1.380
 9388SOL     OW29062   0.920   6.393   2.826
 9388SOL    HW129063   1.001   6.359   2.779
 9388SOL    HW229064   0.853   6.425   2.759
 9389SOL     OW29065   2.565   0.530   5.223
 9389SOL    HW129066   2.614   0.582   5.293
 9389SOL    HW229067   2.621   0.523   5.141
 9390SOL     OW29068   4.530   6.057   3.233
 9390SOL    HW129069   4.566   5.992   3.166
 9390SOL    HW229070   4.556   6.027   3.325
 9391SOL     OW29071   1.766   1.116   5.501
 9391SOL    HW129072   1.838   1.074   5.556
 9391SOL    HW229073   1.772   1.083   5.407
 9392SOL     OW29074   0.559   6.485   5.299
 9392SOL    HW129075   0.488   6.471   5.230
 9392SOL    HW229076   0.641   6.522   5.256
 9393SOL     OW29077   3.787   1.821   5.031
 9393SOL    HW129078   3.703   1.875   5.026
 9393SOL    HW229079   3.839   1.848   5.112
 9394SOL     OW29080   6.273   2.645   3.306
 9394SOL    HW129081   6.214   2.690   3.239
 9394SOL    HW229082   6.356   2.700   3.318
 9395SOL     OW29083   2.896   2.454   0.439
 9395SOL    HW129084   2.978   2.495   0.401
 9395SOL    HW229085   2.914   2.360   0.466
 9396SOL     OW29086   6.988   6.640   4.801
 9396SOL    HW129087   0.058   6.676   4.776
 9396SOL    HW229088   6.990   6.608   4.895
 9397SOL     OW29089   2.102   0.400   0.481
 9397SOL    HW129090   2.179   0.462   0.497
 9397SOL    HW229091   2.133   0.305   0.486
 9398SOL     OW29092   2.369   1.165   6.898
 9398SOL    HW129093   2.437   1.094   6.917
 9398SOL    HW229094   2.395   1.249   6.946
 9399SOL     OW29095   6.584   2.217   6.691
 9399SOL    HW129096   6.604   2.266   6.776
 9399SOL    HW229097   6.669   2.189   6.648
 9400SOL     OW29098   5.350   3.438   1.630
 9400SOL    HW129099   5.342   3.535   1.650
 9400SOL    HW229100   5.272   3.389   1.671
 9401SOL     OW29101   2.161   6.419   3.653
 9401SOL    HW129102   2.210   6.332   3.650
 9401SOL    HW229103   2.219   6.490   3.613
 9402SOL     OW29104   2.139   5.043   6.469
 9402SOL    HW129105   2.121   5.004   6.559
 9402SOL    HW229106   2.100   4.982   6.399
 9403SOL     OW29107   4.991   1.546   3.235
 9403SOL    HW129108   5.030   1.621   3.289
 9403SOL    HW229109   4.895   1.533   3.260
 9404SOL     OW29110   0.414   4.857   6.505
 9404SOL    HW129111   0.477   4.780   6.508
 9404SOL    HW229112   0.393   4.879   6.409
 9405SOL     OW29113   5.950   6.792   1.630
 9405SOL    HW129114   5.907   6.874   1.667
 9405SOL    HW229115   5.898   6.760   1.551
 9406SOL     OW29116   0.190   2.203   5.330
 9406SOL    HW129117   0.251   2.194   5.251
 9406SOL    HW229118   0.102   2.238   5.300
 9407SOL     OW29119   3.211   6.825   3.118
 9407SOL    HW129120   3.123   6.845   3.159
 9407SOL    HW229121   3.198   6.798   3.023
 9408SOL     OW29122   3.929   1.182   6.201
 9408SOL    HW129123   3.962   1.259   6.146
 9408SOL    HW229124   3.834   1.163   6.178
 9409SOL     OW29125   4.819   4.186   4.332
 9409SOL    HW129126   4.847   4.212   4.424
 9409SOL    HW229127   4.824   4.087   4.322
 9410SOL     OW29128   3.547   6.291   2.104
 9410SOL    HW129129   3.498   6.378   2.111
 9410SOL    HW229130   3.565   6.255   2.195
 9411SOL     OW29131   3.749   4.994   1.090
 9411SOL    HW129132   3.708   5.084   1.098
 9411SOL    HW229133   3.821   4.983   1.159
 9412SOL     OW29134   0.757   2.987   1.677
 9412SOL    HW129135   0.831   2.939   1.631
 9412SOL    HW229136   0.793   3.069   1.722
 9413SOL     OW29137   3.996   5.988   5.277
 9413SOL    HW129138   3.985   5.925   5.200
 9413SOL    HW229139   3.985   5.939   5.363
 9414SOL     OW29140   2.953   1.550   2.652
 9414SOL    HW129141   3.008   1.627   2.684
 9414SOL    HW229142   2.859   1.561   2.682
 9415SOL     OW29143   1.583   6.760   2.638
 9415SOL    HW129144   1.502   6.705   2.621
 9415SOL    HW229145   1.580   6.799   2.730
 9416SOL     OW29146   0.707   1.313   1.446
 9416SOL    HW129147   0.780   1.337   1.383
 9416SOL    HW229148   0.719   1.364   1.532
 9417SOL     OW29149   3.161   6.860   5.402
 9417SOL    HW129150   3.197   6.900   5.317
 9417SOL    HW229151   3.170   6.926   5.476
 9418SOL     OW29152   2.227   5.591   0.977
 9418SOL    HW129153   2.192   5.628   1.063
 9418SOL    HW229154   2.194   5.647   0.901
 9419SOL     OW29155   3.388   6.717   5.226
 9419SOL    HW129156   3.400   6.652   5.301
 9419SOL    HW229157   3.476   6.758   5.203
 9420SOL     OW29158   0.199   1.634   4.877
 9420SOL    HW129159   0.259   1.569   4.831
 9420SOL    HW229160   0.148   1.587   4.950
 9421SOL     OW29161   2.378   5.462   5.212
 9421SOL    HW129162   2.449   5.500   5.154
 9421SOL    HW229163   2.337   5.382   5.167
 9422SOL     OW29164   5.483   0.060   2.358
 9422SOL    HW129165   5.423   7.010   2.397
 9422SOL    HW229166   5.478   0.142   2.415
 9423SOL     OW29167   4.541   0.337   3.029
 9423SOL    HW129168   4.562   0.390   2.946
 9423SOL    HW229169   4.626   0.300   3.067
 9424SOL     OW29170   5.173   0.613   5.711
 9424SOL    HW129171   5.084   0.570   5.703
 9424SOL    HW229172   5.162   0.712   5.722
 9425SOL     OW29173   0.429   3.162   5.805
 9425SOL    HW129174   0.335   3.158   5.841
 9425SOL    HW229175   0.450   3.077   5.758
 9426SOL     OW29176   2.867   1.603   0.585
 9426SOL    HW129177   2.856   1.529   0.652
 9426SOL    HW229178   2.787   1.606   0.525
 9427SOL     OW29179   3.062   4.776   5.259
 9427SOL    HW129180   3.014   4.693   5.228
 9427SOL    HW229181   3.002   4.828   5.320
 9428SOL     OW29182   5.799   0.024   2.717
 9428SOL    HW129183   5.747   6.997   2.787
 9428SOL    HW229184   5.765   0.118   2.707
 9429SOL     OW29185   1.554   3.979   2.126
 9429SOL    HW129186   1.592   3.887   2.120
 9429SOL    HW229187   1.626   4.043   2.155
 9430SOL     OW29188   6.528   6.754   2.304
 9430SOL    HW129189   6.524   6.654   2.309
 9430SOL    HW229190   6.467   6.786   2.232
 9431SOL     OW29191   6.163   4.186   0.184
 9431SOL    HW129192   6.136   4.095   0.152
 9431SOL    HW229193   6.209   4.235   0.110
 9432SOL     OW29194   6.122   0.128   3.992
 9432SOL    HW129195   6.195   0.079   4.039
 9432SOL    HW229196   6.092   0.204   4.049
 9433SOL     OW29197   3.558   4.989   4.665
 9433SOL    HW129198   3.564   4.979   4.566
 9433SOL    HW229199   3.465   5.014   4.691
 9434SOL     OW29200   5.338   4.403   3.425
 9434SOL    HW129201   5.397   4.479   3.399
 9434SOL    HW229202   5.242   4.429   3.411
 9435SOL     OW29203   1.530   1.269   4.484
 9435SOL    HW129204   1.517   1.205   4.407
 9435SOL    HW229205   1.448   1.325   4.495
 9436SOL     OW29206   1.132   3.533   1.313
 9436SOL    HW129207   1.164   3.627   1.305
 9436SOL    HW229208   1.176   3.489   1.391
 9437SOL     OW29209   1.237   5.836   2.885
 9437SOL    HW129210   1.273   5.879   2.967
 9437SOL    HW229211   1.260   5.892   2.805
 9438SOL     OW29212   1.021   6.142   1.467
 9438SOL    HW129213   0.989   6.056   1.426
 9438SOL    HW229214   1.041   6.208   1.395
 9439SOL     OW29215   6.579   3.011   2.416
 9439SOL    HW129216   6.503   3.073   2.400
 9439SOL    HW229217   6.585   2.946   2.340
 9440SOL     OW29218   4.836   5.944   5.163
 9440SOL    HW129219   4.856   5.890   5.245
 9440SOL    HW229220   4.737   5.951   5.150
 9441SOL     OW29221   1.082   5.237   5.534
 9441SOL    HW129222   1.095   5.257   5.437
 9441SOL    HW229223   1.151   5.286   5.588
 9442SOL     OW29224   6.431   1.829   0.064
 9442SOL    HW129225   6.354   1.810   0.125
 9442SOL    HW229226   6.440   1.927   0.050
 9443SOL     OW29227   2.270   4.232   1.573
 9443SOL    HW129228   2.245   4.248   1.669
 9443SOL    HW229229   2.216   4.292   1.514
 9444SOL     OW29230   0.399   3.221   0.015
 9444SOL    HW129231   0.367   3.126   0.017
 9444SOL    HW229232   0.434   3.246   0.105
 9445SOL     OW29233   5.215   3.367   2.137
 9445SOL    HW129234   5.126   3.321   2.137
 9445SOL    HW229235   5.273   3.327   2.208
 9446SOL     OW29236   6.639   6.781   2.942
 9446SOL    HW129237   6.584   6.724   2.880
 9446SOL    HW229238   6.579   6.830   3.005
 9447SOL     OW29239   5.602   3.406   2.777
 9447SOL    HW129240   5.662   3.429   2.854
 9447SOL    HW229241   5.617   3.311   2.751
 9448SOL     OW29242   5.305   6.089   6.213
 9448SOL    HW129243   5.276   6.035   6.292
 9448SOL    HW229244   5.364   6.034   6.154
 9449SOL     OW29245   6.750   5.210   5.302
 9449SOL    HW129246   6.662   5.232   5.343
 9449SOL    HW229247   6.743   5.124   5.252
 9450SOL     OW29248   2.714   5.146   4.794
 9450SOL    HW129249   2.800   5.100   4.769
 9450SOL    HW229250   2.712   5.160   4.893
 9451SOL     OW29251   4.715   5.871   6.272
 9451SOL    HW129252   4.627   5.897   6.312
 9451SOL    HW229253   4.707   5.872   6.172
 9452SOL     OW29254   2.130   3.241   0.619
 9452SOL    HW129255   2.104   3.280   0.708
 9452SOL    HW229256   2.120   3.311   0.548
 9453SOL     OW29257   1.792   3.996   2.884
 9453SOL    HW129258   1.791   3.902   2.918
 9453SOL    HW229259   1.701   4.036   2.895
 9454SOL     OW29260   1.154   3.616   6.025
 9454SOL    HW129261   1.219   3.604   6.100
 9454SOL    HW229262   1.125   3.712   6.021
 9455SOL     OW29263   3.404   1.382   2.719
 9455SOL    HW129264   3.477   1.447   2.694
 9455SOL    HW229265   3.399   1.374   2.818
 9456SOL     OW29266   0.070   4.340   0.960
 9456SOL    HW129267   0.161   4.304   0.983
 9456SOL    HW229268   0.005   4.312   1.031
 9457SOL     OW29269   1.696   3.913   6.374
 9457SOL    HW129270   1.694   3.829   6.429
 9457SOL    HW229271   1.602   3.941   6.353
 9458SOL     OW29272   0.376   4.876   6.238
 9458SOL    HW129273   0.453   4.915   6.188
 9458SOL    HW229274   0.345   4.793   6.191
 9459SOL     OW29275   6.438   5.247   1.961
 9459SOL    HW129276   6.443   5.155   1.922
 9459SOL    HW229277   6.526   5.272   2.001
 9460SOL     OW29278   7.020   2.405   5.259
 9460SOL    HW129279   6.940   2.347   5.276
 9460SOL    HW229280   6.997   2.501   5.278
 9461SOL     OW29281   6.577   1.528   3.264
 9461SOL    HW129282   6.550   1.446   3.315
 9461SOL    HW229283   6.495   1.573   3.227
 9462SOL     OW29284   1.554   3.435   3.076
 9462SOL    HW129285   1.547   3.341   3.107
 9462SOL    HW229286   1.547   3.497   3.154
 9463SOL     OW29287   0.060   0.528   0.912
 9463SOL    HW129288   0.052   0.610   0.968
 9463SOL    HW229289   7.011   0.462   0.939
 9464SOL     OW29290   5.322   6.709   6.422
 9464SOL    HW129291   5.333   6.744   6.515
 9464SOL    HW229292   5.267   6.625   6.425
 9465SOL     OW29293   0.247   0.486   3.138
 9465SOL    HW129294   0.272   0.548   3.213
 9465SOL    HW229295   0.272   0.528   3.051
 9466SOL     OW29296   2.885   3.226   5.599
 9466SOL    HW129297   2.792   3.218   5.636
 9466SOL    HW229298   2.895   3.163   5.522
 9467SOL     OW29299   1.601   2.570   1.544
 9467SOL    HW129300   1.633   2.485   1.585
 9467SOL    HW229301   1.678   2.633   1.534
 9468SOL     OW29302   5.651   2.933   5.976
 9468SOL    HW129303   5.672   2.864   6.046
 9468SOL    HW229304   5.718   2.926   5.902
 9469SOL     OW29305   6.224   5.463   2.117
 9469SOL    HW129306   6.151   5.407   2.079
 9469SOL    HW229307   6.247   5.430   2.209
 9470SOL     OW29308   4.943   2.836   6.656
 9470SOL    HW129309   4.883   2.767   6.699
 9470SOL    HW229310   5.008   2.790   6.597
 9471SOL     OW29311   6.614   2.606   5.400
 9471SOL    HW129312   6.534   2.637   5.452
 9471SOL    HW229313   6.598   2.623   5.302
 9472SOL     OW29314   6.445   3.858   4.589
 9472SOL    HW129315   6.541   3.854   4.617
 9472SOL    HW229316   6.393   3.787   4.635
 9473SOL     OW29317   3.826   6.834   5.296
 9473SOL    HW129318   3.763   6.874   5.229
 9473SOL    HW229319   3.804   6.737   5.309
 9474SOL     OW29320   5.894   4.579   1.824
 9474SOL    HW129321   5.806   4.591   1.871
 9474SOL    HW229322   5.880   4.529   1.739
 9475SOL     OW29323   3.431   3.381   0.998
 9475SOL    HW129324   3.383   3.295   1.014
 9475SOL    HW229325   3.385   3.455   1.046
 9476SOL     OW29326   3.171   3.146   4.568
 9476SOL    HW129327   3.103   3.215   4.543
 9476SOL    HW229328   3.154   3.115   4.662
 9477SOL     OW29329   0.831   3.261   1.371
 9477SOL    HW129330   0.808   3.253   1.468
 9477SOL    HW229331   0.865   3.353   1.352
 9478SOL     OW29332   5.446   3.666   5.914
 9478SOL    HW129333   5.404   3.709   5.993
 9478SOL    HW229334   5.459   3.568   5.931
 9479SOL     OW29335   5.984   5.994   6.157
 9479SOL    HW129336   5.919   5.932   6.112
 9479SOL    HW229337   6.055   6.021   6.091
 9480SOL     OW29338   4.208   4.402   6.825
 9480SOL    HW129339   4.192   4.494   6.789
 9480SOL    HW229340   4.283   4.360   6.773
 9481SOL     OW29341   6.484   3.521   1.599
 9481SOL    HW129342   6.528   3.499   1.686
 9481SOL    HW229343   6.503   3.617   1.576
 9482SOL     OW29344   5.675   0.961   2.908
 9482SOL    HW129345   5.684   1.060   2.911
 9482SOL    HW229346   5.631   0.929   2.992
 9483SOL     OW29347   2.024   1.769   0.788
 9483SOL    HW129348   1.946   1.823   0.821
 9483SOL    HW229349   1.992   1.680   0.758
 9484SOL     OW29350   5.926   1.688   3.536
 9484SOL    HW129351   5.894   1.779   3.510
 9484SOL    HW229352   5.898   1.668   3.630
 9485SOL     OW29353   1.352   0.384   1.591
 9485SOL    HW129354   1.280   0.324   1.557
 9485SOL    HW229355   1.425   0.391   1.523
 9486SOL     OW29356   2.051   5.165   0.976
 9486SOL    HW129357   1.963   5.127   0.948
 9486SOL    HW229358   2.056   5.167   1.076
 9487SOL     OW29359   2.908   3.765   3.192
 9487SOL    HW129360   2.895   3.747   3.094
 9487SOL    HW229361   2.947   3.856   3.205
 9488SOL     OW29362   2.254   6.081   1.046
 9488SOL    HW129363   2.189   6.156   1.032
 9488SOL    HW229364   2.221   6.021   1.118
 9489SOL     OW29365   3.413   4.264   0.890
 9489SOL    HW129366   3.479   4.304   0.826
 9489SOL    HW229367   3.432   4.167   0.901
 9490SOL     OW29368   5.815   0.111   1.075
 9490SOL    HW129369   5.875   0.184   1.106
 9490SOL    HW229370   5.720   0.143   1.077
 9491SOL     OW29371   6.847   4.900   4.744
 9491SOL    HW129372   6.818   4.995   4.754
 9491SOL    HW229373   6.872   4.882   4.648
 9492SOL     OW29374   3.315   3.508   2.487
 9492SOL    HW129375   3.403   3.493   2.531
 9492SOL    HW229376   3.329   3.559   2.402
 9493SOL     OW29377   5.131   5.141   3.860
 9493SOL    HW129378   5.096   5.099   3.777
 9493SOL    HW229379   5.062   5.135   3.932
 9494SOL     OW29380   5.345   4.369   0.750
 9494SOL    HW129381   5.414   4.382   0.821
 9494SOL    HW229382   5.329   4.272   0.736
 9495SOL     OW29383   6.482   2.407   3.974
 9495SOL    HW129384   6.567   2.390   3.925
 9495SOL    HW229385   6.450   2.322   4.016
 9496SOL     OW29386   5.207   4.422   6.627
 9496SOL    HW129387   5.171   4.367   6.552
 9496SOL    HW229388   5.134   4.442   6.692
 9497SOL     OW29389   3.967   4.048   0.861
 9497SOL    HW129390   3.957   4.082   0.767
 9497SOL    HW229391   4.010   3.958   0.859
 9498SOL     OW29392   5.239   0.333   6.034
 9498SOL    HW129393   5.312   0.370   6.092
 9498SOL    HW229394   5.206   0.248   6.074
 9499SOL     OW29395   2.145   4.091   5.512
 9499SOL    HW129396   2.204   4.124   5.438
 9499SOL    HW229397   2.174   3.998   5.538
 9500SOL     OW29398   3.159   6.633   1.760
 9500SOL    HW129399   3.220   6.554   1.758
 9500SOL    HW229400   3.191   6.701   1.694
 9501SOL     OW29401   3.395   1.785   4.770
 9501SOL    HW129402   3.420   1.882   4.776
 9501SOL    HW229403   3.458   1.731   4.827
 9502SOL     OW29404   6.924   2.352   4.998
 9502SOL    HW129405   6.974   2.365   4.912
 9502SOL    HW229406   6.981   2.384   5.074
 9503SOL     OW29407   0.076   1.026   1.225
 9503SOL    HW129408   0.174   1.021   1.241
 9503SOL    HW229409   0.052   1.112   1.181
 9504SOL     OW29410   6.648   2.758   1.014
 9504SOL    HW129411   6.699   2.678   1.047
 9504SOL    HW229412   6.550   2.739   1.017
 9505SOL     OW29413   5.718   4.165   3.801
 9505SOL    HW129414   5.741   4.110   3.721
 9505SOL    HW229415   5.707   4.105   3.880
 9506SOL     OW29416   0.127   3.168   6.996
 9506SOL    HW129417   0.072   3.221   6.932
 9506SOL    HW229418   0.210   3.219   7.019
 9507SOL     OW29419   2.350   1.148   4.109
 9507SOL    HW129420   2.426   1.213   4.111
 9507SOL    HW229421   2.381   1.062   4.069
 9508SOL     OW29422   5.490   2.538   0.204
 9508SOL    HW129423   5.480   2.526   0.303
 9508SOL    HW229424   5.442   2.465   0.156
 9509SOL     OW29425   1.528   6.785   5.419
 9509SOL    HW129426   1.458   6.756   5.353
 9509SOL    HW229427   1.484   6.817   5.503
 9510SOL     OW29428   0.410   3.934   1.859
 9510SOL    HW129429   0.470   3.884   1.920
 9510SOL    HW229430   0.453   4.021   1.833
 9511SOL     OW29431   0.659   2.138   0.166
 9511SOL    HW129432   0.579   2.122   0.223
 9511SOL    HW229433   0.653   2.083   0.083
 9512SOL     OW29434   6.271   1.958   3.876
 9512SOL    HW129435   6.362   1.980   3.841
 9512SOL    HW229436   6.204   2.019   3.834
 9513SOL     OW29437   1.764   3.425   4.752
 9513SOL    HW129438   1.785   3.519   4.726
 9513SOL    HW229439   1.841   3.387   4.803
 9514SOL     OW29440   1.624   3.791   6.739
 9514SOL    HW129441   1.672   3.856   6.797
 9514SOL    HW229442   1.563   3.734   6.794
 9515SOL     OW29443   1.122   6.008   0.033
 9515SOL    HW129444   1.082   6.074   6.990
 9515SOL    HW229445   1.217   5.991   0.008
 9516SOL     OW29446   5.043   3.246   4.162
 9516SOL    HW129447   5.005   3.291   4.243
 9516SOL    HW229448   4.969   3.219   4.101
 9517SOL     OW29449   1.446   5.012   0.907
 9517SOL    HW129450   1.424   5.104   0.873
 9517SOL    HW229451   1.515   4.970   0.848
 9518SOL     OW29452   1.817   2.261   6.536
 9518SOL    HW129453   1.809   2.356   6.566
 9518SOL    HW229454   1.794   2.254   6.439
 9519SOL     OW29455   3.119   3.120   2.996
 9519SOL    HW129456   3.160   3.080   2.914
 9519SOL    HW229457   3.028   3.154   2.973
 9520SOL     OW29458   6.785   1.002   4.254
 9520SOL    HW129459   6.815   1.042   4.340
 9520SOL    HW229460   6.801   1.066   4.179
 9521SOL     OW29461   3.048   4.946   1.552
 9521SOL    HW129462   2.948   4.935   1.557
 9521SOL    HW229463   3.083   4.972   1.642
 9522SOL     OW29464   4.359   5.277   2.576
 9522SOL    HW129465   4.282   5.318   2.527
 9522SOL    HW229466   4.443   5.291   2.523
 9523SOL     OW29467   2.307   5.461   4.910
 9523SOL    HW129468   2.314   5.367   4.876
 9523SOL    HW229469   2.244   5.513   4.852
 9524SOL     OW29470   1.883   3.229   1.639
 9524SOL    HW129471   1.926   3.206   1.552
 9524SOL    HW229472   1.922   3.315   1.673
 9525SOL     OW29473   1.894   1.610   5.769
 9525SOL    HW129474   1.986   1.623   5.730
 9525SOL    HW229475   1.903   1.575   5.862
 9526SOL     OW29476   5.661   5.122   0.673
 9526SOL    HW129477   5.676   5.027   0.649
 9526SOL    HW229478   5.696   5.139   0.765
 9527SOL     OW29479   2.749   6.920   4.388
 9527SOL    HW129480   2.756   6.873   4.301
 9527SOL    HW229481   2.831   6.977   4.401
 9528SOL     OW29482   6.031   1.599   1.728
 9528SOL    HW129483   5.946   1.630   1.769
 9528SOL    HW229484   6.029   1.499   1.720
 9529SOL     OW29485   5.658   3.938   0.655
 9529SOL    HW129486   5.630   3.946   0.750
 9529SOL    HW229487   5.593   3.986   0.596
 9530SOL     OW29488   1.190   4.957   4.104
 9530SOL    HW129489   1.153   4.954   4.197
 9530SOL    HW229490   1.290   4.953   4.108
 9531SOL     OW29491   4.115   5.035   3.094
 9531SOL    HW129492   4.094   5.036   2.997
 9531SOL    HW229493   4.182   4.963   3.114
 9532SOL     OW29494   6.364   5.076   1.295
 9532SOL    HW129495   6.312   5.160   1.314
 9532SOL    HW229496   6.325   5.001   1.348
 9533SOL     OW29497   0.788   5.397   3.933
 9533SOL    HW129498   0.855   5.380   4.006
 9533SOL    HW229499   0.768   5.495   3.928
 9534SOL     OW29500   6.228   4.364   4.867
 9534SOL    HW129501   6.175   4.280   4.850
 9534SOL    HW229502   6.182   4.419   4.937
 9535SOL     OW29503   2.180   1.686   5.713
 9535SOL    HW129504   2.255   1.746   5.684
 9535SOL    HW229505   2.179   1.680   5.813
 9536SOL     OW29506   3.517   2.988   4.656
 9536SOL    HW129507   3.451   2.937   4.711
 9536SOL    HW229508   3.486   2.990   4.561
 9537SOL     OW29509   2.785   2.051   4.271
 9537SOL    HW129510   2.795   2.148   4.297
 9537SOL    HW229511   2.786   2.043   4.171
 9538SOL     OW29512   4.686   1.233   4.336
 9538SOL    HW129513   4.670   1.204   4.430
 9538SOL    HW229514   4.643   1.167   4.273
 9539SOL     OW29515   3.152   2.980   4.069
 9539SOL    HW129516   3.072   3.014   4.118
 9539SOL    HW229517   3.159   3.028   3.981
 9540SOL     OW29518   4.745   5.291   4.076
 9540SOL    HW129519   4.672   5.320   4.015
 9540SOL    HW229520   4.833   5.325   4.042
 9541SOL     OW29521   1.575   0.936   5.659
 9541SOL    HW129522   1.559   0.977   5.749
 9541SOL    HW229523   1.568   1.007   5.589
 9542SOL     OW29524   5.495   4.992   4.872
 9542SOL    HW129525   5.412   4.961   4.826
 9542SOL    HW229526   5.537   5.066   4.819
 9543SOL     OW29527   2.743   0.334   5.775
 9543SOL    HW129528   2.824   0.390   5.761
 9543SOL    HW229529   2.770   0.244   5.808
 9544SOL     OW29530   5.004   3.796   4.051
 9544SOL    HW129531   4.973   3.789   3.957
 9544SOL    HW229532   5.055   3.714   4.076
 9545SOL     OW29533   0.011   5.331   2.129
 9545SOL    HW129534   6.966   5.394   2.171
 9545SOL    HW229535   7.006   5.315   2.034
 9546SOL     OW29536   3.646   1.858   5.589
 9546SOL    HW129537   3.624   1.953   5.611
 9546SOL    HW229538   3.688   1.815   5.669
 9547SOL     OW29539   2.717   5.384   3.943
 9547SOL    HW129540   2.663   5.456   3.986
 9547SOL    HW229541   2.659   5.305   3.925
 9548SOL     OW29542   0.928   5.646   4.704
 9548SOL    HW129543   1.019   5.620   4.672
 9548SOL    HW229544   0.900   5.731   4.658
 9549SOL     OW29545   3.245   0.616   2.573
 9549SOL    HW129546   3.217   0.713   2.571
 9549SOL    HW229547   3.286   0.595   2.661
 9550SOL     OW29548   6.326   2.078   0.776
 9550SOL    HW129549   6.375   2.156   0.816
 9550SOL    HW229550   6.228   2.088   0.793
 9551SOL     OW29551   6.390   3.425   5.986
 9551SOL    HW129552   6.480   3.462   6.008
 9551SOL    HW229553   6.329   3.500   5.958
 9552SOL     OW29554   2.125   6.651   6.020
 9552SOL    HW129555   2.101   6.554   6.025
 9552SOL    HW229556   2.198   6.664   5.952
 9553SOL     OW29557   5.362   1.865   0.259
 9553SOL    HW129558   5.404   1.813   0.184
 9553SOL    HW229559   5.433   1.914   0.308
 9554SOL     OW29560   1.833   6.688   3.798
 9554SOL    HW129561   1.889   6.660   3.876
 9554SOL    HW229562   1.743   6.645   3.804
 9555SOL     OW29563   0.581   1.140   3.302
 9555SOL    HW129564   0.498   1.100   3.263
 9555SOL    HW229565   0.558   1.222   3.354
 9556SOL     OW29566   1.967   4.306   1.123
 9556SOL    HW129567   2.030   4.338   1.194
 9556SOL    HW229568   1.902   4.242   1.162
 9557SOL     OW29569   5.204   0.078   1.695
 9557SOL    HW129570   5.288   0.027   1.676
 9557SOL    HW229571   5.226   0.164   1.739
 9558SOL     OW29572   5.358   6.109   5.535
 9558SOL    HW129573   5.342   6.206   5.551
 9558SOL    HW229574   5.424   6.075   5.602
 9559SOL     OW29575   1.496   4.030   6.646
 9559SOL    HW129576   1.532   3.937   6.650
 9559SOL    HW229577   1.442   4.048   6.729
 9560SOL     OW29578   2.540   0.900   2.601
 9560SOL    HW129579   2.479   0.832   2.562
 9560SOL    HW229580   2.582   0.955   2.528
 9561SOL     OW29581   0.302   0.818   1.581
 9561SOL    HW129582   0.254   0.886   1.527
 9561SOL    HW229583   0.268   0.726   1.557
 9562SOL     OW29584   2.547   6.516   4.126
 9562SOL    HW129585   2.474   6.448   4.120
 9562SOL    HW229586   2.618   6.482   4.188
 9563SOL     OW29587   0.371   6.594   6.967
 9563SOL    HW129588   0.416   6.538   0.017
 9563SOL    HW229589   0.294   6.644   7.008
 9564SOL     OW29590   2.083   1.365   0.793
 9564SOL    HW129591   2.070   1.282   0.740
 9564SOL    HW229592   2.168   1.359   0.845
 9565SOL     OW29593   3.182   1.217   4.783
 9565SOL    HW129594   3.145   1.260   4.866
 9565SOL    HW229595   3.258   1.157   4.808
 9566SOL     OW29596   2.682   5.663   0.165
 9566SOL    HW129597   2.780   5.676   0.179
 9566SOL    HW229598   2.649   5.730   0.097
 9567SOL     OW29599   6.067   4.185   0.806
 9567SOL    HW129600   5.987   4.174   0.747
 9567SOL    HW229601   6.126   4.257   0.769
 9568SOL     OW29602   4.477   1.356   0.283
 9568SOL    HW129603   4.551   1.363   0.217
 9568SOL    HW229604   4.406   1.296   0.247
 9569SOL     OW29605   0.385   0.867   1.929
 9569SOL    HW129606   0.351   0.792   1.873
 9569SOL    HW229607   0.453   0.833   1.993
 9570SOL     OW29608   0.013   2.618   0.753
 9570SOL    HW129609   7.015   2.546   0.821
 9570SOL    HW229610   0.091   2.673   0.783
 9571SOL     OW29611   2.872   2.905   5.968
 9571SOL    HW129612   2.849   2.909   5.871
 9571SOL    HW229613   2.889   2.997   6.003
 9572SOL     OW29614   1.553   5.045   2.631
 9572SOL    HW129615   1.489   4.983   2.586
 9572SOL    HW229616   1.645   5.006   2.625
 9573SOL     OW29617   6.773   1.205   6.096
 9573SOL    HW129618   6.857   1.187   6.044
 9573SOL    HW229619   6.696   1.212   6.033
 9574SOL     OW29620   3.447   2.888   2.056
 9574SOL    HW129621   3.528   2.904   2.000
 9574SOL    HW229622   3.365   2.903   2.001
 9575SOL     OW29623   6.447   0.998   1.838
 9575SOL    HW129624   6.478   0.904   1.823
 9575SOL    HW229625   6.521   1.062   1.818
 9576SOL     OW29626   1.895   2.064   0.329
 9576SOL    HW129627   1.961   2.040   0.400
 9576SOL    HW229628   1.906   2.160   0.304
 9577SOL     OW29629   0.499   6.593   5.844
 9577SOL    HW129630   0.490   6.678   5.895
 9577SOL    HW229631   0.478   6.516   5.905
 9578SOL     OW29632   1.596   2.756   2.759
 9578SOL    HW129633   1.511   2.739   2.709
 9578SOL    HW229634   1.615   2.679   2.820
 9579SOL     OW29635   6.979   6.050   3.115
 9579SOL    HW129636   6.991   5.951   3.126
 9579SOL    HW229637   7.020   6.079   3.028
 9580SOL     OW29638   5.273   3.738   1.017
 9580SOL    HW129639   5.343   3.767   1.082
 9580SOL    HW229640   5.289   3.780   0.928
 9581SOL     OW29641   0.747   6.970   6.555
 9581SOL    HW129642   0.808   6.985   6.633
 9581SOL    HW229643   0.685   6.895   6.576
 9582SOL     OW29644   3.710   5.780   4.492
 9582SOL    HW129645   3.628   5.735   4.459
 9582SOL    HW229646   3.740   5.737   4.577
 9583SOL     OW29647   3.136   3.820   1.317
 9583SOL    HW129648   3.077   3.790   1.393
 9583SOL    HW229649   3.226   3.845   1.353
 9584SOL     OW29650   0.896   4.778   5.813
 9584SOL    HW129651   0.841   4.737   5.886
 9584SOL    HW229652   0.978   4.820   5.852
 9585SOL     OW29653   5.215   6.595   2.862
 9585SOL    HW129654   5.237   6.663   2.932
 9585SOL    HW229655   5.263   6.618   2.777
 9586SOL     OW29656   4.533   5.703   2.489
 9586SOL    HW129657   4.517   5.770   2.416
 9586SOL    HW229658   4.561   5.616   2.449
 9587SOL     OW29659   1.019   0.010   1.640
 9587SOL    HW129660   0.996   0.016   1.738
 9587SOL    HW229661   1.041   6.936   1.617
 9588SOL     OW29662   6.009   6.531   0.389
 9588SOL    HW129663   5.929   6.582   0.422
 9588SOL    HW229664   5.978   6.449   0.340
 9589SOL     OW29665   1.746   4.038   6.824
 9589SOL    HW129666   1.677   4.098   6.865
 9589SOL    HW229667   1.751   4.054   6.726
 9590SOL     OW29668   6.197   2.650   1.544
 9590SOL    HW129669   6.219   2.638   1.447
 9590SOL    HW229670   6.220   2.567   1.594
 9591SOL     OW29671   3.872   5.271   5.680
 9591SOL    HW129672   3.812   5.340   5.720
 9591SOL    HW229673   3.902   5.302   5.590
 9592SOL     OW29674   3.356   4.818   1.160
 9592SOL    HW129675   3.409   4.822   1.245
 9592SOL    HW229676   3.259   4.828   1.181
 9593SOL     OW29677   0.983   1.401   6.178
 9593SOL    HW129678   0.996   1.344   6.259
 9593SOL    HW229679   0.996   1.497   6.203
 9594SOL     OW29680   2.753   6.063   4.677
 9594SOL    HW129681   2.654   6.072   4.661
 9594SOL    HW229682   2.782   6.131   4.743
 9595SOL     OW29683   0.366   2.500   3.853
 9595SOL    HW129684   0.457   2.459   3.860
 9595SOL    HW229685   0.344   2.547   3.938
 9596SOL     OW29686   0.626   5.184   0.147
 9596SOL    HW129687   0.638   5.102   0.202
 9596SOL    HW229688   0.614   5.263   0.207
 9597SOL     OW29689   6.654   4.168   1.495
 9597SOL    HW129690   6.700   4.083   1.470
 9597SOL    HW229691   6.598   4.153   1.577
 9598SOL     OW29692   1.951   4.545   3.126
 9598SOL    HW129693   1.925   4.457   3.165
 9598SOL    HW229694   2.044   4.539   3.090
 9599SOL     OW29695   2.953   0.314   3.694
 9599SOL    HW129696   3.048   0.283   3.691
 9599SOL    HW229697   2.905   0.283   3.612
 9600SOL     OW29698   3.007   0.503   6.655
 9600SOL    HW129699   2.948   0.570   6.701
 9600SOL    HW229700   3.046   0.440   6.723
 9601SOL     OW29701   5.389   4.923   0.445
 9601SOL    HW129702   5.365   5.016   0.417
 9601SOL    HW229703   5.433   4.876   0.368
 9602SOL     OW29704   5.585   3.638   6.208
 9602SOL    HW129705   5.616   3.678   6.294
 9602SOL    HW229706   5.661   3.589   6.165
 9603SOL     OW29707   4.419   0.310   6.701
 9603SOL    HW129708   4.389   0.334   6.793
 9603SOL    HW229709   4.518   0.307   6.697
 9604SOL     OW29710   4.838   0.180   1.101
 9604SOL    HW129711   4.825   0.183   1.002
 9604SOL    HW229712   4.875   0.091   1.127
 9605SOL     OW29713   1.319   5.680   3.190
 9605SOL    HW129714   1.289   5.590   3.222
 9605SOL    HW229715   1.352   5.672   3.096
 9606SOL     OW29716   1.661   6.698   6.377
 9606SOL    HW129717   1.644   6.604   6.346
 9606SOL    HW229718   1.732   6.739   6.320
 9607SOL     OW29719   2.763   1.357   6.855
 9607SOL    HW129720   2.813   1.404   6.782
 9607SOL    HW229721   2.827   1.334   6.928
 9608SOL     OW29722   0.126   4.241   1.488
 9608SOL    HW129723   0.203   4.294   1.523
 9608SOL    HW229724   0.117   4.156   1.541
 9609SOL     OW29725   3.308   2.973   0.316
 9609SOL    HW129726   3.253   3.034   0.373
 9609SOL    HW229727   3.297   2.878   0.347
 9610SOL     OW29728   1.524   4.870   3.247
 9610SOL    HW129729   1.454   4.808   3.282
 9610SOL    HW229730   1.523   4.955   3.300
 9611SOL     OW29731   1.584   6.408   0.699
 9611SOL    HW129732   1.648   6.410   0.623
 9611SOL    HW229733   1.494   6.378   0.666
 9612SOL     OW29734   0.191   3.298   2.018
 9612SOL    HW129735   0.266   3.310   1.953
 9612SOL    HW229736   0.172   3.386   2.063
 9613SOL     OW29737   4.773   6.614   3.325
 9613SOL    HW129738   4.770   6.619   3.425
 9613SOL    HW229739   4.781   6.518   3.297
 9614SOL     OW29740   3.924   2.104   2.013
 9614SOL    HW129741   3.902   2.042   2.088
 9614SOL    HW229742   3.847   2.166   1.996
 9615SOL     OW29743   2.648   0.994   1.498
 9615SOL    HW129744   2.656   1.079   1.551
 9615SOL    HW229745   2.585   0.932   1.545
 9616SOL     OW29746   3.431   4.103   1.357
 9616SOL    HW129747   3.504   4.130   1.294
 9616SOL    HW229748   3.427   4.168   1.433
 9617SOL     OW29749   2.011   2.882   3.291
 9617SOL    HW129750   1.936   2.931   3.337
 9617SOL    HW229751   1.973   2.826   3.218
 9618SOL     OW29752   2.641   6.818   0.541
 9618SOL    HW129753   2.634   6.720   0.520
 9618SOL    HW229754   2.734   6.849   0.520
 9619SOL     OW29755   2.152   0.339   6.412
 9619SOL    HW129756   2.146   0.356   6.511
 9619SOL    HW229757   2.067   0.367   6.368
 9620SOL     OW29758   4.523   0.154   6.328
 9620SOL    HW129759   4.527   0.165   6.229
 9620SOL    HW229760   4.571   0.230   6.372
 9621SOL     OW29761   1.874   2.976   2.221
 9621SOL    HW129762   1.794   3.017   2.178
 9621SOL    HW229763   1.898   2.891   2.173
 9622SOL     OW29764   6.928   1.525   0.474
 9622SOL    HW129765   6.850   1.576   0.439
 9622SOL    HW229766   7.011   1.554   0.427
 9623SOL     OW29767   2.655   3.791   5.649
 9623SOL    HW129768   2.671   3.762   5.743
 9623SOL    HW229769   2.585   3.733   5.608
 9624SOL     OW29770   6.966   4.112   2.975
 9624SOL    HW129771   6.882   4.080   2.932
 9624SOL    HW229772   6.943   4.167   3.056
 9625SOL     OW29773   4.614   5.483   6.880
 9625SOL    HW129774   4.713   5.483   6.894
 9625SOL    HW229775   4.592   5.435   6.795
 9626SOL     OW29776   4.789   5.093   0.293
 9626SOL    HW129777   4.789   5.180   0.244
 9626SOL    HW229778   4.867   5.090   0.355
 9627SOL     OW29779   0.410   5.876   5.203
 9627SOL    HW129780   0.327   5.866   5.258
 9627SOL    HW229781   0.490   5.857   5.259
 9628SOL     OW29782   4.730   5.126   0.761
 9628SOL    HW129783   4.723   5.069   0.842
 9628SOL    HW229784   4.821   5.115   0.720
 9629SOL     OW29785   1.214   0.620   1.389
 9629SOL    HW129786   1.291   0.588   1.334
 9629SOL    HW229787   1.189   0.550   1.456
 9630SOL     OW29788   6.299   0.009   4.617
 9630SOL    HW129789   6.221   0.012   4.554
 9630SOL    HW229790   6.273   6.983   4.701
 9631SOL     OW29791   0.318   6.881   6.672
 9631SOL    HW129792   0.272   6.947   6.732
 9631SOL    HW229793   0.343   6.926   6.586
 9632SOL     OW29794   1.479   0.270   2.755
 9632SOL    HW129795   1.451   0.351   2.806
 9632SOL    HW229796   1.474   0.289   2.657
 9633SOL     OW29797   4.806   5.139   6.176
 9633SOL    HW129798   4.813   5.039   6.175
 9633SOL    HW229799   4.711   5.165   6.191
 9634SOL     OW29800   1.565   6.065   4.057
 9634SOL    HW129801   1.482   6.110   4.088
 9634SOL    HW229802   1.607   6.120   3.984
 9635SOL     OW29803   1.728   5.887   5.037
 9635SOL    HW129804   1.676   5.833   5.103
 9635SOL    HW229805   1.701   5.983   5.045
 9636SOL     OW29806   4.047   1.847   5.640
 9636SOL    HW129807   4.010   1.868   5.730
 9636SOL    HW229808   4.039   1.749   5.623
 9637SOL     OW29809   2.678   2.291   6.402
 9637SOL    HW129810   2.720   2.360   6.460
 9637SOL    HW229811   2.648   2.332   6.316
 9638SOL     OW29812   6.941   3.851   6.287
 9638SOL    HW129813   6.901   3.934   6.249
 9638SOL    HW229814   6.976   3.870   6.379
 9639SOL     OW29815   4.154   1.495   2.271
 9639SOL    HW129816   4.138   1.586   2.310
 9639SOL    HW229817   4.067   1.459   2.236
 9640SOL     OW29818   1.972   2.356   3.752
 9640SOL    HW129819   1.972   2.302   3.836
 9640SOL    HW229820   1.981   2.294   3.673
 9641SOL     OW29821   4.140   6.468   0.989
 9641SOL    HW129822   4.052   6.506   0.961
 9641SOL    HW229823   4.192   6.537   1.040
 9642SOL     OW29824   3.069   6.865   4.815
 9642SOL    HW129825   2.972   6.845   4.800
 9642SOL    HW229826   3.078   6.960   4.847
 9643SOL     OW29827   5.399   5.233   3.872
 9643SOL    HW129828   5.410   5.331   3.858
 9643SOL    HW229829   5.307   5.205   3.844
 9644SOL     OW29830   0.963   4.286   6.269
 9644SOL    HW129831   0.950   4.206   6.326
 9644SOL    HW229832   1.035   4.268   6.201
 9645SOL     OW29833   2.591   5.407   4.759
 9645SOL    HW129834   2.660   5.336   4.745
 9645SOL    HW229835   2.503   5.364   4.780
 9646SOL     OW29836   2.802   5.046   1.907
 9646SOL    HW129837   2.744   4.966   1.891
 9646SOL    HW229838   2.893   5.029   1.868
 9647SOL     OW29839   6.167   4.856   1.146
 9647SOL    HW129840   6.141   4.908   1.064
 9647SOL    HW229841   6.266   4.857   1.156
 9648SOL     OW29842   4.388   1.258   1.019
 9648SOL    HW129843   4.345   1.346   1.039
 9648SOL    HW229844   4.370   1.233   0.924
 9649SOL     OW29845   2.903   6.889   0.471
 9649SOL    HW129846   2.899   6.987   0.487
 9649SOL    HW229847   2.934   6.872   0.377
 9650SOL     OW29848   6.657   5.352   2.133
 9650SOL    HW129849   6.657   5.418   2.208
 9650SOL    HW229850   6.669   5.260   2.171
 9651SOL     OW29851   6.923   1.778   5.762
 9651SOL    HW129852   6.940   1.801   5.858
 9651SOL    HW229853   6.881   1.687   5.757
 9652SOL     OW29854   1.531   4.452   1.038
 9652SOL    HW129855   1.507   4.367   1.086
 9652SOL    HW229856   1.450   4.510   1.032
 9653SOL     OW29857   4.198   4.819   4.938
 9653SOL    HW129858   4.259   4.748   4.972
 9653SOL    HW229859   4.184   4.807   4.840
 9654SOL     OW29860   3.104   2.575   1.107
 9654SOL    HW129861   3.112   2.664   1.152
 9654SOL    HW229862   3.173   2.566   1.036
 9655SOL     OW29863   0.326   0.985   0.000
 9655SOL    HW129864   0.344   0.909   6.957
 9655SOL    HW229865   0.293   1.064   6.969
 9656SOL     OW29866   2.293   0.690   2.080
 9656SOL    HW129867   2.374   0.719   2.130
 9656SOL    HW229868   2.217   0.752   2.100
 9657SOL     OW29869   5.406   0.533   4.413
 9657SOL    HW129870   5.446   0.449   4.452
 9657SOL    HW229871   5.425   0.537   4.315
 9658SOL     OW29872   0.047   1.967   3.067
 9658SOL    HW129873   7.010   1.910   3.126
 9658SOL    HW229874   7.009   2.009   2.996
 9659SOL     OW29875   6.412   4.597   0.457
 9659SOL    HW129876   6.408   4.507   0.415
 9659SOL    HW229877   6.324   4.644   0.445
 9660SOL     OW29878   0.302   5.759   0.779
 9660SOL    HW129879   0.254   5.841   0.748
 9660SOL    HW229880   0.256   5.678   0.743
 9661SOL     OW29881   4.473   5.641   1.456
 9661SOL    HW129882   4.499   5.737   1.466
 9661SOL    HW229883   4.376   5.635   1.434
 9662SOL     OW29884   6.578   3.069   4.588
 9662SOL    HW129885   6.622   3.155   4.562
 9662SOL    HW229886   6.493   3.089   4.637
 9663SOL     OW29887   1.656   5.525   4.102
 9663SOL    HW129888   1.629   5.581   4.181
 9663SOL    HW229889   1.574   5.500   4.050
 9664SOL     OW29890   5.322   0.021   2.779
 9664SOL    HW129891   5.313   0.063   2.689
 9664SOL    HW229892   5.243   0.045   2.835
 9665SOL     OW29893   5.861   4.762   5.731
 9665SOL    HW129894   5.788   4.825   5.705
 9665SOL    HW229895   5.948   4.798   5.697
 9666SOL     OW29896   5.647   4.025   1.868
 9666SOL    HW129897   5.565   4.002   1.817
 9666SOL    HW229898   5.664   4.123   1.862
 9667SOL     OW29899   4.124   3.357   4.724
 9667SOL    HW129900   4.052   3.411   4.681
 9667SOL    HW229901   4.210   3.372   4.677
 9668SOL     OW29902   6.707   2.065   6.120
 9668SOL    HW129903   6.789   2.071   6.063
 9668SOL    HW229904   6.725   2.003   6.197
 9669SOL     OW29905   0.672   1.551   0.733
 9669SOL    HW129906   0.605   1.555   0.806
 9669SOL    HW229907   0.764   1.568   0.770
 9670SOL     OW29908   4.490   4.556   5.668
 9670SOL    HW129909   4.500   4.598   5.577
 9670SOL    HW229910   4.527   4.464   5.667
 9671SOL     OW29911   0.373   5.299   5.810
 9671SOL    HW129912   0.373   5.383   5.864
 9671SOL    HW229913   0.311   5.232   5.851
 9672SOL     OW29914   1.084   0.089   5.053
 9672SOL    HW129915   1.084   0.182   5.017
 9672SOL    HW229916   1.039   0.088   5.142
 9673SOL     OW29917   4.106   4.369   0.067
 9673SOL    HW129918   4.127   4.441   0.134
 9673SOL    HW229919   4.149   4.392   7.000
 9674SOL     OW29920   2.837   6.003   2.839
 9674SOL    HW129921   2.845   6.045   2.930
 9674SOL    HW229922   2.904   6.044   2.778
 9675SOL     OW29923   5.981   0.865   2.319
 9675SOL    HW129924   5.975   0.938   2.387
 9675SOL    HW229925   5.959   0.777   2.361
 9676SOL     OW29926   1.373   3.435   5.587
 9676SOL    HW129927   1.461   3.436   5.538
 9676SOL    HW229928   1.390   3.443   5.685
 9677SOL     OW29929   2.716   4.492   5.952
 9677SOL    HW129930   2.665   4.544   5.884
 9677SOL    HW229931   2.812   4.520   5.949
 9678SOL     OW29932   3.555   4.159   2.602
 9678SOL    HW129933   3.625   4.139   2.671
 9678SOL    HW229934   3.587   4.129   2.512
 9679SOL     OW29935   0.568   1.864   2.032
 9679SOL    HW129936   0.653   1.916   2.029
 9679SOL    HW229937   0.495   1.920   2.072
 9680SOL     OW29938   5.789   0.223   3.659
 9680SOL    HW129939   5.756   0.316   3.643
 9680SOL    HW229940   5.821   0.183   3.573
 9681SOL     OW29941   2.619   0.672   1.319
 9681SOL    HW129942   2.524   0.675   1.351
 9681SOL    HW229943   2.638   0.753   1.264
 9682SOL     OW29944   4.813   5.374   3.083
 9682SOL    HW129945   4.906   5.353   3.113
 9682SOL    HW229946   4.810   5.373   2.983
 9683SOL     OW29947   4.237   5.378   0.663
 9683SOL    HW129948   4.214   5.421   0.575
 9683SOL    HW229949   4.306   5.433   0.710
 9684SOL     OW29950   0.488   3.600   4.999
 9684SOL    HW129951   0.558   3.529   4.995
 9684SOL    HW229952   0.520   3.675   5.057
 9685SOL     OW29953   2.404   2.600   1.002
 9685SOL    HW129954   2.424   2.519   1.057
 9685SOL    HW229955   2.375   2.675   1.063
 9686SOL     OW29956   6.382   1.731   0.719
 9686SOL    HW129957   6.460   1.791   0.699
 9686SOL    HW229958   6.391   1.693   0.811
 9687SOL     OW29959   1.784   0.469   2.603
 9687SOL    HW129960   1.843   0.389   2.586
 9687SOL    HW229961   1.839   0.552   2.599
 9688SOL     OW29962   6.544   2.349   3.349
 9688SOL    HW129963   6.503   2.347   3.258
 9688SOL    HW229964   6.514   2.269   3.401
 9689SOL     OW29965   1.747   0.008   0.438
 9689SOL    HW129966   1.728   0.102   0.408
 9689SOL    HW229967   1.671   6.969   0.412
 9690SOL     OW29968   5.566   4.988   6.640
 9690SOL    HW129969   5.521   4.910   6.683
 9690SOL    HW229970   5.664   4.970   6.630
 9691SOL     OW29971   2.447   4.618   1.513
 9691SOL    HW129972   2.350   4.640   1.505
 9691SOL    HW229973   2.501   4.702   1.513
 9692SOL     OW29974   2.153   5.266   2.912
 9692SOL    HW129975   2.073   5.225   2.867
 9692SOL    HW229976   2.236   5.238   2.864
 9693SOL     OW29977   6.953   5.313   1.804
 9693SOL    HW129978   6.922   5.337   1.712
 9693SOL    HW229979   6.964   5.214   1.811
 9694SOL     OW29980   1.798   1.377   6.682
 9694SOL    HW129981   1.860   1.414   6.751
 9694SOL    HW229982   1.760   1.290   6.715
 9695SOL     OW29983   5.560   4.588   1.299
 9695SOL    HW129984   5.556   4.488   1.294
 9695SOL    HW229985   5.656   4.617   1.302
 9696SOL     OW29986   4.435   2.593   1.776
 9696SOL    HW129987   4.423   2.522   1.707
 9696SOL    HW229988   4.400   2.680   1.741
 9697SOL     OW29989   0.296   5.201   6.944
 9697SOL    HW129990   0.346   5.124   6.905
 9697SOL    HW229991   0.206   5.169   6.976
 9698SOL     OW29992   6.218   0.854   5.348
 9698SOL    HW129993   6.251   0.872   5.255
 9698SOL    HW229994   6.247   0.929   5.409
 9699SOL     OW29995   0.845   3.971   6.111
 9699SOL    HW129996   0.917   3.968   6.180
 9699SOL    HW229997   0.778   4.042   6.136
 9700SOL     OW29998   4.063   4.809   5.875
 9700SOL    HW129999   4.115   4.881   5.922
 9700SOL    HW230000   4.000   4.852   5.810
 9701SOL     OW30001   3.961   5.823   5.062
 9701SOL    HW130002   3.943   5.835   4.964
 9701SOL    HW230003   3.899   5.754   5.099
 9702SOL     OW30004   5.363   0.543   0.105
 9702SOL    HW130005   5.455   0.583   0.111
 9702SOL    HW230006   5.359   0.479   0.028
 9703SOL     OW30007   3.485   5.984   4.017
 9703SOL    HW130008   3.424   5.961   4.093
 9703SOL    HW230009   3.431   6.012   3.938
 9704SOL     OW30010   3.045   0.393   2.583
 9704SOL    HW130011   3.055   0.412   2.681
 9704SOL    HW230012   3.120   0.436   2.533
 9705SOL     OW30013   5.262   4.604   0.351
 9705SOL    HW130014   5.356   4.639   0.352
 9705SOL    HW230015   5.206   4.661   0.291
 9706SOL     OW30016   6.758   2.104   0.723
 9706SOL    HW130017   6.684   2.054   0.768
 9706SOL    HW230018   6.742   2.106   0.625
 9707SOL     OW30019   0.281   4.274   1.855
 9707SOL    HW130020   0.327   4.260   1.943
 9707SOL    HW230021   0.262   4.372   1.842
 9708SOL     OW30022   1.932   2.366   3.264
 9708SOL    HW130023   1.990   2.322   3.195
 9708SOL    HW230024   1.836   2.349   3.243
 9709SOL     OW30025   0.802   5.653   3.725
 9709SOL    HW130026   0.806   5.553   3.731
 9709SOL    HW230027   0.707   5.682   3.719
 9710SOL     OW30028   0.362   1.094   3.129
 9710SOL    HW130029   0.314   1.060   3.048
 9710SOL    HW230030   0.299   1.146   3.187
 9711SOL     OW30031   1.322   3.586   5.819
 9711SOL    HW130032   1.417   3.568   5.844
 9711SOL    HW230033   1.272   3.614   5.901
 9712SOL     OW30034   5.122   2.996   4.892
 9712SOL    HW130035   5.026   3.019   4.877
 9712SOL    HW230036   5.135   2.898   4.882
 9713SOL     OW30037   0.130   4.628   2.881
 9713SOL    HW130038   0.118   4.538   2.838
 9713SOL    HW230039   0.173   4.615   2.971
 9714SOL     OW30040   1.750   1.543   1.619
 9714SOL    HW130041   1.772   1.531   1.522
 9714SOL    HW230042   1.651   1.542   1.630
 9715SOL     OW30043   6.866   5.710   4.377
 9715SOL    HW130044   6.870   5.799   4.333
 9715SOL    HW230045   6.819   5.718   4.464
 9716SOL     OW30046   3.793   2.308   6.966
 9716SOL    HW130047   3.771   2.217   6.999
 9716SOL    HW230048   3.720   2.341   6.906
 9717SOL     OW30049   5.815   5.874   4.803
 9717SOL    HW130050   5.900   5.893   4.853
 9717SOL    HW230051   5.745   5.940   4.831
 9718SOL     OW30052   4.628   2.853   1.650
 9718SOL    HW130053   4.624   2.754   1.663
 9718SOL    HW230054   4.602   2.899   1.735
 9719SOL     OW30055   0.559   2.242   6.750
 9719SOL    HW130056   0.487   2.180   6.782
 9719SOL    HW230057   0.520   2.333   6.735
 9720SOL     OW30058   0.597   5.751   1.876
 9720SOL    HW130059   0.548   5.799   1.802
 9720SOL    HW230060   0.634   5.665   1.841
 9721SOL     OW30061   0.750   2.677   2.024
 9721SOL    HW130062   0.726   2.769   2.054
 9721SOL    HW230063   0.680   2.643   1.961
 9722SOL     OW30064   0.458   6.998   3.419
 9722SOL    HW130065   0.470   0.067   3.464
 9722SOL    HW230066   0.433   7.012   3.323
 9723SOL     OW30067   1.090   6.121   3.038
 9723SOL    HW130068   1.035   6.155   3.114
 9723SOL    HW230069   1.042   6.045   2.994
 9724SOL     OW30070   3.104   2.789   1.657
 9724SOL    HW130071   3.093   2.694   1.686
 9724SOL    HW230072   3.139   2.843   1.733
 9725SOL     OW30073   4.045   3.483   6.219
 9725SOL    HW130074   4.024   3.385   6.225
 9725SOL    HW230075   4.036   3.514   6.125
 9726SOL     OW30076   5.121   0.749   4.728
 9726SOL    HW130077   5.093   0.807   4.652
 9726SOL    HW230078   5.080   0.783   4.813
 9727SOL     OW30079   1.524   3.963   5.260
 9727SOL    HW130080   1.449   3.998   5.315
 9727SOL    HW230081   1.537   3.865   5.279
 9728SOL     OW30082   1.716   6.668   6.887
 9728SOL    HW130083   1.663   6.683   6.970
 9728SOL    HW230084   1.655   6.672   6.807
 9729SOL     OW30085   1.253   4.551   2.735
 9729SOL    HW130086   1.156   4.551   2.710
 9729SOL    HW230087   1.269   4.618   2.806
 9730SOL     OW30088   0.154   3.365   2.929
 9730SOL    HW130089   0.098   3.285   2.950
 9730SOL    HW230090   0.207   3.391   3.010
 9731SOL     OW30091   4.173   5.051   0.952
 9731SOL    HW130092   4.185   5.083   1.047
 9731SOL    HW230093   4.081   5.013   0.941
 9732SOL     OW30094   6.063   6.146   3.088
 9732SOL    HW130095   5.985   6.208   3.083
 9732SOL    HW230096   6.144   6.190   3.048
 9733SOL     OW30097   6.031   4.991   4.442
 9733SOL    HW130098   6.096   4.917   4.428
 9733SOL    HW230099   6.063   5.051   4.515
 9734SOL     OW30100   5.537   1.772   4.011
 9734SOL    HW130101   5.517   1.778   4.108
 9734SOL    HW230102   5.508   1.682   3.976
 9735SOL     OW30103   1.996   4.732   2.725
 9735SOL    HW130104   2.049   4.817   2.729
 9735SOL    HW230105   2.053   4.656   2.753
 9736SOL     OW30106   5.077   0.991   6.189
 9736SOL    HW130107   4.996   1.015   6.135
 9736SOL    HW230108   5.077   1.044   6.273
 9737SOL     OW30109   4.440   2.458   5.223
 9737SOL    HW130110   4.509   2.530   5.218
 9737SOL    HW230111   4.349   2.498   5.218
 9738SOL     OW30112   1.721   0.176   2.915
 9738SOL    HW130113   1.764   0.097   2.870
 9738SOL    HW230114   1.631   0.192   2.873
 9739SOL     OW30115   0.610   4.986   1.371
 9739SOL    HW130116   0.704   5.008   1.399
 9739SOL    HW230117   0.577   5.056   1.309
 9740SOL     OW30118   6.249   3.504   3.231
 9740SOL    HW130119   6.325   3.463   3.281
 9740SOL    HW230120   6.192   3.432   3.192
 9741SOL     OW30121   4.608   1.192   2.824
 9741SOL    HW130122   4.508   1.184   2.820
 9741SOL    HW230123   4.633   1.248   2.903
 9742SOL     OW30124   4.456   0.094   2.911
 9742SOL    HW130125   4.443   0.175   2.967
 9742SOL    HW230126   4.547   0.056   2.929
 9743SOL     OW30127   1.824   2.406   5.684
 9743SOL    HW130128   1.774   2.480   5.729
 9743SOL    HW230129   1.802   2.405   5.587
 9744SOL     OW30130   0.784   0.504   2.115
 9744SOL    HW130131   0.726   0.426   2.092
 9744SOL    HW230132   0.800   0.506   2.214
 9745SOL     OW30133   0.570   2.623   5.779
 9745SOL    HW130134   0.521   2.564   5.843
 9745SOL    HW230135   0.555   2.590   5.686
 9746SOL     OW30136   5.009   1.742   4.997
 9746SOL    HW130137   4.950   1.725   5.076
 9746SOL    HW230138   5.100   1.770   5.028
 9747SOL     OW30139   1.458   1.406   1.515
 9747SOL    HW130140   1.448   1.495   1.470
 9747SOL    HW230141   1.425   1.334   1.454
 9748SOL     OW30142   0.990   6.971   5.294
 9748SOL    HW130143   1.040   6.904   5.349
 9748SOL    HW230144   0.950   6.927   5.215
 9749SOL     OW30145   1.500   2.383   5.584
 9749SOL    HW130146   1.461   2.373   5.675
 9749SOL    HW230147   1.580   2.324   5.574
 9750SOL     OW30148   5.938   5.297   3.857
 9750SOL    HW130149   6.025   5.290   3.808
 9750SOL    HW230150   5.888   5.377   3.824
 9751SOL     OW30151   2.145   1.859   1.230
 9751SOL    HW130152   2.233   1.864   1.183
 9751SOL    HW230153   2.156   1.812   1.317
 9752SOL     OW30154   4.779   0.679   6.203
 9752SOL    HW130155   4.763   0.774   6.176
 9752SOL    HW230156   4.764   0.669   6.301
 9753SOL     OW30157   6.329   6.472   4.630
 9753SOL    HW130158   6.376   6.478   4.542
 9753SOL    HW230159   6.344   6.381   4.669
 9754SOL     OW30160   1.282   1.623   0.333
 9754SOL    HW130161   1.194   1.600   0.291
 9754SOL    HW230162   1.354   1.620   0.264
 9755SOL     OW30163   4.271   3.723   5.222
 9755SOL    HW130164   4.175   3.694   5.213
 9755SOL    HW230165   4.275   3.812   5.268
 9756SOL     OW30166   5.715   2.899   0.254
 9756SOL    HW130167   5.619   2.924   0.260
 9756SOL    HW230168   5.767   2.975   0.216
 9757SOL     OW30169   4.826   3.164   3.947
 9757SOL    HW130170   4.807   3.133   3.854
 9757SOL    HW230171   4.897   3.107   3.988
 9758SOL     OW30172   1.874   0.168   5.775
 9758SOL    HW130173   1.849   0.264   5.761
 9758SOL    HW230174   1.798   0.120   5.819
 9759SOL     OW30175   2.268   0.114   1.067
 9759SOL    HW130176   2.316   0.184   1.119
 9759SOL    HW230177   2.185   0.152   1.028
 9760SOL     OW30178   5.013   4.448   5.088
 9760SOL    HW130179   4.951   4.425   5.162
 9760SOL    HW230180   5.078   4.517   5.119
 9761SOL     OW30181   5.634   5.410   1.863
 9761SOL    HW130182   5.662   5.456   1.947
 9761SOL    HW230183   5.680   5.453   1.785
 9762SOL     OW30184   2.396   1.783   4.635
 9762SOL    HW130185   2.309   1.818   4.672
 9762SOL    HW230186   2.379   1.736   4.548
 9763SOL     OW30187   4.797   1.442   2.183
 9763SOL    HW130188   4.801   1.420   2.086
 9763SOL    HW230189   4.790   1.541   2.195
 9764SOL     OW30190   1.503   1.828   3.379
 9764SOL    HW130191   1.533   1.905   3.323
 9764SOL    HW230192   1.496   1.857   3.474
 9765SOL     OW30193   6.407   2.050   4.921
 9765SOL    HW130194   6.489   2.088   4.964
 9765SOL    HW230195   6.336   2.121   4.918
 9766SOL     OW30196   2.673   0.441   2.587
 9766SOL    HW130197   2.576   0.441   2.611
 9766SOL    HW230198   2.723   0.384   2.651
 9767SOL     OW30199   5.230   2.003   4.463
 9767SOL    HW130200   5.217   2.055   4.548
 9767SOL    HW230201   5.321   1.961   4.464
 9768SOL     OW30202   5.162   2.256   1.976
 9768SOL    HW130203   5.152   2.254   1.876
 9768SOL    HW230204   5.201   2.343   2.004
 9769SOL     OW30205   1.219   2.476   1.352
 9769SOL    HW130206   1.315   2.482   1.323
 9769SOL    HW230207   1.168   2.421   1.286
 9770SOL     OW30208   5.898   5.446   6.030
 9770SOL    HW130209   5.902   5.360   6.080
 9770SOL    HW230210   5.913   5.429   5.932
 9771SOL     OW30211   4.649   4.409   1.066
 9771SOL    HW130212   4.557   4.423   1.030
 9771SOL    HW230213   4.644   4.363   1.154
 9772SOL     OW30214   6.857   6.866   1.887
 9772SOL    HW130215   6.794   6.926   1.936
 9772SOL    HW230216   6.885   6.790   1.946
 9773SOL     OW30217   5.821   6.297   3.763
 9773SOL    HW130218   5.816   6.272   3.667
 9773SOL    HW230219   5.729   6.320   3.797
 9774SOL     OW30220   5.931   4.864   3.576
 9774SOL    HW130221   6.002   4.825   3.634
 9774SOL    HW230222   5.870   4.922   3.631
 9775SOL     OW30223   2.029   2.004   4.758
 9775SOL    HW130224   1.934   2.037   4.754
 9775SOL    HW230225   2.050   1.977   4.851
 9776SOL     OW30226   0.212   5.641   4.166
 9776SOL    HW130227   0.128   5.660   4.115
 9776SOL    HW230228   0.211   5.693   4.251
 9777SOL     OW30229   6.244   4.766   6.055
 9777SOL    HW130230   6.147   4.751   6.069
 9777SOL    HW230231   6.297   4.709   6.118
 9778SOL     OW30232   5.144   0.036   3.280
 9778SOL    HW130233   5.166   0.025   3.377
 9778SOL    HW230234   5.070   6.994   3.255
 9779SOL     OW30235   2.773   1.468   4.644
 9779SOL    HW130236   2.767   1.439   4.549
 9779SOL    HW230237   2.856   1.523   4.657
 9780SOL     OW30238   1.932   2.819   0.784
 9780SOL    HW130239   1.950   2.895   0.722
 9780SOL    HW230240   1.887   2.745   0.734
 9781SOL     OW30241   1.642   4.553   4.207
 9781SOL    HW130242   1.595   4.471   4.174
 9781SOL    HW230243   1.658   4.615   4.130
 9782SOL     OW30244   6.627   0.323   1.159
 9782SOL    HW130245   6.593   0.277   1.241
 9782SOL    HW230246   6.554   0.378   1.118
 9783SOL     OW30247   6.072   0.897   1.348
 9783SOL    HW130248   6.040   0.976   1.295
 9783SOL    HW230249   5.996   0.833   1.359
 9784SOL     OW30250   4.109   1.151   3.425
 9784SOL    HW130251   4.121   1.250   3.427
 9784SOL    HW230252   4.198   1.106   3.438
 9785SOL     OW30253   0.326   2.849   3.127
 9785SOL    HW130254   0.263   2.885   3.196
 9785SOL    HW230255   0.338   2.751   3.142
 9786SOL     OW30256   1.868   4.512   6.310
 9786SOL    HW130257   1.824   4.440   6.257
 9786SOL    HW230258   1.903   4.582   6.247
 9787SOL     OW30259   5.154   3.341   1.787
 9787SOL    HW130260   5.069   3.290   1.784
 9787SOL    HW230261   5.147   3.414   1.855
 9788SOL     OW30262   0.187   6.941   4.607
 9788SOL    HW130263   0.257   7.000   4.568
 9788SOL    HW230264   0.107   6.995   4.631
 9789SOL     OW30265   2.574   5.249   6.142
 9789SOL    HW130266   2.599   5.153   6.154
 9789SOL    HW230267   2.499   5.272   6.203
 9790SOL     OW30268   5.520   2.033   3.923
 9790SOL    HW130269   5.568   2.069   4.003
 9790SOL    HW230270   5.513   1.933   3.930
 9791SOL     OW30271   1.043   1.391   1.491
 9791SOL    HW130272   1.026   1.299   1.527
 9791SOL    HW230273   1.118   1.433   1.542
 9792SOL     OW30274   4.633   5.176   1.762
 9792SOL    HW130275   4.641   5.263   1.713
 9792SOL    HW230276   4.624   5.101   1.697
 9793SOL     OW30277   5.130   5.836   2.704
 9793SOL    HW130278   5.071   5.907   2.740
 9793SOL    HW230279   5.222   5.873   2.688
 9794SOL     OW30280   4.938   3.247   6.311
 9794SOL    HW130281   5.026   3.265   6.268
 9794SOL    HW230282   4.866   3.246   6.242
 9795SOL     OW30283   1.320   2.887   4.163
 9795SOL    HW130284   1.245   2.949   4.184
 9795SOL    HW230285   1.397   2.905   4.225
 9796SOL     OW30286   3.135   4.878   0.932
 9796SOL    HW130287   3.036   4.867   0.937
 9796SOL    HW230288   3.162   4.892   0.837
 9797SOL     OW30289   4.629   3.413   6.899
 9797SOL    HW130290   4.592   3.454   6.815
 9797SOL    HW230291   4.576   3.444   6.978
 9798SOL     OW30292   2.273   0.399   1.313
 9798SOL    HW130293   2.277   0.494   1.346
 9798SOL    HW230294   2.354   0.379   1.258
 9799SOL     OW30295   3.363   3.059   2.550
 9799SOL    HW130296   3.350   2.993   2.477
 9799SOL    HW230297   3.438   3.121   2.526
 9800SOL     OW30298   4.355   5.757   6.169
 9800SOL    HW130299   4.349   5.743   6.070
 9800SOL    HW230300   4.263   5.758   6.208
 9801SOL     OW30301   4.999   5.493   0.175
 9801SOL    HW130302   5.095   5.478   0.150
 9801SOL    HW230303   4.982   5.591   0.184
 9802SOL     OW30304   0.636   3.385   1.567
 9802SOL    HW130305   0.605   3.460   1.509
 9802SOL    HW230306   0.693   3.422   1.641
 9803SOL     OW30307   6.035   6.970   6.613
 9803SOL    HW130308   6.073   6.884   6.578
 9803SOL    HW230309   6.099   7.010   6.678
 9804SOL     OW30310   6.981   5.134   3.426
 9804SOL    HW130311   6.883   5.143   3.409
 9804SOL    HW230312   7.013   5.044   3.396
 9805SOL     OW30313   1.339   5.364   6.563
 9805SOL    HW130314   1.343   5.446   6.506
 9805SOL    HW230315   1.413   5.366   6.630
 9806SOL     OW30316   0.558   2.507   1.569
 9806SOL    HW130317   0.632   2.456   1.526
 9806SOL    HW230318   0.593   2.558   1.647
 9807SOL     OW30319   4.201   1.714   0.010
 9807SOL    HW130320   4.211   1.629   6.979
 9807SOL    HW230321   4.151   1.696   0.095
 9808SOL     OW30322   5.889   1.511   5.129
 9808SOL    HW130323   5.804   1.474   5.093
 9808SOL    HW230324   5.965   1.449   5.105
 9809SOL     OW30325   1.077   1.580   5.580
 9809SOL    HW130326   1.081   1.497   5.636
 9809SOL    HW230327   1.061   1.555   5.484
 9810SOL     OW30328   2.412   1.433   3.063
 9810SOL    HW130329   2.449   1.352   3.016
 9810SOL    HW230330   2.328   1.408   3.111
 9811SOL     OW30331   6.839   6.409   3.326
 9811SOL    HW130332   6.798   6.443   3.411
 9811SOL    HW230333   6.835   6.481   3.257
 9812SOL     OW30334   4.365   2.005   6.076
 9812SOL    HW130335   4.412   1.917   6.082
 9812SOL    HW230336   4.349   2.028   5.980
 9813SOL     OW30337   6.056   5.758   0.292
 9813SOL    HW130338   6.136   5.710   0.256
 9813SOL    HW230339   5.973   5.708   0.267
 9814SOL     OW30340   6.551   0.414   5.692
 9814SOL    HW130341   6.522   0.501   5.733
 9814SOL    HW230342   6.472   0.354   5.682
 9815SOL     OW30343   6.528   3.483   1.322
 9815SOL    HW130344   6.610   3.480   1.265
 9815SOL    HW230345   6.553   3.487   1.418
 9816SOL     OW30346   6.465   0.408   6.942
 9816SOL    HW130347   6.422   0.394   6.853
 9816SOL    HW230348   6.424   0.346   7.009
 9817SOL     OW30349   3.228   5.737   1.939
 9817SOL    HW130350   3.144   5.789   1.953
 9817SOL    HW230351   3.219   5.647   1.982
 9818SOL     OW30352   1.975   1.285   3.483
 9818SOL    HW130353   1.893   1.228   3.494
 9818SOL    HW230354   2.047   1.231   3.439
 9819SOL     OW30355   5.851   3.438   4.947
 9819SOL    HW130356   5.939   3.483   4.957
 9819SOL    HW230357   5.785   3.479   5.011
 9820SOL     OW30358   2.931   1.953   6.562
 9820SOL    HW130359   2.884   2.035   6.529
 9820SOL    HW230360   3.016   1.941   6.510
 9821SOL     OW30361   4.275   1.841   1.956
 9821SOL    HW130362   4.319   1.764   1.910
 9821SOL    HW230363   4.290   1.924   1.902
 9822SOL     OW30364   4.192   5.936   4.653
 9822SOL    HW130365   4.196   6.025   4.608
 9822SOL    HW230366   4.167   5.866   4.586
 9823SOL     OW30367   0.986   0.704   2.037
 9823SOL    HW130368   0.907   0.647   2.055
 9823SOL    HW230369   0.989   0.727   1.940
 9824SOL     OW30370   2.103   6.342   5.578
 9824SOL    HW130371   2.112   6.428   5.527
 9824SOL    HW230372   2.168   6.275   5.541
 9825SOL     OW30373   5.058   5.993   5.518
 9825SOL    HW130374   5.028   5.929   5.589
 9825SOL    HW230375   5.144   5.960   5.479
 9826SOL     OW30376   3.233   6.928   5.068
 9826SOL    HW130377   3.311   6.871   5.098
 9826SOL    HW230378   3.266   6.997   5.004
 9827SOL     OW30379   2.131   5.734   2.650
 9827SOL    HW130380   2.062   5.675   2.608
 9827SOL    HW230381   2.142   5.817   2.595
 9828SOL     OW30382   3.978   1.846   4.838
 9828SOL    HW130383   3.913   1.829   4.912
 9828SOL    HW230384   4.019   1.937   4.850
 9829SOL     OW30385   4.248   5.902   5.810
 9829SOL    HW130386   4.294   5.973   5.863
 9829SOL    HW230387   4.273   5.812   5.845
 9830SOL     OW30388   5.955   1.961   2.776
 9830SOL    HW130389   5.969   2.033   2.709
 9830SOL    HW230390   5.949   1.873   2.729
 9831SOL     OW30391   0.945   3.910   2.300
 9831SOL    HW130392   0.881   3.836   2.278
 9831SOL    HW230393   1.035   3.872   2.320
 9832SOL     OW30394   4.673   4.460   4.605
 9832SOL    HW130395   4.743   4.530   4.594
 9832SOL    HW230396   4.590   4.502   4.642
 9833SOL     OW30397   3.447   4.065   4.065
 9833SOL    HW130398   3.443   4.086   4.163
 9833SOL    HW230399   3.488   3.975   4.052
 9834SOL     OW30400   2.613   5.526   5.668
 9834SOL    HW130401   2.622   5.480   5.756
 9834SOL    HW230402   2.596   5.458   5.597
 9835SOL     OW30403   3.434   4.274   5.239
 9835SOL    HW130404   3.520   4.268   5.288
 9835SOL    HW230405   3.433   4.209   5.163
 9836SOL     OW30406   0.735   3.533   5.989
 9836SOL    HW130407   0.689   3.561   5.905
 9836SOL    HW230408   0.820   3.485   5.966
 9837SOL     OW30409   5.723   1.867   1.655
 9837SOL    HW130410   5.812   1.890   1.693
 9837SOL    HW230411   5.717   1.900   1.561
 9838SOL     OW30412   0.555   5.576   1.022
 9838SOL    HW130413   0.540   5.528   0.935
 9838SOL    HW230414   0.479   5.638   1.039
 9839SOL     OW30415   4.251   1.208   2.325
 9839SOL    HW130416   4.292   1.203   2.234
 9839SOL    HW230417   4.198   1.293   2.332
 9840SOL     OW30418   5.780   1.891   0.275
 9840SOL    HW130419   5.829   1.842   0.347
 9840SOL    HW230420   5.762   1.829   0.199
 9841SOL     OW30421   0.274   5.695   3.590
 9841SOL    HW130422   0.272   5.663   3.685
 9841SOL    HW230423   0.297   5.792   3.588
 9842SOL     OW30424   3.385   1.962   0.279
 9842SOL    HW130425   3.439   1.903   0.218
 9842SOL    HW230426   3.442   1.993   0.354
 9843SOL     OW30427   6.874   6.110   0.968
 9843SOL    HW130428   6.883   6.049   1.047
 9843SOL    HW230429   6.893   6.204   0.997
 9844SOL     OW30430   5.098   0.090   4.477
 9844SOL    HW130431   5.041   0.098   4.558
 9844SOL    HW230432   5.188   0.053   4.502
 9845SOL     OW30433   1.663   2.631   1.847
 9845SOL    HW130434   1.748   2.662   1.805
 9845SOL    HW230435   1.683   2.582   1.932
 9846SOL     OW30436   5.514   1.201   1.371
 9846SOL    HW130437   5.501   1.280   1.432
 9846SOL    HW230438   5.590   1.146   1.404
 9847SOL     OW30439   3.714   3.658   0.679
 9847SOL    HW130440   3.750   3.660   0.772
 9847SOL    HW230441   3.654   3.578   0.668
 9848SOL     OW30442   3.384   3.374   4.993
 9848SOL    HW130443   3.367   3.323   4.909
 9848SOL    HW230444   3.421   3.313   5.063
 9849SOL     OW30445   0.990   1.139   6.336
 9849SOL    HW130446   1.087   1.126   6.314
 9849SOL    HW230447   0.941   1.053   6.320
 9850SOL     OW30448   0.500   0.616   4.258
 9850SOL    HW130449   0.401   0.621   4.269
 9850SOL    HW230450   0.522   0.570   4.172
 9851SOL     OW30451   3.981   4.828   4.415
 9851SOL    HW130452   3.938   4.878   4.490
 9851SOL    HW230453   3.911   4.791   4.354
 9852SOL     OW30454   1.788   1.139   6.196
 9852SOL    HW130455   1.754   1.134   6.290
 9852SOL    HW230456   1.711   1.160   6.135
 9853SOL     OW30457   0.191   4.238   4.116
 9853SOL    HW130458   0.157   4.235   4.210
 9853SOL    HW230459   0.115   4.258   4.054
 9854SOL     OW30460   0.623   5.920   5.911
 9854SOL    HW130461   0.542   5.875   5.872
 9854SOL    HW230462   0.596   6.009   5.948
 9855SOL     OW30463   1.121   3.350   0.784
 9855SOL    HW130464   1.052   3.290   0.741
 9855SOL    HW230465   1.113   3.345   0.883
 9856SOL     OW30466   5.647   3.939   3.375
 9856SOL    HW130467   5.645   3.930   3.275
 9856SOL    HW230468   5.556   3.967   3.407
 9857SOL     OW30469   4.744   2.034   3.431
 9857SOL    HW130470   4.767   2.124   3.468
 9857SOL    HW230471   4.828   1.989   3.399
 9858SOL     OW30472   0.048   5.877   2.274
 9858SOL    HW130473   6.994   5.894   2.338
 9858SOL    HW230474   0.129   5.846   2.324
 9859SOL     OW30475   0.341   5.199   4.850
 9859SOL    HW130476   0.258   5.162   4.809
 9859SOL    HW230477   0.402   5.232   4.778
 9860SOL     OW30478   1.900   2.431   5.433
 9860SOL    HW130479   1.818   2.395   5.388
 9860SOL    HW230480   1.905   2.530   5.419
 9861SOL     OW30481   3.050   1.399   4.287
 9861SOL    HW130482   3.078   1.412   4.192
 9861SOL    HW230483   3.108   1.330   4.330
 9862SOL     OW30484   1.900   4.845   1.184
 9862SOL    HW130485   1.972   4.841   1.115
 9862SOL    HW230486   1.926   4.788   1.262
 9863SOL     OW30487   3.219   5.983   1.319
 9863SOL    HW130488   3.192   5.933   1.237
 9863SOL    HW230489   3.166   5.950   1.397
 9864SOL     OW30490   2.938   6.229   5.400
 9864SOL    HW130491   2.993   6.294   5.452
 9864SOL    HW230492   2.989   6.200   5.319
 9865SOL     OW30493   0.679   6.471   5.686
 9865SOL    HW130494   0.635   6.531   5.752
 9865SOL    HW230495   0.746   6.523   5.633
 9866SOL     OW30496   6.606   4.349   4.439
 9866SOL    HW130497   6.688   4.309   4.480
 9866SOL    HW230498   6.527   4.290   4.458
 9867SOL     OW30499   5.259   2.101   1.497
 9867SOL    HW130500   5.353   2.094   1.530
 9867SOL    HW230501   5.248   2.044   1.415
 9868SOL     OW30502   0.932   4.560   3.233
 9868SOL    HW130503   0.922   4.476   3.287
 9868SOL    HW230504   1.025   4.566   3.197
 9869SOL     OW30505   6.835   2.562   1.276
 9869SOL    HW130506   6.826   2.465   1.255
 9869SOL    HW230507   6.845   2.574   1.374
 9870SOL     OW30508   3.377   1.356   1.815
 9870SOL    HW130509   3.366   1.380   1.718
 9870SOL    HW230510   3.330   1.270   1.834
 9871SOL     OW30511   0.096   3.668   5.338
 9871SOL    HW130512   0.004   3.679   5.300
 9871SOL    HW230513   0.130   3.577   5.316
 9872SOL     OW30514   2.078   5.097   5.243
 9872SOL    HW130515   2.024   5.128   5.165
 9872SOL    HW230516   2.097   5.175   5.303
 9873SOL     OW30517   2.578   2.305   5.748
 9873SOL    HW130518   2.520   2.290   5.828
 9873SOL    HW230519   2.560   2.396   5.711
 9874SOL     OW30520   7.013   2.705   4.940
 9874SOL    HW130521   0.041   2.735   4.858
 9874SOL    HW230522   6.920   2.741   4.939
 9875SOL     OW30523   6.894   5.917   0.553
 9875SOL    HW130524   6.964   5.869   0.606
 9875SOL    HW230525   6.856   5.992   0.607
 9876SOL     OW30526   2.112   6.335   3.358
 9876SOL    HW130527   2.204   6.337   3.318
 9876SOL    HW230528   2.060   6.413   3.325
 9877SOL     OW30529   1.036   5.127   4.699
 9877SOL    HW130530   1.074   5.064   4.767
 9877SOL    HW230531   1.110   5.181   4.659
 9878SOL     OW30532   2.043   2.840   0.126
 9878SOL    HW130533   2.045   2.914   0.194
 9878SOL    HW230534   2.064   2.877   0.036
 9879SOL     OW30535   0.536   4.443   5.880
 9879SOL    HW130536   0.517   4.540   5.867
 9879SOL    HW230537   0.598   4.411   5.808
 9880SOL     OW30538   3.016   1.721   0.155
 9880SOL    HW130539   3.003   1.749   0.060
 9880SOL    HW230540   3.029   1.803   0.212
 9881SOL     OW30541   5.250   0.303   4.673
 9881SOL    HW130542   5.200   0.364   4.613
 9881SOL    HW230543   5.206   0.300   4.763
 9882SOL     OW30544   4.059   3.280   4.225
 9882SOL    HW130545   4.062   3.222   4.306
 9882SOL    HW230546   3.998   3.239   4.157
 9883SOL     OW30547   2.229   6.814   1.396
 9883SOL    HW130548   2.313   6.810   1.451
 9883SOL    HW230549   2.251   6.837   1.302
 9884SOL     OW30550   1.949   3.584   6.441
 9884SOL    HW130551   1.888   3.640   6.497
 9884SOL    HW230552   1.970   3.499   6.489
 9885SOL     OW30553   6.409   3.249   3.968
 9885SOL    HW130554   6.489   3.189   3.964
 9885SOL    HW230555   6.426   3.331   3.912
 9886SOL     OW30556   4.706   6.265   1.540
 9886SOL    HW130557   4.777   6.201   1.509
 9886SOL    HW230558   4.685   6.329   1.466
 9887SOL     OW30559   3.766   6.558   0.682
 9887SOL    HW130560   3.707   6.557   0.763
 9887SOL    HW230561   3.715   6.595   0.604
 9888SOL     OW30562   6.028   5.470   2.358
 9888SOL    HW130563   5.960   5.397   2.364
 9888SOL    HW230564   6.119   5.431   2.342
 9889SOL     OW30565   0.243   4.906   3.095
 9889SOL    HW130566   0.321   4.876   3.039
 9889SOL    HW230567   0.255   5.001   3.121
 9890SOL     OW30568   6.530   3.789   1.594
 9890SOL    HW130569   6.571   3.850   1.526
 9890SOL    HW230570   6.486   3.844   1.666
 9891SOL     OW30571   5.224   4.998   0.855
 9891SOL    HW130572   5.274   4.923   0.811
 9891SOL    HW230573   5.197   5.065   0.786
 9892SOL     OW30574   1.869   5.293   3.789
 9892SOL    HW130575   1.967   5.271   3.782
 9892SOL    HW230576   1.843   5.296   3.886
 9893SOL     OW30577   6.297   5.195   3.153
 9893SOL    HW130578   6.215   5.191   3.210
 9893SOL    HW230579   6.277   5.246   3.069
 9894SOL     OW30580   3.489   2.739   5.729
 9894SOL    HW130581   3.561   2.784   5.676
 9894SOL    HW230582   3.438   2.677   5.669
 9895SOL     OW30583   5.205   2.685   6.500
 9895SOL    HW130584   5.230   2.728   6.413
 9895SOL    HW230585   5.287   2.677   6.557
 9896SOL     OW30586   3.885   4.015   0.567
 9896SOL    HW130587   3.811   4.031   0.501
 9896SOL    HW230588   3.969   4.058   0.533
 9897SOL     OW30589   5.637   1.677   2.609
 9897SOL    HW130590   5.619   1.756   2.667
 9897SOL    HW230591   5.735   1.672   2.588
 9898SOL     OW30592   1.532   5.612   5.648
 9898SOL    HW130593   1.484   5.526   5.629
 9898SOL    HW230594   1.612   5.593   5.704
 9899SOL     OW30595   5.349   4.622   2.752
 9899SOL    HW130596   5.384   4.553   2.688
 9899SOL    HW230597   5.403   4.706   2.742
 9900SOL     OW30598   1.164   2.343   4.053
 9900SOL    HW130599   1.143   2.434   4.016
 9900SOL    HW230600   1.217   2.291   3.986
 9901SOL     OW30601   2.607   2.331   6.156
 9901SOL    HW130602   2.651   2.387   6.086
 9901SOL    HW230603   2.515   2.306   6.126
 9902SOL     OW30604   3.639   3.921   0.709
 9902SOL    HW130605   3.732   3.947   0.683
 9902SOL    HW230606   3.622   3.826   0.680
 9903SOL     OW30607   4.388   1.477   2.137
 9903SOL    HW130608   4.300   1.490   2.181
 9903SOL    HW230609   4.448   1.554   2.161
 9904SOL     OW30610   6.192   2.341   0.632
 9904SOL    HW130611   6.287   2.356   0.659
 9904SOL    HW230612   6.148   2.279   0.697
 9905SOL     OW30613   1.422   6.713   6.219
 9905SOL    HW130614   1.330   6.704   6.258
 9905SOL    HW230615   1.490   6.712   6.293
 9906SOL     OW30616   2.266   3.495   6.286
 9906SOL    HW130617   2.338   3.498   6.217
 9906SOL    HW230618   2.217   3.582   6.287
 9907SOL     OW30619   2.495   6.166   2.796
 9907SOL    HW130620   2.554   6.202   2.868
 9907SOL    HW230621   2.535   6.082   2.759
 9908SOL     OW30622   0.721   3.718   6.540
 9908SOL    HW130623   0.745   3.814   6.524
 9908SOL    HW230624   0.804   3.662   6.538
 9909SOL     OW30625   3.176   1.390   2.560
 9909SOL    HW130626   3.104   1.442   2.606
 9909SOL    HW230627   3.252   1.375   2.623
 9910SOL     OW30628   6.371   4.403   1.057
 9910SOL    HW130629   6.285   4.352   1.068
 9910SOL    HW230630   6.369   4.452   0.970
 9911SOL     OW30631   3.915   5.023   3.295
 9911SOL    HW130632   3.976   5.069   3.230
 9911SOL    HW230633   3.969   4.962   3.353
 9912SOL     OW30634   5.089   0.383   1.835
 9912SOL    HW130635   5.133   0.442   1.767
 9912SOL    HW230636   5.015   0.433   1.879
 9913SOL     OW30637   5.320   2.758   2.931
 9913SOL    HW130638   5.394   2.808   2.886
 9913SOL    HW230639   5.353   2.718   3.016
 9914SOL     OW30640   1.047   0.302   4.882
 9914SOL    HW130641   0.993   0.353   4.815
 9914SOL    HW230642   1.142   0.295   4.851
 9915SOL     OW30643   5.007   2.976   4.011
 9915SOL    HW130644   5.061   3.010   4.087
 9915SOL    HW230645   5.000   2.876   4.016
 9916SOL     OW30646   2.103   2.655   2.652
 9916SOL    HW130647   2.174   2.675   2.586
 9916SOL    HW230648   2.143   2.614   2.734
 9917SOL     OW30649   3.208   4.245   5.760
 9917SOL    HW130650   3.172   4.154   5.776
 9917SOL    HW230651   3.287   4.239   5.698
 9918SOL     OW30652   2.158   2.033   5.814
 9918SOL    HW130653   2.194   1.996   5.900
 9918SOL    HW230654   2.201   1.985   5.737
 9919SOL     OW30655   0.987   5.838   2.607
 9919SOL    HW130656   1.082   5.867   2.618
 9919SOL    HW230657   0.952   5.867   2.519
 9920SOL     OW30658   3.659   6.290   1.451
 9920SOL    HW130659   3.571   6.244   1.436
 9920SOL    HW230660   3.643   6.382   1.487
 9921SOL     OW30661   5.887   6.942   3.113
 9921SOL    HW130662   5.966   6.890   3.080
 9921SOL    HW230663   5.845   6.895   3.190
 9922SOL     OW30664   4.285   4.834   0.802
 9922SOL    HW130665   4.369   4.805   0.848
 9922SOL    HW230666   4.235   4.897   0.861
 9923SOL     OW30667   6.454   2.405   6.112
 9923SOL    HW130668   6.429   2.312   6.087
 9923SOL    HW230669   6.376   2.450   6.155
 9924SOL     OW30670   0.015   0.952   2.922
 9924SOL    HW130671   0.008   0.957   3.021
 9924SOL    HW230672   6.944   0.933   2.883
 9925SOL     OW30673   2.913   2.876   5.682
 9925SOL    HW130674   2.919   2.837   5.590
 9925SOL    HW230675   3.003   2.907   5.711
 9926SOL     OW30676   1.070   1.161   0.510
 9926SOL    HW130677   1.135   1.147   0.435
 9926SOL    HW230678   1.043   1.257   0.512
 9927SOL     OW30679   6.889   1.779   2.455
 9927SOL    HW130680   6.930   1.857   2.503
 9927SOL    HW230681   6.860   1.809   2.363
 9928SOL     OW30682   0.088   3.961   1.955
 9928SOL    HW130683   0.174   3.968   2.007
 9928SOL    HW230684   0.012   3.946   2.018
 9929SOL     OW30685   2.720   4.524   0.109
 9929SOL    HW130686   2.761   4.551   0.197
 9929SOL    HW230687   2.785   4.546   0.035
 9930SOL     OW30688   6.786   0.200   6.297
 9930SOL    HW130689   6.757   0.192   6.202
 9930SOL    HW230690   6.710   0.229   6.354
 9931SOL     OW30691   2.026   6.158   5.278
 9931SOL    HW130692   2.082   6.082   5.246
 9931SOL    HW230693   2.045   6.176   5.374
 9932SOL     OW30694   1.487   1.352   0.283
 9932SOL    HW130695   1.538   1.371   0.367
 9932SOL    HW230696   1.477   1.437   0.230
 9933SOL     OW30697   2.363   1.686   2.989
 9933SOL    HW130698   2.452   1.726   2.968
 9933SOL    HW230699   2.373   1.588   3.003
 9934SOL     OW30700   5.373   1.687   6.304
 9934SOL    HW130701   5.314   1.763   6.279
 9934SOL    HW230702   5.462   1.697   6.259
 9935SOL     OW30703   3.398   2.005   0.714
 9935SOL    HW130704   3.450   1.988   0.630
 9935SOL    HW230705   3.385   1.920   0.763
 9936SOL     OW30706   5.883   5.871   5.715
 9936SOL    HW130707   5.941   5.900   5.639
 9936SOL    HW230708   5.843   5.782   5.695
 9937SOL     OW30709   0.540   0.025   2.819
 9937SOL    HW130710   0.547   0.106   2.760
 9937SOL    HW230711   0.630   0.002   2.855
 9938SOL     OW30712   0.251   0.617   4.375
 9938SOL    HW130713   0.248   0.662   4.464
 9938SOL    HW230714   0.158   0.591   4.348
 9939SOL     OW30715   2.241   4.179   0.835
 9939SOL    HW130716   2.304   4.105   0.810
 9939SOL    HW230717   2.157   4.139   0.871
 9940SOL     OW30718   0.668   0.321   2.844
 9940SOL    HW130719   0.757   0.300   2.886
 9940SOL    HW230720   0.629   0.402   2.888
 9941SOL     OW30721   4.419   5.050   5.904
 9941SOL    HW130722   4.425   5.018   5.810
 9941SOL    HW230723   4.328   5.032   5.940
 9942SOL     OW30724   4.128   5.093   3.730
 9942SOL    HW130725   4.173   5.176   3.696
 9942SOL    HW230726   4.156   5.077   3.824
 9943SOL     OW30727   2.458   3.649   0.132
 9943SOL    HW130728   2.485   3.729   0.077
 9943SOL    HW230729   2.420   3.579   0.073
 9944SOL     OW30730   1.311   4.937   0.066
 9944SOL    HW130731   1.266   5.024   0.085
 9944SOL    HW230732   1.343   4.897   0.152
 9945SOL     OW30733   5.866   4.063   0.267
 9945SOL    HW130734   5.776   4.027   0.245
 9945SOL    HW230735   5.914   4.086   0.182
 9946SOL     OW30736   5.353   1.293   2.869
 9946SOL    HW130737   5.329   1.204   2.831
 9946SOL    HW230738   5.367   1.358   2.794
 9947SOL     OW30739   1.983   1.430   4.571
 9947SOL    HW130740   1.883   1.435   4.566
 9947SOL    HW230741   2.020   1.405   4.482
 9948SOL     OW30742   6.516   0.385   4.430
 9948SOL    HW130743   6.509   0.440   4.347
 9948SOL    HW230744   6.536   0.444   4.508
 9949SOL     OW30745   6.787   4.183   4.550
 9949SOL    HW130746   6.786   4.168   4.649
 9949SOL    HW230747   6.842   4.111   4.506
 9950SOL     OW30748   6.566   5.047   5.837
 9950SOL    HW130749   6.622   5.129   5.825
 9950SOL    HW230750   6.597   4.996   5.918
 9951SOL     OW30751   0.970   2.673   2.604
 9951SOL    HW130752   0.991   2.655   2.700
 9951SOL    HW230753   0.875   2.648   2.586
 9952SOL     OW30754   0.339   4.464   1.584
 9952SOL    HW130755   0.313   4.539   1.523
 9952SOL    HW230756   0.438   4.460   1.591
 9953SOL     OW30757   5.939   2.426   3.086
 9953SOL    HW130758   5.958   2.328   3.095
 9953SOL    HW230759   5.995   2.465   3.014
 9954SOL     OW30760   3.022   2.095   5.950
 9954SOL    HW130761   3.107   2.110   5.899
 9954SOL    HW230762   2.995   1.999   5.943
 9955SOL     OW30763   5.324   3.228   1.073
 9955SOL    HW130764   5.276   3.145   1.102
 9955SOL    HW230765   5.257   3.294   1.038
 9956SOL     OW30766   1.950   4.113   3.441
 9956SOL    HW130767   2.049   4.121   3.449
 9956SOL    HW230768   1.923   4.018   3.455
 9957SOL     OW30769   5.812   6.987   1.732
 9957SOL    HW130770   5.745   6.931   1.781
 9957SOL    HW230771   5.768   0.014   1.656
 9958SOL     OW30772   4.000   4.878   6.392
 9958SOL    HW130773   4.070   4.949   6.381
 9958SOL    HW230774   3.968   4.878   6.487
 9959SOL     OW30775   3.990   4.234   1.208
 9959SOL    HW130776   4.066   4.274   1.259
 9959SOL    HW230777   3.920   4.304   1.192
 9960SOL     OW30778   6.575   6.850   0.016
 9960SOL    HW130779   6.665   6.869   0.057
 9960SOL    HW230780   6.588   6.807   6.947
 9961SOL     OW30781   2.192   4.894   2.397
 9961SOL    HW130782   2.259   4.893   2.323
 9961SOL    HW230783   2.168   4.801   2.423
 9962SOL     OW30784   3.218   5.787   2.501
 9962SOL    HW130785   3.131   5.814   2.543
 9962SOL    HW230786   3.209   5.697   2.458
 9963SOL     OW30787   1.403   1.585   6.467
 9963SOL    HW130788   1.310   1.569   6.500
 9963SOL    HW230789   1.399   1.614   6.371
 9964SOL     OW30790   4.859   4.415   5.320
 9964SOL    HW130791   4.843   4.345   5.251
 9964SOL    HW230792   4.772   4.440   5.364
 9965SOL     OW30793   2.972   5.630   4.860
 9965SOL    HW130794   3.070   5.644   4.877
 9965SOL    HW230795   2.943   5.543   4.900
 9966SOL     OW30796   3.466   5.059   2.339
 9966SOL    HW130797   3.550   5.019   2.303
 9966SOL    HW230798   3.387   5.016   2.295
 9967SOL     OW30799   6.856   6.947   3.032
 9967SOL    HW130800   6.800   6.879   2.985
 9967SOL    HW230801   6.820   0.018   3.012
 9968SOL     OW30802   4.063   6.011   0.646
 9968SOL    HW130803   3.976   5.961   0.638
 9968SOL    HW230804   4.066   6.059   0.734
 9969SOL     OW30805   1.466   4.929   4.104
 9969SOL    HW130806   1.556   4.887   4.089
 9969SOL    HW230807   1.472   5.028   4.091
 9970SOL     OW30808   6.131   4.722   1.707
 9970SOL    HW130809   6.049   4.680   1.745
 9970SOL    HW230810   6.204   4.721   1.776
 9971SOL     OW30811   1.537   3.501   2.465
 9971SOL    HW130812   1.615   3.473   2.410
 9971SOL    HW230813   1.454   3.499   2.409
 9972SOL     OW30814   3.543   4.170   0.533
 9972SOL    HW130815   3.579   4.097   0.474
 9972SOL    HW230816   3.453   4.199   0.499
 9973SOL     OW30817   3.568   1.827   3.740
 9973SOL    HW130818   3.542   1.844   3.835
 9973SOL    HW230819   3.557   1.729   3.720
 9974SOL     OW30820   0.133   1.607   3.497
 9974SOL    HW130821   0.070   1.543   3.452
 9974SOL    HW230822   0.098   1.700   3.488
 9975SOL     OW30823   1.095   5.142   6.413
 9975SOL    HW130824   1.026   5.159   6.343
 9975SOL    HW230825   1.174   5.096   6.371
 9976SOL     OW30826   2.319   4.758   6.227
 9976SOL    HW130827   2.255   4.686   6.253
 9976SOL    HW230828   2.409   4.718   6.212
 9977SOL     OW30829   5.511   5.625   5.003
 9977SOL    HW130830   5.487   5.721   5.018
 9977SOL    HW230831   5.430   5.575   4.970
 9978SOL     OW30832   0.169   2.400   6.172
 9978SOL    HW130833   0.262   2.434   6.159
 9978SOL    HW230834   0.165   2.303   6.148
 9979SOL     OW30835   5.034   3.339   5.431
 9979SOL    HW130836   4.946   3.351   5.386
 9979SOL    HW230837   5.100   3.300   5.367
 9980SOL     OW30838   1.182   0.914   0.159
 9980SOL    HW130839   1.101   0.919   0.218
 9980SOL    HW230840   1.154   0.923   0.064
 9981SOL     OW30841   0.545   2.361   1.297
 9981SOL    HW130842   0.602   2.442   1.277
 9981SOL    HW230843   0.454   2.374   1.260
 9982SOL     OW30844   2.280   1.431   4.976
 9982SOL    HW130845   2.183   1.449   4.959
 9982SOL    HW230846   2.331   1.517   4.973
 9983SOL     OW30847   6.519   2.903   1.888
 9983SOL    HW130848   6.600   2.925   1.944
 9983SOL    HW230849   6.526   2.951   1.801
 9984SOL     OW30850   0.136   6.322   1.311
 9984SOL    HW130851   0.170   6.334   1.404
 9984SOL    HW230852   0.202   6.270   1.258
 9985SOL     OW30853   3.978   5.222   0.649
 9985SOL    HW130854   3.921   5.224   0.566
 9985SOL    HW230855   4.058   5.281   0.636
 9986SOL     OW30856   5.064   4.603   0.107
 9986SOL    HW130857   5.153   4.630   0.069
 9986SOL    HW230858   4.997   4.674   0.086
 9987SOL     OW30859   5.264   3.048   1.390
 9987SOL    HW130860   5.251   3.015   1.296
 9987SOL    HW230861   5.176   3.056   1.435
 9988SOL     OW30862   6.167   6.128   4.092
 9988SOL    HW130863   6.079   6.176   4.095
 9988SOL    HW230864   6.155   6.039   4.048
 9989SOL     OW30865   6.518   4.207   1.931
 9989SOL    HW130866   6.420   4.197   1.942
 9989SOL    HW230867   6.539   4.302   1.906
 9990SOL     OW30868   0.657   6.797   3.140
 9990SOL    HW130869   0.675   6.717   3.197
 9990SOL    HW230870   0.713   6.874   3.172
 9991SOL     OW30871   1.633   3.847   4.058
 9991SOL    HW130872   1.710   3.869   4.117
 9991SOL    HW230873   1.665   3.841   3.963
 9992SOL     OW30874   3.198   4.561   0.847
 9992SOL    HW130875   3.291   4.554   0.812
 9992SOL    HW230876   3.189   4.644   0.901
 9993SOL     OW30877   3.533   6.448   3.959
 9993SOL    HW130878   3.506   6.471   3.865
 9993SOL    HW230879   3.626   6.482   3.975
 9994SOL     OW30880   6.895   3.734   4.577
 9994SOL    HW130881   6.929   3.807   4.636
 9994SOL    HW230882   6.808   3.699   4.613
 9995SOL     OW30883   2.817   0.673   4.643
 9995SOL    HW130884   2.763   0.612   4.586
 9995SOL    HW230885   2.763   0.754   4.666
 9996SOL     OW30886   2.283   3.841   0.754
 9996SOL    HW130887   2.183   3.842   0.753
 9996SOL    HW230888   2.317   3.866   0.663
 9997SOL     OW30889   5.830   1.801   4.006
 9997SOL    HW130890   5.736   1.813   4.035
 9997SOL    HW230891   5.831   1.763   3.913
 9998SOL     OW30892   5.138   3.724   3.009
 9998SOL    HW130893   5.060   3.664   3.027
 9998SOL    HW230894   5.222   3.678   3.040
 9999SOL     OW30895   0.327   6.723   3.760
 9999SOL    HW130896   0.276   6.779   3.824
 9999SOL    HW230897   0.350   6.635   3.802
10000SOL     OW30898   5.308   1.749   1.440
10000SOL    HW130899   5.287   1.731   1.537
10000SOL    HW230900   5.329   1.662   1.394
10001SOL     OW30901   2.883   6.694   2.642
10001SOL    HW130902   2.783   6.697   2.640
10001SOL    HW230903   2.918   6.783   2.670
10002SOL     OW30904   2.612   1.160   0.502
10002SOL    HW130905   2.574   1.164   0.410
10002SOL    HW230906   2.604   1.250   0.546
10003SOL     OW30907   2.253   1.964   2.774
10003SOL    HW130908   2.278   2.019   2.854
10003SOL    HW230909   2.302   1.998   2.694
10004SOL     OW30910   5.287   4.436   4.786
10004SOL    HW130911   5.302   4.531   4.758
10004SOL    HW230912   5.376   4.392   4.802
10005SOL     OW30913   2.935   5.721   3.720
10005SOL    HW130914   2.994   5.783   3.770
10005SOL    HW230915   2.935   5.631   3.765
10006SOL     OW30916   5.832   0.417   5.487
10006SOL    HW130917   5.859   0.344   5.425
10006SOL    HW230918   5.850   0.389   5.581
10007SOL     OW30919   0.969   4.031   4.498
10007SOL    HW130920   0.871   4.041   4.481
10007SOL    HW230921   1.020   4.099   4.444
10008SOL     OW30922   3.187   1.762   3.724
10008SOL    HW130923   3.237   1.817   3.791
10008SOL    HW230924   3.111   1.715   3.769
10009SOL     OW30925   2.295   4.178   2.074
10009SOL    HW130926   2.276   4.188   2.172
10009SOL    HW230927   2.325   4.266   2.037
10010SOL     OW30928   2.444   4.823   6.780
10010SOL    HW130929   2.376   4.786   6.717
10010SOL    HW230930   2.536   4.812   6.741
10011SOL     OW30931   0.338   4.259   0.663
10011SOL    HW130932   0.317   4.319   0.585
10011SOL    HW230933   0.268   4.188   0.669
10012SOL     OW30934   4.893   0.953   2.169
10012SOL    HW130935   4.942   0.902   2.098
10012SOL    HW230936   4.951   0.961   2.250
10013SOL     OW30937   1.663   5.440   5.120
10013SOL    HW130938   1.688   5.415   5.027
10013SOL    HW230939   1.666   5.359   5.178
10014SOL     OW30940   0.760   6.524   2.634
10014SOL    HW130941   0.683   6.460   2.630
10014SOL    HW230942   0.758   6.584   2.554
10015SOL     OW30943   3.819   5.354   6.569
10015SOL    HW130944   3.767   5.412   6.631
10015SOL    HW230945   3.904   5.400   6.544
10016SOL     OW30946   1.770   0.793   4.365
10016SOL    HW130947   1.752   0.699   4.338
10016SOL    HW230948   1.778   0.850   4.283
10017SOL     OW30949   2.570   1.870   2.878
10017SOL    HW130950   2.600   1.848   2.970
10017SOL    HW230951   2.582   1.969   2.862
10018SOL     OW30952   0.092   4.353   5.678
10018SOL    HW130953   0.177   4.300   5.678
10018SOL    HW230954   0.016   4.294   5.652
10019SOL     OW30955   6.809   1.422   3.188
10019SOL    HW130956   6.827   1.373   3.103
10019SOL    HW230957   6.718   1.463   3.185
10020SOL     OW30958   6.688   1.121   1.776
10020SOL    HW130959   6.693   1.184   1.853
10020SOL    HW230960   6.767   1.059   1.779
10021SOL     OW30961   1.668   3.089   1.479
10021SOL    HW130962   1.660   3.167   1.417
10021SOL    HW230963   1.735   3.109   1.550
10022SOL     OW30964   1.941   6.184   6.806
10022SOL    HW130965   1.994   6.255   6.852
10022SOL    HW230966   1.872   6.226   6.747
10023SOL     OW30967   2.707   6.349   5.626
10023SOL    HW130968   2.803   6.332   5.604
10023SOL    HW230969   2.671   6.272   5.679
10024SOL     OW30970   1.500   5.048   2.886
10024SOL    HW130971   1.487   4.954   2.917
10024SOL    HW230972   1.513   5.049   2.787
10025SOL     OW30973   1.573   3.464   1.741
10025SOL    HW130974   1.476   3.443   1.754
10025SOL    HW230975   1.591   3.483   1.645
10026SOL     OW30976   4.968   1.461   2.731
10026SOL    HW130977   4.894   1.470   2.664
10026SOL    HW230978   4.949   1.384   2.792
10027SOL     OW30979   1.273   2.668   5.131
10027SOL    HW130980   1.191   2.611   5.144
10027SOL    HW230981   1.294   2.674   5.033
10028SOL     OW30982   3.603   1.040   1.295
10028SOL    HW130983   3.533   1.081   1.353
10028SOL    HW230984   3.673   0.997   1.352
10029SOL     OW30985   6.857   2.765   4.267
10029SOL    HW130986   6.812   2.778   4.178
10029SOL    HW230987   6.937   2.825   4.273
10030SOL     OW30988   2.759   0.037   4.695
10030SOL    HW130989   2.768   0.018   4.793
10030SOL    HW230990   2.809   0.121   4.672
10031SOL     OW30991   4.599   5.050   4.987
10031SOL    HW130992   4.662   4.986   4.943
10031SOL    HW230993   4.521   5.066   4.926
10032SOL     OW30994   3.524   6.865   5.758
10032SOL    HW130995   3.603   6.895   5.704
10032SOL    HW230996   3.510   6.767   5.745
10033SOL     OW30997   4.592   1.427   3.808
10033SOL    HW130998   4.672   1.367   3.806
10033SOL    HW230999   4.599   1.490   3.885
10034SOL     OW31000   2.026   0.977   3.747
10034SOL    HW131001   1.927   0.989   3.741
10034SOL    HW231002   2.068   1.059   3.786
10035SOL     OW31003   6.070   3.951   0.078
10035SOL    HW131004   6.139   3.943   0.007
10035SOL    HW231005   6.023   3.864   0.090
10036SOL     OW31006   6.439   0.873   6.858
10036SOL    HW131007   6.467   0.796   6.915
10036SOL    HW231008   6.504   0.883   6.782
10037SOL     OW31009   6.475   0.173   6.104
10037SOL    HW131010   6.572   0.174   6.078
10037SOL    HW231011   6.447   0.265   6.131
10038SOL     OW31012   4.487   6.697   6.523
10038SOL    HW131013   4.565   6.688   6.460
10038SOL    HW231014   4.409   6.646   6.487
10039SOL     OW31015   5.268   5.903   4.633
10039SOL    HW131016   5.201   5.961   4.587
10039SOL    HW231017   5.243   5.893   4.729
10040SOL     OW31018   4.236   5.998   0.453
10040SOL    HW131019   4.276   5.907   0.468
10040SOL    HW231020   4.177   6.021   0.530
10041SOL     OW31021   6.471   5.108   4.914
10041SOL    HW131022   6.397   5.133   4.851
10041SOL    HW231023   6.530   5.187   4.930
10042SOL     OW31024   0.574   0.985   5.128
10042SOL    HW131025   0.641   1.053   5.097
10042SOL    HW231026   0.514   0.960   5.052
10043SOL     OW31027   0.730   0.767   2.713
10043SOL    HW131028   0.750   0.693   2.777
10043SOL    HW231029   0.631   0.780   2.706
10044SOL     OW31030   2.588   1.816   4.295
10044SOL    HW131031   2.522   1.761   4.346
10044SOL    HW231032   2.600   1.905   4.340
10045SOL     OW31033   4.907   0.250   4.159
10045SOL    HW131034   4.948   0.160   4.170
10045SOL    HW231035   4.868   0.259   4.067
10046SOL     OW31036   0.047   1.422   1.541
10046SOL    HW131037   0.118   1.488   1.564
10046SOL    HW231038   6.994   1.467   1.489
10047SOL     OW31039   6.331   3.300   5.340
10047SOL    HW131040   6.263   3.238   5.301
10047SOL    HW231041   6.290   3.390   5.352
10048SOL     OW31042   3.113   1.842   1.532
10048SOL    HW131043   3.044   1.773   1.509
10048SOL    HW231044   3.203   1.810   1.504
10049SOL     OW31045   0.724   1.054   6.743
10049SOL    HW131046   0.712   1.142   6.790
10049SOL    HW231047   0.705   1.066   6.645
10050SOL     OW31048   5.702   2.818   4.879
10050SOL    HW131049   5.635   2.744   4.869
10050SOL    HW231050   5.659   2.905   4.857
10051SOL     OW31051   0.107   3.165   4.851
10051SOL    HW131052   0.165   3.230   4.899
10051SOL    HW231053   0.083   3.090   4.912
10052SOL     OW31054   2.010   2.709   2.110
10052SOL    HW131055   2.091   2.657   2.084
10052SOL    HW231056   1.967   2.666   2.190
10053SOL     OW31057   3.951   4.846   2.389
10053SOL    HW131058   3.893   4.846   2.470
10053SOL    HW231059   4.029   4.907   2.403
10054SOL     OW31060   4.443   5.997   6.283
10054SOL    HW131061   4.434   5.908   6.238
10054SOL    HW231062   4.352   6.037   6.297
10055SOL     OW31063   6.095   2.321   4.930
10055SOL    HW131064   6.096   2.237   4.876
10055SOL    HW231065   6.011   2.372   4.911
10056SOL     OW31066   6.023   5.248   0.848
10056SOL    HW131067   5.928   5.219   0.848
10056SOL    HW231068   6.033   5.330   0.791
10057SOL     OW31069   3.276   1.609   4.150
10057SOL    HW131070   3.272   1.525   4.205
10057SOL    HW231071   3.229   1.683   4.198
10058SOL     OW31072   6.925   3.961   5.165
10058SOL    HW131073   6.888   3.887   5.221
10058SOL    HW231074   0.003   3.949   5.153
10059SOL     OW31075   4.965   6.626   1.159
10059SOL    HW131076   4.867   6.639   1.168
10059SOL    HW231077   5.009   6.712   1.134
10060SOL     OW31078   2.299   1.703   2.690
10060SOL    HW131079   2.229   1.751   2.636
10060SOL    HW231080   2.337   1.766   2.758
10061SOL     OW31081   5.206   1.061   4.349
10061SOL    HW131082   5.234   1.135   4.288
10061SOL    HW231083   5.107   1.065   4.363
10062SOL     OW31084   6.386   6.864   5.015
10062SOL    HW131085   6.478   6.891   4.984
10062SOL    HW231086   6.353   6.789   4.959
10063SOL     OW31087   1.261   1.780   3.244
10063SOL    HW131088   1.351   1.799   3.283
10063SOL    HW231089   1.254   1.823   3.154
10064SOL     OW31090   5.720   5.586   5.715
10064SOL    HW131091   5.800   5.527   5.726
10064SOL    HW231092   5.639   5.541   5.753
10065SOL     OW31093   1.619   0.592   1.594
10065SOL    HW131094   1.637   0.496   1.618
10065SOL    HW231095   1.656   0.651   1.665
10066SOL     OW31096   1.593   1.145   4.205
10066SOL    HW131097   1.690   1.169   4.204
10066SOL    HW231098   1.574   1.076   4.136
10067SOL     OW31099   5.245   4.775   5.562
10067SOL    HW131100   5.167   4.756   5.502
10067SOL    HW231101   5.329   4.777   5.508
10068SOL     OW31102   5.082   3.012   3.729
10068SOL    HW131103   5.056   2.982   3.821
10068SOL    HW231104   5.082   2.934   3.667
10069SOL     OW31105   1.885   6.331   3.822
10069SOL    HW131106   1.787   6.307   3.824
10069SOL    HW231107   1.909   6.364   3.730
10070SOL     OW31108   0.469   6.786   5.027
10070SOL    HW131109   0.468   6.874   4.978
10070SOL    HW231110   0.436   6.714   4.966
10071SOL     OW31111   4.516   5.166   4.428
10071SOL    HW131112   4.614   5.185   4.436
10071SOL    HW231113   4.465   5.252   4.435
10072SOL     OW31114   1.064   6.538   4.403
10072SOL    HW131115   0.980   6.505   4.359
10072SOL    HW231116   1.136   6.548   4.334
10073SOL     OW31117   6.295   3.721   5.010
10073SOL    HW131118   6.364   3.736   5.081
10073SOL    HW231119   6.247   3.807   4.992
10074SOL     OW31120   0.539   0.541   5.940
10074SOL    HW131121   0.624   0.488   5.932
10074SOL    HW231122   0.466   0.494   5.891
10075SOL     OW31123   1.551   2.373   2.543
10075SOL    HW131124   1.649   2.388   2.556
10075SOL    HW231125   1.501   2.403   2.624
10076SOL     OW31126   5.767   0.301   3.965
10076SOL    HW131127   5.700   0.264   3.900
10076SOL    HW231128   5.854   0.316   3.918
10077SOL     OW31129   3.580   2.435   6.825
10077SOL    HW131130   3.498   2.454   6.771
10077SOL    HW231131   3.592   2.506   6.894
10078SOL     OW31132   6.575   6.445   3.805
10078SOL    HW131133   6.539   6.536   3.824
10078SOL    HW231134   6.609   6.403   3.889
10079SOL     OW31135   1.460   2.882   2.004
10079SOL    HW131136   1.512   2.802   2.033
10079SOL    HW231137   1.362   2.863   2.011
10080SOL     OW31138   3.180   1.976   6.454
10080SOL    HW131139   3.213   2.024   6.373
10080SOL    HW231140   3.232   2.005   6.534
10081SOL     OW31141   0.050   0.069   6.540
10081SOL    HW131142   0.136   0.025   6.563
10081SOL    HW231143   0.067   0.150   6.485
10082SOL     OW31144   0.038   3.008   2.691
10082SOL    HW131145   6.982   2.962   2.736
10082SOL    HW231146   0.025   3.107   2.698
10083SOL     OW31147   5.246   1.093   3.599
10083SOL    HW131148   5.274   1.159   3.530
10083SOL    HW231149   5.146   1.085   3.600
10084SOL     OW31150   3.958   0.540   6.173
10084SOL    HW131151   3.983   0.452   6.212
10084SOL    HW231152   4.017   0.612   6.210
10085SOL     OW31153   0.201   4.875   2.555
10085SOL    HW131154   0.236   4.964   2.525
10085SOL    HW231155   0.117   4.888   2.607
10086SOL     OW31156   5.820   5.300   2.372
10086SOL    HW131157   5.755   5.244   2.423
10086SOL    HW231158   5.829   5.265   2.279
10087SOL     OW31159   0.845   0.880   4.081
10087SOL    HW131160   0.903   0.950   4.039
10087SOL    HW231161   0.840   0.896   4.180
10088SOL     OW31162   6.983   6.978   6.302
10088SOL    HW131163   6.914   0.026   6.276
10088SOL    HW231164   6.989   6.974   6.402
10089SOL     OW31165   2.539   2.139   2.981
10089SOL    HW131166   2.570   2.157   3.075
10089SOL    HW231167   2.551   2.222   2.926
10090SOL     OW31168   0.222   4.804   1.062
10090SOL    HW131169   0.314   4.765   1.073
10090SOL    HW231170   0.217   4.891   1.112
10091SOL     OW31171   1.090   3.062   5.079
10091SOL    HW131172   1.046   2.998   5.142
10091SOL    HW231173   1.123   3.013   4.999
10092SOL     OW31174   1.591   3.404   5.077
10092SOL    HW131175   1.653   3.344   5.026
10092SOL    HW231176   1.516   3.350   5.115
10093SOL     OW31177   1.504   4.344   4.479
10093SOL    HW131178   1.513   4.402   4.560
10093SOL    HW231179   1.581   4.281   4.475
10094SOL     OW31180   2.808   6.517   1.904
10094SOL    HW131181   2.862   6.600   1.910
10094SOL    HW231182   2.866   6.440   1.876
10095SOL     OW31183   6.283   1.584   5.210
10095SOL    HW131184   6.342   1.655   5.173
10095SOL    HW231185   6.218   1.625   5.275
10096SOL     OW31186   6.365   4.941   2.902
10096SOL    HW131187   6.456   4.901   2.915
10096SOL    HW231188   6.373   5.040   2.895
10097SOL     OW31189   0.834   1.295   6.846
10097SOL    HW131190   0.888   1.323   6.766
10097SOL    HW231191   0.882   1.323   6.930
10098SOL     OW31192   2.039   6.937   5.241
10098SOL    HW131193   2.114   6.938   5.308
10098SOL    HW231194   1.952   6.933   5.288
10099SOL     OW31195   6.895   4.937   6.675
10099SOL    HW131196   6.810   4.885   6.666
10099SOL    HW231197   6.900   5.005   6.602
10100SOL     OW31198   5.346   6.939   4.675
10100SOL    HW131199   5.311   6.951   4.768
10100SOL    HW231200   5.364   6.842   4.657
10101SOL     OW31201   5.454   4.639   1.737
10101SOL    HW131202   5.375   4.610   1.791
10101SOL    HW231203   5.431   4.633   1.640
10102SOL     OW31204   2.097   0.457   2.820
10102SOL    HW131205   2.112   0.527   2.750
10102SOL    HW231206   2.048   0.379   2.780
10103SOL     OW31207   2.669   1.256   4.778
10103SOL    HW131208   2.673   1.175   4.720
10103SOL    HW231209   2.716   1.332   4.732
10104SOL     OW31210   1.212   3.391   4.941
10104SOL    HW131211   1.278   3.464   4.953
10104SOL    HW231212   1.257   3.302   4.955
10105SOL     OW31213   1.136   1.537   6.535
10105SOL    HW131214   1.084   1.457   6.565
10105SOL    HW231215   1.164   1.591   6.614
10106SOL     OW31216   4.987   5.057   0.947
10106SOL    HW131217   4.930   5.061   1.029
10106SOL    HW231218   5.078   5.025   0.970
10107SOL     OW31219   6.877   1.854   6.549
10107SOL    HW131220   6.964   1.806   6.556
10107SOL    HW231221   6.822   1.836   6.631
10108SOL     OW31222   6.528   6.020   6.934
10108SOL    HW131223   6.564   6.112   6.950
10108SOL    HW231224   6.469   6.020   6.854
10109SOL     OW31225   3.777   6.397   2.489
10109SOL    HW131226   3.759   6.310   2.535
10109SOL    HW231227   3.850   6.384   2.421
10110SOL     OW31228   3.956   6.564   5.034
10110SOL    HW131229   3.888   6.637   5.040
10110SOL    HW231230   3.972   6.540   4.938
10111SOL     OW31231   6.171   3.129   3.869
10111SOL    HW131232   6.251   3.179   3.904
10111SOL    HW231233   6.170   3.037   3.908
10112SOL     OW31234   5.637   3.978   4.961
10112SOL    HW131235   5.599   4.035   4.888
10112SOL    HW231236   5.631   3.881   4.935
10113SOL     OW31237   3.772   1.230   6.412
10113SOL    HW131238   3.851   1.205   6.356
10113SOL    HW231239   3.713   1.293   6.360
10114SOL     OW31240   5.550   0.202   1.122
10114SOL    HW131241   5.465   0.189   1.071
10114SOL    HW231242   5.530   0.221   1.218
10115SOL     OW31243   3.087   2.123   3.366
10115SOL    HW131244   3.050   2.031   3.352
10115SOL    HW231245   3.025   2.190   3.325
10116SOL     OW31246   0.758   6.416   0.287
10116SOL    HW131247   0.815   6.432   0.207
10116SOL    HW231248   0.751   6.501   0.340
10117SOL     OW31249   6.579   6.889   4.548
10117SOL    HW131250   6.492   6.922   4.585
10117SOL    HW231251   6.627   6.836   4.618
10118SOL     OW31252   6.965   5.370   3.074
10118SOL    HW131253   0.017   5.374   3.143
10118SOL    HW231254   6.991   5.305   3.003
10119SOL     OW31255   1.527   6.718   4.833
10119SOL    HW131256   1.497   6.630   4.795
10119SOL    HW231257   1.625   6.714   4.852
10120SOL     OW31258   0.776   3.453   4.225
10120SOL    HW131259   0.849   3.485   4.286
10120SOL    HW231260   0.698   3.424   4.280
10121SOL     OW31261   6.506   4.890   5.473
10121SOL    HW131262   6.466   4.976   5.440
10121SOL    HW231263   6.464   4.865   5.560
10122SOL     OW31264   5.093   2.982   0.658
10122SOL    HW131265   5.047   2.898   0.686
10122SOL    HW231266   5.115   2.978   0.560
10123SOL     OW31267   6.643   6.441   0.495
10123SOL    HW131268   6.658   6.519   0.556
10123SOL    HW231269   6.601   6.366   0.546
10124SOL     OW31270   1.704   3.670   6.517
10124SOL    HW131271   1.687   3.684   6.615
10124SOL    HW231272   1.700   3.572   6.496
10125SOL     OW31273   1.653   1.056   2.409
10125SOL    HW131274   1.736   1.072   2.462
10125SOL    HW231275   1.623   1.141   2.366
10126SOL     OW31276   0.212   6.666   6.421
10126SOL    HW131277   0.165   6.619   6.495
10126SOL    HW231278   0.202   6.765   6.431
10127SOL     OW31279   2.860   4.854   5.759
10127SOL    HW131280   2.838   4.758   5.778
10127SOL    HW231281   2.889   4.899   5.843
10128SOL     OW31282   1.055   2.080   1.452
10128SOL    HW131283   0.957   2.070   1.467
10128SOL    HW231284   1.096   2.132   1.527
10129SOL     OW31285   4.737   2.741   4.304
10129SOL    HW131286   4.738   2.646   4.337
10129SOL    HW231287   4.718   2.742   4.206
10130SOL     OW31288   2.281   4.298   2.452
10130SOL    HW131289   2.280   4.214   2.398
10130SOL    HW231290   2.209   4.295   2.521
10131SOL     OW31291   0.270   1.199   3.401
10131SOL    HW131292   0.284   1.294   3.375
10131SOL    HW231293   0.305   1.184   3.494
10132SOL     OW31294   2.266   6.712   3.331
10132SOL    HW131295   2.248   6.788   3.393
10132SOL    HW231296   2.179   6.669   3.305
10133SOL     OW31297   4.801   6.269   2.098
10133SOL    HW131298   4.758   6.223   2.175
10133SOL    HW231299   4.789   6.368   2.107
10134SOL     OW31300   0.005   0.270   3.685
10134SOL    HW131301   6.978   0.312   3.763
10134SOL    HW231302   0.060   0.339   3.638
10135SOL     OW31303   5.482   3.315   3.491
10135SOL    HW131304   5.452   3.220   3.506
10135SOL    HW231305   5.407   3.367   3.451
10136SOL     OW31306   5.498   0.312   2.495
10136SOL    HW131307   5.528   0.374   2.422
10136SOL    HW231308   5.439   0.362   2.558
10137SOL     OW31309   6.336   4.856   4.092
10137SOL    HW131310   6.417   4.799   4.077
10137SOL    HW231311   6.254   4.804   4.069
10138SOL     OW31312   4.493   2.310   1.145
10138SOL    HW131313   4.559   2.372   1.187
10138SOL    HW231314   4.433   2.361   1.084
10139SOL     OW31315   3.761   3.380   3.135
10139SOL    HW131316   3.816   3.339   3.207
10139SOL    HW231317   3.714   3.308   3.084
10140SOL     OW31318   6.732   5.952   5.742
10140SOL    HW131319   6.738   5.868   5.795
10140SOL    HW231320   6.636   5.973   5.725
10141SOL     OW31321   3.022   1.342   4.000
10141SOL    HW131322   2.933   1.317   4.036
10141SOL    HW231323   3.012   1.375   3.906
10142SOL     OW31324   6.176   6.863   4.808
10142SOL    HW131325   6.152   6.778   4.855
10142SOL    HW231326   6.139   6.940   4.859
10143SOL     OW31327   4.668   0.530   0.866
10143SOL    HW131328   4.644   0.436   0.888
10143SOL    HW231329   4.601   0.592   0.906
10144SOL     OW31330   4.372   6.784   6.749
10144SOL    HW131331   4.424   6.767   6.665
10144SOL    HW231332   4.293   6.723   6.752
10145SOL     OW31333   3.875   5.946   6.203
10145SOL    HW131334   3.887   6.042   6.227
10145SOL    HW231335   3.813   5.938   6.124
10146SOL     OW31336   3.821   5.030   5.107
10146SOL    HW131337   3.729   5.014   5.071
10146SOL    HW231338   3.830   4.984   5.196
10147SOL     OW31339   5.073   4.689   4.728
10147SOL    HW131340   5.060   4.646   4.639
10147SOL    HW231341   4.994   4.670   4.786
10148SOL     OW31342   5.840   5.001   6.668
10148SOL    HW131343   5.856   5.099   6.682
10148SOL    HW231344   5.912   4.949   6.714
10149SOL     OW31345   5.389   1.712   1.003
10149SOL    HW131346   5.291   1.716   0.985
10149SOL    HW231347   5.404   1.664   1.090
10150SOL     OW31348   4.570   3.585   0.681
10150SOL    HW131349   4.634   3.530   0.627
10150SOL    HW231350   4.613   3.610   0.768
10151SOL     OW31351   0.825   6.539   6.809
10151SOL    HW131352   0.734   6.568   6.778
10151SOL    HW231353   0.818   6.453   6.859
10152SOL     OW31354   1.402   6.165   4.468
10152SOL    HW131355   1.341   6.220   4.525
10152SOL    HW231356   1.493   6.163   4.509
10153SOL     OW31357   5.144   5.841   4.029
10153SOL    HW131358   5.060   5.788   4.018
10153SOL    HW231359   5.215   5.805   3.968
10154SOL     OW31360   6.096   0.129   4.822
10154SOL    HW131361   6.018   0.084   4.866
10154SOL    HW231362   6.081   0.132   4.723
10155SOL     OW31363   3.964   2.101   5.572
10155SOL    HW131364   4.005   2.012   5.593
10155SOL    HW231365   3.875   2.088   5.530
10156SOL     OW31366   6.242   0.593   2.272
10156SOL    HW131367   6.244   0.536   2.189
10156SOL    HW231368   6.299   0.674   2.257
10157SOL     OW31369   6.031   3.189   6.244
10157SOL    HW131370   6.042   3.155   6.337
10157SOL    HW231371   6.085   3.132   6.181
10158SOL     OW31372   5.003   3.472   0.560
10158SOL    HW131373   4.935   3.527   0.513
10158SOL    HW231374   4.963   3.385   0.588
10159SOL     OW31375   2.787   3.520   6.215
10159SOL    HW131376   2.786   3.517   6.315
10159SOL    HW231377   2.837   3.441   6.180
10160SOL     OW31378   1.969   3.387   2.463
10160SOL    HW131379   1.965   3.287   2.460
10160SOL    HW231380   2.014   3.416   2.547
10161SOL     OW31381   3.438   3.548   6.749
10161SOL    HW131382   3.371   3.622   6.760
10161SOL    HW231383   3.507   3.576   6.681
10162SOL     OW31384   2.800   4.985   0.568
10162SOL    HW131385   2.776   5.074   0.607
10162SOL    HW231386   2.883   4.993   0.514
10163SOL     OW31387   5.139   5.505   6.486
10163SOL    HW131388   5.201   5.579   6.459
10163SOL    HW231389   5.045   5.529   6.462
10164SOL     OW31390   5.586   3.095   4.623
10164SOL    HW131391   5.533   3.015   4.595
10164SOL    HW231392   5.586   3.102   4.722
10165SOL     OW31393   0.572   1.384   3.472
10165SOL    HW131394   0.488   1.436   3.480
10165SOL    HW231395   0.600   1.352   3.563
10166SOL     OW31396   3.505   1.238   2.493
10166SOL    HW131397   3.478   1.282   2.579
10166SOL    HW231398   3.451   1.275   2.418
10167SOL     OW31399   3.695   2.308   6.431
10167SOL    HW131400   3.761   2.365   6.479
10167SOL    HW231401   3.669   2.230   6.488
10168SOL     OW31402   6.109   4.172   5.443
10168SOL    HW131403   6.024   4.208   5.405
10168SOL    HW231404   6.136   4.089   5.394
10169SOL     OW31405   6.087   3.950   2.919
10169SOL    HW131406   5.992   3.941   2.952
10169SOL    HW231407   6.138   3.867   2.940
10170SOL     OW31408   1.134   4.520   6.113
10170SOL    HW131409   1.173   4.429   6.106
10170SOL    HW231410   1.037   4.517   6.089
10171SOL     OW31411   6.428   3.560   5.531
10171SOL    HW131412   6.344   3.582   5.481
10171SOL    HW231413   6.412   3.481   5.591
10172SOL     OW31414   6.231   6.858   4.336
10172SOL    HW131415   6.173   6.876   4.415
10172SOL    HW231416   6.244   6.942   4.284
10173SOL     OW31417   0.745   2.926   1.061
10173SOL    HW131418   0.818   2.873   1.105
10173SOL    HW231419   0.714   2.997   1.123
10174SOL     OW31420   5.350   5.244   2.559
10174SOL    HW131421   5.259   5.225   2.523
10174SOL    HW231422   5.418   5.227   2.487
10175SOL     OW31423   6.565   2.487   3.652
10175SOL    HW131424   6.475   2.445   3.665
10175SOL    HW231425   6.612   2.444   3.575
10176SOL     OW31426   1.572   3.456   5.808
10176SOL    HW131427   1.584   3.381   5.744
10176SOL    HW231428   1.608   3.540   5.769
10177SOL     OW31429   1.705   1.230   0.201
10177SOL    HW131430   1.615   1.259   0.234
10177SOL    HW231431   1.770   1.228   0.277
10178SOL     OW31432   0.297   2.142   5.055
10178SOL    HW131433   0.231   2.085   5.005
10178SOL    HW231434   0.384   2.142   5.006
10179SOL     OW31435   0.558   1.848   6.030
10179SOL    HW131436   0.648   1.876   5.999
10179SOL    HW231437   0.561   1.830   6.129
10180SOL     OW31438   3.732   0.327   0.101
10180SOL    HW131439   3.798   0.402   0.093
10180SOL    HW231440   3.774   0.250   0.150
10181SOL     OW31441   5.289   3.076   1.877
10181SOL    HW131442   5.371   3.115   1.918
10181SOL    HW231443   5.244   3.144   1.819
10182SOL     OW31444   5.530   0.717   1.846
10182SOL    HW131445   5.574   0.804   1.868
10182SOL    HW231446   5.562   0.647   1.910
10183SOL     OW31447   0.333   2.158   6.397
10183SOL    HW131448   0.269   2.098   6.445
10183SOL    HW231449   0.301   2.175   6.304
10184SOL     OW31450   3.733   0.987   6.742
10184SOL    HW131451   3.808   0.949   6.688
10184SOL    HW231452   3.725   0.936   6.828
10185SOL     OW31453   5.481   5.881   1.832
10185SOL    HW131454   5.488   5.806   1.898
10185SOL    HW231455   5.426   5.852   1.754
10186SOL     OW31456   5.842   3.412   3.359
10186SOL    HW131457   5.829   3.360   3.443
10186SOL    HW231458   5.832   3.509   3.377
10187SOL     OW31459   0.555   2.852   0.888
10187SOL    HW131460   0.470   2.890   0.927
10187SOL    HW231461   0.633   2.888   0.939
10188SOL     OW31462   3.531   5.232   0.757
10188SOL    HW131463   3.454   5.196   0.810
10188SOL    HW231464   3.528   5.195   0.664
10189SOL     OW31465   1.151   0.471   6.059
10189SOL    HW131466   1.121   0.537   5.990
10189SOL    HW231467   1.141   0.378   6.024
10190SOL     OW31468   4.740   3.254   1.607
10190SOL    HW131469   4.725   3.348   1.637
10190SOL    HW231470   4.661   3.222   1.555
10191SOL     OW31471   5.105   4.913   6.023
10191SOL    HW131472   5.150   4.838   5.975
10191SOL    HW231473   5.006   4.899   6.022
10192SOL     OW31474   4.778   1.776   5.953
10192SOL    HW131475   4.759   1.684   5.989
10192SOL    HW231476   4.850   1.818   6.007
10193SOL     OW31477   4.003   3.661   1.785
10193SOL    HW131478   3.974   3.584   1.728
10193SOL    HW231479   4.025   3.627   1.877
10194SOL     OW31480   5.867   4.692   4.934
10194SOL    HW131481   5.878   4.642   5.020
10194SOL    HW231482   5.771   4.717   4.921
10195SOL     OW31483   6.022   5.089   1.203
10195SOL    HW131484   6.056   5.140   1.124
10195SOL    HW231485   6.066   5.000   1.207
10196SOL     OW31486   4.236   1.577   3.818
10196SOL    HW131487   4.306   1.640   3.785
10196SOL    HW231488   4.145   1.615   3.799
10197SOL     OW31489   6.599   2.072   5.133
10197SOL    HW131490   6.669   2.052   5.202
10197SOL    HW231491   6.548   2.154   5.160
10198SOL     OW31492   3.273   0.572   1.729
10198SOL    HW131493   3.278   0.472   1.724
10198SOL    HW231494   3.194   0.599   1.783
10199SOL     OW31495   2.510   2.938   6.067
10199SOL    HW131496   2.541   2.951   6.161
10199SOL    HW231497   2.518   2.841   6.043
10200SOL     OW31498   5.056   1.461   1.343
10200SOL    HW131499   5.019   1.443   1.434
10200SOL    HW231500   4.984   1.498   1.284
10201SOL     OW31501   1.418   4.382   0.742
10201SOL    HW131502   1.326   4.343   0.754
10201SOL    HW231503   1.422   4.472   0.785
10202SOL     OW31504   3.912   3.015   6.976
10202SOL    HW131505   3.855   3.071   0.015
10202SOL    HW231506   3.906   2.919   7.005
10203SOL     OW31507   6.370   3.170   3.671
10203SOL    HW131508   6.283   3.176   3.722
10203SOL    HW231509   6.425   3.096   3.709
10204SOL     OW31510   5.045   6.906   6.855
10204SOL    HW131511   5.038   6.817   6.901
10204SOL    HW231512   5.017   6.897   6.760
10205SOL     OW31513   1.687   1.030   0.902
10205SOL    HW131514   1.701   1.101   0.972
10205SOL    HW231515   1.589   1.015   0.889
10206SOL     OW31516   7.010   1.132   6.364
10206SOL    HW131517   7.011   1.073   6.445
10206SOL    HW231518   6.917   1.165   6.347
10207SOL     OW31519   1.280   1.863   6.869
10207SOL    HW131520   1.316   1.861   6.775
10207SOL    HW231521   1.218   1.941   6.879
10208SOL     OW31522   5.906   4.990   3.997
10208SOL    HW131523   5.813   4.960   4.020
10208SOL    HW231524   5.971   4.954   4.064
10209SOL     OW31525   6.434   6.920   6.009
10209SOL    HW131526   6.511   6.868   5.973
10209SOL    HW231527   6.467   6.989   6.074
10210SOL     OW31528   4.916   6.588   1.575
10210SOL    HW131529   4.938   6.515   1.510
10210SOL    HW231530   4.986   6.590   1.647
10211SOL     OW31531   3.806   6.510   4.047
10211SOL    HW131532   3.799   6.517   4.146
10211SOL    HW231533   3.834   6.417   4.022
10212SOL     OW31534   0.962   0.497   5.157
10212SOL    HW131535   0.922   0.439   5.086
10212SOL    HW231536   0.889   0.538   5.211
10213SOL     OW31537   4.493   2.935   1.424
10213SOL    HW131538   4.516   3.031   1.408
10213SOL    HW231539   4.543   2.901   1.503
10214SOL     OW31540   0.863   1.729   1.562
10214SOL    HW131541   0.813   1.792   1.622
10214SOL    HW231542   0.821   1.727   1.472
10215SOL     OW31543   3.862   2.946   3.567
10215SOL    HW131544   3.776   2.978   3.525
10215SOL    HW231545   3.847   2.932   3.665
10216SOL     OW31546   6.741   0.547   0.788
10216SOL    HW131547   6.790   0.528   0.703
10216SOL    HW231548   6.762   0.640   0.818
10217SOL     OW31549   2.651   1.263   3.145
10217SOL    HW131550   2.557   1.289   3.120
10217SOL    HW231551   2.679   1.183   3.093
10218SOL     OW31552   1.446   2.201   2.169
10218SOL    HW131553   1.458   2.105   2.146
10218SOL    HW231554   1.524   2.254   2.134
10219SOL     OW31555   0.027   1.994   2.574
10219SOL    HW131556   6.991   1.992   2.657
10219SOL    HW231557   0.091   2.071   2.580
10220SOL     OW31558   4.011   2.735   1.386
10220SOL    HW131559   4.073   2.810   1.361
10220SOL    HW231560   3.960   2.707   1.305
10221SOL     OW31561   0.487   5.734   3.181
10221SOL    HW131562   0.553   5.803   3.152
10221SOL    HW231563   0.497   5.717   3.279
10222SOL     OW31564   2.853   3.153   5.271
10222SOL    HW131565   2.756   3.127   5.278
10222SOL    HW231566   2.862   3.232   5.210
10223SOL     OW31567   0.772   4.264   1.108
10223SOL    HW131568   0.786   4.203   1.030
10223SOL    HW231569   0.856   4.268   1.162
10224SOL     OW31570   6.575   2.952   3.744
10224SOL    HW131571   6.559   2.936   3.841
10224SOL    HW231572   6.523   2.887   3.690
10225SOL     OW31573   2.292   4.696   5.764
10225SOL    HW131574   2.221   4.765   5.773
10225SOL    HW231575   2.250   4.605   5.759
10226SOL     OW31576   3.147   1.018   6.943
10226SOL    HW131577   3.168   0.925   6.914
10226SOL    HW231578   3.191   1.037   0.011
10227SOL     OW31579   4.883   4.049   0.083
10227SOL    HW131580   4.827   4.110   0.026
10227SOL    HW231581   4.975   4.088   0.093
10228SOL     OW31582   6.679   0.098   0.965
10228SOL    HW131583   6.663   0.174   1.027
10228SOL    HW231584   6.594   0.046   0.952
10229SOL     OW31585   1.061   2.458   4.746
10229SOL    HW131586   1.076   2.556   4.741
10229SOL    HW231587   1.101   2.422   4.830
10230SOL     OW31588   6.181   5.748   3.077
10230SOL    HW131589   6.269   5.740   3.123
10230SOL    HW231590   6.113   5.694   3.127
10231SOL     OW31591   1.413   5.569   5.116
10231SOL    HW131592   1.511   5.547   5.112
10231SOL    HW231593   1.360   5.484   5.123
10232SOL     OW31594   2.587   0.740   3.325
10232SOL    HW131595   2.567   0.671   3.256
10232SOL    HW231596   2.673   0.787   3.302
10233SOL     OW31597   4.031   3.989   5.170
10233SOL    HW131598   4.023   3.910   5.230
10233SOL    HW231599   3.954   3.991   5.106
10234SOL     OW31600   6.347   7.012   1.129
10234SOL    HW131601   6.272   6.960   1.169
10234SOL    HW231602   6.384   6.962   1.050
10235SOL     OW31603   1.738   2.194   1.895
10235SOL    HW131604   1.830   2.156   1.880
10235SOL    HW231605   1.672   2.119   1.900
10236SOL     OW31606   2.411   6.708   0.156
10236SOL    HW131607   2.495   6.697   0.209
10236SOL    HW231608   2.403   6.634   0.089
10237SOL     OW31609   6.876   3.648   0.351
10237SOL    HW131610   6.968   3.638   0.314
10237SOL    HW231611   6.858   3.573   0.415
10238SOL     OW31612   3.990   4.692   1.497
10238SOL    HW131613   3.991   4.703   1.596
10238SOL    HW231614   4.067   4.740   1.456
10239SOL     OW31615   1.145   2.740   4.760
10239SOL    HW131616   1.235   2.734   4.803
10239SOL    HW231617   1.155   2.772   4.666
10240SOL     OW31618   2.740   5.961   2.365
10240SOL    HW131619   2.722   5.869   2.329
10240SOL    HW231620   2.682   6.027   2.317
10241SOL     OW31621   5.228   1.488   2.078
10241SOL    HW131622   5.211   1.491   1.979
10241SOL    HW231623   5.158   1.433   2.122
10242SOL     OW31624   6.719   1.680   0.400
10242SOL    HW131625   6.764   1.752   0.452
10242SOL    HW231626   6.622   1.676   0.424
10243SOL     OW31627   2.696   4.500   1.449
10243SOL    HW131628   2.689   4.459   1.358
10243SOL    HW231629   2.605   4.529   1.479
10244SOL     OW31630   2.299   3.941   0.474
10244SOL    HW131631   2.331   4.010   0.410
10244SOL    HW231632   2.266   3.861   0.424
10245SOL     OW31633   3.423   4.551   1.100
10245SOL    HW131634   3.398   4.646   1.119
10245SOL    HW231635   3.520   4.538   1.118
10246SOL     OW31636   2.922   3.607   4.519
10246SOL    HW131637   2.885   3.654   4.599
10246SOL    HW231638   3.022   3.612   4.520
10247SOL     OW31639   0.621   4.110   6.210
10247SOL    HW131640   0.612   4.204   6.245
10247SOL    HW231641   0.531   4.067   6.206
10248SOL     OW31642   1.027   0.590   2.650
10248SOL    HW131643   0.987   0.660   2.591
10248SOL    HW231644   1.022   0.501   2.604
10249SOL     OW31645   2.320   4.838   0.157
10249SOL    HW131646   2.371   4.924   0.158
10249SOL    HW231647   2.379   4.763   0.186
10250SOL     OW31648   6.859   3.884   0.854
10250SOL    HW131649   6.866   3.979   0.824
10250SOL    HW231650   6.921   3.827   0.800
10251SOL     OW31651   2.135   1.412   4.341
10251SOL    HW131652   2.157   1.315   4.331
10251SOL    HW231653   2.124   1.453   4.251
10252SOL     OW31654   4.402   3.701   6.123
10252SOL    HW131655   4.322   3.642   6.128
10252SOL    HW231656   4.381   3.790   6.163
10253SOL     OW31657   3.385   6.408   0.796
10253SOL    HW131658   3.407   6.326   0.848
10253SOL    HW231659   3.292   6.401   0.760
10254SOL     OW31660   4.294   1.546   5.596
10254SOL    HW131661   4.257   1.573   5.507
10254SOL    HW231662   4.336   1.626   5.640
10255SOL     OW31663   2.518   0.028   0.934
10255SOL    HW131664   2.442   0.086   0.962
10255SOL    HW231665   2.525   6.971   0.997
10256SOL     OW31666   4.649   0.849   2.272
10256SOL    HW131667   4.595   0.868   2.190
10256SOL    HW231668   4.747   0.860   2.251
10257SOL     OW31669   1.946   4.960   4.202
10257SOL    HW131670   2.031   4.957   4.255
10257SOL    HW231671   1.968   4.956   4.105
10258SOL     OW31672   3.973   2.219   3.637
10258SOL    HW131673   3.901   2.159   3.672
10258SOL    HW231674   4.032   2.250   3.712
10259SOL     OW31675   0.836   4.040   3.423
10259SOL    HW131676   0.776   4.098   3.479
10259SOL    HW231677   0.796   3.949   3.416
10260SOL     OW31678   0.608   1.300   3.738
10260SOL    HW131679   0.683   1.237   3.760
10260SOL    HW231680   0.567   1.333   3.823
10261SOL     OW31681   6.835   4.745   0.418
10261SOL    HW131682   6.820   4.650   0.393
10261SOL    HW231683   6.930   4.758   0.445
10262SOL     OW31684   3.328   6.917   6.432
10262SOL    HW131685   3.372   6.880   6.350
10262SOL    HW231686   3.268   6.992   6.407
10263SOL     OW31687   6.092   0.404   0.346
10263SOL    HW131688   6.080   0.339   0.421
10263SOL    HW231689   6.007   0.412   0.294
10264SOL     OW31690   6.047   5.415   6.353
10264SOL    HW131691   6.087   5.461   6.433
10264SOL    HW231692   5.948   5.425   6.356
10265SOL     OW31693   3.226   2.468   0.202
10265SOL    HW131694   3.178   2.542   0.250
10265SOL    HW231695   3.160   2.417   0.146
10266SOL     OW31696   3.762   2.905   2.685
10266SOL    HW131697   3.676   2.858   2.665
10266SOL    HW231698   3.765   2.931   2.782
10267SOL     OW31699   5.300   1.170   0.886
10267SOL    HW131700   5.364   1.174   0.963
10267SOL    HW231701   5.341   1.217   0.807
10268SOL     OW31702   5.593   6.345   2.312
10268SOL    HW131703   5.545   6.418   2.360
10268SOL    HW231704   5.679   6.380   2.275
10269SOL     OW31705   1.257   2.402   6.375
10269SOL    HW131706   1.300   2.490   6.356
10269SOL    HW231707   1.158   2.409   6.359
10270SOL     OW31708   3.021   5.543   2.973
10270SOL    HW131709   3.084   5.546   2.895
10270SOL    HW231710   2.983   5.451   2.982
10271SOL     OW31711   2.951   3.114   0.252
10271SOL    HW131712   2.866   3.109   0.304
10271SOL    HW231713   2.984   3.208   0.250
10272SOL     OW31714   1.004   0.468   3.907
10272SOL    HW131715   1.009   0.545   3.971
10272SOL    HW231716   0.969   0.388   3.954
10273SOL     OW31717   2.784   4.800   4.383
10273SOL    HW131718   2.863   4.818   4.441
10273SOL    HW231719   2.711   4.866   4.404
10274SOL     OW31720   0.906   4.490   5.903
10274SOL    HW131721   0.975   4.420   5.922
10274SOL    HW231722   0.921   4.527   5.811
10275SOL     OW31723   0.023   0.554   1.985
10275SOL    HW131724   7.014   0.569   2.079
10275SOL    HW231725   0.051   0.459   1.973
10276SOL     OW31726   4.352   5.689   5.888
10276SOL    HW131727   4.452   5.687   5.885
10276SOL    HW231728   4.317   5.596   5.887
10277SOL     OW31729   1.358   6.859   4.605
10277SOL    HW131730   1.401   6.873   4.695
10277SOL    HW231731   1.286   6.928   4.592
10278SOL     OW31732   1.047   0.690   4.042
10278SOL    HW131733   0.979   0.764   4.041
10278SOL    HW231734   1.083   0.680   4.135
10279SOL     OW31735   2.461   5.318   4.166
10279SOL    HW131736   2.535   5.296   4.229
10279SOL    HW231737   2.469   5.261   4.084
10280SOL     OW31738   5.125   3.590   0.131
10280SOL    HW131739   5.158   3.611   0.039
10280SOL    HW231740   5.102   3.493   0.136
10281SOL     OW31741   6.872   2.147   3.621
10281SOL    HW131742   6.840   2.228   3.571
10281SOL    HW231743   6.971   2.151   3.632
10282SOL     OW31744   5.402   3.288   3.792
10282SOL    HW131745   5.330   3.285   3.723
10282SOL    HW231746   5.454   3.203   3.789
10283SOL     OW31747   1.137   2.649   0.955
10283SOL    HW131748   1.204   2.591   1.003
10283SOL    HW231749   1.117   2.730   1.011
10284SOL     OW31750   6.219   1.937   4.337
10284SOL    HW131751   6.172   1.922   4.250
10284SOL    HW231752   6.314   1.964   4.319
10285SOL     OW31753   3.988   6.426   3.036
10285SOL    HW131754   4.055   6.498   3.017
10285SOL    HW231755   4.014   6.343   2.987
10286SOL     OW31756   3.159   0.622   3.730
10286SOL    HW131757   3.073   0.598   3.685
10286SOL    HW231758   3.235   0.583   3.679
10287SOL     OW31759   2.068   5.891   2.292
10287SOL    HW131760   2.116   5.939   2.365
10287SOL    HW231761   2.023   5.957   2.231
10288SOL     OW31762   3.890   0.009   4.188
10288SOL    HW131763   3.828   6.985   4.123
10288SOL    HW231764   3.841   0.080   4.238
10289SOL     OW31765   2.763   6.019   0.654
10289SOL    HW131766   2.770   5.922   0.631
10289SOL    HW231767   2.673   6.053   0.628
10290SOL     OW31768   3.247   3.012   2.773
10290SOL    HW131769   3.314   3.029   2.702
10290SOL    HW231770   3.155   3.015   2.734
10291SOL     OW31771   3.666   1.554   3.100
10291SOL    HW131772   3.640   1.634   3.155
10291SOL    HW231773   3.660   1.578   3.003
10292SOL     OW31774   0.643   1.519   5.724
10292SOL    HW131775   0.677   1.613   5.731
10292SOL    HW231776   0.669   1.468   5.806
10293SOL     OW31777   0.526   3.540   3.746
10293SOL    HW131778   0.619   3.503   3.751
10293SOL    HW231779   0.531   3.640   3.745
10294SOL     OW31780   4.632   1.457   2.987
10294SOL    HW131781   4.648   1.555   2.982
10294SOL    HW231782   4.534   1.438   2.979
10295SOL     OW31783   1.229   3.289   5.390
10295SOL    HW131784   1.258   3.322   5.480
10295SOL    HW231785   1.129   3.289   5.385
10296SOL     OW31786   5.867   1.804   6.002
10296SOL    HW131787   5.849   1.730   5.937
10296SOL    HW231788   5.877   1.891   5.953
10297SOL     OW31789   2.517   1.449   6.927
10297SOL    HW131790   2.600   1.395   6.915
10297SOL    HW231791   2.513   1.518   6.854
10298SOL     OW31792   1.567   4.395   1.655
10298SOL    HW131793   1.549   4.487   1.691
10298SOL    HW231794   1.599   4.402   1.561
10299SOL     OW31795   3.820   5.653   2.408
10299SOL    HW131796   3.741   5.714   2.401
10299SOL    HW231797   3.838   5.633   2.504
10300SOL     OW31798   1.687   4.210   1.804
10300SOL    HW131799   1.660   4.257   1.720
10300SOL    HW231800   1.608   4.164   1.844
10301SOL     OW31801   4.440   1.819   5.392
10301SOL    HW131802   4.504   1.754   5.351
10301SOL    HW231803   4.401   1.877   5.320
10302SOL     OW31804   1.831   5.873   4.670
10302SOL    HW131805   1.869   5.919   4.589
10302SOL    HW231806   1.837   5.935   4.748
10303SOL     OW31807   1.146   5.344   3.535
10303SOL    HW131808   1.162   5.266   3.475
10303SOL    HW231809   1.079   5.319   3.605
10304SOL     OW31810   5.696   0.388   1.001
10304SOL    HW131811   5.753   0.425   1.073
10304SOL    HW231812   5.630   0.324   1.040
10305SOL     OW31813   2.580   4.662   5.772
10305SOL    HW131814   2.637   4.638   5.693
10305SOL    HW231815   2.484   4.665   5.744
10306SOL     OW31816   5.739   5.979   0.457
10306SOL    HW131817   5.801   6.008   0.384
10306SOL    HW231818   5.792   5.944   0.534
10307SOL     OW31819   3.024   1.597   4.660
10307SOL    HW131820   3.110   1.546   4.672
10307SOL    HW231821   3.043   1.695   4.657
10308SOL     OW31822   1.925   4.171   1.952
10308SOL    HW131823   1.919   4.072   1.940
10308SOL    HW231824   1.845   4.214   1.910
10309SOL     OW31825   6.713   1.725   6.723
10309SOL    HW131826   6.722   1.625   6.727
10309SOL    HW231827   6.693   1.761   6.814
10310SOL     OW31828   3.040   3.962   0.469
10310SOL    HW131829   2.976   3.902   0.420
10310SOL    HW231830   3.018   4.057   0.447
10311SOL     OW31831   6.386   5.959   0.402
10311SOL    HW131832   6.477   5.917   0.404
10311SOL    HW231833   6.353   5.964   0.307
10312SOL     OW31834   4.970   6.689   2.223
10312SOL    HW131835   4.977   6.718   2.318
10312SOL    HW231836   4.936   6.766   2.168
10313SOL     OW31837   3.542   5.657   2.247
10313SOL    HW131838   3.506   5.713   2.172
10313SOL    HW231839   3.525   5.704   2.334
10314SOL     OW31840   6.561   0.085   0.246
10314SOL    HW131841   6.550   0.184   0.256
10314SOL    HW231842   6.515   0.039   0.322
10315SOL     OW31843   5.976   6.342   4.432
10315SOL    HW131844   5.935   6.433   4.420
10315SOL    HW231845   5.912   6.273   4.398
10316SOL     OW31846   6.492   2.725   6.079
10316SOL    HW131847   6.561   2.669   6.125
10316SOL    HW231848   6.528   2.817   6.063
10317SOL     OW31849   4.124   6.167   6.307
10317SOL    HW131850   4.046   6.179   6.369
10317SOL    HW231851   4.141   6.253   6.259
10318SOL     OW31852   4.743   1.041   6.522
10318SOL    HW131853   4.823   1.046   6.582
10318SOL    HW231854   4.734   1.127   6.471
10319SOL     OW31855   0.926   3.691   5.360
10319SOL    HW131856   0.867   3.771   5.364
10319SOL    HW231857   0.982   3.686   5.443
10320SOL     OW31858   0.760   6.181   2.978
10320SOL    HW131859   0.762   6.281   2.977
10320SOL    HW231860   0.839   6.146   2.929
10321SOL     OW31861   6.019   1.840   2.097
10321SOL    HW131862   6.014   1.743   2.075
10321SOL    HW231863   5.943   1.865   2.156
10322SOL     OW31864   4.410   4.906   4.439
10322SOL    HW131865   4.495   4.854   4.439
10322SOL    HW231866   4.431   5.004   4.435
10323SOL     OW31867   5.756   5.071   5.019
10323SOL    HW131868   5.679   5.069   5.082
10323SOL    HW231869   5.726   5.104   4.930
10324SOL     OW31870   3.820   3.130   2.521
10324SOL    HW131871   3.884   3.096   2.452
10324SOL    HW231872   3.806   3.060   2.591
10325SOL     OW31873   6.915   4.235   2.176
10325SOL    HW131874   6.837   4.211   2.233
10325SOL    HW231875   6.997   4.188   2.209
10326SOL     OW31876   5.779   4.039   6.387
10326SOL    HW131877   5.796   4.130   6.425
10326SOL    HW231878   5.741   4.048   6.295
10327SOL     OW31879   2.545   2.972   1.477
10327SOL    HW131880   2.558   2.965   1.378
10327SOL    HW231881   2.464   3.029   1.496
10328SOL     OW31882   6.298   3.209   0.546
10328SOL    HW131883   6.379   3.152   0.536
10328SOL    HW231884   6.272   3.215   0.642
10329SOL     OW31885   2.363   0.807   3.467
10329SOL    HW131886   2.345   0.905   3.474
10329SOL    HW231887   2.431   0.790   3.395
10330SOL     OW31888   4.103   1.221   1.816
10330SOL    HW131889   4.043   1.202   1.894
10330SOL    HW231890   4.148   1.309   1.829
10331SOL     OW31891   6.640   6.321   6.017
10331SOL    HW131892   6.704   6.275   5.955
10331SOL    HW231893   6.651   6.420   6.009
10332SOL     OW31894   0.008   6.992   0.301
10332SOL    HW131895   6.946   6.973   0.355
10332SOL    HW231896   0.058   6.908   0.284
10333SOL     OW31897   0.715   5.013   4.989
10333SOL    HW131898   0.753   5.006   4.897
10333SOL    HW231899   0.617   4.996   4.986
10334SOL     OW31900   3.370   0.812   4.454
10334SOL    HW131901   3.432   0.871   4.402
10334SOL    HW231902   3.276   0.836   4.432
10335SOL     OW31903   1.649   3.535   6.932
10335SOL    HW131904   1.725   3.473   6.955
10335SOL    HW231905   1.661   3.621   6.981
10336SOL     OW31906   6.142   0.295   2.005
10336SOL    HW131907   6.074   0.229   1.973
10336SOL    HW231908   6.187   0.337   1.927
10337SOL     OW31909   0.513   6.089   6.420
10337SOL    HW131910   0.597   6.041   6.445
10337SOL    HW231911   0.496   6.079   6.322
10338SOL     OW31912   1.821   6.331   2.241
10338SOL    HW131913   1.777   6.290   2.321
10338SOL    HW231914   1.755   6.386   2.191
10339SOL     OW31915   5.830   3.502   6.194
10339SOL    HW131916   5.793   3.412   6.168
10339SOL    HW231917   5.818   3.515   6.293
10340SOL     OW31918   1.607   3.223   0.059
10340SOL    HW131919   1.556   3.176   7.007
10340SOL    HW231920   1.547   3.240   0.137
10341SOL     OW31921   2.088   3.555   2.259
10341SOL    HW131922   2.143   3.532   2.179
10341SOL    HW231923   2.073   3.472   2.314
10342SOL     OW31924   2.247   0.039   4.210
10342SOL    HW131925   2.277   6.966   4.232
10342SOL    HW231926   2.197   0.077   4.287
10343SOL     OW31927   2.895   5.024   0.029
10343SOL    HW131928   2.957   5.036   6.972
10343SOL    HW231929   2.833   4.947   0.012
10344SOL     OW31930   4.078   3.505   0.438
10344SOL    HW131931   4.000   3.450   0.468
10344SOL    HW231932   4.045   3.590   0.398
10345SOL     OW31933   1.731   2.206   6.268
10345SOL    HW131934   1.749   2.131   6.205
10345SOL    HW231935   1.634   2.230   6.265
10346SOL     OW31936   0.198   5.688   1.291
10346SOL    HW131937   0.099   5.677   1.280
10346SOL    HW231938   0.219   5.701   1.388
10347SOL     OW31939   3.936   1.190   3.227
10347SOL    HW131940   4.011   1.204   3.162
10347SOL    HW231941   3.973   1.167   3.317
10348SOL     OW31942   6.566   2.718   0.753
10348SOL    HW131943   6.479   2.743   0.795
10348SOL    HW231944   6.614   2.652   0.811
10349SOL     OW31945   1.415   0.975   6.980
10349SOL    HW131946   1.387   0.901   0.021
10349SOL    HW231947   1.402   0.946   6.885
10350SOL     OW31948   3.038   5.523   5.157
10350SOL    HW131949   2.945   5.533   5.192
10350SOL    HW231950   3.084   5.612   5.160
10351SOL     OW31951   4.457   5.077   6.946
10351SOL    HW131952   4.477   5.093   6.849
10351SOL    HW231953   4.448   4.979   6.962
10352SOL     OW31954   3.285   0.857   6.556
10352SOL    HW131955   3.345   0.815   6.625
10352SOL    HW231956   3.209   0.795   6.536
10353SOL     OW31957   6.948   2.988   5.015
10353SOL    HW131958   6.858   2.960   5.049
10353SOL    HW231959   7.005   2.907   5.004
10354SOL     OW31960   6.058   1.804   2.474
10354SOL    HW131961   6.023   1.715   2.444
10354SOL    HW231962   6.118   1.791   2.554
10355SOL     OW31963   2.689   6.761   1.710
10355SOL    HW131964   2.734   6.673   1.694
10355SOL    HW231965   2.744   6.834   1.670
10356SOL     OW31966   0.343   4.853   5.445
10356SOL    HW131967   0.275   4.884   5.511
10356SOL    HW231968   0.434   4.856   5.487
10357SOL     OW31969   1.919   2.917   6.479
10357SOL    HW131970   1.877   2.968   6.554
10357SOL    HW231971   1.950   2.980   6.409
10358SOL     OW31972   0.432   2.591   3.159
10358SOL    HW131973   0.473   2.584   3.068
10358SOL    HW231974   0.464   2.515   3.216
10359SOL     OW31975   1.037   1.682   1.034
10359SOL    HW131976   1.008   1.682   1.129
10359SOL    HW231977   1.126   1.636   1.027
10360SOL     OW31978   4.724   5.225   3.399
10360SOL    HW131979   4.759   5.223   3.305
10360SOL    HW231980   4.800   5.239   3.463
10361SOL     OW31981   2.464   6.430   2.602
10361SOL    HW131982   2.418   6.391   2.682
10361SOL    HW231983   2.563   6.431   2.617
10362SOL     OW31984   1.593   4.689   4.877
10362SOL    HW131985   1.663   4.706   4.807
10362SOL    HW231986   1.598   4.760   4.947
10363SOL     OW31987   5.108   0.747   2.709
10363SOL    HW131988   5.166   0.712   2.636
10363SOL    HW231989   5.120   0.691   2.791
10364SOL     OW31990   2.904   3.527   1.248
10364SOL    HW131991   2.847   3.448   1.269
10364SOL    HW231992   2.910   3.586   1.328
10365SOL     OW31993   3.658   5.006   0.075
10365SOL    HW131994   3.628   5.094   0.111
10365SOL    HW231995   3.752   5.015   0.041
10366SOL     OW31996   2.621   0.335   3.817
10366SOL    HW131997   2.573   0.286   3.745
10366SOL    HW231998   2.613   0.286   3.903
10367SOL     OW31999   5.801   2.688   2.413
10367SOL    HW132000   5.786   2.657   2.319
10367SOL    HW232001   5.832   2.783   2.411
10368SOL     OW32002   2.525   1.198   1.069
10368SOL    HW132003   2.429   1.217   1.047
10368SOL    HW232004   2.576   1.186   0.984
10369SOL     OW32005   4.125   1.142   6.493
10369SOL    HW132006   4.135   1.182   6.402
10369SOL    HW232007   4.072   1.205   6.551
10370SOL     OW32008   5.008   1.459   4.952
10370SOL    HW132009   5.019   1.445   4.853
10370SOL    HW232010   4.944   1.534   4.968
10371SOL     OW32011   3.767   5.669   5.229
10371SOL    HW132012   3.676   5.692   5.262
10371SOL    HW232013   3.767   5.578   5.189
10372SOL     OW32014   2.002   1.071   5.247
10372SOL    HW132015   1.981   1.012   5.325
10372SOL    HW232016   2.011   1.166   5.279
10373SOL     OW32017   1.867   6.504   4.930
10373SOL    HW132018   1.938   6.472   4.993
10373SOL    HW232019   1.797   6.432   4.920
10374SOL     OW32020   3.348   1.718   2.956
10374SOL    HW132021   3.379   1.698   3.050
10374SOL    HW232022   3.413   1.781   2.913
10375SOL     OW32023   4.814   1.896   6.920
10375SOL    HW132024   4.883   1.857   6.859
10375SOL    HW232025   4.813   1.845   7.006
10376SOL     OW32026   0.984   6.613   3.733
10376SOL    HW132027   0.975   6.577   3.826
10376SOL    HW232028   1.079   6.605   3.703
10377SOL     OW32029   6.496   0.912   3.557
10377SOL    HW132030   6.572   0.853   3.582
10377SOL    HW232031   6.520   0.966   3.476
10378SOL     OW32032   6.860   0.789   5.788
10378SOL    HW132033   6.776   0.831   5.754
10378SOL    HW232034   6.866   0.803   5.887
10379SOL     OW32035   4.887   0.575   5.142
10379SOL    HW132036   4.956   0.584   5.214
10379SOL    HW232037   4.881   0.479   5.113
10380SOL     OW32038   5.582   0.664   2.860
10380SOL    HW132039   5.665   0.663   2.806
10380SOL    HW232040   5.580   0.747   2.916
10381SOL     OW32041   5.082   5.851   6.020
10381SOL    HW132042   5.166   5.826   5.971
10381SOL    HW232043   5.054   5.775   6.078
10382SOL     OW32044   2.549   4.962   6.469
10382SOL    HW132045   2.602   4.959   6.384
10382SOL    HW232046   2.520   4.869   6.492
10383SOL     OW32047   0.802   3.562   0.888
10383SOL    HW132048   0.705   3.579   0.907
10383SOL    HW232049   0.826   3.470   0.920
10384SOL     OW32050   0.189   6.880   0.798
10384SOL    HW132051   0.211   6.816   0.871
10384SOL    HW232052   0.091   6.900   0.800
10385SOL     OW32053   5.283   6.905   6.081
10385SOL    HW132054   5.328   6.987   6.117
10385SOL    HW232055   5.189   6.902   6.115
10386SOL     OW32056   6.839   3.689   5.221
10386SOL    HW132057   6.804   3.644   5.139
10386SOL    HW232058   6.793   3.652   5.301
10387SOL     OW32059   2.854   1.978   2.852
10387SOL    HW132060   2.794   1.926   2.913
10387SOL    HW232061   2.858   1.934   2.762
10388SOL     OW32062   1.358   5.348   4.204
10388SOL    HW132063   1.386   5.350   4.108
10388SOL    HW232064   1.417   5.286   4.255
10389SOL     OW32065   0.287   5.115   2.484
10389SOL    HW132066   0.199   5.155   2.461
10389SOL    HW232067   0.358   5.156   2.426
10390SOL     OW32068   1.398   4.003   2.732
10390SOL    HW132069   1.341   4.072   2.687
10390SOL    HW232070   1.453   3.955   2.664
10391SOL     OW32071   1.398   5.919   6.522
10391SOL    HW132072   1.445   5.918   6.434
10391SOL    HW232073   1.451   5.974   6.587
10392SOL     OW32074   6.480   3.977   0.874
10392SOL    HW132075   6.485   4.029   0.788
10392SOL    HW232076   6.502   3.881   0.856
10393SOL     OW32077   0.906   1.307   4.123
10393SOL    HW132078   0.928   1.379   4.057
10393SOL    HW232079   0.818   1.327   4.166
10394SOL     OW32080   1.910   6.852   6.747
10394SOL    HW132081   1.847   6.790   6.795
10394SOL    HW232082   1.858   6.927   6.706
10395SOL     OW32083   6.703   1.105   3.944
10395SOL    HW132084   6.655   1.017   3.945
10395SOL    HW232085   6.654   1.171   4.001
10396SOL     OW32086   1.212   0.458   3.241
10396SOL    HW132087   1.139   0.525   3.232
10396SOL    HW232088   1.300   0.505   3.246
10397SOL     OW32089   3.810   0.830   3.101
10397SOL    HW132090   3.844   0.886   3.025
10397SOL    HW232091   3.786   0.739   3.067
10398SOL     OW32092   6.537   3.026   0.612
10398SOL    HW132093   6.573   3.110   0.652
10398SOL    HW232094   6.571   2.947   0.663
10399SOL     OW32095   4.581   2.117   5.712
10399SOL    HW132096   4.482   2.105   5.726
10399SOL    HW232097   4.599   2.129   5.614
10400SOL     OW32098   2.612   5.855   2.827
10400SOL    HW132099   2.586   5.815   2.915
10400SOL    HW232100   2.707   5.886   2.831
10401SOL     OW32101   6.333   6.035   2.469
10401SOL    HW132102   6.399   6.070   2.535
10401SOL    HW232103   6.375   6.034   2.378
10402SOL     OW32104   0.385   2.846   5.338
10402SOL    HW132105   0.316   2.901   5.383
10402SOL    HW232106   0.352   2.752   5.328
10403SOL     OW32107   5.116   1.729   2.452
10403SOL    HW132108   5.181   1.793   2.494
10403SOL    HW232109   5.151   1.635   2.461
10404SOL     OW32110   0.918   6.550   3.989
10404SOL    HW132111   0.955   6.640   4.011
10404SOL    HW232112   0.902   6.498   4.074
10405SOL     OW32113   1.197   5.658   5.308
10405SOL    HW132114   1.290   5.675   5.340
10405SOL    HW232115   1.200   5.588   5.235
10406SOL     OW32116   1.885   4.683   5.799
10406SOL    HW132117   1.905   4.703   5.703
10406SOL    HW232118   1.787   4.691   5.815
10407SOL     OW32119   1.219   1.120   5.812
10407SOL    HW132120   1.230   1.021   5.824
10407SOL    HW232121   1.309   1.162   5.805
10408SOL     OW32122   4.547   4.976   3.464
10408SOL    HW132123   4.618   5.038   3.498
10408SOL    HW232124   4.512   5.011   3.378
10409SOL     OW32125   0.077   3.732   1.751
10409SOL    HW132126   0.036   3.760   1.838
10409SOL    HW232127   0.169   3.696   1.768
10410SOL     OW32128   4.564   0.916   1.021
10410SOL    HW132129   4.600   0.953   1.107
10410SOL    HW232130   4.541   0.992   0.960
10411SOL     OW32131   1.994   4.711   3.337
10411SOL    HW132132   1.983   4.645   3.263
10411SOL    HW232133   2.048   4.789   3.305
10412SOL     OW32134   0.767   2.464   6.960
10412SOL    HW132135   0.759   2.434   0.035
10412SOL    HW232136   0.770   2.384   6.900
10413SOL     OW32137   0.553   1.802   0.115
10413SOL    HW132138   0.608   1.867   0.168
10413SOL    HW232139   0.465   1.788   0.160
10414SOL     OW32140   4.860   6.477   6.684
10414SOL    HW132141   4.891   6.499   6.777
10414SOL    HW232142   4.761   6.463   6.684
10415SOL     OW32143   0.432   5.271   3.375
10415SOL    HW132144   0.389   5.311   3.456
10415SOL    HW232145   0.521   5.314   3.361
10416SOL     OW32146   6.245   2.532   5.461
10416SOL    HW132147   6.170   2.498   5.517
10416SOL    HW232148   6.209   2.600   5.396
10417SOL     OW32149   3.821   5.365   2.774
10417SOL    HW132150   3.889   5.333   2.840
10417SOL    HW232151   3.752   5.295   2.760
10418SOL     OW32152   6.780   4.037   5.861
10418SOL    HW132153   6.800   4.128   5.899
10418SOL    HW232154   6.686   4.036   5.826
10419SOL     OW32155   3.493   0.697   5.286
10419SOL    HW132156   3.440   0.773   5.323
10419SOL    HW232157   3.590   0.713   5.305
10420SOL     OW32158   6.383   3.253   3.074
10420SOL    HW132159   6.432   3.260   2.987
10420SOL    HW232160   6.434   3.301   3.146
10421SOL     OW32161   0.894   4.325   3.390
10421SOL    HW132162   0.909   4.229   3.411
10421SOL    HW232163   0.823   4.333   3.319
10422SOL     OW32164   0.095   3.531   4.704
10422SOL    HW132165   0.072   3.582   4.787
10422SOL    HW232166   0.060   3.580   4.624
10423SOL     OW32167   3.590   5.197   4.097
10423SOL    HW132168   3.623   5.244   4.179
10423SOL    HW232169   3.534   5.259   4.043
10424SOL     OW32170   4.037   0.914   6.732
10424SOL    HW132171   4.105   0.980   6.702
10424SOL    HW232172   4.028   0.918   6.831
10425SOL     OW32173   2.138   0.414   0.982
10425SOL    HW132174   2.044   0.380   0.971
10425SOL    HW232175   2.136   0.500   1.033
10426SOL     OW32176   5.186   2.575   5.619
10426SOL    HW132177   5.282   2.595   5.640
10426SOL    HW232178   5.143   2.658   5.584
10427SOL     OW32179   5.095   6.005   5.075
10427SOL    HW132180   5.159   6.008   5.152
10427SOL    HW232181   5.007   5.969   5.106
10428SOL     OW32182   1.622   1.627   3.503
10428SOL    HW132183   1.680   1.646   3.582
10428SOL    HW232184   1.587   1.713   3.465
10429SOL     OW32185   0.886   3.487   2.443
10429SOL    HW132186   0.981   3.506   2.417
10429SOL    HW232187   0.883   3.451   2.536
10430SOL     OW32188   3.795   6.747   3.629
10430SOL    HW132189   3.820   6.731   3.724
10430SOL    HW232190   3.864   6.803   3.585
10431SOL     OW32191   2.823   1.954   3.705
10431SOL    HW132192   2.903   2.011   3.724
10431SOL    HW232193   2.845   1.888   3.634
10432SOL     OW32194   6.756   6.804   6.052
10432SOL    HW132195   6.825   6.872   6.027
10432SOL    HW232196   6.736   6.811   6.150
10433SOL     OW32197   2.165   6.852   1.850
10433SOL    HW132198   2.227   6.916   1.895
10433SOL    HW232199   2.136   6.781   1.914
10434SOL     OW32200   5.258   6.840   5.712
10434SOL    HW132201   5.235   6.936   5.728
10434SOL    HW232202   5.343   6.818   5.760
10435SOL     OW32203   0.858   2.202   6.319
10435SOL    HW132204   0.837   2.106   6.299
10435SOL    HW232205   0.781   2.242   6.369
10436SOL     OW32206   0.896   4.163   5.074
10436SOL    HW132207   0.828   4.102   5.033
10436SOL    HW232208   0.981   4.157   5.022
10437SOL     OW32209   5.748   4.871   5.391
10437SOL    HW132210   5.685   4.914   5.455
10437SOL    HW232211   5.842   4.884   5.422
10438SOL     OW32212   6.926   6.156   6.180
10438SOL    HW132213   7.017   6.197   6.180
10438SOL    HW232214   6.864   6.212   6.235
10439SOL     OW32215   0.481   7.003   4.780
10439SOL    HW132216   0.485   6.969   4.687
10439SOL    HW232217   0.396   0.034   4.793
10440SOL     OW32218   0.092   1.696   6.598
10440SOL    HW132219   0.189   1.718   6.590
10440SOL    HW232220   0.061   1.651   6.513
10441SOL     OW32221   3.910   1.838   0.616
10441SOL    HW132222   3.940   1.808   0.707
10441SOL    HW232223   3.943   1.772   0.548
10442SOL     OW32224   2.972   1.357   5.355
10442SOL    HW132225   2.943   1.338   5.449
10442SOL    HW232226   2.981   1.456   5.343
10443SOL     OW32227   6.578   1.056   3.336
10443SOL    HW132228   6.540   1.055   3.243
10443SOL    HW232229   6.547   1.138   3.384
10444SOL     OW32230   4.021   5.917   3.793
10444SOL    HW132231   4.055   5.857   3.865
10444SOL    HW232232   4.073   5.901   3.709
10445SOL     OW32233   1.603   4.328   2.556
10445SOL    HW132234   1.630   4.232   2.561
10445SOL    HW232235   1.505   4.335   2.535
10446SOL     OW32236   2.000   4.390   4.797
10446SOL    HW132237   1.981   4.292   4.809
10446SOL    HW232238   1.927   4.431   4.743
10447SOL     OW32239   6.852   2.007   2.783
10447SOL    HW132240   6.789   2.073   2.824
10447SOL    HW232241   6.804   1.920   2.769
10448SOL     OW32242   2.337   6.470   2.936
10448SOL    HW132243   2.259   6.533   2.942
10448SOL    HW232244   2.421   6.518   2.961
10449SOL     OW32245   3.323   5.713   6.340
10449SOL    HW132246   3.402   5.675   6.292
10449SOL    HW232247   3.344   5.806   6.370
10450SOL     OW32248   6.056   0.159   5.993
10450SOL    HW132249   6.129   0.102   5.956
10450SOL    HW232250   6.076   0.255   5.973
10451SOL     OW32251   1.986   0.597   4.058
10451SOL    HW132252   1.962   0.688   4.025
10451SOL    HW232253   2.078   0.573   4.026
10452SOL     OW32254   6.955   3.972   4.027
10452SOL    HW132255   6.989   4.065   4.014
10452SOL    HW232256   6.876   3.973   4.088
10453SOL     OW32257   4.453   5.869   3.410
10453SOL    HW132258   4.458   5.864   3.310
10453SOL    HW232259   4.521   5.808   3.450
10454SOL     OW32260   6.658   1.537   5.960
10454SOL    HW132261   6.604   1.621   5.960
10454SOL    HW232262   6.751   1.557   5.989
10455SOL     OW32263   6.507   6.751   4.292
10455SOL    HW132264   6.420   6.792   4.320
10455SOL    HW232265   6.578   6.773   4.359
10456SOL     OW32266   0.033   5.465   6.889
10456SOL    HW132267   0.119   5.431   6.851
10456SOL    HW232268   0.051   5.544   6.948
10457SOL     OW32269   4.140   2.526   0.376
10457SOL    HW132270   4.112   2.621   0.386
10457SOL    HW232271   4.231   2.523   0.334
10458SOL     OW32272   6.405   6.701   6.215
10458SOL    HW132273   6.491   6.675   6.259
10458SOL    HW232274   6.328   6.667   6.269
10459SOL     OW32275   0.169   5.534   0.672
10459SOL    HW132276   0.246   5.500   0.617
10459SOL    HW232277   0.083   5.510   0.627
10460SOL     OW32278   0.154   3.983   0.889
10460SOL    HW132279   0.099   3.974   0.973
10460SOL    HW232280   0.241   4.027   0.912
10461SOL     OW32281   6.850   4.660   4.965
10461SOL    HW132282   6.824   4.684   5.059
10461SOL    HW232283   6.807   4.724   4.901
10462SOL     OW32284   4.636   1.667   1.425
10462SOL    HW132285   4.653   1.714   1.339
10462SOL    HW232286   4.599   1.732   1.491
10463SOL     OW32287   4.465   2.951   6.107
10463SOL    HW132288   4.476   3.032   6.050
10463SOL    HW232289   4.444   2.872   6.049
10464SOL     OW32290   5.745   5.401   2.897
10464SOL    HW132291   5.729   5.418   2.994
10464SOL    HW232292   5.687   5.461   2.843
10465SOL     OW32293   5.854   3.214   2.149
10465SOL    HW132294   5.776   3.152   2.141
10465SOL    HW232295   5.898   3.224   2.060
10466SOL     OW32296   5.458   5.037   6.313
10466SOL    HW132297   5.530   5.069   6.374
10466SOL    HW232298   5.414   4.957   6.352
10467SOL     OW32299   2.233   2.801   6.666
10467SOL    HW132300   2.315   2.777   6.613
10467SOL    HW232301   2.155   2.811   6.605
10468SOL     OW32302   2.766   4.717   3.734
10468SOL    HW132303   2.706   4.669   3.798
10468SOL    HW232304   2.855   4.733   3.777
10469SOL     OW32305   6.037   1.923   5.352
10469SOL    HW132306   6.102   1.998   5.342
10469SOL    HW232307   6.086   1.836   5.358
10470SOL     OW32308   2.268   2.411   3.850
10470SOL    HW132309   2.247   2.355   3.770
10470SOL    HW232310   2.185   2.425   3.904
10471SOL     OW32311   2.786   0.793   0.314
10471SOL    HW132312   2.816   0.700   0.337
10471SOL    HW232313   2.733   0.831   0.389
10472SOL     OW32314   3.837   4.970   0.381
10472SOL    HW132315   3.793   4.931   0.300
10472SOL    HW232316   3.857   5.067   0.364
10473SOL     OW32317   5.365   5.675   6.424
10473SOL    HW132318   5.405   5.751   6.475
10473SOL    HW232319   5.437   5.626   6.375
10474SOL     OW32320   5.226   1.049   3.974
10474SOL    HW132321   5.241   0.950   3.978
10474SOL    HW232322   5.267   1.092   4.055
10475SOL     OW32323   1.779   5.958   1.979
10475SOL    HW132324   1.795   5.859   1.988
10475SOL    HW232325   1.789   5.984   1.883
10476SOL     OW32326   3.949   6.209   0.459
10476SOL    HW132327   4.000   6.146   0.518
10476SOL    HW232328   3.876   6.159   0.413
10477SOL     OW32329   6.925   6.604   3.853
10477SOL    HW132330   6.934   6.516   3.899
10477SOL    HW232331   6.977   6.603   3.768
10478SOL     OW32332   5.798   6.705   0.439
10478SOL    HW132333   5.718   6.720   0.381
10478SOL    HW232334   5.823   6.790   0.484
10479SOL     OW32335   6.922   2.300   2.968
10479SOL    HW132336   6.860   2.282   2.892
10479SOL    HW232337   6.898   2.241   3.045
10480SOL     OW32338   1.257   6.868   2.006
10480SOL    HW132339   1.277   6.955   1.960
10480SOL    HW232340   1.250   6.884   2.105
10481SOL     OW32341   1.195   0.057   3.545
10481SOL    HW132342   1.204   0.155   3.524
10481SOL    HW232343   1.115   0.020   3.498
10482SOL     OW32344   5.810   4.349   3.985
10482SOL    HW132345   5.878   4.331   4.055
10482SOL    HW232346   5.824   4.286   3.908
10483SOL     OW32347   5.883   5.213   0.019
10483SOL    HW132348   5.793   5.172   0.035
10483SOL    HW232349   5.927   5.232   0.107
10484SOL     OW32350   5.994   1.268   0.866
10484SOL    HW132351   5.942   1.326   0.804
10484SOL    HW232352   6.090   1.296   0.865
10485SOL     OW32353   4.211   3.956   6.290
10485SOL    HW132354   4.273   3.932   6.365
10485SOL    HW232355   4.131   3.896   6.293
10486SOL     OW32356   6.571   2.763   0.477
10486SOL    HW132357   6.571   2.716   0.565
10486SOL    HW232358   6.565   2.862   0.492
10487SOL     OW32359   5.717   6.293   1.669
10487SOL    HW132360   5.673   6.209   1.638
10487SOL    HW232361   5.771   6.332   1.595
10488SOL     OW32362   2.943   2.755   6.442
10488SOL    HW132363   2.886   2.790   6.368
10488SOL    HW232364   2.996   2.677   6.409
10489SOL     OW32365   0.587   6.177   6.004
10489SOL    HW132366   0.516   6.246   6.015
10489SOL    HW232367   0.660   6.212   5.946
10490SOL     OW32368   6.463   1.319   3.419
10490SOL    HW132369   6.456   1.343   3.516
10490SOL    HW232370   6.371   1.307   3.381
10491SOL     OW32371   1.657   3.747   6.038
10491SOL    HW132372   1.664   3.785   5.946
10491SOL    HW232373   1.747   3.749   6.083
10492SOL     OW32374   4.998   3.776   5.169
10492SOL    HW132375   4.911   3.735   5.141
10492SOL    HW232376   5.072   3.711   5.154
10493SOL     OW32377   3.678   0.591   1.452
10493SOL    HW132378   3.673   0.559   1.357
10493SOL    HW232379   3.746   0.664   1.458
10494SOL     OW32380   5.579   2.211   4.429
10494SOL    HW132381   5.517   2.286   4.405
10494SOL    HW232382   5.665   2.249   4.463
10495SOL     OW32383   1.947   6.795   0.972
10495SOL    HW132384   2.012   6.719   0.976
10495SOL    HW232385   1.971   6.864   1.040
10496SOL     OW32386   0.090   6.732   0.317
10496SOL    HW132387   0.168   6.681   0.353
10496SOL    HW232388   0.012   6.722   0.380
10497SOL     OW32389   1.475   0.324   0.908
10497SOL    HW132390   1.539   0.364   0.843
10497SOL    HW232391   1.415   0.395   0.944
10498SOL     OW32392   2.445   0.240   7.013
10498SOL    HW132393   2.438   0.190   0.080
10498SOL    HW232394   2.380   0.201   6.947
10499SOL     OW32395   2.673   6.333   2.910
10499SOL    HW132396   2.652   6.424   2.875
10499SOL    HW232397   2.767   6.309   2.888
10500SOL     OW32398   0.123   1.936   5.631
10500SOL    HW132399   0.051   1.866   5.638
10500SOL    HW232400   0.204   1.906   5.681
10501SOL     OW32401   2.099   4.976   2.673
10501SOL    HW132402   2.168   5.012   2.610
10501SOL    HW232403   2.039   5.050   2.702
10502SOL     OW32404   2.968   6.794   0.716
10502SOL    HW132405   2.958   6.836   0.625
10502SOL    HW232406   2.915   6.846   0.782
10503SOL     OW32407   4.034   3.076   0.308
10503SOL    HW132408   4.090   3.148   0.265
10503SOL    HW232409   3.938   3.091   0.286
10504SOL     OW32410   1.404   2.979   0.531
10504SOL    HW132411   1.322   2.994   0.587
10504SOL    HW232412   1.484   2.971   0.591
10505SOL     OW32413   5.951   6.121   0.882
10505SOL    HW132414   5.953   6.076   0.971
10505SOL    HW232415   6.032   6.178   0.871
10506SOL     OW32416   0.179   4.582   6.485
10506SOL    HW132417   0.245   4.589   6.560
10506SOL    HW232418   0.117   4.661   6.490
10507SOL     OW32419   1.927   0.485   6.583
10507SOL    HW132420   1.980   0.520   6.660
10507SOL    HW232421   1.899   0.561   6.524
10508SOL     OW32422   5.796   5.499   3.398
10508SOL    HW132423   5.806   5.410   3.354
10508SOL    HW232424   5.726   5.552   3.351
10509SOL     OW32425   1.081   6.639   6.750
10509SOL    HW132426   1.086   6.727   6.796
10509SOL    HW232427   0.990   6.599   6.766
10510SOL     OW32428   5.918   4.995   6.411
10510SOL    HW132429   5.895   4.968   6.504
10510SOL    HW232430   6.004   5.046   6.411
10511SOL     OW32431   4.282   3.042   0.775
10511SOL    HW132432   4.327   2.953   0.786
10511SOL    HW232433   4.283   3.091   0.863
10512SOL     OW32434   4.253   0.628   6.765
10512SOL    HW132435   4.302   0.542   6.758
10512SOL    HW232436   4.161   0.616   6.727
10513SOL     OW32437   6.983   2.107   6.066
10513SOL    HW132438   0.006   2.165   5.997
10513SOL    HW232439   6.993   2.149   6.156
10514SOL     OW32440   6.231   4.049   0.988
10514SOL    HW132441   6.160   4.088   0.929
10514SOL    HW232442   6.312   4.029   0.933
10515SOL     OW32443   6.584   1.868   2.797
10515SOL    HW132444   6.608   1.875   2.894
10515SOL    HW232445   6.496   1.913   2.781
10516SOL     OW32446   4.785   0.790   6.446
10516SOL    HW132447   4.813   0.741   6.528
10516SOL    HW232448   4.751   0.881   6.471
10517SOL     OW32449   6.852   1.883   2.210
10517SOL    HW132450   6.925   1.912   2.148
10517SOL    HW232451   6.778   1.950   2.208
10518SOL     OW32452   1.045   4.935   0.065
10518SOL    HW132453   0.980   4.864   0.039
10518SOL    HW232454   1.135   4.913   0.026
10519SOL     OW32455   3.263   3.021   5.542
10519SOL    HW132456   3.243   2.932   5.582
10519SOL    HW232457   3.295   3.083   5.614
10520SOL     OW32458   3.053   2.977   6.651
10520SOL    HW132459   2.997   2.926   6.586
10520SOL    HW232460   3.021   3.071   6.656
10521SOL     OW32461   6.611   6.346   0.988
10521SOL    HW132462   6.698   6.370   1.029
10521SOL    HW232463   6.599   6.247   0.989
10522SOL     OW32464   6.319   0.677   0.165
10522SOL    HW132465   6.238   0.644   0.117
10522SOL    HW232466   6.323   0.635   0.256
10523SOL     OW32467   0.290   5.678   4.697
10523SOL    HW132468   0.274   5.585   4.729
10523SOL    HW232469   0.304   5.738   4.776
10524SOL     OW32470   1.796   0.402   4.683
10524SOL    HW132471   1.785   0.337   4.608
10524SOL    HW232472   1.816   0.493   4.646
10525SOL     OW32473   3.145   6.588   5.421
10525SOL    HW132474   3.150   6.688   5.429
10525SOL    HW232475   3.197   6.546   5.495
10526SOL     OW32476   0.468   0.820   2.722
10526SOL    HW132477   0.412   0.865   2.792
10526SOL    HW232478   0.428   0.836   2.632
10527SOL     OW32479   1.234   2.582   4.415
10527SOL    HW132480   1.249   2.586   4.317
10527SOL    HW232481   1.277   2.500   4.453
10528SOL     OW32482   1.336   4.318   4.945
10528SOL    HW132483   1.284   4.376   5.008
10528SOL    HW232484   1.275   4.250   4.904
10529SOL     OW32485   0.552   5.800   2.807
10529SOL    HW132486   0.484   5.735   2.843
10529SOL    HW232487   0.552   5.883   2.863
10530SOL     OW32488   2.310   1.959   6.047
10530SOL    HW132489   2.396   1.918   6.018
10530SOL    HW232490   2.315   1.980   6.145
10531SOL     OW32491   2.199   3.806   4.150
10531SOL    HW132492   2.258   3.730   4.123
10531SOL    HW232493   2.122   3.813   4.087
10532SOL     OW32494   2.198   2.779   0.398
10532SOL    HW132495   2.199   2.849   0.470
10532SOL    HW232496   2.234   2.817   0.313
10533SOL     OW32497   3.247   1.254   4.511
10533SOL    HW132498   3.201   1.170   4.483
10533SOL    HW232499   3.238   1.266   4.610
10534SOL     OW32500   0.079   5.833   0.928
10534SOL    HW132501   0.081   5.873   1.019
10534SOL    HW232502   0.066   5.905   0.860
10535SOL     OW32503   6.865   1.387   2.223
10535SOL    HW132504   6.947   1.434   2.256
10535SOL    HW232505   6.784   1.440   2.249
10536SOL     OW32506   4.214   0.478   2.818
10536SOL    HW132507   4.258   0.388   2.822
10536SOL    HW232508   4.116   0.468   2.835
10537SOL     OW32509   3.325   5.594   3.236
10537SOL    HW132510   3.417   5.623   3.263
10537SOL    HW232511   3.257   5.653   3.281
10538SOL     OW32512   4.271   3.448   6.387
10538SOL    HW132513   4.287   3.349   6.395
10538SOL    HW232514   4.189   3.464   6.332
10539SOL     OW32515   0.697   3.986   6.506
10539SOL    HW132516   0.670   4.034   6.423
10539SOL    HW232517   0.625   3.997   6.575
10540SOL     OW32518   1.358   0.397   5.655
10540SOL    HW132519   1.374   0.310   5.608
10540SOL    HW232520   1.345   0.381   5.753
10541SOL     OW32521   3.648   3.830   1.496
10541SOL    HW132522   3.634   3.904   1.430
10541SOL    HW232523   3.618   3.860   1.587
10542SOL     OW32524   0.073   1.481   0.710
10542SOL    HW132525   0.012   1.521   0.642
10542SOL    HW232526   0.144   1.427   0.663
10543SOL     OW32527   6.914   1.451   5.757
10543SOL    HW132528   6.928   1.467   5.855
10543SOL    HW232529   6.990   1.397   5.721
10544SOL     OW32530   2.588   1.746   2.520
10544SOL    HW132531   2.521   1.819   2.528
10544SOL    HW232532   2.557   1.678   2.454
10545SOL     OW32533   6.767   6.897   2.363
10545SOL    HW132534   6.764   6.996   2.345
10545SOL    HW232535   6.682   6.856   2.333
10546SOL     OW32536   1.644   0.029   5.234
10546SOL    HW132537   1.551   7.020   5.212
10546SOL    HW232538   1.663   0.117   5.191
10547SOL     OW32539   4.868   1.218   2.309
10547SOL    HW132540   4.820   1.139   2.270
10547SOL    HW232541   4.843   1.300   2.258
10548SOL     OW32542   5.312   3.842   4.612
10548SOL    HW132543   5.256   3.917   4.648
10548SOL    HW232544   5.258   3.758   4.613
10549SOL     OW32545   0.013   0.668   2.518
10549SOL    HW132546   0.040   0.764   2.520
10549SOL    HW232547   6.933   0.662   2.515
10550SOL     OW32548   4.889   6.610   4.126
10550SOL    HW132549   4.888   6.617   4.226
10550SOL    HW232550   4.955   6.676   4.089
10551SOL     OW32551   1.508   2.512   5.160
10551SOL    HW132552   1.490   2.454   5.080
10551SOL    HW232553   1.447   2.591   5.158
10552SOL     OW32554   4.188   1.919   5.307
10552SOL    HW132555   4.221   1.840   5.359
10552SOL    HW232556   4.212   2.003   5.356
10553SOL     OW32557   0.497   4.743   1.077
10553SOL    HW132558   0.539   4.697   0.999
10553SOL    HW232559   0.548   4.828   1.096
10554SOL     OW32560   5.945   4.799   6.882
10554SOL    HW132561   5.861   4.851   6.902
10554SOL    HW232562   5.927   4.702   6.895
10555SOL     OW32563   3.073   2.110   1.594
10555SOL    HW132564   3.090   2.012   1.587
10555SOL    HW232565   2.974   2.127   1.591
10556SOL     OW32566   2.047   3.172   4.843
10556SOL    HW132567   2.110   3.113   4.794
10556SOL    HW232568   2.084   3.265   4.846
10557SOL     OW32569   0.605   2.461   3.355
10557SOL    HW132570   0.671   2.516   3.408
10557SOL    HW232571   0.550   2.406   3.418
10558SOL     OW32572   4.516   0.088   5.040
10558SOL    HW132573   4.464   0.062   5.121
10558SOL    HW232574   4.469   0.057   4.957
10559SOL     OW32575   4.279   1.510   1.083
10559SOL    HW132576   4.362   1.564   1.074
10559SOL    HW232577   4.236   1.528   1.171
10560SOL     OW32578   1.956   5.236   5.049
10560SOL    HW132579   1.986   5.326   5.079
10560SOL    HW232580   1.978   5.223   4.953
10561SOL     OW32581   1.932   5.099   0.351
10561SOL    HW132582   1.944   5.062   0.259
10561SOL    HW232583   1.864   5.043   0.400
10562SOL     OW32584   4.988   6.896   0.739
10562SOL    HW132585   4.993   6.796   0.732
10562SOL    HW232586   4.971   6.921   0.834
10563SOL     OW32587   2.124   0.858   4.199
10563SOL    HW132588   2.132   0.830   4.295
10563SOL    HW232589   2.192   0.810   4.144
10564SOL     OW32590   5.712   0.088   1.517
10564SOL    HW132591   5.710   0.068   1.419
10564SOL    HW232592   5.710   0.187   1.532
10565SOL     OW32593   0.129   1.541   5.551
10565SOL    HW132594   0.147   1.447   5.581
10565SOL    HW232595   0.078   1.540   5.465
10566SOL     OW32596   3.836   3.691   6.654
10566SOL    HW132597   3.737   3.690   6.668
10566SOL    HW232598   3.860   3.626   6.581
10567SOL     OW32599   1.931   3.575   4.224
10567SOL    HW132600   1.989   3.495   4.211
10567SOL    HW232601   1.845   3.563   4.174
10568SOL     OW32602   5.676   1.283   2.557
10568SOL    HW132603   5.590   1.263   2.604
10568SOL    HW232604   5.676   1.239   2.467
10569SOL     OW32605   6.438   3.511   2.288
10569SOL    HW132606   6.420   3.605   2.257
10569SOL    HW232607   6.379   3.448   2.239
10570SOL     OW32608   1.844   4.455   2.507
10570SOL    HW132609   1.835   4.432   2.410
10570SOL    HW232610   1.766   4.417   2.557
10571SOL     OW32611   6.684   5.552   3.591
10571SOL    HW132612   6.661   5.642   3.555
10571SOL    HW232613   6.620   5.527   3.664
10572SOL     OW32614   5.867   3.673   3.153
10572SOL    HW132615   5.866   3.757   3.100
10572SOL    HW232616   5.911   3.690   3.241
10573SOL     OW32617   5.874   6.365   3.076
10573SOL    HW132618   5.821   6.434   3.028
10573SOL    HW232619   5.923   6.408   3.152
10574SOL     OW32620   1.787   1.960   3.462
10574SOL    HW132621   1.832   1.897   3.524
10574SOL    HW232622   1.849   1.984   3.387
10575SOL     OW32623   0.429   0.505   4.004
10575SOL    HW132624   0.330   0.496   4.002
10575SOL    HW232625   0.456   0.587   3.953
10576SOL     OW32626   0.933   6.777   5.088
10576SOL    HW132627   0.920   6.678   5.086
10576SOL    HW232628   0.993   6.804   5.012
10577SOL     OW32629   1.724   3.227   6.421
10577SOL    HW132630   1.786   3.174   6.363
10577SOL    HW232631   1.648   3.169   6.450
10578SOL     OW32632   6.386   0.991   5.128
10578SOL    HW132633   6.304   1.009   5.074
10578SOL    HW232634   6.467   1.002   5.071
10579SOL     OW32635   4.202   1.069   1.087
10579SOL    HW132636   4.273   1.137   1.072
10579SOL    HW232637   4.200   1.043   1.184
10580SOL     OW32638   6.873   6.964   6.634
10580SOL    HW132639   6.803   0.006   6.669
10580SOL    HW232640   6.954   7.017   6.608
10581SOL     OW32641   6.170   0.201   2.978
10581SOL    HW132642   6.080   0.159   2.974
10581SOL    HW232643   6.174   0.277   2.913
10582SOL     OW32644   3.952   4.562   6.947
10582SOL    HW132645   3.969   4.479   7.001
10582SOL    HW232646   3.996   4.553   6.858
10583SOL     OW32647   4.289   0.728   7.004
10583SOL    HW132648   4.277   0.707   6.907
10583SOL    HW232649   4.214   0.788   0.014
10584SOL     OW32650   5.399   6.260   1.343
10584SOL    HW132651   5.325   6.290   1.402
10584SOL    HW232652   5.366   6.189   1.280
10585SOL     OW32653   1.568   3.200   5.649
10585SOL    HW132654   1.525   3.139   5.715
10585SOL    HW232655   1.574   3.155   5.560
10586SOL     OW32656   2.344   6.023   5.822
10586SOL    HW132657   2.318   6.024   5.919
10586SOL    HW232658   2.374   5.931   5.796
10587SOL     OW32659   5.724   3.159   0.400
10587SOL    HW132660   5.675   3.149   0.314
10587SOL    HW232661   5.724   3.255   0.429
10588SOL     OW32662   1.396   4.178   1.797
10588SOL    HW132663   1.441   4.258   1.758
10588SOL    HW232664   1.303   4.203   1.825
10589SOL     OW32665   5.926   2.111   4.203
10589SOL    HW132666   5.946   2.164   4.285
10589SOL    HW232667   6.006   2.058   4.176
10590SOL     OW32668   1.156   6.840   2.255
10590SOL    HW132669   1.131   6.753   2.298
10590SOL    HW232670   1.109   6.915   2.301
10591SOL     OW32671   1.786   1.991   6.074
10591SOL    HW132672   1.747   1.919   6.016
10591SOL    HW232673   1.836   1.949   6.150
10592SOL     OW32674   5.738   1.704   0.083
10592SOL    HW132675   5.797   1.687   0.005
10592SOL    HW232676   5.642   1.692   0.056
10593SOL     OW32677   2.716   6.034   0.922
10593SOL    HW132678   2.748   6.013   0.830
10593SOL    HW232679   2.745   6.126   0.948
10594SOL     OW32680   6.353   1.572   4.018
10594SOL    HW132681   6.452   1.561   4.011
10594SOL    HW232682   6.315   1.591   3.927
10595SOL     OW32683   3.235   6.948   5.985
10595SOL    HW132684   3.148   6.998   5.995
10595SOL    HW232685   3.305   7.010   5.950
10596SOL     OW32686   3.860   6.896   1.686
10596SOL    HW132687   3.782   6.857   1.735
10596SOL    HW232688   3.887   6.983   1.728
10597SOL     OW32689   2.790   1.132   4.270
10597SOL    HW132690   2.754   1.176   4.187
10597SOL    HW232691   2.836   1.047   4.245
10598SOL     OW32692   2.209   2.516   6.613
10598SOL    HW132693   2.296   2.480   6.582
10598SOL    HW232694   2.224   2.581   6.688
10599SOL     OW32695   5.849   1.528   0.247
10599SOL    HW132696   5.947   1.548   0.253
10599SOL    HW232697   5.807   1.590   0.180
10600SOL     OW32698   2.373   3.336   6.763
10600SOL    HW132699   2.416   3.274   6.828
10600SOL    HW232700   2.441   3.370   6.698
10601SOL     OW32701   3.224   5.623   6.073
10601SOL    HW132702   3.125   5.623   6.058
10601SOL    HW232703   3.262   5.711   6.045
10602SOL     OW32704   5.212   1.536   1.794
10602SOL    HW132705   5.147   1.500   1.727
10602SOL    HW232706   5.209   1.636   1.792
10603SOL     OW32707   1.132   6.181   3.473
10603SOL    HW132708   1.221   6.134   3.468
10603SOL    HW232709   1.060   6.114   3.491
10604SOL     OW32710   5.928   4.345   4.549
10604SOL    HW132711   5.830   4.327   4.544
10604SOL    HW232712   5.946   4.416   4.617
10605SOL     OW32713   0.706   4.971   0.348
10605SOL    HW132714   0.660   4.999   0.432
10605SOL    HW232715   0.805   4.985   0.357
10606SOL     OW32716   6.735   0.868   1.507
10606SOL    HW132717   6.694   0.820   1.585
10606SOL    HW232718   6.781   0.802   1.447
10607SOL     OW32719   4.205   4.976   6.030
10607SOL    HW132720   4.147   5.047   6.069
10607SOL    HW232721   4.219   4.903   6.098
10608SOL     OW32722   6.047   1.580   4.724
10608SOL    HW132723   6.062   1.651   4.792
10608SOL    HW232724   6.075   1.614   4.634
10609SOL     OW32725   3.595   5.876   1.357
10609SOL    HW132726   3.545   5.791   1.335
10609SOL    HW232727   3.587   5.894   1.455
10610SOL     OW32728   0.938   4.094   6.437
10610SOL    HW132729   0.968   4.124   6.528
10610SOL    HW232730   0.863   4.028   6.447
10611SOL     OW32731   5.686   3.011   6.813
10611SOL    HW132732   5.734   3.028   6.899
10611SOL    HW232733   5.660   3.098   6.772
10612SOL     OW32734   2.526   6.941   6.613
10612SOL    HW132735   2.569   6.953   6.702
10612SOL    HW232736   2.566   6.862   6.567
10613SOL     OW32737   6.679   0.455   5.991
10613SOL    HW132738   6.619   0.517   5.941
10613SOL    HW232739   6.748   0.508   6.040
10614SOL     OW32740   0.002   0.540   4.283
10614SOL    HW132741   6.983   0.623   4.323
10614SOL    HW232742   6.961   0.463   4.299
10615SOL     OW32743   4.307   5.436   5.561
10615SOL    HW132744   4.342   5.383   5.484
10615SOL    HW232745   4.376   5.501   5.591
10616SOL     OW32746   2.910   6.508   0.408
10616SOL    HW132747   2.887   6.420   0.366
10616SOL    HW232748   3.008   6.525   0.399
10617SOL     OW32749   2.073   2.580   0.534
10617SOL    HW132750   1.982   2.602   0.569
10617SOL    HW232751   2.111   2.660   0.488
10618SOL     OW32752   6.286   2.754   0.456
10618SOL    HW132753   6.384   2.770   0.465
10618SOL    HW232754   6.236   2.833   0.490
10619SOL     OW32755   0.718   3.814   2.976
10619SOL    HW132756   0.729   3.753   3.056
10619SOL    HW232757   0.758   3.770   2.896
10620SOL     OW32758   1.309   5.958   5.620
10620SOL    HW132759   1.277   5.863   5.614
10620SOL    HW232760   1.393   5.967   5.565
10621SOL     OW32761   1.371   5.712   6.715
10621SOL    HW132762   1.371   5.785   6.647
10621SOL    HW232763   1.465   5.682   6.732
10622SOL     OW32764   4.623   0.830   1.798
10622SOL    HW132765   4.541   0.778   1.774
10622SOL    HW232766   4.612   0.925   1.770
10623SOL     OW32767   5.316   2.597   3.801
10623SOL    HW132768   5.345   2.637   3.888
10623SOL    HW232769   5.394   2.590   3.740
10624SOL     OW32770   1.315   1.662   5.393
10624SOL    HW132771   1.275   1.619   5.312
10624SOL    HW232772   1.242   1.699   5.450
10625SOL     OW32773   0.655   4.173   6.998
10625SOL    HW132774   0.676   4.263   0.017
10625SOL    HW232775   0.726   4.148   6.932
10626SOL     OW32776   1.467   2.193   1.552
10626SOL    HW132777   1.425   2.283   1.569
10626SOL    HW232778   1.439   2.160   1.462
10627SOL     OW32779   6.520   6.359   2.663
10627SOL    HW132780   6.611   6.349   2.704
10627SOL    HW232781   6.469   6.274   2.673
10628SOL     OW32782   6.328   5.054   5.327
10628SOL    HW132783   6.288   4.964   5.307
10628SOL    HW232784   6.304   5.118   5.255
10629SOL     OW32785   2.559   4.633   6.182
10629SOL    HW132786   2.528   4.579   6.104
10629SOL    HW232787   2.637   4.586   6.225
10630SOL     OW32788   6.109   0.445   3.592
10630SOL    HW132789   6.072   0.365   3.639
10630SOL    HW232790   6.067   0.528   3.628
10631SOL     OW32791   0.896   6.848   4.008
10631SOL    HW132792   0.980   6.854   4.062
10631SOL    HW232793   0.915   6.874   3.914
10632SOL     OW32794   6.370   2.279   4.626
10632SOL    HW132795   6.445   2.277   4.559
10632SOL    HW232796   6.330   2.370   4.630
10633SOL     OW32797   2.255   4.878   1.120
10633SOL    HW132798   2.184   4.847   1.057
10633SOL    HW232799   2.315   4.943   1.073
10634SOL     OW32800   2.742   5.696   0.649
10634SOL    HW132801   2.745   5.610   0.599
10634SOL    HW232802   2.768   5.681   0.744
10635SOL     OW32803   3.380   1.237   0.915
10635SOL    HW132804   3.396   1.320   0.969
10635SOL    HW232805   3.301   1.251   0.855
10636SOL     OW32806   0.438   2.012   1.086
10636SOL    HW132807   0.377   2.071   1.034
10636SOL    HW232808   0.397   1.994   1.176
10637SOL     OW32809   3.241   4.035   5.447
10637SOL    HW132810   3.255   3.951   5.395
10637SOL    HW232811   3.187   4.099   5.393
10638SOL     OW32812   0.492   6.612   4.198
10638SOL    HW132813   0.582   6.656   4.193
10638SOL    HW232814   0.424   6.678   4.229
10639SOL     OW32815   1.044   1.500   4.666
10639SOL    HW132816   0.962   1.443   4.670
10639SOL    HW232817   1.088   1.491   4.577
10640SOL     OW32818   4.586   0.648   6.851
10640SOL    HW132819   4.508   0.586   6.867
10640SOL    HW232820   4.564   0.711   6.777
10641SOL     OW32821   5.142   1.754   0.131
10641SOL    HW132822   5.220   1.784   0.186
10641SOL    HW232823   5.132   1.813   0.051
10642SOL     OW32824   0.126   2.186   1.262
10642SOL    HW132825   0.197   2.123   1.292
10642SOL    HW232826   0.168   2.269   1.225
10643SOL     OW32827   2.250   3.866   5.597
10643SOL    HW132828   2.336   3.918   5.599
10643SOL    HW232829   2.267   3.775   5.558
10644SOL     OW32830   4.609   1.722   3.935
10644SOL    HW132831   4.515   1.754   3.929
10644SOL    HW232832   4.661   1.759   3.858
10645SOL     OW32833   1.029   0.718   4.641
10645SOL    HW132834   0.989   0.685   4.556
10645SOL    HW232835   1.102   0.783   4.620
10646SOL     OW32836   0.247   2.843   5.788
10646SOL    HW132837   0.158   2.859   5.746
10646SOL    HW232838   0.243   2.868   5.885
10647SOL     OW32839   6.078   5.122   0.234
10647SOL    HW132840   6.049   5.036   0.192
10647SOL    HW232841   6.160   5.156   0.188
10648SOL     OW32842   4.929   3.405   6.542
10648SOL    HW132843   4.909   3.357   6.627
10648SOL    HW232844   4.931   3.341   6.466
10649SOL     OW32845   0.007   4.935   4.972
10649SOL    HW132846   0.055   5.015   4.937
10649SOL    HW232847   6.960   4.904   4.905
10650SOL     OW32848   2.372   6.364   3.924
10650SOL    HW132849   2.310   6.339   3.850
10650SOL    HW232850   2.467   6.348   3.894
10651SOL     OW32851   4.577   0.072   5.765
10651SOL    HW132852   4.507   0.067   5.694
10651SOL    HW232853   4.661   0.029   5.733
10652SOL     OW32854   3.003   0.135   5.985
10652SOL    HW132855   3.002   0.173   6.077
10652SOL    HW232856   2.909   0.118   5.955
10653SOL     OW32857   4.956   4.577   4.498
10653SOL    HW132858   4.952   4.477   4.500
10653SOL    HW232859   5.018   4.607   4.426
10654SOL     OW32860   2.615   0.400   1.334
10654SOL    HW132861   2.622   0.499   1.336
10654SOL    HW232862   2.619   0.365   1.428
10655SOL     OW32863   2.902   5.579   1.883
10655SOL    HW132864   2.910   5.506   1.951
10655SOL    HW232865   2.934   5.665   1.922
10656SOL     OW32866   6.115   2.507   0.035
10656SOL    HW132867   6.056   2.486   6.977
10656SOL    HW232868   6.064   2.562   0.101
10657SOL     OW32869   6.029   6.656   0.857
10657SOL    HW132870   6.065   6.742   0.822
10657SOL    HW232871   5.929   6.658   0.854
10658SOL     OW32872   1.299   4.602   4.364
10658SOL    HW132873   1.242   4.595   4.445
10658SOL    HW232874   1.389   4.638   4.389
10659SOL     OW32875   5.750   7.012   0.805
10659SOL    HW132876   5.738   0.032   0.896
10659SOL    HW232877   5.742   6.913   0.812
10660SOL     OW32878   4.257   3.865   5.858
10660SOL    HW132879   4.250   3.810   5.775
10660SOL    HW232880   4.215   3.954   5.843
10661SOL     OW32881   0.652   6.977   1.939
10661SOL    HW132882   0.643   6.965   2.038
10661SOL    HW232883   0.725   0.022   1.920
10662SOL     OW32884   0.157   1.245   0.878
10662SOL    HW132885   0.201   1.260   0.967
10662SOL    HW232886   0.065   1.284   0.879
10663SOL     OW32887   0.384   0.349   1.597
10663SOL    HW132888   0.470   0.384   1.632
10663SOL    HW232889   0.401   0.282   1.525
10664SOL     OW32890   2.111   4.290   0.107
10664SOL    HW132891   2.023   4.300   0.060
10664SOL    HW232892   2.095   4.260   0.201
10665SOL     OW32893   0.275   1.787   0.209
10665SOL    HW132894   0.245   1.700   0.248
10665SOL    HW232895   0.229   1.862   0.256
10666SOL     OW32896   3.454   5.604   6.793
10666SOL    HW132897   3.403   5.682   6.758
10666SOL    HW232898   3.421   5.579   6.884
10667SOL     OW32899   3.941   1.834   5.257
10667SOL    HW132900   3.927   1.764   5.327
10667SOL    HW232901   4.033   1.870   5.265
10668SOL     OW32902   1.617   1.992   6.487
10668SOL    HW132903   1.698   1.952   6.529
10668SOL    HW232904   1.628   2.091   6.480
10669SOL     OW32905   1.437   6.937   0.644
10669SOL    HW132906   1.435   0.011   0.611
10669SOL    HW232907   1.532   6.909   0.659
10670SOL     OW32908   5.624   4.654   5.631
10670SOL    HW132909   5.722   4.672   5.637
10670SOL    HW232910   5.578   4.687   5.714
10671SOL     OW32911   2.428   2.654   2.928
10671SOL    HW132912   2.349   2.595   2.910
10671SOL    HW232913   2.458   2.641   3.022
10672SOL     OW32914   0.312   2.371   0.316
10672SOL    HW132915   0.406   2.344   0.337
10672SOL    HW232916   0.258   2.290   0.292
10673SOL     OW32917   2.597   3.151   5.404
10673SOL    HW132918   2.576   3.102   5.488
10673SOL    HW232919   2.520   3.143   5.340
10674SOL     OW32920   4.020   3.759   0.643
10674SOL    HW132921   3.971   3.674   0.658
10674SOL    HW232922   3.957   3.827   0.606
10675SOL     OW32923   0.027   0.362   5.762
10675SOL    HW132924   0.007   0.265   5.748
10675SOL    HW232925   6.963   0.416   5.749
10676SOL     OW32926   6.214   0.508   6.143
10676SOL    HW132927   6.195   0.547   6.052
10676SOL    HW232928   6.156   0.553   6.211
10677SOL     OW32929   0.254   0.628   1.801
10677SOL    HW132930   0.178   0.635   1.864
10677SOL    HW232931   0.220   0.631   1.707
10678SOL     OW32932   2.687   5.703   2.475
10678SOL    HW132933   2.726   5.613   2.491
10678SOL    HW232934   2.598   5.710   2.522
10679SOL     OW32935   5.975   5.499   4.076
10679SOL    HW132936   5.896   5.466   4.025
10679SOL    HW232937   5.953   5.586   4.120
10680SOL     OW32938   1.254   3.046   2.367
10680SOL    HW132939   1.319   2.984   2.324
10680SOL    HW232940   1.196   2.995   2.431
10681SOL     OW32941   6.334   3.148   6.322
10681SOL    HW132942   6.298   3.138   6.414
10681SOL    HW232943   6.434   3.137   6.324
10682SOL     OW32944   0.777   1.848   2.417
10682SOL    HW132945   0.690   1.867   2.464
10682SOL    HW232946   0.848   1.907   2.454
10683SOL     OW32947   1.730   2.158   4.471
10683SOL    HW132948   1.765   2.230   4.531
10683SOL    HW232949   1.806   2.110   4.428
10684SOL     OW32950   6.180   4.330   0.561
10684SOL    HW132951   6.137   4.416   0.586
10684SOL    HW232952   6.231   4.342   0.476
10685SOL     OW32953   0.445   3.728   3.450
10685SOL    HW132954   0.409   3.803   3.505
10685SOL    HW232955   0.404   3.642   3.480
10686SOL     OW32956   3.156   6.202   0.300
10686SOL    HW132957   3.217   6.246   0.232
10686SOL    HW232958   3.173   6.104   0.300
10687SOL     OW32959   6.871   4.701   2.612
10687SOL    HW132960   6.906   4.620   2.660
10687SOL    HW232961   6.919   4.782   2.645
10688SOL     OW32962   6.929   5.009   2.222
10688SOL    HW132963   7.016   5.026   2.176
10688SOL    HW232964   6.909   4.911   2.220
10689SOL     OW32965   0.234   0.685   2.908
10689SOL    HW132966   0.192   0.749   2.972
10689SOL    HW232967   0.163   0.625   2.870
10690SOL     OW32968   4.596   5.197   2.416
10690SOL    HW132969   4.678   5.218   2.470
10690SOL    HW232970   4.602   5.102   2.383
10691SOL     OW32971   6.660   1.415   1.461
10691SOL    HW132972   6.683   1.323   1.431
10691SOL    HW232973   6.736   1.477   1.442
10692SOL     OW32974   3.753   5.906   3.830
10692SOL    HW132975   3.742   5.892   3.929
10692SOL    HW232976   3.850   5.921   3.809
10693SOL     OW32977   0.180   1.284   1.302
10693SOL    HW132978   0.122   1.319   1.376
10693SOL    HW232979   0.273   1.269   1.338
10694SOL     OW32980   3.990   5.912   1.688
10694SOL    HW132981   3.961   5.818   1.670
10694SOL    HW232982   3.932   5.975   1.635
10695SOL     OW32983   7.013   2.578   4.454
10695SOL    HW132984   6.957   2.660   4.474
10695SOL    HW232985   6.953   2.499   4.447
10696SOL     OW32986   0.296   6.131   1.175
10696SOL    HW132987   0.359   6.139   1.252
10696SOL    HW232988   0.346   6.150   1.090
10697SOL     OW32989   0.776   6.085   4.306
10697SOL    HW132990   0.692   6.113   4.260
10697SOL    HW232991   0.755   6.011   4.370
10698SOL     OW32992   3.050   0.020   3.509
10698SOL    HW132993   3.123   0.088   3.521
10698SOL    HW232994   2.961   0.067   3.508
10699SOL     OW32995   3.997   1.534   2.789
10699SOL    HW132996   3.980   1.464   2.720
10699SOL    HW232997   3.936   1.612   2.773
10700SOL     OW32998   0.024   6.595   1.268
10700SOL    HW132999   0.060   6.601   1.362
10700SOL    HW233000   0.079   6.530   1.216
10701SOL     OW33001   3.334   6.217   0.048
10701SOL    HW133002   3.385   6.136   0.076
10701SOL    HW233003   3.397   6.286   0.011
10702SOL     OW33004   6.022   2.648   0.265
10702SOL    HW133005   6.073   2.569   0.300
10702SOL    HW233006   5.953   2.676   0.332
10703SOL     OW33007   3.676   3.971   3.552
10703SOL    HW133008   3.715   4.021   3.475
10703SOL    HW233009   3.599   4.022   3.590
10704SOL     OW33010   5.155   0.234   2.068
10704SOL    HW133011   5.095   0.265   2.142
10704SOL    HW233012   5.128   0.278   1.982
10705SOL     OW33013   0.993   3.179   6.081
10705SOL    HW133014   0.962   3.117   6.009
10705SOL    HW233015   0.946   3.155   6.167
10706SOL     OW33016   3.723   0.808   1.715
10706SOL    HW133017   3.632   0.796   1.675
10706SOL    HW233018   3.717   0.870   1.794
10707SOL     OW33019   6.055   6.745   5.779
10707SOL    HW133020   6.146   6.706   5.768
10707SOL    HW233021   6.048   6.791   5.868
10708SOL     OW33022   4.725   0.836   1.254
10708SOL    HW133023   4.748   0.786   1.171
10708SOL    HW233024   4.785   0.915   1.264
10709SOL     OW33025   6.360   7.012   5.563
10709SOL    HW133026   6.357   0.074   5.506
10709SOL    HW233027   6.274   6.963   5.555
10710SOL     OW33028   6.083   5.847   4.025
10710SOL    HW133029   6.067   5.904   3.944
10710SOL    HW233030   5.997   5.810   4.058
10711SOL     OW33031   1.127   6.882   4.174
10711SOL    HW133032   1.214   6.865   4.128
10711SOL    HW233033   1.139   6.873   4.273
10712SOL     OW33034   3.501   1.375   4.939
10712SOL    HW133035   3.522   1.470   4.916
10712SOL    HW233036   3.435   1.338   4.873
10713SOL     OW33037   1.909   5.722   1.779
10713SOL    HW133038   1.878   5.695   1.870
10713SOL    HW233039   1.836   5.708   1.713
10714SOL     OW33040   0.486   5.182   5.468
10714SOL    HW133041   0.480   5.090   5.430
10714SOL    HW233042   0.395   5.212   5.499
10715SOL     OW33043   4.691   1.892   4.136
10715SOL    HW133044   4.755   1.956   4.094
10715SOL    HW233045   4.665   1.823   4.069
10716SOL     OW33046   6.720   0.432   4.185
10716SOL    HW133047   6.723   0.383   4.098
10716SOL    HW233048   6.642   0.494   4.187
10717SOL     OW33049   6.767   0.577   1.660
10717SOL    HW133050   6.819   0.657   1.688
10717SOL    HW233051   6.823   0.495   1.673
10718SOL     OW33052   6.658   5.201   6.356
10718SOL    HW133053   6.660   5.259   6.437
10718SOL    HW233054   6.726   5.128   6.366
10719SOL     OW33055   5.641   0.972   1.893
10719SOL    HW133056   5.733   0.955   1.929
10719SOL    HW233057   5.595   1.038   1.952
10720SOL     OW33058   0.468   3.730   6.643
10720SOL    HW133059   0.567   3.734   6.629
10720SOL    HW233060   0.437   3.635   6.632
10721SOL     OW33061   5.996   2.570   4.401
10721SOL    HW133062   5.906   2.555   4.360
10721SOL    HW233063   6.057   2.495   4.375
10722SOL     OW33064   6.766   3.829   0.495
10722SOL    HW133065   6.810   3.766   0.432
10722SOL    HW233066   6.679   3.790   0.526
10723SOL     OW33067   5.674   4.224   6.666
10723SOL    HW133068   5.601   4.210   6.599
10723SOL    HW233069   5.762   4.228   6.618
10724SOL     OW33070   4.178   6.437   6.247
10724SOL    HW133071   4.214   6.495   6.173
10724SOL    HW233072   4.087   6.469   6.273
10725SOL     OW33073   0.532   5.937   4.531
10725SOL    HW133074   0.615   5.888   4.507
10725SOL    HW233075   0.552   6.004   4.603
10726SOL     OW33076   5.515   0.353   4.871
10726SOL    HW133077   5.481   0.327   4.961
10726SOL    HW233078   5.468   0.435   4.839
10727SOL     OW33079   2.477   5.602   6.008
10727SOL    HW133080   2.573   5.603   6.037
10727SOL    HW233081   2.436   5.514   6.033
10728SOL     OW33082   4.487   6.867   2.668
10728SOL    HW133083   4.449   6.822   2.749
10728SOL    HW233084   4.587   6.869   2.674
10729SOL     OW33085   6.345   2.665   2.847
10729SOL    HW133086   6.396   2.585   2.879
10729SOL    HW233087   6.366   2.682   2.751
10730SOL     OW33088   1.677   7.005   2.617
10730SOL    HW133089   1.745   7.000   2.689
10730SOL    HW233090   1.645   6.913   2.595
10731SOL     OW33091   3.535   6.724   0.047
10731SOL    HW133092   3.465   6.783   0.086
10731SOL    HW233093   3.615   6.721   0.107
10732SOL     OW33094   5.986   5.930   3.277
10732SOL    HW133095   5.973   5.838   3.242
10732SOL    HW233096   5.981   5.996   3.201
10733SOL     OW33097   6.368   1.203   5.901
10733SOL    HW133098   6.467   1.213   5.901
10733SOL    HW233099   6.335   1.190   5.995
10734SOL     OW33100   1.822   0.831   5.591
10734SOL    HW133101   1.728   0.861   5.575
10734SOL    HW233102   1.829   0.790   5.682
10735SOL     OW33103   1.331   5.066   1.748
10735SOL    HW133104   1.345   4.973   1.714
10735SOL    HW233105   1.313   5.128   1.672
10736SOL     OW33106   6.738   0.265   3.677
10736SOL    HW133107   6.838   0.269   3.674
10736SOL    HW233108   6.707   0.180   3.635
10737SOL     OW33109   6.878   1.597   1.444
10737SOL    HW133110   6.877   1.612   1.345
10737SOL    HW233111   6.842   1.678   1.490
10738SOL     OW33112   2.897   0.594   2.463
10738SOL    HW133113   2.833   0.545   2.522
10738SOL    HW233114   2.979   0.539   2.449
10739SOL     OW33115   5.925   2.184   2.599
10739SOL    HW133116   5.853   2.131   2.553
10739SOL    HW233117   5.884   2.267   2.638
10740SOL     OW33118   1.567   6.881   6.055
10740SOL    HW133119   1.508   6.844   6.127
10740SOL    HW233120   1.584   6.811   5.986
10741SOL     OW33121   2.040   2.657   3.040
10741SOL    HW133122   1.970   2.729   3.046
10741SOL    HW233123   2.095   2.657   3.123
10742SOL     OW33124   6.195   5.615   2.837
10742SOL    HW133125   6.199   5.648   2.931
10742SOL    HW233126   6.101   5.624   2.802
10743SOL     OW33127   3.356   0.921   5.658
10743SOL    HW133128   3.421   0.982   5.704
10743SOL    HW233129   3.353   0.944   5.561
10744SOL     OW33130   2.274   0.362   0.717
10744SOL    HW133131   2.253   0.396   0.808
10744SOL    HW233132   2.292   0.439   0.656
10745SOL     OW33133   2.248   4.525   1.007
10745SOL    HW133134   2.214   4.577   1.085
10745SOL    HW233135   2.249   4.428   1.030
10746SOL     OW33136   1.806   6.431   6.771
10746SOL    HW133137   1.752   6.493   6.828
10746SOL    HW233138   1.861   6.484   6.706
10747SOL     OW33139   6.776   1.986   4.162
10747SOL    HW133140   6.744   2.004   4.256
10747SOL    HW233141   6.866   2.027   4.149
10748SOL     OW33142   3.975   5.542   1.240
10748SOL    HW133143   3.972   5.442   1.246
10748SOL    HW233144   3.882   5.578   1.229
10749SOL     OW33145   6.614   4.818   2.997
10749SOL    HW133146   6.590   4.856   3.086
10749SOL    HW233147   6.670   4.736   3.009
10750SOL     OW33148   4.966   2.693   4.019
10750SOL    HW133149   4.867   2.703   4.032
10750SOL    HW233150   5.002   2.632   4.090
10751SOL     OW33151   1.325   4.075   5.397
10751SOL    HW133152   1.237   4.034   5.417
10751SOL    HW233153   1.333   4.163   5.444
10752SOL     OW33154   5.913   5.934   0.668
10752SOL    HW133155   5.910   5.988   0.752
10752SOL    HW233156   6.005   5.939   0.628
10753SOL     OW33157   5.019   6.369   3.756
10753SOL    HW133158   5.066   6.364   3.668
10753SOL    HW233159   5.018   6.279   3.798
10754SOL     OW33160   1.700   3.033   2.025
10754SOL    HW133161   1.721   3.096   1.950
10754SOL    HW233162   1.655   2.952   1.989
10755SOL     OW33163   6.662   3.185   0.875
10755SOL    HW133164   6.572   3.213   0.909
10755SOL    HW233165   6.723   3.265   0.875
10756SOL     OW33166   0.366   3.121   0.612
10756SOL    HW133167   0.405   3.132   0.520
10756SOL    HW233168   0.283   3.067   0.606
10757SOL     OW33169   6.284   4.399   1.493
10757SOL    HW133170   6.328   4.452   1.420
10757SOL    HW233171   6.190   4.379   1.466
10758SOL     OW33172   0.608   6.802   6.895
10758SOL    HW133173   0.525   6.750   6.912
10758SOL    HW233174   0.630   6.800   6.797
10759SOL     OW33175   2.286   2.062   6.345
10759SOL    HW133176   2.215   2.132   6.332
10759SOL    HW233177   2.287   2.034   6.440
10760SOL     OW33178   0.312   5.399   0.195
10760SOL    HW133179   0.273   5.488   0.170
10760SOL    HW233180   0.290   5.332   0.125
10761SOL     OW33181   0.644   1.708   6.301
10761SOL    HW133182   0.588   1.658   6.367
10761SOL    HW233183   0.665   1.799   6.336
10762SOL     OW33184   3.896   0.140   5.738
10762SOL    HW133185   3.880   0.234   5.766
10762SOL    HW233186   3.931   0.087   5.815
10763SOL     OW33187   5.547   0.051   2.900
10763SOL    HW133188   5.470   0.017   2.845
10763SOL    HW233189   5.536   0.020   2.994
10764SOL     OW33190   4.391   1.248   5.259
10764SOL    HW133191   4.395   1.193   5.343
10764SOL    HW233192   4.321   1.210   5.198
10765SOL     OW33193   6.685   2.228   2.821
10765SOL    HW133194   6.645   2.294   2.758
10765SOL    HW233195   6.631   2.225   2.905
10766SOL     OW33196   1.529   4.557   6.618
10766SOL    HW133197   1.582   4.473   6.627
10766SOL    HW233198   1.561   4.625   6.684
10767SOL     OW33199   1.543   5.831   0.988
10767SOL    HW133200   1.594   5.839   0.902
10767SOL    HW233201   1.504   5.739   0.996
10768SOL     OW33202   6.062   6.219   0.516
10768SOL    HW133203   6.020   6.144   0.464
10768SOL    HW233204   6.118   6.274   0.455
10769SOL     OW33205   2.969   3.582   5.054
10769SOL    HW133206   3.064   3.566   5.025
10769SOL    HW233207   2.926   3.494   5.074
10770SOL     OW33208   5.221   6.897   4.218
10770SOL    HW133209   5.154   6.970   4.203
10770SOL    HW233210   5.303   6.935   4.261
10771SOL     OW33211   5.442   5.903   5.866
10771SOL    HW133212   5.500   5.927   5.788
10771SOL    HW233213   5.388   5.822   5.844
10772SOL     OW33214   5.847   4.838   3.080
10772SOL    HW133215   5.778   4.900   3.040
10772SOL    HW233216   5.929   4.839   3.023
10773SOL     OW33217   6.430   4.534   1.291
10773SOL    HW133218   6.399   4.515   1.198
10773SOL    HW233219   6.509   4.594   1.289
10774SOL     OW33220   1.411   2.239   1.082
10774SOL    HW133221   1.499   2.285   1.099
10774SOL    HW233222   1.414   2.195   0.992
10775SOL     OW33223   1.488   4.218   1.252
10775SOL    HW133224   1.524   4.170   1.332
10775SOL    HW233225   1.509   4.166   1.169
10776SOL     OW33226   0.128   1.348   3.105
10776SOL    HW133227   0.145   1.368   3.202
10776SOL    HW233228   0.122   1.434   3.054
10777SOL     OW33229   2.878   1.136   2.762
10777SOL    HW133230   2.933   1.180   2.833
10777SOL    HW233231   2.910   1.042   2.749
10778SOL     OW33232   6.366   6.635   3.792
10778SOL    HW133233   6.317   6.573   3.853
10778SOL    HW233234   6.341   6.615   3.697
10779SOL     OW33235   5.417   4.157   4.211
10779SOL    HW133236   5.367   4.088   4.158
10779SOL    HW233237   5.514   4.134   4.212
10780SOL     OW33238   1.263   5.781   5.008
10780SOL    HW133239   1.299   5.691   5.031
10780SOL    HW233240   1.177   5.771   4.958
10781SOL     OW33241   5.843   2.582   4.800
10781SOL    HW133242   5.851   2.519   4.877
10781SOL    HW233243   5.833   2.675   4.834
10782SOL     OW33244   0.963   3.267   5.298
10782SOL    HW133245   0.957   3.283   5.199
10782SOL    HW233246   0.895   3.199   5.325
10783SOL     OW33247   0.737   2.324   2.659
10783SOL    HW133248   0.797   2.256   2.701
10783SOL    HW233249   0.686   2.282   2.584
10784SOL     OW33250   3.547   6.173   2.333
10784SOL    HW133251   3.531   6.237   2.409
10784SOL    HW233252   3.471   6.109   2.327
10785SOL     OW33253   1.730   5.748   2.685
10785SOL    HW133254   1.709   5.781   2.777
10785SOL    HW233255   1.676   5.800   2.618
10786SOL     OW33256   4.708   1.692   2.093
10786SOL    HW133257   4.760   1.777   2.104
10786SOL    HW233258   4.690   1.675   1.996
10787SOL     OW33259   3.348   1.221   3.484
10787SOL    HW133260   3.333   1.303   3.429
10787SOL    HW233261   3.444   1.195   3.479
10788SOL     OW33262   0.737   4.257   0.504
10788SOL    HW133263   0.774   4.193   0.571
10788SOL    HW233264   0.796   4.338   0.498
10789SOL     OW33265   6.268   1.239   0.255
10789SOL    HW133266   6.319   1.203   0.178
10789SOL    HW233267   6.265   1.339   0.250
10790SOL     OW33268   0.596   2.404   4.594
10790SOL    HW133269   0.636   2.356   4.672
10790SOL    HW233270   0.507   2.441   4.619
10791SOL     OW33271   1.921   1.419   2.812
10791SOL    HW133272   1.841   1.474   2.836
10791SOL    HW233273   1.997   1.480   2.787
10792SOL     OW33274   4.031   2.282   1.079
10792SOL    HW133275   4.009   2.243   1.168
10792SOL    HW233276   4.093   2.359   1.091
10793SOL     OW33277   4.804   1.704   5.200
10793SOL    HW133278   4.721   1.680   5.250
10793SOL    HW233279   4.814   1.803   5.198
10794SOL     OW33280   4.243   3.395   1.576
10794SOL    HW133281   4.218   3.341   1.656
10794SOL    HW233282   4.242   3.492   1.600
10795SOL     OW33283   7.010   3.379   3.407
10795SOL    HW133284   6.930   3.340   3.361
10795SOL    HW233285   0.003   3.334   3.495
10796SOL     OW33286   6.752   6.544   6.697
10796SOL    HW133287   6.707   6.455   6.691
10796SOL    HW233288   6.851   6.531   6.707
10797SOL     OW33289   4.342   3.643   0.531
10797SOL    HW133290   4.263   3.591   0.500
10797SOL    HW233291   4.417   3.580   0.552
10798SOL     OW33292   2.771   6.906   6.342
10798SOL    HW133293   2.686   6.862   6.374
10798SOL    HW233294   2.786   6.990   6.394
10799SOL     OW33295   3.152   1.718   2.743
10799SOL    HW133296   3.192   1.740   2.831
10799SOL    HW233297   3.211   1.751   2.670
10800SOL     OW33298   1.412   0.455   5.932
10800SOL    HW133299   1.455   0.400   6.004
10800SOL    HW233300   1.322   0.485   5.963
10801SOL     OW33301   2.650   6.202   6.016
10801SOL    HW133302   2.674   6.198   5.919
10801SOL    HW233303   2.561   6.247   6.026
10802SOL     OW33304   0.769   3.928   4.697
10802SOL    HW133305   0.841   3.950   4.631
10802SOL    HW233306   0.717   3.850   4.665
10803SOL     OW33307   6.409   4.601   5.116
10803SOL    HW133308   6.452   4.566   5.199
10803SOL    HW233309   6.472   4.662   5.068
10804SOL     OW33310   5.293   4.798   2.202
10804SOL    HW133311   5.256   4.885   2.168
10804SOL    HW233312   5.249   4.776   2.289
10805SOL     OW33313   4.451   6.774   0.809
10805SOL    HW133314   4.476   6.694   0.755
10805SOL    HW233315   4.531   6.833   0.821
10806SOL     OW33316   5.343   3.986   7.012
10806SOL    HW133317   5.333   3.895   6.973
10806SOL    HW233318   5.403   4.041   6.954
10807SOL     OW33319   4.247   6.187   3.428
10807SOL    HW133320   4.172   6.251   3.447
10807SOL    HW233321   4.252   6.170   3.330
10808SOL     OW33322   6.756   3.214   5.954
10808SOL    HW133323   6.807   3.190   6.036
10808SOL    HW233324   6.739   3.313   5.953
10809SOL     OW33325   2.411   0.455   3.565
10809SOL    HW133326   2.353   0.451   3.484
10809SOL    HW233327   2.378   0.390   3.633
10810SOL     OW33328   7.010   1.611   5.303
10810SOL    HW133329   0.025   1.703   5.285
10810SOL    HW233330   0.029   1.547   5.236
10811SOL     OW33331   4.853   4.611   4.896
10811SOL    HW133332   4.920   4.564   4.952
10811SOL    HW233333   4.773   4.552   4.882
10812SOL     OW33334   6.481   2.718   2.592
10812SOL    HW133335   6.459   2.621   2.591
10812SOL    HW233336   6.578   2.731   2.570
10813SOL     OW33337   2.868   6.242   1.887
10813SOL    HW133338   2.847   6.236   1.984
10813SOL    HW233339   2.963   6.268   1.874
10814SOL     OW33340   1.788   6.930   4.783
10814SOL    HW133341   1.758   6.902   4.875
10814SOL    HW233342   1.790   0.009   4.778
10815SOL     OW33343   5.338   3.591   3.133
10815SOL    HW133344   5.345   3.497   3.097
10815SOL    HW233345   5.412   3.607   3.198
10816SOL     OW33346   1.723   1.065   2.096
10816SOL    HW133347   1.715   1.154   2.051
10816SOL    HW233348   1.808   1.061   2.148
10817SOL     OW33349   4.621   6.965   2.266
10817SOL    HW133350   4.617   6.951   2.167
10817SOL    HW233351   4.678   6.895   2.308
10818SOL     OW33352   4.671   3.066   6.951
10818SOL    HW133353   4.648   2.996   6.884
10818SOL    HW233354   4.727   3.137   6.908
10819SOL     OW33355   6.973   4.519   6.681
10819SOL    HW133356   6.895   4.480   6.632
10819SOL    HW233357   0.038   4.491   6.637
10820SOL     OW33358   0.368   6.597   4.512
10820SOL    HW133359   0.394   6.514   4.462
10820SOL    HW233360   0.395   6.589   4.607
10821SOL     OW33361   6.817   0.493   1.049
10821SOL    HW133362   6.779   0.412   1.092
10821SOL    HW233363   6.781   0.501   0.956
10822SOL     OW33364   0.538   3.962   2.149
10822SOL    HW133365   0.487   3.878   2.167
10822SOL    HW233366   0.598   3.949   2.070
10823SOL     OW33367   2.122   6.412   1.218
10823SOL    HW133368   2.219   6.391   1.230
10823SOL    HW233369   2.092   6.476   1.289
10824SOL     OW33370   5.237   0.773   2.464
10824SOL    HW133371   5.245   0.673   2.458
10824SOL    HW233372   5.327   0.814   2.475
10825SOL     OW33373   3.862   1.302   0.759
10825SOL    HW133374   3.939   1.268   0.814
10825SOL    HW233375   3.870   1.401   0.748
10826SOL     OW33376   0.078   3.307   2.386
10826SOL    HW133377   0.114   3.291   2.479
10826SOL    HW233378   0.019   3.388   2.387
10827SOL     OW33379   6.976   3.022   3.976
10827SOL    HW133380   6.908   3.046   4.045
10827SOL    HW233381   0.045   3.060   4.003
10828SOL     OW33382   1.204   5.659   0.539
10828SOL    HW133383   1.187   5.637   0.443
10828SOL    HW233384   1.294   5.625   0.566
10829SOL     OW33385   3.178   3.865   2.055
10829SOL    HW133386   3.091   3.815   2.053
10829SOL    HW233387   3.178   3.929   2.132
10830SOL     OW33388   4.922   2.827   4.617
10830SOL    HW133389   5.016   2.826   4.584
10830SOL    HW233390   4.865   2.877   4.552
10831SOL     OW33391   5.345   1.338   3.155
10831SOL    HW133392   5.274   1.305   3.217
10831SOL    HW233393   5.316   1.321   3.061
10832SOL     OW33394   1.049   1.701   0.666
10832SOL    HW133395   1.013   1.738   0.579
10832SOL    HW233396   1.121   1.761   0.700
10833SOL     OW33397   3.100   0.315   4.471
10833SOL    HW133398   3.076   0.410   4.490
10833SOL    HW233399   3.187   0.293   4.516
10834SOL     OW33400   1.244   1.914   5.223
10834SOL    HW133401   1.157   1.938   5.264
10834SOL    HW233402   1.231   1.840   5.157
10835SOL     OW33403   5.912   1.625   2.318
10835SOL    HW133404   5.828   1.572   2.303
10835SOL    HW233405   5.973   1.614   2.239
10836SOL     OW33406   1.963   1.952   6.298
10836SOL    HW133407   1.925   1.923   6.386
10836SOL    HW233408   2.014   2.037   6.310
10837SOL     OW33409   6.796   4.468   0.494
10837SOL    HW133410   6.756   4.454   0.585
10837SOL    HW233411   6.768   4.394   0.434
10838SOL     OW33412   6.086   6.996   6.304
10838SOL    HW133413   6.182   6.972   6.313
10838SOL    HW233414   6.032   6.944   6.371
10839SOL     OW33415   1.917   2.333   0.207
10839SOL    HW133416   1.958   2.423   0.197
10839SOL    HW233417   1.841   2.337   0.271
10840SOL     OW33418   3.847   5.223   1.868
10840SOL    HW133419   3.827   5.310   1.913
10840SOL    HW233420   3.764   5.167   1.865
10841SOL     OW33421   4.081   5.539   5.618
10841SOL    HW133422   4.078   5.519   5.716
10841SOL    HW233423   4.156   5.488   5.576
10842SOL     OW33424   6.521   3.066   1.680
10842SOL    HW133425   6.436   3.025   1.649
10842SOL    HW233426   6.547   3.140   1.619
10843SOL     OW33427   0.406   1.704   2.194
10843SOL    HW133428   0.494   1.742   2.166
10843SOL    HW233429   0.390   1.617   2.146
10844SOL     OW33430   4.912   0.168   3.646
10844SOL    HW133431   5.012   0.167   3.645
10844SOL    HW233432   4.879   0.074   3.655
10845SOL     OW33433   1.450   1.647   1.418
10845SOL    HW133434   1.523   1.701   1.377
10845SOL    HW233435   1.411   1.697   1.496
10846SOL     OW33436   4.277   1.946   1.442
10846SOL    HW133437   4.305   2.035   1.406
10846SOL    HW233438   4.190   1.955   1.489
10847SOL     OW33439   3.883   2.550   6.218
10847SOL    HW133440   3.971   2.551   6.170
10847SOL    HW233441   3.808   2.545   6.151
10848SOL     OW33442   0.972   0.954   6.678
10848SOL    HW133443   0.872   0.954   6.682
10848SOL    HW233444   1.003   0.873   6.628
10849SOL     OW33445   3.163   5.074   4.439
10849SOL    HW133446   3.133   5.056   4.345
10849SOL    HW233447   3.248   5.126   4.438
10850SOL     OW33448   5.023   6.393   1.004
10850SOL    HW133449   5.046   6.301   1.038
10850SOL    HW233450   5.061   6.462   1.065
10851SOL     OW33451   3.568   2.063   6.545
10851SOL    HW133452   3.496   2.115   6.590
10851SOL    HW233453   3.533   2.023   6.460
10852SOL     OW33454   0.659   0.709   6.790
10852SOL    HW133455   0.604   0.684   6.710
10852SOL    HW233456   0.747   0.662   6.785
10853SOL     OW33457   2.398   1.284   4.770
10853SOL    HW133458   2.498   1.282   4.779
10853SOL    HW233459   2.359   1.343   4.841
10854SOL     OW33460   6.571   6.729   6.786
10854SOL    HW133461   6.648   6.668   6.767
10854SOL    HW233462   6.552   6.785   6.705
10855SOL     OW33463   1.413   6.257   1.499
10855SOL    HW133464   1.397   6.356   1.494
10855SOL    HW233465   1.488   6.233   1.437
10856SOL     OW33466   6.090   6.906   6.976
10856SOL    HW133467   6.125   6.812   6.984
10856SOL    HW233468   6.003   6.905   6.929
10857SOL     OW33469   5.896   1.624   3.802
10857SOL    HW133470   5.954   1.614   3.883
10857SOL    HW233471   5.860   1.534   3.776
10858SOL     OW33472   1.902   3.033   0.373
10858SOL    HW133473   1.814   3.013   0.330
10858SOL    HW233474   1.895   3.020   0.472
10859SOL     OW33475   0.895   4.427   2.268
10859SOL    HW133476   0.844   4.392   2.347
10859SOL    HW233477   0.850   4.396   2.184
10860SOL     OW33478   6.136   2.100   6.888
10860SOL    HW133479   6.162   2.102   6.984
10860SOL    HW233480   6.207   2.147   6.834
10861SOL     OW33481   3.376   2.968   1.719
10861SOL    HW133482   3.332   2.990   1.805
10861SOL    HW233483   3.450   3.033   1.701
10862SOL     OW33484   3.562   3.082   5.505
10862SOL    HW133485   3.627   3.034   5.565
10862SOL    HW233486   3.486   3.021   5.484
10863SOL     OW33487   2.352   1.194   2.615
10863SOL    HW133488   2.433   1.209   2.558
10863SOL    HW233489   2.304   1.281   2.629
10864SOL     OW33490   2.777   4.761   2.177
10864SOL    HW133491   2.799   4.678   2.125
10864SOL    HW233492   2.711   4.816   2.125
10865SOL     OW33493   4.284   1.565   3.252
10865SOL    HW133494   4.241   1.545   3.164
10865SOL    HW233495   4.266   1.490   3.316
10866SOL     OW33496   0.184   4.014   3.198
10866SOL    HW133497   0.241   3.947   3.246
10866SOL    HW233498   0.110   3.966   3.151
10867SOL     OW33499   3.852   3.332   0.513
10867SOL    HW133500   3.812   3.335   0.604
10867SOL    HW233501   3.779   3.325   0.445
10868SOL     OW33502   1.222   1.813   4.163
10868SOL    HW133503   1.304   1.799   4.107
10868SOL    HW233504   1.217   1.742   4.233
10869NA      NA33505   6.965   2.380   5.724
10870NA      NA33506   4.209   4.607   5.278
10871NA      NA33507   0.765   5.237   2.404
10872NA      NA33508   5.331   4.347   3.663
10873NA      NA33509   4.318   2.272   5.129
10874NA      NA33510   2.264   5.161   0.805
10875NA      NA33511   1.110   5.245   6.623
10876NA      NA33512   3.266   4.383   1.037
10877NA      NA33513   4.301   5.222   0.847
10878NA      NA33514   3.363   1.023   6.396
10879NA      NA33515   5.615   6.076   1.963
10880NA      NA33516   1.738   6.660   5.450
10881NA      NA33517   4.253   5.080   2.067
10882NA      NA33518   3.531   3.096   6.726
   7.02018   7.02018   7.02018
