Generated by trjconv : CNT in water t=  53.00000
33518
    1C        C    1   2.841   2.767   4.746
    1C        C    2   2.898   2.717   4.865
    1C        C    3   2.843   2.768   4.984
    1C        C    4   2.851   2.774   4.259
    1C        C    5   2.899   2.725   4.383
    1C        C    6   2.841   2.768   4.504
    1C        C    7   3.013   2.642   4.622
    1C        C    8   2.895   2.719   4.625
    1C        C    9   3.077   2.602   4.742
    1C        C   10   3.011   2.632   4.863
    1C        C   11   3.183   2.492   4.976
    1C        C   12   3.063   2.565   4.974
    1C        C   13   2.849   2.770   3.772
    1C        C   14   2.900   2.718   3.893
    1C        C   15   2.850   2.771   4.014
    1C        C   16   3.014   2.637   4.136
    1C        C   17   2.905   2.727   4.137
    1C        C   18   3.073   2.600   4.259
    1C        C   19   3.014   2.643   4.380
    1C        C   20   3.208   2.552   4.503
    1C        C   21   3.080   2.612   4.501
    1C        C   22   3.277   2.531   4.624
    1C        C   23   3.208   2.548   4.746
    1C        C   24   3.413   2.478   4.865
    1C        C   25   3.272   2.503   4.865
    1C        C   26   3.491   2.478   4.981
    1C        C   27   2.848   2.765   3.282
    1C        C   28   2.905   2.723   3.403
    1C        C   29   2.852   2.767   3.527
    1C        C   30   3.018   2.640   3.648
    1C        C   31   2.904   2.723   3.650
    1C        C   32   3.078   2.601   3.770
    1C        C   33   3.014   2.635   3.892
    1C        C   34   3.207   2.548   4.016
    1C        C   35   3.077   2.603   4.015
    1C        C   36   3.274   2.534   4.139
    1C        C   37   3.208   2.559   4.261
    1C        C   38   3.417   2.510   4.378
    1C        C   39   3.279   2.539   4.382
    1C        C   40   3.485   2.499   4.502
    1C        C   41   3.413   2.494   4.624
    1C        C   42   3.629   2.486   4.742
    1C        C   43   3.487   2.476   4.743
    1C        C   44   3.705   2.490   4.861
    1C        C   45   3.630   2.480   4.979
    1C        C   46   2.834   2.749   2.794
    1C        C   47   2.892   2.705   2.915
    1C        C   48   2.845   2.759   3.036
    1C        C   49   3.017   2.637   3.159
    1C        C   50   2.900   2.717   3.159
    1C        C   51   3.080   2.603   3.281
    1C        C   52   3.018   2.638   3.403
    1C        C   53   3.207   2.545   3.526
    1C        C   54   3.079   2.604   3.526
    1C        C   55   3.275   2.521   3.647
    1C        C   56   3.209   2.547   3.770
    1C        C   57   3.413   2.500   3.892
    1C        C   58   3.274   2.529   3.893
    1C        C   59   3.484   2.497   4.014
    1C        C   60   3.412   2.504   4.135
    1C        C   61   3.628   2.498   4.257
    1C        C   62   3.486   2.499   4.256
    1C        C   63   3.696   2.506   4.380
    1C        C   64   3.626   2.506   4.503
    1C        C   65   3.836   2.548   4.621
    1C        C   66   3.700   2.511   4.623
    1C        C   67   3.908   2.564   4.741
    1C        C   68   3.841   2.529   4.861
    1C        C   69   4.053   2.580   4.976
    1C        C   70   3.924   2.527   4.974
    1C        C   71   2.825   2.735   2.308
    1C        C   72   2.881   2.689   2.429
    1C        C   73   2.831   2.743   2.550
    1C        C   74   3.007   2.625   2.672
    1C        C   75   2.886   2.699   2.673
    1C        C   76   3.073   2.591   2.793
    1C        C   77   3.011   2.627   2.914
    1C        C   78   3.206   2.545   3.035
    1C        C   79   3.075   2.598   3.036
    1C        C   80   3.274   2.525   3.158
    1C        C   81   3.209   2.546   3.281
    1C        C   82   3.414   2.493   3.403
    1C        C   83   3.276   2.523   3.404
    1C        C   84   3.483   2.491   3.526
    1C        C   85   3.415   2.501   3.649
    1C        C   86   3.626   2.501   3.766
    1C        C   87   3.485   2.491   3.771
    1C        C   88   3.693   2.512   3.890
    1C        C   89   3.625   2.502   4.014
    1C        C   90   3.834   2.548   4.133
    1C        C   91   3.698   2.511   4.135
    1C        C   92   3.897   2.572   4.257
    1C        C   93   3.834   2.540   4.379
    1C        C   94   4.033   2.624   4.498
    1C        C   95   3.904   2.568   4.498
    1C        C   96   4.095   2.668   4.617
    1C        C   97   4.037   2.623   4.738
    1C        C   98   4.200   2.755   4.862
    1C        C   99   4.103   2.649   4.861
    1C        C  100   4.211   2.841   4.972
    1C        C  101   2.822   2.725   2.068
    1C        C  102   2.991   2.591   2.190
    1C        C  103   2.878   2.679   2.188
    1C        C  104   3.064   2.575   2.311
    1C        C  105   3.000   2.613   2.431
    1C        C  106   3.197   2.528   2.549
    1C        C  107   3.069   2.588   2.551
    1C        C  108   3.271   2.519   2.669
    1C        C  109   3.205   2.540   2.792
    1C        C  110   3.413   2.492   2.912
    1C        C  111   3.274   2.520   2.914
    1C        C  112   3.481   2.494   3.036
    1C        C  113   3.414   2.503   3.160
    1C        C  114   3.626   2.498   3.278
    1C        C  115   3.485   2.488   3.281
    1C        C  116   3.694   2.506   3.401
    1C        C  117   3.624   2.498   3.524
    1C        C  118   3.834   2.541   3.642
    1C        C  119   3.697   2.509   3.644
    1C        C  120   3.897   2.572   3.765
    1C        C  121   3.829   2.550   3.887
    1C        C  122   4.023   2.636   4.010
    1C        C  123   3.897   2.573   4.009
    1C        C  124   4.083   2.675   4.132
    1C        C  125   4.022   2.638   4.254
    1C        C  126   4.191   2.766   4.375
    1C        C  127   4.086   2.672   4.376
    1C        C  128   4.241   2.818   4.496
    1C        C  129   4.195   2.768   4.620
    1C        C  130   4.331   2.928   4.738
    1C        C  131   4.252   2.810   4.742
    1C        C  132   4.357   3.000   4.857
    1C        C  133   4.293   2.953   4.973
    1C        C  134   3.173   2.465   2.086
    1C        C  135   3.039   2.506   2.086
    1C        C  136   3.264   2.481   2.192
    1C        C  137   3.195   2.520   2.309
    1C        C  138   3.406   2.477   2.426
    1C        C  139   3.266   2.501   2.429
    1C        C  140   3.480   2.476   2.547
    1C        C  141   3.410   2.490   2.668
    1C        C  142   3.622   2.488   2.789
    1C        C  143   3.481   2.478   2.790
    1C        C  144   3.693   2.503   2.910
    1C        C  145   3.622   2.496   3.032
    1C        C  146   3.831   2.538   3.152
    1C        C  147   3.694   2.504   3.154
    1C        C  148   3.898   2.564   3.274
    1C        C  149   3.832   2.540   3.397
    1C        C  150   4.026   2.627   3.520
    1C        C  151   3.899   2.565   3.518
    1C        C  152   4.087   2.666   3.642
    1C        C  153   4.024   2.634   3.764
    1C        C  154   4.191   2.761   3.889
    1C        C  155   4.084   2.668   3.887
    1C        C  156   4.244   2.811   4.010
    1C        C  157   4.196   2.759   4.133
    1C        C  158   4.337   2.920   4.250
    1C        C  159   4.248   2.811   4.254
    1C        C  160   4.375   2.980   4.372
    1C        C  161   4.334   2.925   4.495
    1C        C  162   4.438   3.112   4.615
    1C        C  163   4.371   2.987   4.616
    1C        C  164   4.466   3.181   4.734
    1C        C  165   4.432   3.120   4.857
    1C        C  166   4.512   3.319   4.970
    1C        C  167   4.477   3.184   4.973
    1C        C  168   3.478   2.427   2.072
    1C        C  169   3.402   2.454   2.187
    1C        C  170   3.620   2.462   2.302
    1C        C  171   3.477   2.457   2.307
    1C        C  172   3.690   2.485   2.423
    1C        C  173   3.621   2.479   2.546
    1C        C  174   3.826   2.542   2.663
    1C        C  175   3.691   2.500   2.667
    1C        C  176   3.894   2.562   2.785
    1C        C  177   3.831   2.537   2.908
    1C        C  178   4.025   2.621   3.031
    1C        C  179   3.899   2.558   3.030
    1C        C  180   4.087   2.660   3.152
    1C        C  181   4.026   2.623   3.274
    1C        C  182   4.194   2.750   3.396
    1C        C  183   4.087   2.657   3.397
    1C        C  184   4.241   2.805   3.517
    1C        C  185   4.198   2.753   3.641
    1C        C  186   4.331   2.914   3.761
    1C        C  187   4.245   2.802   3.765
    1C        C  188   4.372   2.976   3.881
    1C        C  189   4.336   2.917   4.005
    1C        C  190   4.443   3.101   4.126
    1C        C  191   4.378   2.975   4.126
    1C        C  192   4.467   3.169   4.247
    1C        C  193   4.442   3.105   4.371
    1C        C  194   4.499   3.312   4.490
    1C        C  195   4.466   3.175   4.491
    1C        C  196   4.521   3.383   4.611
    1C        C  197   4.512   3.315   4.735
    1C        C  198   4.551   3.534   4.848
    1C        C  199   4.529   3.393   4.853
    1C        C  200   4.580   3.616   4.962
    1C        C  201   3.616   2.409   2.074
    1C        C  202   3.830   2.510   2.180
    1C        C  203   3.695   2.462   2.182
    1C        C  204   3.898   2.540   2.301
    1C        C  205   3.825   2.526   2.421
    1C        C  206   4.021   2.621   2.540
    1C        C  207   3.893   2.560   2.540
    1C        C  208   4.083   2.653   2.663
    1C        C  209   4.026   2.614   2.786
    1C        C  210   4.196   2.742   2.906
    1C        C  211   4.086   2.653   2.908
    1C        C  212   4.247   2.793   3.027
    1C        C  213   4.199   2.746   3.152
    1C        C  214   4.330   2.912   3.273
    1C        C  215   4.248   2.797   3.274
    1C        C  216   4.367   2.973   3.395
    1C        C  217   4.328   2.917   3.519
    1C        C  218   4.438   3.099   3.638
    1C        C  219   4.373   2.974   3.640
    1C        C  220   4.463   3.167   3.759
    1C        C  221   4.435   3.103   3.882
    1C        C  222   4.502   3.304   4.002
    1C        C  223   4.467   3.167   4.004
    1C        C  224   4.511   3.375   4.123
    1C        C  225   4.498   3.307   4.246
    1C        C  226   4.512   3.521   4.365
    1C        C  227   4.511   3.379   4.367
    1C        C  228   4.512   3.594   4.486
    1C        C  229   4.527   3.524   4.607
    1C        C  230   4.505   3.741   4.723
    1C        C  231   4.535   3.602   4.724
    1C        C  232   4.492   3.814   4.844
    1C        C  233   4.542   3.751   4.958
    1C        C  234   4.020   2.606   2.059
    1C        C  235   3.895   2.545   2.061
    1C        C  236   4.082   2.650   2.177
    1C        C  237   4.022   2.611   2.298
    1C        C  238   4.199   2.737   2.418
    1C        C  239   4.084   2.652   2.418
    1C        C  240   4.252   2.784   2.540
    1C        C  241   4.196   2.737   2.660
    1C        C  242   4.334   2.900   2.784
    1C        C  243   4.246   2.789   2.782
    1C        C  244   4.379   2.958   2.905
    1C        C  245   4.336   2.902   3.027
    1C        C  246   4.433   3.092   3.145
    1C        C  247   4.373   2.964   3.149
    1C        C  248   4.456   3.158   3.267
    1C        C  249   4.432   3.099   3.393
    1C        C  250   4.495   3.302   3.512
    1C        C  251   4.455   3.167   3.515
    1C        C  252   4.512   3.372   3.634
    1C        C  253   4.494   3.305   3.757
    1C        C  254   4.520   3.515   3.877
    1C        C  255   4.510   3.374   3.879
    1C        C  256   4.513   3.585   4.000
    1C        C  257   4.515   3.516   4.123
    1C        C  258   4.492   3.731   4.241
    1C        C  259   4.509   3.591   4.243
    1C        C  260   4.472   3.802   4.361
    1C        C  261   4.485   3.733   4.484
    1C        C  262   4.427   3.941   4.602
    1C        C  263   4.470   3.806   4.603
    1C        C  264   4.400   4.009   4.723
    1C        C  265   4.430   3.941   4.843
    1C        C  266   4.318   4.129   4.955
    1C        C  267   4.397   4.015   4.957
    1C        C  268   4.266   2.772   2.061
    1C        C  269   4.196   2.733   2.176
    1C        C  270   4.349   2.887   2.297
    1C        C  271   4.253   2.782   2.296
    1C        C  272   4.382   2.952   2.418
    1C        C  273   4.337   2.897   2.540
    1C        C  274   4.451   3.077   2.659
    1C        C  275   4.378   2.957   2.662
    1C        C  276   4.468   3.148   2.780
    1C        C  277   4.441   3.085   2.903
    1C        C  278   4.500   3.293   3.024
    1C        C  279   4.464   3.156   3.023
    1C        C  280   4.505   3.364   3.146
    1C        C  281   4.490   3.295   3.269
    1C        C  282   4.517   3.510   3.388
    1C        C  283   4.506   3.369   3.388
    1C        C  284   4.517   3.582   3.510
    1C        C  285   4.518   3.513   3.633
    1C        C  286   4.490   3.725   3.751
    1C        C  287   4.515   3.586   3.755
    1C        C  288   4.473   3.791   3.874
    1C        C  289   4.488   3.724   3.997
    1C        C  290   4.432   3.933   4.115
    1C        C  291   4.472   3.797   4.117
    1C        C  292   4.398   3.999   4.235
    1C        C  293   4.424   3.935   4.358
    1C        C  294   4.322   4.123   4.476
    1C        C  295   4.395   4.003   4.479
    1C        C  296   4.285   4.188   4.596
    1C        C  297   4.327   4.131   4.718
    1C        C  298   4.201   4.313   4.836
    1C        C  299   4.284   4.197   4.837
    1C        C  300   4.166   4.398   4.946
    1C        C  301   4.348   2.884   2.058
    1C        C  302   4.469   3.067   2.173
    1C        C  303   4.395   2.944   2.176
    1C        C  304   4.477   3.143   2.293
    1C        C  305   4.449   3.077   2.414
    1C        C  306   4.501   3.282   2.536
    1C        C  307   4.476   3.143   2.536
    1C        C  308   4.512   3.355   2.657
    1C        C  309   4.495   3.286   2.779
    1C        C  310   4.518   3.500   2.898
    1C        C  311   4.512   3.359   2.899
    1C        C  312   4.511   3.573   3.019
    1C        C  313   4.513   3.505   3.143
    1C        C  314   4.487   3.716   3.261
    1C        C  315   4.512   3.577   3.264
    1C        C  316   4.474   3.788   3.383
    1C        C  317   4.493   3.721   3.506
    1C        C  318   4.427   3.924   3.626
    1C        C  319   4.477   3.792   3.627
    1C        C  320   4.395   3.987   3.748
    1C        C  321   4.424   3.924   3.871
    1C        C  322   4.314   4.107   3.988
    1C        C  323   4.395   3.991   3.992
    1C        C  324   4.274   4.168   4.109
    1C        C  325   4.320   4.117   4.233
    1C        C  326   4.184   4.283   4.351
    1C        C  327   4.279   4.178   4.353
    1C        C  328   4.134   4.334   4.473
    1C        C  329   4.189   4.292   4.596
    1C        C  330   4.024   4.433   4.713
    1C        C  331   4.145   4.357   4.713
    1C        C  332   3.968   4.486   4.831
    1C        C  333   4.045   4.468   4.947
    1C        C  334   4.552   3.270   2.061
    1C        C  335   4.531   3.131   2.061
    1C        C  336   4.537   3.350   2.174
    1C        C  337   4.505   3.282   2.294
    1C        C  338   4.523   3.495   2.410
    1C        C  339   4.514   3.354   2.415
    1C        C  340   4.524   3.567   2.532
    1C        C  341   4.527   3.496   2.654
    1C        C  342   4.489   3.707   2.773
    1C        C  343   4.516   3.568   2.774
    1C        C  344   4.471   3.782   2.891
    1C        C  345   4.489   3.712   3.013
    1C        C  346   4.421   3.912   3.137
    1C        C  347   4.469   3.779   3.136
    1C        C  348   4.392   3.980   3.258
    1C        C  349   4.427   3.921   3.381
    1C        C  350   4.322   4.106   3.500
    1C        C  351   4.398   3.987   3.502
    1C        C  352   4.277   4.163   3.622
    1C        C  353   4.324   4.109   3.744
    1C        C  354   4.181   4.269   3.864
    1C        C  355   4.278   4.166   3.865
    1C        C  356   4.123   4.311   3.985
    1C        C  357   4.176   4.270   4.109
    1C        C  358   4.006   4.397   4.228
    1C        C  359   4.129   4.327   4.229
    1C        C  360   3.953   4.441   4.351
    1C        C  361   4.020   4.418   4.473
    1C        C  362   3.829   4.519   4.591
    1C        C  363   3.960   4.466   4.591
    1C        C  364   3.760   4.544   4.712
    1C        C  365   3.836   4.535   4.830
    1C        C  366   3.626   4.594   4.945
    1C        C  367   3.761   4.562   4.946
    1C        C  368   4.517   3.563   2.050
    1C        C  369   4.522   3.490   2.170
    1C        C  370   4.506   3.707   2.285
    1C        C  371   4.525   3.567   2.289
    1C        C  372   4.480   3.776   2.406
    1C        C  373   4.492   3.705   2.527
    1C        C  374   4.424   3.906   2.648
    1C        C  375   4.473   3.773   2.649
    1C        C  376   4.392   3.975   2.767
    1C        C  377   4.424   3.914   2.891
    1C        C  378   4.321   4.096   3.012
    1C        C  379   4.398   3.978   3.015
    1C        C  380   4.270   4.151   3.132
    1C        C  381   4.313   4.097   3.255
    1C        C  382   4.171   4.253   3.376
    1C        C  383   4.275   4.158   3.377
    1C        C  384   4.119   4.305   3.497
    1C        C  385   4.178   4.263   3.618
    1C        C  386   4.008   4.389   3.743
    1C        C  387   4.125   4.310   3.741
    1C        C  388   3.943   4.425   3.863
    1C        C  389   4.007   4.393   3.985
    1C        C  390   3.812   4.482   4.109
    1C        C  391   3.944   4.432   4.105
    1C        C  392   3.748   4.504   4.233
    1C        C  393   3.823   4.497   4.352
    1C        C  394   3.616   4.554   4.470
    1C        C  395   3.756   4.533   4.471
    1C        C  396   3.545   4.558   4.591
    1C        C  397   3.619   4.557   4.711
    1C        C  398   3.407   4.555   4.836
    1C        C  399   3.546   4.578   4.830
    1C        C  400   3.341   4.521   4.955
    1C        C  401   4.505   3.701   2.048
    1C        C  402   4.452   3.913   2.162
    1C        C  403   4.494   3.779   2.164
    1C        C  404   4.412   3.975   2.283
    1C        C  405   4.433   3.909   2.406
    1C        C  406   4.321   4.092   2.521
    1C        C  407   4.399   3.974   2.527
    1C        C  408   4.279   4.149   2.643
    1C        C  409   4.319   4.096   2.767
    1C        C  410   4.176   4.251   2.887
    1C        C  411   4.277   4.151   2.890
    1C        C  412   4.121   4.298   3.008
    1C        C  413   4.175   4.256   3.132
    1C        C  414   4.001   4.378   3.251
    1C        C  415   4.121   4.304   3.254
    1C        C  416   3.941   4.410   3.375
    1C        C  417   4.000   4.381   3.500
    1C        C  418   3.810   4.473   3.620
    1C        C  419   3.940   4.417   3.622
    1C        C  420   3.744   4.499   3.742
    1C        C  421   3.814   4.481   3.864
    1C        C  422   3.606   4.527   3.988
    1C        C  423   3.744   4.496   3.986
    1C        C  424   3.536   4.531   4.111
    1C        C  425   3.608   4.524   4.232
    1C        C  426   3.397   4.540   4.354
    1C        C  427   3.538   4.548   4.352
    1C        C  428   3.330   4.539   4.478
    1C        C  429   3.404   4.554   4.598
    1C        C  430   3.192   4.515   4.720
    1C        C  431   3.330   4.549   4.718
    1C        C  432   3.120   4.497   4.841
    1C        C  433   3.203   4.502   4.954
    1C        C  434   4.383   4.125   2.047
    1C        C  435   4.440   3.997   2.050
    1C        C  436   4.300   4.160   2.159
    1C        C  437   4.330   4.091   2.280
    1C        C  438   4.182   4.251   2.400
    1C        C  439   4.281   4.150   2.399
    1C        C  440   4.125   4.293   2.522
    1C        C  441   4.174   4.243   2.645
    1C        C  442   4.000   4.368   2.764
    1C        C  443   4.120   4.293   2.765
    1C        C  444   3.934   4.402   2.885
    1C        C  445   3.999   4.369   3.006
    1C        C  446   3.808   4.462   3.129
    1C        C  447   3.939   4.408   3.128
    1C        C  448   3.744   4.487   3.252
    1C        C  449   3.812   4.469   3.374
    1C        C  450   3.606   4.520   3.496
    1C        C  451   3.744   4.492   3.496
    1C        C  452   3.537   4.540   3.618
    1C        C  453   3.607   4.532   3.740
    1C        C  454   3.399   4.539   3.862
    1C        C  455   3.540   4.543   3.864
    1C        C  456   3.328   4.529   3.984
    1C        C  457   3.394   4.532   4.109
    1C        C  458   3.187   4.506   4.234
    1C        C  459   3.326   4.532   4.232
    1C        C  460   3.123   4.485   4.358
    1C        C  461   3.190   4.516   4.479
    1C        C  462   2.994   4.431   4.602
    1C        C  463   3.122   4.491   4.600
    1C        C  464   2.927   4.400   4.723
    1C        C  465   2.985   4.448   4.843
    1C        C  466   2.799   4.338   4.956
    1C        C  467   2.903   4.431   4.959
    1C        C  468   4.122   4.286   2.040
    1C        C  469   4.185   4.244   2.158
    1C        C  470   4.004   4.368   2.276
    1C        C  471   4.125   4.293   2.277
    1C        C  472   3.940   4.397   2.398
    1C        C  473   4.005   4.367   2.520
    1C        C  474   3.812   4.460   2.640
    1C        C  475   3.942   4.405   2.641
    1C        C  476   3.744   4.482   2.762
    1C        C  477   3.808   4.465   2.887
    1C        C  478   3.601   4.515   3.005
    1C        C  479   3.740   4.490   3.008
    1C        C  480   3.536   4.524   3.130
    1C        C  481   3.606   4.519   3.253
    1C        C  482   3.393   4.521   3.373
    1C        C  483   3.534   4.525   3.374
    1C        C  484   3.326   4.522   3.497
    1C        C  485   3.396   4.540   3.619
    1C        C  486   3.189   4.498   3.741
    1C        C  487   3.326   4.532   3.741
    1C        C  488   3.122   4.476   3.864
    1C        C  489   3.190   4.496   3.986
    1C        C  490   3.000   4.413   4.115
    1C        C  491   3.124   4.480   4.110
    1C        C  492   2.937   4.382   4.238
    1C        C  493   2.995   4.425   4.359
    1C        C  494   2.820   4.305   4.484
    1C        C  495   2.934   4.388   4.481
    1C        C  496   2.766   4.255   4.604
    1C        C  497   2.818   4.309   4.724
    1C        C  498   2.664   4.161   4.844
    1C        C  499   2.750   4.273   4.842
    1C        C  500   2.595   4.116   4.957
    1C        C  501   3.999   4.352   2.039
    1C        C  502   3.809   4.458   2.152
    1C        C  503   3.937   4.398   2.156
    1C        C  504   3.742   4.475   2.275
    1C        C  505   3.809   4.449   2.397
    1C        C  506   3.602   4.496   2.517
    1C        C  507   3.741   4.472   2.519
    1C        C  508   3.532   4.510   2.639
    1C        C  509   3.605   4.510   2.760
    1C        C  510   3.392   4.520   2.883
    1C        C  511   3.533   4.519   2.881
    1C        C  512   3.322   4.517   3.006
    1C        C  513   3.395   4.521   3.127
    1C        C  514   3.186   4.494   3.252
    1C        C  515   3.324   4.523   3.249
    1C        C  516   3.120   4.465   3.374
    1C        C  517   3.188   4.492   3.495
    1C        C  518   2.996   4.413   3.627
    1C        C  519   3.122   4.476   3.619
    1C        C  520   2.934   4.376   3.748
    1C        C  521   2.998   4.409   3.870
    1C        C  522   2.830   4.285   3.993
    1C        C  523   2.942   4.371   3.993
    1C        C  524   2.780   4.237   4.117
    1C        C  525   2.828   4.292   4.237
    1C        C  526   2.699   4.131   4.362
    1C        C  527   2.777   4.248   4.362
    1C        C  528   2.652   4.074   4.483
    1C        C  529   2.681   4.142   4.603
    1C        C  530   2.586   3.955   4.731
    1C        C  531   2.639   4.087   4.726
    1C        C  532   2.537   3.899   4.853
    1C        C  533   2.525   3.995   4.958
    1C        C  534   3.611   4.556   2.035
    1C        C  535   3.744   4.512   2.040
    1C        C  536   3.533   4.531   2.152
    1C        C  537   3.603   4.503   2.273
    1C        C  538   3.391   4.514   2.395
    1C        C  539   3.532   4.511   2.395
    1C        C  540   3.320   4.512   2.517
    1C        C  541   3.391   4.516   2.639
    1C        C  542   3.182   4.485   2.763
    1C        C  543   3.320   4.514   2.762
    1C        C  544   3.117   4.464   2.887
    1C        C  545   3.183   4.489   3.009
    1C        C  546   2.992   4.405   3.134
    1C        C  547   3.115   4.474   3.132
    1C        C  548   2.936   4.368   3.258
    1C        C  549   2.994   4.402   3.382
    1C        C  550   2.828   4.279   3.503
    1C        C  551   2.936   4.370   3.507
    1C        C  552   2.776   4.232   3.626
    1C        C  553   2.826   4.285   3.747
    1C        C  554   2.697   4.121   3.871
    1C        C  555   2.779   4.236   3.871
    1C        C  556   2.657   4.065   3.994
    1C        C  557   2.694   4.125   4.116
    1C        C  558   2.601   3.940   4.243
    1C        C  559   2.659   4.069   4.241
    1C        C  560   2.569   3.879   4.366
    1C        C  561   2.592   3.947   4.488
    1C        C  562   2.533   3.745   4.616
    1C        C  563   2.567   3.882   4.611
    1C        C  564   2.515   3.679   4.739
    1C        C  565   2.518   3.757   4.858
    1C        C  566   2.530   3.542   4.978
    1C        C  567   2.516   3.680   4.974
    1C        C  568   3.321   4.478   2.040
    1C        C  569   3.392   4.515   2.156
    1C        C  570   3.178   4.476   2.277
    1C        C  571   3.316   4.512   2.276
    1C        C  572   3.114   4.458   2.401
    1C        C  573   3.181   4.486   2.522
    1C        C  574   2.983   4.404   2.645
    1C        C  575   3.111   4.464   2.643
    1C        C  576   2.924   4.365   2.767
    1C        C  577   2.989   4.404   2.886
    1C        C  578   2.827   4.274   3.015
    1C        C  579   2.935   4.365   3.010
    1C        C  580   2.779   4.221   3.137
    1C        C  581   2.830   4.274   3.257
    1C        C  582   2.695   4.114   3.382
    1C        C  583   2.782   4.226   3.381
    1C        C  584   2.659   4.055   3.505
    1C        C  585   2.691   4.119   3.627
    1C        C  586   2.590   3.935   3.754
    1C        C  587   2.658   4.058   3.750
    1C        C  588   2.567   3.869   3.877
    1C        C  589   2.597   3.937   3.998
    1C        C  590   2.532   3.739   4.127
    1C        C  591   2.576   3.873   4.122
    1C        C  592   2.516   3.671   4.250
    1C        C  593   2.531   3.743   4.371
    1C        C  594   2.509   3.534   4.497
    1C        C  595   2.524   3.674   4.494
    1C        C  596   2.509   3.463   4.619
    1C        C  597   2.511   3.536   4.739
    1C        C  598   2.528   3.324   4.861
    1C        C  599   2.521   3.465   4.861
    1C        C  600   2.534   3.244   4.976
    1C        C  601   3.190   4.435   2.043
    1C        C  602   2.976   4.391   2.160
    1C        C  603   3.109   4.445   2.156
    1C        C  604   2.922   4.357   2.287
    1C        C  605   2.985   4.400   2.406
    1C        C  606   2.815   4.269   2.527
    1C        C  607   2.921   4.362   2.526
    1C        C  608   2.765   4.219   2.650
    1C        C  609   2.817   4.272   2.770
    1C        C  610   2.689   4.110   2.897
    1C        C  611   2.773   4.223   2.895
    1C        C  612   2.651   4.050   3.019
    1C        C  613   2.689   4.113   3.140
    1C        C  614   2.593   3.924   3.265
    1C        C  615   2.653   4.052   3.262
    1C        C  616   2.569   3.860   3.389
    1C        C  617   2.597   3.928   3.510
    1C        C  618   2.520   3.732   3.638
    1C        C  619   2.565   3.866   3.633
    1C        C  620   2.514   3.662   3.761
    1C        C  621   2.534   3.732   3.882
    1C        C  622   2.509   3.526   4.009
    1C        C  623   2.516   3.667   4.006
    1C        C  624   2.510   3.458   4.133
    1C        C  625   2.506   3.530   4.254
    1C        C  626   2.534   3.320   4.379
    1C        C  627   2.511   3.460   4.377
    1C        C  628   2.552   3.251   4.501
    1C        C  629   2.533   3.323   4.622
    1C        C  630   2.596   3.117   4.745
    1C        C  631   2.549   3.252   4.742
    1C        C  632   2.611   3.041   4.865
    1C        C  633   2.556   3.106   4.980
    1C        C  634   2.775   4.300   2.054
    1C        C  635   2.885   4.387   2.049
    1C        C  636   2.745   4.227   2.169
    1C        C  637   2.807   4.273   2.287
    1C        C  638   2.679   4.104   2.409
    1C        C  639   2.756   4.222   2.408
    1C        C  640   2.641   4.043   2.531
    1C        C  641   2.678   4.108   2.651
    1C        C  642   2.586   3.923   2.778
    1C        C  643   2.646   4.050   2.776
    1C        C  644   2.558   3.855   2.899
    1C        C  645   2.590   3.922   3.019
    1C        C  646   2.524   3.724   3.148
    1C        C  647   2.565   3.859   3.143
    1C        C  648   2.509   3.657   3.272
    1C        C  649   2.524   3.726   3.394
    1C        C  650   2.506   3.519   3.518
    1C        C  651   2.506   3.660   3.517
    1C        C  652   2.513   3.450   3.641
    1C        C  653   2.507   3.521   3.763
    1C        C  654   2.537   3.314   3.890
    1C        C  655   2.512   3.453   3.887
    1C        C  656   2.558   3.250   4.015
    1C        C  657   2.538   3.320   4.136
    1C        C  658   2.605   3.119   4.257
    1C        C  659   2.553   3.250   4.258
    1C        C  660   2.637   3.057   4.381
    1C        C  661   2.596   3.117   4.502
    1C        C  662   2.707   2.936   4.622
    1C        C  663   2.630   3.054   4.624
    1C        C  664   2.747   2.874   4.742
    1C        C  665   2.696   2.926   4.864
    1C        C  666   2.743   2.865   4.981
    1C        C  667   2.672   4.024   2.052
    1C        C  668   2.682   4.100   2.169
    1C        C  669   2.584   3.909   2.290
    1C        C  670   2.643   4.038   2.290
    1C        C  671   2.552   3.846   2.413
    1C        C  672   2.580   3.916   2.533
    1C        C  673   2.521   3.717   2.660
    1C        C  674   2.560   3.853   2.658
    1C        C  675   2.511   3.645   2.782
    1C        C  676   2.526   3.718   2.902
    1C        C  677   2.508   3.512   3.031
    1C        C  678   2.514   3.653   3.027
    1C        C  679   2.509   3.442   3.153
    1C        C  680   2.504   3.516   3.274
    1C        C  681   2.536   3.307   3.400
    1C        C  682   2.511   3.446   3.397
    1C        C  683   2.560   3.241   3.523
    1C        C  684   2.539   3.311   3.644
    1C        C  685   2.607   3.115   3.769
    1C        C  686   2.552   3.245   3.768
    1C        C  687   2.641   3.055   3.893
    1C        C  688   2.609   3.118   4.015
    1C        C  689   2.711   2.932   4.136
    1C        C  690   2.634   3.051   4.136
    1C        C  691   2.755   2.878   4.259
    1C        C  692   2.711   2.937   4.379
    1C        C  693   2.755   2.880   4.501
    1C        C  694   2.622   3.893   2.055
    1C        C  695   2.533   3.697   2.174
    1C        C  696   2.578   3.830   2.173
    1C        C  697   2.505   3.635   2.298
    1C        C  698   2.522   3.708   2.418
    1C        C  699   2.493   3.501   2.541
    1C        C  700   2.512   3.641   2.541
    1C        C  701   2.502   3.432   2.664
    1C        C  702   2.503   3.504   2.785
    1C        C  703   2.527   3.298   2.909
    1C        C  704   2.508   3.438   2.910
    1C        C  705   2.546   3.234   3.033
    1C        C  706   2.538   3.304   3.156
    1C        C  707   2.596   3.103   3.277
    1C        C  708   2.550   3.236   3.279
    1C        C  709   2.632   3.043   3.399
    1C        C  710   2.612   3.110   3.522
    1C        C  711   2.712   2.930   3.647
    1C        C  712   2.642   3.053   3.648
    1C        C  713   2.758   2.878   3.771
    1C        C  714   2.719   2.937   3.893
    1C        C  715   2.756   2.876   4.015
    1C        C  716   2.457   3.493   2.063
    1C        C  717   2.492   3.628   2.059
    1C        C  718   2.465   3.417   2.184
    1C        C  719   2.475   3.496   2.302
    1C        C  720   2.512   3.286   2.424
    1C        C  721   2.482   3.424   2.423
    1C        C  722   2.534   3.218   2.546
    1C        C  723   2.525   3.292   2.666
    1C        C  724   2.597   3.095   2.790
    1C        C  725   2.543   3.225   2.789
    1C        C  726   2.626   3.033   2.913
    1C        C  727   2.597   3.102   3.033
    1C        C  728   2.706   2.920   3.158
    1C        C  729   2.632   3.040   3.155
    1C        C  730   2.753   2.870   3.282
    1C        C  731   2.714   2.928   3.404
    1C        C  732   2.755   2.870   3.527
    1C        C  733   2.497   3.196   2.068
    1C        C  734   2.491   3.277   2.182
    1C        C  735   2.593   3.086   2.301
    1C        C  736   2.531   3.214   2.304
    1C        C  737   2.617   3.021   2.424
    1C        C  738   2.586   3.087   2.545
    1C        C  739   2.696   2.908   2.668
    1C        C  740   2.621   3.027   2.668
    1C        C  741   2.740   2.854   2.791
    1C        C  742   2.700   2.913   2.914
    1C        C  743   2.748   2.862   3.036
    1C        C  744   2.550   3.068   2.068
    1C        C  745   2.678   2.889   2.182
    1C        C  746   2.612   3.013   2.182
    1C        C  747   2.725   2.836   2.305
    1C        C  748   2.684   2.897   2.425
    1C        C  749   2.736   2.847   2.547
    1C        C  750   2.737   2.835   2.067
    1C        C  751   3.662   2.290   1.999
    1C        O  752   3.616   2.173   2.005
    1C        O  753   3.726   2.307   1.875
    1C        C  754   4.580   3.080   1.931
    1C        O  755   4.507   3.061   1.830
    1C        O  756   4.713   3.044   1.906
    1C        C  757   4.480   4.229   2.006
    1C        O  758   4.557   4.278   2.092
    1C        O  759   4.453   4.308   1.893
    1C        C  760   3.592   4.679   1.956
    1C        O  761   3.655   4.786   1.982
    1C        O  762   3.568   4.662   1.819
    1C        C  763   2.856   4.506   1.966
    1C        O  764   2.845   4.500   1.840
    1C        O  765   2.788   4.620   2.009
    1C        C  766   2.348   3.470   1.965
    1C        O  767   2.381   3.462   1.843
    1C        O  768   2.209   3.483   1.973
    1C        C  769   4.706   3.596   5.038
    1C        O  770   4.701   3.580   5.162
    1C        O  771   4.828   3.645   4.991
    1C        C  772   4.266   4.460   5.036
    1C        O  773   4.290   4.420   5.153
    1C        O  774   4.369   4.537   4.981
    1C        C  775   4.132   2.559   5.100
    1C        O  776   4.186   2.449   5.127
    1C        O  777   4.092   2.610   5.224
    1C        C  778   2.868   4.553   5.036
    1C        O  779   2.803   4.650   4.989
    1C        O  780   2.879   4.562   5.175
    1C        C  781   2.471   3.026   5.070
    1C        O  782   2.372   2.962   5.024
    1C        O  783   2.521   2.996   5.197
    1C        C  784   2.431   3.990   5.073
    1C        O  785   2.317   4.043   5.059
    1C        O  786   2.467   3.942   5.199
    1C        C  787   2.952   2.448   1.981
    1C        O  788   2.972   2.474   1.859
    1C        O  789   2.851   2.354   2.003
    1C        C  790   3.182   2.357   5.037
    1C        O  791   3.115   2.265   4.982
    1C        O  792   3.185   2.331   5.175
    1C        H  793   4.342   2.972   5.066
    1C        H  794   4.115   2.854   5.016
    1C        H  795   4.537   3.121   5.035
    1C        H  796   4.580   3.347   5.048
    1C        H  797   4.533   3.804   5.050
    1C        H  798   4.484   4.041   5.015
    1C        H  799   4.279   4.164   5.049
    1C        H  800   3.994   4.478   5.041
    1C        H  801   3.813   4.561   5.039
    1C        H  802   3.587   4.645   5.030
    1C        H  803   3.368   4.576   5.043
    1C        H  804   3.150   4.507   5.047
    1C        H  805   3.888   2.471   5.058
    1C        H  806   3.674   2.460   5.074
    1C        H  807   2.996   2.530   5.049
    1C        H  808   3.438   2.469   5.074
    1C        H  809   2.911   2.783   5.065
    1C        H  810   2.708   2.900   5.076
    1C        H  811   2.498   3.290   5.066
    1C        H  812   2.574   3.501   5.066
    1C        H  813   2.475   3.725   5.062
    1C        H  814   2.585   4.174   5.047
    1C        H  815   2.788   4.291   5.052
    1C        H  816   2.721   2.886   1.974
    1C        H  817   2.876   2.715   1.977
    1C        H  818   3.210   2.418   1.998
    1C        H  819   3.435   2.409   1.975
    1C        H  820   3.840   2.544   1.969
    1C        H  821   4.062   2.629   1.964
    1C        H  822   4.312   2.689   2.010
    1C        H  823   4.400   2.905   1.967
    1C        H  824   4.622   3.304   1.987
    1C        H  825   4.475   3.514   1.965
    1C        H  826   4.461   3.737   1.957
    1C        H  827   3.781   4.486   1.943
    1C        H  828   3.946   4.343   1.947
    1C        H  829   4.162   4.266   1.942
    1C        H  830   4.474   3.958   1.956
    1C        H  831   2.611   3.838   1.965
    1C        H  832   2.742   4.040   1.972
    1C        H  833   2.704   4.289   1.975
    1C        H  834   3.371   4.477   1.945
    1C        H  835   3.171   4.350   1.981
    1C        H  836   2.496   2.999   2.007
    1C        H  837   2.493   3.239   1.970
    1C        H  838   2.461   3.683   1.973
    2V3OU   H29  839   2.797   3.545   1.035
    2V3OU   C27  840   2.781   3.502   1.137
    2V3OU   H27  841   2.721   3.571   1.202
    2V3OU   H28  842   2.725   3.405   1.137
    2V3OU   O11  843   2.907   3.477   1.200
    2V3OU   C15  844   2.918   3.400   1.313
    2V3OU   C13  845   3.046   3.375   1.368
    2V3OU   C14  846   3.072   3.264   1.449
    2V3OU   C16  847   2.964   3.188   1.494
    2V3OU    H6  848   2.991   3.093   1.543
    2V3OU   C12  849   3.214   3.233   1.478
    2V3OU    O2  850   3.236   3.130   1.546
    2V3OU   C10  851   3.325   3.311   1.422
    2V3OU    C8  852   3.457   3.268   1.429
    2V3OU   O10  853   3.483   3.148   1.487
    2V3OU   H26  854   3.393   3.116   1.503
    2V3OU    C6  855   3.565   3.350   1.383
    2V3OU    C5  856   3.533   3.469   1.318
    2V3OU    C4  857   3.702   3.293   1.376
    2V3OU    H4  858   3.729   3.228   1.464
    2V3OU    H5  859   3.711   3.230   1.282
    2V3OU    C2  860   3.816   3.395   1.382
    2V3OU    O6  861   3.802   3.472   1.501
    2V3OU   H21  862   3.760   3.552   1.467
    2V3OU    C3  863   3.779   3.495   1.272
    2V3OU    H2  864   3.862   3.571   1.271
    2V3OU    H3  865   3.778   3.439   1.176
    2V3OU   C25  866   3.951   3.325   1.366
    2V3OU    O7  867   3.999   3.296   1.256
    2V3OU   C26  868   4.028   3.290   1.492
    2V3OU   H22  869   4.070   3.384   1.537
    2V3OU   H23  870   4.114   3.223   1.468
    2V3OU    O8  871   3.958   3.212   1.587
    2V3OU   H24  872   3.925   3.276   1.653
    2V3OU    C1  873   3.645   3.564   1.286
    2V3OU    H1  874   3.621   3.617   1.189
    2V3OU    O3  875   3.656   3.655   1.396
    2V3OU   C19  876   3.612   3.791   1.384
    2V3OU    H9  877   3.518   3.799   1.322
    2V3OU    O4  878   3.709   3.844   1.295
    2V3OU   C20  879   3.838   3.869   1.350
    2V3OU   H10  880   3.894   3.773   1.371
    2V3OU   C24  881   3.608   3.856   1.523
    2V3OU   H16  882   3.541   3.790   1.583
    2V3OU   H17  883   3.559   3.956   1.514
    2V3OU   C23  884   3.750   3.870   1.579
    2V3OU   H15  885   3.791   3.764   1.593
    2V3OU    N1  886   3.736   3.950   1.699
    2V3OU   H19  887   3.806   3.924   1.766
    2V3OU   H20  888   3.648   3.934   1.744
    2V3OU   C21  889   3.847   3.945   1.483
    2V3OU   H11  890   3.951   3.927   1.522
    2V3OU    O5  891   3.827   4.086   1.487
    2V3OU   H18  892   3.784   4.102   1.573
    2V3OU   C22  893   3.914   3.947   1.243
    2V3OU   H12  894   3.864   4.046   1.229
    2V3OU   H13  895   3.911   3.888   1.148
    2V3OU   H14  896   4.021   3.961   1.272
    2V3OU   C11  897   3.152   3.467   1.325
    2V3OU    O1  898   3.137   3.585   1.285
    2V3OU    C9  899   3.293   3.430   1.352
    2V3OU    C7  900   3.397   3.506   1.299
    2V3OU    O9  901   3.386   3.614   1.214
    2V3OU   H25  902   3.290   3.626   1.204
    2V3OU   C17  903   2.816   3.317   1.364
    2V3OU    H7  904   2.713   3.349   1.348
    2V3OU   C18  905   2.834   3.211   1.452
    2V3OU    H8  906   2.745   3.148   1.470
    3SOL     OW  907   1.019   3.351   0.720
    3SOL    HW1  908   1.002   3.449   0.711
    3SOL    HW2  909   1.007   3.325   0.816
    4SOL     OW  910   5.386   1.180   2.229
    4SOL    HW1  911   5.392   1.264   2.282
    4SOL    HW2  912   5.456   1.181   2.158
    5SOL     OW  913   3.422   3.177   1.058
    5SOL    HW1  914   3.508   3.182   1.007
    5SOL    HW2  915   3.433   3.114   1.135
    6SOL     OW  916   2.578   2.418   0.973
    6SOL    HW1  917   2.661   2.436   1.025
    6SOL    HW2  918   2.602   2.400   0.877
    7SOL     OW  919   6.248   1.036   1.593
    7SOL    HW1  920   6.205   1.111   1.642
    7SOL    HW2  921   6.222   0.949   1.635
    8SOL     OW  922   2.698   1.670   3.861
    8SOL    HW1  923   2.601   1.684   3.880
    8SOL    HW2  924   2.720   1.573   3.872
    9SOL     OW  925   0.923   3.924   6.123
    9SOL    HW1  926   0.896   3.833   6.154
    9SOL    HW2  927   1.015   3.945   6.157
   10SOL     OW  928   0.495   4.088   0.173
   10SOL    HW1  929   0.540   4.143   0.104
   10SOL    HW2  930   0.498   4.136   0.261
   11SOL     OW  931   4.053   6.389   6.911
   11SOL    HW1  932   4.078   6.439   6.828
   11SOL    HW2  933   4.016   6.453   6.978
   12SOL     OW  934   5.481   6.004   2.645
   12SOL    HW1  935   5.481   5.976   2.549
   12SOL    HW2  936   5.387   6.025   2.673
   13SOL     OW  937   2.023   0.315   3.087
   13SOL    HW1  938   2.085   0.243   3.056
   13SOL    HW2  939   2.066   0.367   3.161
   14SOL     OW  940   2.971   6.849   1.776
   14SOL    HW1  941   2.974   6.782   1.851
   14SOL    HW2  942   2.892   6.908   1.787
   15SOL     OW  943   2.084   6.621   6.099
   15SOL    HW1  944   1.987   6.601   6.113
   15SOL    HW2  945   2.107   6.614   6.002
   16SOL     OW  946   6.565   1.366   6.318
   16SOL    HW1  947   6.495   1.363   6.247
   16SOL    HW2  948   6.638   1.429   6.290
   17SOL     OW  949   4.895   5.993   3.586
   17SOL    HW1  950   4.893   6.069   3.650
   17SOL    HW2  951   4.845   5.915   3.625
   18SOL     OW  952   1.374   1.192   0.020
   18SOL    HW1  953   1.374   1.284   7.002
   18SOL    HW2  954   1.291   1.178   0.074
   19SOL     OW  955   0.798   6.967   1.724
   19SOL    HW1  956   0.832   7.002   1.811
   19SOL    HW2  957   0.744   6.884   1.740
   20SOL     OW  958   3.157   0.972   4.322
   20SOL    HW1  959   3.220   0.896   4.340
   20SOL    HW2  960   3.176   1.010   4.231
   21SOL     OW  961   2.986   2.636   1.228
   21SOL    HW1  962   3.059   2.589   1.179
   21SOL    HW2  963   3.014   2.652   1.323
   22SOL     OW  964   1.131   1.021   5.354
   22SOL    HW1  965   1.150   1.108   5.308
   22SOL    HW2  966   1.091   0.957   5.289
   23SOL     OW  967   4.132   6.162   4.357
   23SOL    HW1  968   4.103   6.257   4.367
   23SOL    HW2  969   4.113   6.131   4.264
   24SOL     OW  970   4.045   1.104   4.791
   24SOL    HW1  971   3.981   1.152   4.850
   24SOL    HW2  972   4.115   1.059   4.847
   25SOL     OW  973   3.073   4.227   1.201
   25SOL    HW1  974   3.057   4.254   1.106
   25SOL    HW2  975   3.129   4.296   1.246
   26SOL     OW  976   6.052   1.218   2.685
   26SOL    HW1  977   6.041   1.138   2.744
   26SOL    HW2  978   6.079   1.188   2.593
   27SOL     OW  979   6.169   6.168   2.019
   27SOL    HW1  980   6.092   6.114   2.054
   27SOL    HW2  981   6.188   6.142   1.924
   28SOL     OW  982   3.249   0.857   0.653
   28SOL    HW1  983   3.220   0.762   0.666
   28SOL    HW2  984   3.348   0.861   0.639
   29SOL     OW  985   4.047   2.509   1.498
   29SOL    HW1  986   4.051   2.476   1.404
   29SOL    HW2  987   3.993   2.593   1.502
   30SOL     OW  988   3.845   1.295   4.891
   30SOL    HW1  989   3.904   1.371   4.917
   30SOL    HW2  990   3.806   1.312   4.801
   31SOL     OW  991   0.439   0.865   5.040
   31SOL    HW1  992   0.398   0.776   5.019
   31SOL    HW2  993   0.426   0.926   4.961
   32SOL     OW  994   6.997   2.324   1.747
   32SOL    HW1  995   0.027   2.396   1.796
   32SOL    HW2  996   0.026   2.238   1.755
   33SOL     OW  997   1.892   1.959   4.993
   33SOL    HW1  998   1.954   1.888   5.028
   33SOL    HW2  999   1.824   1.917   4.934
   34SOL     OW 1000   0.904   0.662   4.742
   34SOL    HW1 1001   0.851   0.580   4.763
   34SOL    HW2 1002   0.929   0.662   4.645
   35SOL     OW 1003   4.194   1.699   6.563
   35SOL    HW1 1004   4.096   1.705   6.540
   35SOL    HW2 1005   4.246   1.684   6.479
   36SOL     OW 1006   1.864   1.311   5.621
   36SOL    HW1 1007   1.824   1.389   5.669
   36SOL    HW2 1008   1.918   1.344   5.544
   37SOL     OW 1009   2.124   6.672   0.649
   37SOL    HW1 1010   2.174   6.639   0.569
   37SOL    HW2 1011   2.141   6.769   0.662
   38SOL     OW 1012   0.084   6.258   2.066
   38SOL    HW1 1013   0.134   6.277   2.150
   38SOL    HW2 1014   7.007   6.246   2.086
   39SOL     OW 1015   6.971   2.903   5.940
   39SOL    HW1 1016   6.903   2.875   6.007
   39SOL    HW2 1017   6.939   2.878   5.848
   40SOL     OW 1018   6.768   1.003   1.950
   40SOL    HW1 1019   6.784   0.918   2.000
   40SOL    HW2 1020   6.703   0.987   1.876
   41SOL     OW 1021   1.395   0.332   5.434
   41SOL    HW1 1022   1.449   0.266   5.382
   41SOL    HW2 1023   1.428   0.424   5.416
   42SOL     OW 1024   3.637   0.529   0.551
   42SOL    HW1 1025   3.678   0.500   0.638
   42SOL    HW2 1026   3.675   0.473   0.477
   43SOL     OW 1027   5.169   5.308   5.477
   43SOL    HW1 1028   5.229   5.384   5.452
   43SOL    HW2 1029   5.213   5.221   5.456
   44SOL     OW 1030   0.619   3.252   6.482
   44SOL    HW1 1031   0.658   3.200   6.406
   44SOL    HW2 1032   0.520   3.254   6.474
   45SOL     OW 1033   2.741   0.740   1.550
   45SOL    HW1 1034   2.720   0.667   1.486
   45SOL    HW2 1035   2.827   0.784   1.524
   46SOL     OW 1036   1.264   4.776   3.931
   46SOL    HW1 1037   1.239   4.684   3.961
   46SOL    HW2 1038   1.215   4.843   3.986
   47SOL     OW 1039   6.155   4.466   2.948
   47SOL    HW1 1040   6.092   4.406   2.997
   47SOL    HW2 1041   6.180   4.425   2.861
   48SOL     OW 1042   0.964   1.539   5.432
   48SOL    HW1 1043   0.869   1.513   5.415
   48SOL    HW2 1044   0.988   1.618   5.376
   49SOL     OW 1045   5.445   2.578   0.623
   49SOL    HW1 1046   5.426   2.627   0.707
   49SOL    HW2 1047   5.411   2.484   0.630
   50SOL     OW 1048   6.773   3.996   4.513
   50SOL    HW1 1049   6.866   4.005   4.477
   50SOL    HW2 1050   6.744   3.901   4.507
   51SOL     OW 1051   2.989   5.699   2.401
   51SOL    HW1 1052   2.907   5.648   2.427
   51SOL    HW2 1053   3.020   5.668   2.311
   52SOL     OW 1054   0.960   2.088   1.399
   52SOL    HW1 1055   1.025   2.028   1.446
   52SOL    HW2 1056   0.969   2.076   1.301
   53SOL     OW 1057   4.691   6.571   4.076
   53SOL    HW1 1058   4.756   6.512   4.027
   53SOL    HW2 1059   4.706   6.666   4.049
   54SOL     OW 1060   4.280   6.158   6.165
   54SOL    HW1 1061   4.368   6.179   6.210
   54SOL    HW2 1062   4.296   6.095   6.089
   55SOL     OW 1063   3.744   2.350   0.203
   55SOL    HW1 1064   3.759   2.416   0.129
   55SOL    HW2 1065   3.826   2.344   0.260
   56SOL     OW 1066   0.682   6.635   1.575
   56SOL    HW1 1067   0.622   6.650   1.497
   56SOL    HW2 1068   0.775   6.663   1.552
   57SOL     OW 1069   5.964   0.888   0.699
   57SOL    HW1 1070   6.045   0.831   0.711
   57SOL    HW2 1071   5.971   0.940   0.614
   58SOL     OW 1072   7.016   6.732   6.831
   58SOL    HW1 1073   7.019   6.789   6.913
   58SOL    HW2 1074   0.028   6.786   6.752
   59SOL     OW 1075   0.854   0.237   4.759
   59SOL    HW1 1076   0.788   0.178   4.805
   59SOL    HW2 1077   0.899   0.186   4.685
   60SOL     OW 1078   4.700   6.636   5.286
   60SOL    HW1 1079   4.671   6.607   5.378
   60SOL    HW2 1080   4.783   6.691   5.293
   61SOL     OW 1081   3.637   0.538   5.133
   61SOL    HW1 1082   3.713   0.510   5.192
   61SOL    HW2 1083   3.650   0.501   5.041
   62SOL     OW 1084   2.688   1.267   4.739
   62SOL    HW1 1085   2.690   1.258   4.838
   62SOL    HW2 1086   2.690   1.364   4.714
   63SOL     OW 1087   6.836   3.346   3.310
   63SOL    HW1 1088   6.846   3.248   3.293
   63SOL    HW2 1089   6.775   3.387   3.243
   64SOL     OW 1090   6.541   2.499   5.749
   64SOL    HW1 1091   6.585   2.424   5.700
   64SOL    HW2 1092   6.455   2.468   5.788
   65SOL     OW 1093   0.019   3.735   5.894
   65SOL    HW1 1094   0.101   3.784   5.926
   65SOL    HW2 1095   6.993   3.791   5.825
   66SOL     OW 1096   2.476   1.321   0.932
   66SOL    HW1 1097   2.568   1.291   0.906
   66SOL    HW2 1098   2.467   1.419   0.915
   67SOL     OW 1099   4.878   5.942   4.220
   67SOL    HW1 1100   4.978   5.942   4.214
   67SOL    HW2 1101   4.849   5.998   4.297
   68SOL     OW 1102   5.568   2.854   5.980
   68SOL    HW1 1103   5.513   2.829   5.900
   68SOL    HW2 1104   5.653   2.896   5.950
   69SOL     OW 1105   2.356   3.130   5.822
   69SOL    HW1 1106   2.418   3.203   5.852
   69SOL    HW2 1107   2.284   3.117   5.890
   70SOL     OW 1108   6.748   5.543   2.044
   70SOL    HW1 1109   6.764   5.495   2.130
   70SOL    HW2 1110   6.745   5.477   1.969
   71SOL     OW 1111   1.861   2.745   2.861
   71SOL    HW1 1112   1.926   2.671   2.846
   71SOL    HW2 1113   1.880   2.789   2.949
   72SOL     OW 1114   3.011   5.681   4.251
   72SOL    HW1 1115   3.021   5.584   4.229
   72SOL    HW2 1116   3.061   5.736   4.184
   73SOL     OW 1117   4.343   2.528   6.710
   73SOL    HW1 1118   4.428   2.476   6.720
   73SOL    HW2 1119   4.294   2.529   6.797
   74SOL     OW 1120   5.096   5.866   6.225
   74SOL    HW1 1121   5.033   5.912   6.163
   74SOL    HW2 1122   5.055   5.781   6.257
   75SOL     OW 1123   3.933   4.985   5.335
   75SOL    HW1 1124   3.977   5.075   5.345
   75SOL    HW2 1125   3.871   4.987   5.257
   76SOL     OW 1126   2.543   3.086   1.302
   76SOL    HW1 1127   2.510   3.164   1.355
   76SOL    HW2 1128   2.581   3.118   1.215
   77SOL     OW 1129   5.539   4.695   6.441
   77SOL    HW1 1130   5.593   4.628   6.390
   77SOL    HW2 1131   5.544   4.784   6.395
   78SOL     OW 1132   6.438   6.652   6.190
   78SOL    HW1 1133   6.523   6.662   6.137
   78SOL    HW2 1134   6.456   6.601   6.273
   79SOL     OW 1135   3.288   6.865   7.005
   79SOL    HW1 1136   3.379   6.887   6.970
   79SOL    HW2 1137   3.223   6.934   6.974
   80SOL     OW 1138   0.368   1.386   4.106
   80SOL    HW1 1139   0.318   1.473   4.111
   80SOL    HW2 1140   0.331   1.331   4.031
   81SOL     OW 1141   1.559   0.348   3.788
   81SOL    HW1 1142   1.602   0.267   3.828
   81SOL    HW2 1143   1.613   0.379   3.710
   82SOL     OW 1144   0.013   4.586   5.517
   82SOL    HW1 1145   6.958   4.548   5.463
   82SOL    HW2 1146   6.998   4.655   5.580
   83SOL     OW 1147   6.633   0.077   6.892
   83SOL    HW1 1148   6.720   0.048   6.933
   83SOL    HW2 1149   6.582   0.131   6.959
   84SOL     OW 1150   6.105   3.632   1.772
   84SOL    HW1 1151   6.048   3.711   1.753
   84SOL    HW2 1152   6.108   3.572   1.692
   85SOL     OW 1153   0.286   2.392   5.526
   85SOL    HW1 1154   0.196   2.382   5.484
   85SOL    HW2 1155   0.332   2.303   5.529
   86SOL     OW 1156   1.306   1.147   4.900
   86SOL    HW1 1157   1.337   1.168   4.807
   86SOL    HW2 1158   1.320   1.050   4.919
   87SOL     OW 1159   4.146   0.650   1.566
   87SOL    HW1 1160   4.112   0.564   1.605
   87SOL    HW2 1161   4.241   0.663   1.593
   88SOL     OW 1162   5.234   0.341   0.828
   88SOL    HW1 1163   5.279   0.372   0.745
   88SOL    HW2 1164   5.247   0.243   0.839
   89SOL     OW 1165   2.144   1.941   6.093
   89SOL    HW1 1166   2.155   1.855   6.142
   89SOL    HW2 1167   2.115   1.922   5.999
   90SOL     OW 1168   6.731   6.058   3.568
   90SOL    HW1 1169   6.824   6.021   3.574
   90SOL    HW2 1170   6.669   5.987   3.537
   91SOL     OW 1171   4.756   4.623   4.687
   91SOL    HW1 1172   4.818   4.619   4.765
   91SOL    HW2 1173   4.677   4.681   4.710
   92SOL     OW 1174   2.538   6.453   0.949
   92SOL    HW1 1175   2.478   6.382   0.987
   92SOL    HW2 1176   2.503   6.482   0.860
   93SOL     OW 1177   3.461   5.096   5.736
   93SOL    HW1 1178   3.531   5.167   5.737
   93SOL    HW2 1179   3.498   5.012   5.776
   94SOL     OW 1180   2.253   5.763   0.973
   94SOL    HW1 1181   2.349   5.755   0.946
   94SOL    HW2 1182   2.248   5.795   1.068
   95SOL     OW 1183   6.246   0.307   4.727
   95SOL    HW1 1184   6.319   0.312   4.658
   95SOL    HW2 1185   6.281   0.344   4.814
   96SOL     OW 1186   1.215   0.001   4.826
   96SOL    HW1 1187   1.231   6.951   4.895
   96SOL    HW2 1188   1.290   0.067   4.827
   97SOL     OW 1189   6.014   2.366   5.301
   97SOL    HW1 1190   5.973   2.423   5.372
   97SOL    HW2 1191   6.035   2.422   5.220
   98SOL     OW 1192   5.873   2.112   6.073
   98SOL    HW1 1193   5.904   2.169   5.997
   98SOL    HW2 1194   5.789   2.150   6.112
   99SOL     OW 1195   4.301   2.163   1.315
   99SOL    HW1 1196   4.377   2.108   1.282
   99SOL    HW2 1197   4.319   2.192   1.409
  100SOL     OW 1198   6.116   4.879   6.479
  100SOL    HW1 1199   6.187   4.841   6.538
  100SOL    HW2 1200   6.141   4.971   6.451
  101SOL     OW 1201   1.273   6.371   3.918
  101SOL    HW1 1202   1.201   6.437   3.937
  101SOL    HW2 1203   1.232   6.282   3.898
  102SOL     OW 1204   5.055   0.103   3.175
  102SOL    HW1 1205   4.966   0.083   3.132
  102SOL    HW2 1206   5.043   0.168   3.249
  103SOL     OW 1207   3.897   1.994   1.649
  103SOL    HW1 1208   3.990   1.993   1.687
  103SOL    HW2 1209   3.873   2.087   1.622
  104SOL     OW 1210   0.242   5.653   1.690
  104SOL    HW1 1211   0.156   5.644   1.640
  104SOL    HW2 1212   0.284   5.742   1.670
  105SOL     OW 1213   5.187   1.422   5.384
  105SOL    HW1 1214   5.285   1.421   5.404
  105SOL    HW2 1215   5.172   1.385   5.292
  106SOL     OW 1216   3.679   6.592   0.402
  106SOL    HW1 1217   3.633   6.526   0.462
  106SOL    HW2 1218   3.641   6.586   0.310
  107SOL     OW 1219   2.462   3.308   1.433
  107SOL    HW1 1220   2.455   3.308   1.533
  107SOL    HW2 1221   2.422   3.392   1.396
  108SOL     OW 1222   5.272   4.237   5.243
  108SOL    HW1 1223   5.312   4.147   5.257
  108SOL    HW2 1224   5.287   4.266   5.148
  109SOL     OW 1225   6.722   1.110   1.397
  109SOL    HW1 1226   6.647   1.060   1.441
  109SOL    HW2 1227   6.685   1.172   1.328
  110SOL     OW 1228   3.314   5.869   5.193
  110SOL    HW1 1229   3.382   5.860   5.265
  110SOL    HW2 1230   3.343   5.938   5.127
  111SOL     OW 1231   3.882   0.969   3.128
  111SOL    HW1 1232   3.843   0.934   3.213
  111SOL    HW2 1233   3.974   1.004   3.146
  112SOL     OW 1234   0.244   0.696   6.094
  112SOL    HW1 1235   0.291   0.775   6.133
  112SOL    HW2 1236   0.270   0.614   6.145
  113SOL     OW 1237   0.040   5.758   4.001
  113SOL    HW1 1238   0.071   5.788   4.091
  113SOL    HW2 1239   0.096   5.802   3.930
  114SOL     OW 1240   0.298   6.819   6.856
  114SOL    HW1 1241   0.199   6.826   6.868
  114SOL    HW2 1242   0.331   6.896   6.802
  115SOL     OW 1243   5.240   1.025   5.004
  115SOL    HW1 1244   5.181   0.948   4.979
  115SOL    HW2 1245   5.293   1.002   5.085
  116SOL     OW 1246   6.212   4.701   2.636
  116SOL    HW1 1247   6.187   4.730   2.729
  116SOL    HW2 1248   6.310   4.679   2.633
  117SOL     OW 1249   1.047   6.570   6.393
  117SOL    HW1 1250   1.095   6.572   6.481
  117SOL    HW2 1251   1.032   6.475   6.365
  118SOL     OW 1252   1.605   0.431   2.176
  118SOL    HW1 1253   1.589   0.439   2.275
  118SOL    HW2 1254   1.616   0.523   2.137
  119SOL     OW 1255   6.572   2.871   6.313
  119SOL    HW1 1256   6.558   2.883   6.411
  119SOL    HW2 1257   6.546   2.779   6.287
  120SOL     OW 1258   5.711   6.569   1.235
  120SOL    HW1 1259   5.704   6.491   1.173
  120SOL    HW2 1260   5.798   6.615   1.220
  121SOL     OW 1261   2.745   3.281   5.872
  121SOL    HW1 1262   2.754   3.378   5.850
  121SOL    HW2 1263   2.780   3.263   5.964
  122SOL     OW 1264   0.419   3.392   4.571
  122SOL    HW1 1265   0.360   3.459   4.526
  122SOL    HW2 1266   0.420   3.410   4.670
  123SOL     OW 1267   1.118   1.896   1.548
  123SOL    HW1 1268   1.110   1.848   1.461
  123SOL    HW2 1269   1.192   1.854   1.602
  124SOL     OW 1270   4.779   2.845   1.144
  124SOL    HW1 1271   4.863   2.847   1.089
  124SOL    HW2 1272   4.700   2.861   1.086
  125SOL     OW 1273   2.030   3.547   1.797
  125SOL    HW1 1274   2.039   3.493   1.713
  125SOL    HW2 1275   2.095   3.513   1.865
  126SOL     OW 1276   3.150   4.452   1.318
  126SOL    HW1 1277   3.085   4.441   1.394
  126SOL    HW2 1278   3.226   4.509   1.347
  127SOL     OW 1279   0.810   5.875   5.781
  127SOL    HW1 1280   0.853   5.788   5.806
  127SOL    HW2 1281   0.877   5.931   5.731
  128SOL     OW 1282   4.690   2.297   1.750
  128SOL    HW1 1283   4.761   2.354   1.789
  128SOL    HW2 1284   4.649   2.343   1.671
  129SOL     OW 1285   2.720   3.541   6.438
  129SOL    HW1 1286   2.673   3.529   6.526
  129SOL    HW2 1287   2.814   3.508   6.445
  130SOL     OW 1288   1.321   2.169   4.618
  130SOL    HW1 1289   1.296   2.266   4.612
  130SOL    HW2 1290   1.402   2.159   4.675
  131SOL     OW 1291   5.224   2.120   2.630
  131SOL    HW1 1292   5.196   2.202   2.580
  131SOL    HW2 1293   5.163   2.106   2.708
  132SOL     OW 1294   0.415   2.468   0.886
  132SOL    HW1 1295   0.419   2.510   0.795
  132SOL    HW2 1296   0.331   2.497   0.932
  133SOL     OW 1297   6.276   5.235   2.203
  133SOL    HW1 1298   6.369   5.274   2.199
  133SOL    HW2 1299   6.252   5.197   2.114
  134SOL     OW 1300   0.489   3.776   2.839
  134SOL    HW1 1301   0.441   3.807   2.757
  134SOL    HW2 1302   0.423   3.737   2.904
  135SOL     OW 1303   4.804   1.478   4.218
  135SOL    HW1 1304   4.839   1.386   4.200
  135SOL    HW2 1305   4.857   1.545   4.166
  136SOL     OW 1306   5.548   4.601   5.677
  136SOL    HW1 1307   5.484   4.569   5.747
  136SOL    HW2 1308   5.640   4.603   5.715
  137SOL     OW 1309   3.895   0.391   5.811
  137SOL    HW1 1310   3.930   0.427   5.725
  137SOL    HW2 1311   3.886   0.291   5.805
  138SOL     OW 1312   6.498   5.050   4.924
  138SOL    HW1 1313   6.496   5.012   4.831
  138SOL    HW2 1314   6.447   4.990   4.985
  139SOL     OW 1315   3.781   5.344   5.396
  139SOL    HW1 1316   3.814   5.430   5.437
  139SOL    HW2 1317   3.685   5.354   5.372
  140SOL     OW 1318   6.149   4.212   5.039
  140SOL    HW1 1319   6.094   4.213   5.122
  140SOL    HW2 1320   6.235   4.261   5.055
  141SOL     OW 1321   1.083   2.089   3.462
  141SOL    HW1 1322   1.021   2.081   3.384
  141SOL    HW2 1323   1.164   2.033   3.447
  142SOL     OW 1324   1.408   5.627   1.342
  142SOL    HW1 1325   1.486   5.642   1.281
  142SOL    HW2 1326   1.435   5.566   1.416
  143SOL     OW 1327   5.543   3.900   1.449
  143SOL    HW1 1328   5.531   3.978   1.511
  143SOL    HW2 1329   5.500   3.819   1.489
  144SOL     OW 1330   2.785   6.468   0.666
  144SOL    HW1 1331   2.868   6.509   0.629
  144SOL    HW2 1332   2.707   6.495   0.610
  145SOL     OW 1333   6.879   5.707   0.557
  145SOL    HW1 1334   6.813   5.752   0.617
  145SOL    HW2 1335   6.837   5.689   0.469
  146SOL     OW 1336   6.135   4.820   0.790
  146SOL    HW1 1337   6.199   4.896   0.779
  146SOL    HW2 1338   6.052   4.839   0.739
  147SOL     OW 1339   5.990   2.373   1.080
  147SOL    HW1 1340   6.058   2.395   1.151
  147SOL    HW2 1341   5.976   2.274   1.077
  148SOL     OW 1342   1.267   5.058   5.834
  148SOL    HW1 1343   1.354   5.031   5.875
  148SOL    HW2 1344   1.227   4.981   5.785
  149SOL     OW 1345   3.063   0.917   6.145
  149SOL    HW1 1346   3.071   0.880   6.238
  149SOL    HW2 1347   2.997   0.862   6.093
  150SOL     OW 1348   0.422   5.842   5.994
  150SOL    HW1 1349   0.366   5.884   6.065
  150SOL    HW2 1350   0.387   5.750   5.973
  151SOL     OW 1351   4.131   1.360   1.545
  151SOL    HW1 1352   4.053   1.392   1.598
  151SOL    HW2 1353   4.147   1.263   1.564
  152SOL     OW 1354   3.629   1.008   4.588
  152SOL    HW1 1355   3.668   1.099   4.597
  152SOL    HW2 1356   3.531   1.011   4.610
  153SOL     OW 1357   1.614   0.829   3.080
  153SOL    HW1 1358   1.693   0.883   3.109
  153SOL    HW2 1359   1.539   0.842   3.144
  154SOL     OW 1360   6.604   2.171   2.840
  154SOL    HW1 1361   6.645   2.262   2.837
  154SOL    HW2 1362   6.580   2.148   2.935
  155SOL     OW 1363   0.278   0.675   2.849
  155SOL    HW1 1364   0.322   0.754   2.808
  155SOL    HW2 1365   0.319   0.657   2.939
  156SOL     OW 1366   6.851   2.046   0.976
  156SOL    HW1 1367   6.755   2.050   1.003
  156SOL    HW2 1368   6.902   1.992   1.043
  157SOL     OW 1369   5.818   3.815   2.664
  157SOL    HW1 1370   5.766   3.769   2.736
  157SOL    HW2 1371   5.915   3.790   2.673
  158SOL     OW 1372   1.243   1.672   3.247
  158SOL    HW1 1373   1.195   1.712   3.325
  158SOL    HW2 1374   1.204   1.582   3.226
  159SOL     OW 1375   5.071   3.584   2.143
  159SOL    HW1 1376   5.141   3.526   2.183
  159SOL    HW2 1377   4.996   3.526   2.109
  160SOL     OW 1378   6.824   4.371   5.821
  160SOL    HW1 1379   6.883   4.351   5.742
  160SOL    HW2 1380   6.879   4.412   5.894
  161SOL     OW 1381   3.648   4.794   5.365
  161SOL    HW1 1382   3.697   4.831   5.286
  161SOL    HW2 1383   3.595   4.866   5.409
  162SOL     OW 1384   4.450   6.114   1.776
  162SOL    HW1 1385   4.464   6.023   1.817
  162SOL    HW2 1386   4.432   6.104   1.678
  163SOL     OW 1387   5.229   0.690   2.015
  163SOL    HW1 1388   5.169   0.620   2.054
  163SOL    HW2 1389   5.320   0.681   2.056
  164SOL     OW 1390   6.093   3.299   1.308
  164SOL    HW1 1391   6.083   3.228   1.239
  164SOL    HW2 1392   6.066   3.387   1.269
  165SOL     OW 1393   5.524   3.945   6.549
  165SOL    HW1 1394   5.618   3.911   6.555
  165SOL    HW2 1395   5.469   3.905   6.623
  166SOL     OW 1396   1.295   0.759   1.705
  166SOL    HW1 1397   1.280   0.778   1.607
  166SOL    HW2 1398   1.228   0.809   1.759
  167SOL     OW 1399   6.570   3.308   0.285
  167SOL    HW1 1400   6.659   3.263   0.275
  167SOL    HW2 1401   6.570   3.394   0.234
  168SOL     OW 1402   2.235   5.543   1.428
  168SOL    HW1 1403   2.189   5.621   1.387
  168SOL    HW2 1404   2.185   5.459   1.406
  169SOL     OW 1405   1.021   0.041   1.544
  169SOL    HW1 1406   0.948   7.006   1.584
  169SOL    HW2 1407   1.096   7.002   1.515
  170SOL     OW 1408   0.376   1.740   3.433
  170SOL    HW1 1409   0.406   1.797   3.357
  170SOL    HW2 1410   0.347   1.651   3.399
  171SOL     OW 1411   3.472   3.435   6.968
  171SOL    HW1 1412   3.462   3.394   6.877
  171SOL    HW2 1413   3.460   3.364   0.017
  172SOL     OW 1414   0.051   2.916   0.152
  172SOL    HW1 1415   0.014   3.009   0.146
  172SOL    HW2 1416   6.999   2.855   0.184
  173SOL     OW 1417   0.447   6.359   5.622
  173SOL    HW1 1418   0.401   6.276   5.652
  173SOL    HW2 1419   0.486   6.345   5.531
  174SOL     OW 1420   2.969   5.667   3.858
  174SOL    HW1 1421   3.040   5.633   3.919
  174SOL    HW2 1422   2.943   5.595   3.794
  175SOL     OW 1423   0.767   5.447   3.055
  175SOL    HW1 1424   0.709   5.523   3.086
  175SOL    HW2 1425   0.862   5.477   3.051
  176SOL     OW 1426   2.790   5.299   1.244
  176SOL    HW1 1427   2.721   5.371   1.232
  176SOL    HW2 1428   2.768   5.222   1.185
  177SOL     OW 1429   4.566   2.016   2.658
  177SOL    HW1 1430   4.632   1.954   2.699
  177SOL    HW2 1431   4.611   2.071   2.587
  178SOL     OW 1432   5.861   4.343   6.428
  178SOL    HW1 1433   5.856   4.442   6.421
  178SOL    HW2 1434   5.831   4.302   6.342
  179SOL     OW 1435   3.041   0.174   1.014
  179SOL    HW1 1436   3.053   0.186   0.916
  179SOL    HW2 1437   2.944   0.175   1.037
  180SOL     OW 1438   1.137   2.344   6.640
  180SOL    HW1 1439   1.178   2.424   6.596
  180SOL    HW2 1440   1.209   2.282   6.672
  181SOL     OW 1441   3.102   2.829   5.249
  181SOL    HW1 1442   3.133   2.735   5.260
  181SOL    HW2 1443   3.112   2.856   5.153
  182SOL     OW 1444   4.692   2.900   5.045
  182SOL    HW1 1445   4.735   2.988   5.025
  182SOL    HW2 1446   4.692   2.843   4.963
  183SOL     OW 1447   5.463   1.762   2.121
  183SOL    HW1 1448   5.375   1.798   2.090
  183SOL    HW2 1449   5.451   1.710   2.205
  184SOL     OW 1450   0.311   4.698   3.280
  184SOL    HW1 1451   0.218   4.662   3.276
  184SOL    HW2 1452   0.359   4.658   3.358
  185SOL     OW 1453   2.745   3.403   6.779
  185SOL    HW1 1454   2.714   3.311   6.801
  185SOL    HW2 1455   2.684   3.470   6.822
  186SOL     OW 1456   6.014   6.390   3.208
  186SOL    HW1 1457   6.047   6.477   3.245
  186SOL    HW2 1458   6.085   6.320   3.219
  187SOL     OW 1459   5.489   1.129   3.708
  187SOL    HW1 1460   5.465   1.033   3.721
  187SOL    HW2 1461   5.412   1.187   3.736
  188SOL     OW 1462   6.400   2.702   3.923
  188SOL    HW1 1463   6.361   2.737   3.837
  188SOL    HW2 1464   6.332   2.644   3.968
  189SOL     OW 1465   2.105   3.995   2.682
  189SOL    HW1 1466   2.007   3.976   2.683
  189SOL    HW2 1467   2.136   4.004   2.587
  190SOL     OW 1468   3.261   1.021   6.655
  190SOL    HW1 1469   3.267   1.063   6.746
  190SOL    HW2 1470   3.332   1.061   6.596
  191SOL     OW 1471   4.654   5.894   5.551
  191SOL    HW1 1472   4.680   5.989   5.570
  191SOL    HW2 1473   4.703   5.862   5.470
  192SOL     OW 1474   6.961   0.331   1.106
  192SOL    HW1 1475   6.949   0.361   1.011
  192SOL    HW2 1476   6.965   0.411   1.165
  193SOL     OW 1477   5.634   4.313   6.580
  193SOL    HW1 1478   5.703   4.337   6.512
  193SOL    HW2 1479   5.675   4.255   6.650
  194SOL     OW 1480   3.962   0.265   4.286
  194SOL    HW1 1481   3.896   0.339   4.275
  194SOL    HW2 1482   4.055   0.302   4.278
  195SOL     OW 1483   6.914   5.551   3.367
  195SOL    HW1 1484   7.013   5.563   3.359
  195SOL    HW2 1485   6.881   5.599   3.449
  196SOL     OW 1486   0.936   1.443   0.895
  196SOL    HW1 1487   0.982   1.423   0.982
  196SOL    HW2 1488   0.870   1.370   0.875
  197SOL     OW 1489   1.815   1.084   0.856
  197SOL    HW1 1490   1.773   1.021   0.921
  197SOL    HW2 1491   1.877   1.146   0.904
  198SOL     OW 1492   2.620   1.417   3.630
  198SOL    HW1 1493   2.670   1.415   3.543
  198SOL    HW2 1494   2.684   1.423   3.706
  199SOL     OW 1495   0.874   1.821   4.324
  199SOL    HW1 1496   0.972   1.808   4.309
  199SOL    HW2 1497   0.848   1.911   4.292
  200SOL     OW 1498   6.680   2.925   0.207
  200SOL    HW1 1499   6.601   2.890   0.257
  200SOL    HW2 1500   6.717   3.004   0.254
  201SOL     OW 1501   0.741   0.810   6.285
  201SOL    HW1 1502   0.830   0.822   6.330
  201SOL    HW2 1503   0.730   0.881   6.215
  202SOL     OW 1504   4.699   6.912   0.563
  202SOL    HW1 1505   4.740   6.984   0.507
  202SOL    HW2 1506   4.601   6.929   0.573
  203SOL     OW 1507   6.259   2.871   6.562
  203SOL    HW1 1508   6.209   2.846   6.645
  203SOL    HW2 1509   6.318   2.795   6.534
  204SOL     OW 1510   6.189   0.742   4.837
  204SOL    HW1 1511   6.252   0.809   4.797
  204SOL    HW2 1512   6.226   0.708   4.923
  205SOL     OW 1513   2.146   3.341   2.984
  205SOL    HW1 1514   2.101   3.400   3.051
  205SOL    HW2 1515   2.156   3.390   2.898
  206SOL     OW 1516   0.537   3.290   0.256
  206SOL    HW1 1517   0.465   3.284   0.325
  206SOL    HW2 1518   0.507   3.349   0.181
  207SOL     OW 1519   6.090   2.876   4.891
  207SOL    HW1 1520   6.015   2.822   4.930
  207SOL    HW2 1521   6.089   2.967   4.931
  208SOL     OW 1522   1.279   3.879   4.610
  208SOL    HW1 1523   1.232   3.839   4.689
  208SOL    HW2 1524   1.375   3.894   4.633
  209SOL     OW 1525   6.730   4.327   2.979
  209SOL    HW1 1526   6.788   4.253   3.013
  209SOL    HW2 1527   6.772   4.368   2.898
  210SOL     OW 1528   4.526   2.918   0.206
  210SOL    HW1 1529   4.426   2.920   0.215
  210SOL    HW2 1530   4.557   3.004   0.167
  211SOL     OW 1531   0.501   1.427   2.558
  211SOL    HW1 1532   0.410   1.391   2.579
  211SOL    HW2 1533   0.563   1.352   2.538
  212SOL     OW 1534   2.143   3.957   2.204
  212SOL    HW1 1535   2.174   3.982   2.113
  212SOL    HW2 1536   2.149   3.857   2.215
  213SOL     OW 1537   0.749   4.624   1.610
  213SOL    HW1 1538   0.783   4.692   1.675
  213SOL    HW2 1539   0.755   4.660   1.517
  214SOL     OW 1540   5.251   5.680   1.461
  214SOL    HW1 1541   5.227   5.704   1.554
  214SOL    HW2 1542   5.266   5.581   1.455
  215SOL     OW 1543   2.638   5.799   3.100
  215SOL    HW1 1544   2.627   5.709   3.141
  215SOL    HW2 1545   2.733   5.812   3.071
  216SOL     OW 1546   0.896   6.480   2.655
  216SOL    HW1 1547   0.906   6.469   2.556
  216SOL    HW2 1548   0.948   6.560   2.685
  217SOL     OW 1549   0.871   4.494   5.730
  217SOL    HW1 1550   0.896   4.436   5.652
  217SOL    HW2 1551   0.780   4.533   5.714
  218SOL     OW 1552   2.057   1.766   5.081
  218SOL    HW1 1553   2.004   1.692   5.040
  218SOL    HW2 1554   2.068   1.748   5.179
  219SOL     OW 1555   4.223   1.782   1.206
  219SOL    HW1 1556   4.153   1.783   1.277
  219SOL    HW2 1557   4.187   1.823   1.123
  220SOL     OW 1558   2.936   6.585   0.984
  220SOL    HW1 1559   2.844   6.558   1.010
  220SOL    HW2 1560   2.940   6.684   0.974
  221SOL     OW 1561   5.421   4.789   1.906
  221SOL    HW1 1562   5.339   4.733   1.917
  221SOL    HW2 1563   5.492   4.758   1.969
  222SOL     OW 1564   2.401   4.945   6.585
  222SOL    HW1 1565   2.346   4.978   6.509
  222SOL    HW2 1566   2.350   4.955   6.670
  223SOL     OW 1567   5.951   2.070   5.718
  223SOL    HW1 1568   5.885   2.021   5.775
  223SOL    HW2 1569   5.938   2.044   5.622
  224SOL     OW 1570   2.309   1.424   6.379
  224SOL    HW1 1571   2.394   1.404   6.329
  224SOL    HW2 1572   2.331   1.448   6.473
  225SOL     OW 1573   4.431   6.560   5.680
  225SOL    HW1 1574   4.374   6.489   5.638
  225SOL    HW2 1575   4.372   6.637   5.706
  226SOL     OW 1576   1.210   2.589   6.500
  226SOL    HW1 1577   1.296   2.635   6.523
  226SOL    HW2 1578   1.148   2.655   6.458
  227SOL     OW 1579   1.875   3.884   1.212
  227SOL    HW1 1580   1.892   3.980   1.189
  227SOL    HW2 1581   1.962   3.836   1.222
  228SOL     OW 1582   1.185   0.181   2.430
  228SOL    HW1 1583   1.234   0.147   2.511
  228SOL    HW2 1584   1.244   0.246   2.381
  229SOL     OW 1585   3.822   6.458   6.035
  229SOL    HW1 1586   3.844   6.367   6.002
  229SOL    HW2 1587   3.725   6.462   6.061
  230SOL     OW 1588   5.446   5.651   5.747
  230SOL    HW1 1589   5.503   5.604   5.814
  230SOL    HW2 1590   5.363   5.684   5.791
  231SOL     OW 1591   5.270   2.065   6.526
  231SOL    HW1 1592   5.273   1.970   6.558
  231SOL    HW2 1593   5.175   2.096   6.524
  232SOL     OW 1594   1.378   1.836   5.687
  232SOL    HW1 1595   1.451   1.831   5.619
  232SOL    HW2 1596   1.320   1.756   5.679
  233SOL     OW 1597   3.247   1.680   3.033
  233SOL    HW1 1598   3.180   1.611   3.003
  233SOL    HW2 1599   3.287   1.724   2.953
  234SOL     OW 1600   4.696   0.780   0.387
  234SOL    HW1 1601   4.675   0.784   0.289
  234SOL    HW2 1602   4.775   0.719   0.401
  235SOL     OW 1603   4.787   2.940   2.935
  235SOL    HW1 1604   4.728   2.963   3.012
  235SOL    HW2 1605   4.879   2.973   2.953
  236SOL     OW 1606   4.197   5.203   6.134
  236SOL    HW1 1607   4.291   5.237   6.126
  236SOL    HW2 1608   4.189   5.116   6.086
  237SOL     OW 1609   6.084   3.386   3.096
  237SOL    HW1 1610   6.130   3.310   3.142
  237SOL    HW2 1611   6.012   3.351   3.037
  238SOL     OW 1612   6.663   1.865   0.599
  238SOL    HW1 1613   6.748   1.887   0.648
  238SOL    HW2 1614   6.597   1.939   0.613
  239SOL     OW 1615   1.199   3.103   0.115
  239SOL    HW1 1616   1.169   3.136   0.026
  239SOL    HW2 1617   1.220   3.181   0.174
  240SOL     OW 1618   5.061   3.479   3.221
  240SOL    HW1 1619   5.127   3.404   3.225
  240SOL    HW2 1620   5.044   3.514   3.314
  241SOL     OW 1621   2.789   2.121   4.083
  241SOL    HW1 1622   2.711   2.080   4.130
  241SOL    HW2 1623   2.796   2.084   3.991
  242SOL     OW 1624   3.612   3.721   2.572
  242SOL    HW1 1625   3.572   3.712   2.663
  242SOL    HW2 1626   3.700   3.675   2.569
  243SOL     OW 1627   4.049   2.599   6.020
  243SOL    HW1 1628   3.977   2.648   5.971
  243SOL    HW2 1629   4.133   2.653   6.018
  244SOL     OW 1630   4.926   3.502   5.274
  244SOL    HW1 1631   4.943   3.577   5.337
  244SOL    HW2 1632   4.841   3.519   5.224
  245SOL     OW 1633   4.252   1.335   3.302
  245SOL    HW1 1634   4.257   1.432   3.279
  245SOL    HW2 1635   4.278   1.322   3.398
  246SOL     OW 1636   6.280   1.257   1.994
  246SOL    HW1 1637   6.355   1.192   2.007
  246SOL    HW2 1638   6.282   1.293   1.901
  247SOL     OW 1639   1.384   1.563   1.376
  247SOL    HW1 1640   1.429   1.571   1.287
  247SOL    HW2 1641   1.285   1.568   1.363
  248SOL     OW 1642   2.137   2.710   2.049
  248SOL    HW1 1643   2.234   2.735   2.051
  248SOL    HW2 1644   2.113   2.674   1.959
  249SOL     OW 1645   4.863   6.071   5.263
  249SOL    HW1 1646   4.929   6.024   5.323
  249SOL    HW2 1647   4.885   6.051   5.168
  250SOL     OW 1648   4.060   2.436   0.681
  250SOL    HW1 1649   4.144   2.462   0.633
  250SOL    HW2 1650   4.032   2.511   0.740
  251SOL     OW 1651   4.016   3.897   5.493
  251SOL    HW1 1652   4.068   3.819   5.526
  251SOL    HW2 1653   3.921   3.870   5.477
  252SOL     OW 1654   6.258   6.334   5.321
  252SOL    HW1 1655   6.292   6.280   5.398
  252SOL    HW2 1656   6.333   6.358   5.260
  253SOL     OW 1657   3.895   6.491   6.288
  253SOL    HW1 1658   3.905   6.579   6.335
  253SOL    HW2 1659   3.865   6.507   6.194
  254SOL     OW 1660   5.569   2.627   5.409
  254SOL    HW1 1661   5.594   2.651   5.503
  254SOL    HW2 1662   5.470   2.633   5.397
  255SOL     OW 1663   1.829   4.137   6.343
  255SOL    HW1 1664   1.918   4.181   6.334
  255SOL    HW2 1665   1.778   4.147   6.258
  256SOL     OW 1666   5.099   2.143   5.312
  256SOL    HW1 1667   5.174   2.209   5.315
  256SOL    HW2 1668   5.025   2.173   5.372
  257SOL     OW 1669   4.867   6.570   2.494
  257SOL    HW1 1670   4.797   6.581   2.565
  257SOL    HW2 1671   4.829   6.517   2.419
  258SOL     OW 1672   1.600   3.441   5.679
  258SOL    HW1 1673   1.661   3.381   5.731
  258SOL    HW2 1674   1.629   3.536   5.689
  259SOL     OW 1675   3.891   6.726   3.710
  259SOL    HW1 1676   3.872   6.772   3.623
  259SOL    HW2 1677   3.986   6.744   3.737
  260SOL     OW 1678   3.907   5.507   3.264
  260SOL    HW1 1679   3.956   5.440   3.319
  260SOL    HW2 1680   3.850   5.460   3.196
  261SOL     OW 1681   4.499   4.823   0.546
  261SOL    HW1 1682   4.430   4.772   0.597
  261SOL    HW2 1683   4.524   4.772   0.464
  262SOL     OW 1684   1.349   4.129   6.488
  262SOL    HW1 1685   1.329   4.034   6.464
  262SOL    HW2 1686   1.346   4.186   6.406
  263SOL     OW 1687   0.804   6.805   4.369
  263SOL    HW1 1688   0.837   6.767   4.455
  263SOL    HW2 1689   0.880   6.848   4.320
  264SOL     OW 1690   6.456   3.294   6.400
  264SOL    HW1 1691   6.499   3.324   6.485
  264SOL    HW2 1692   6.371   3.343   6.386
  265SOL     OW 1693   6.418   0.217   3.978
  265SOL    HW1 1694   6.382   0.254   3.892
  265SOL    HW2 1695   6.343   0.210   4.044
  266SOL     OW 1696   3.692   0.871   6.017
  266SOL    HW1 1697   3.690   0.901   6.112
  266SOL    HW2 1698   3.663   0.946   5.957
  267SOL     OW 1699   1.697   0.915   3.856
  267SOL    HW1 1700   1.608   0.942   3.893
  267SOL    HW2 1701   1.768   0.975   3.893
  268SOL     OW 1702   3.471   2.180   1.278
  268SOL    HW1 1703   3.464   2.219   1.186
  268SOL    HW2 1704   3.566   2.182   1.308
  269SOL     OW 1705   4.613   1.999   0.672
  269SOL    HW1 1706   4.612   2.004   0.572
  269SOL    HW2 1707   4.520   1.986   0.706
  270SOL     OW 1708   5.116   0.401   0.098
  270SOL    HW1 1709   5.063   0.470   0.048
  270SOL    HW2 1710   5.187   0.446   0.153
  271SOL     OW 1711   1.038   3.428   6.522
  271SOL    HW1 1712   0.969   3.398   6.588
  271SOL    HW2 1713   1.060   3.354   6.459
  272SOL     OW 1714   3.319   6.316   3.894
  272SOL    HW1 1715   3.262   6.365   3.828
  272SOL    HW2 1716   3.415   6.331   3.872
  273SOL     OW 1717   1.981   4.958   6.309
  273SOL    HW1 1718   2.033   4.873   6.305
  273SOL    HW2 1719   1.973   4.988   6.405
  274SOL     OW 1720   4.991   2.474   3.732
  274SOL    HW1 1721   4.964   2.469   3.636
  274SOL    HW2 1722   5.013   2.383   3.766
  275SOL     OW 1723   6.569   6.330   1.546
  275SOL    HW1 1724   6.611   6.265   1.483
  275SOL    HW2 1725   6.487   6.370   1.504
  276SOL     OW 1726   0.848   1.055   5.018
  276SOL    HW1 1727   0.802   0.997   4.951
  276SOL    HW2 1728   0.910   1.117   4.971
  277SOL     OW 1729   2.111   4.166   0.980
  277SOL    HW1 1730   2.179   4.144   0.910
  277SOL    HW2 1731   2.152   4.227   1.048
  278SOL     OW 1732   0.336   2.870   2.100
  278SOL    HW1 1733   0.337   2.968   2.123
  278SOL    HW2 1734   0.260   2.852   2.037
  279SOL     OW 1735   5.791   1.684   3.740
  279SOL    HW1 1736   5.870   1.647   3.790
  279SOL    HW2 1737   5.708   1.672   3.796
  280SOL     OW 1738   1.776   4.908   2.352
  280SOL    HW1 1739   1.843   4.858   2.297
  280SOL    HW2 1740   1.724   4.844   2.409
  281SOL     OW 1741   2.452   4.526   1.185
  281SOL    HW1 1742   2.519   4.575   1.129
  281SOL    HW2 1743   2.389   4.477   1.126
  282SOL     OW 1744   2.846   2.071   6.157
  282SOL    HW1 1745   2.802   2.161   6.151
  282SOL    HW2 1746   2.881   2.058   6.250
  283SOL     OW 1747   4.129   2.114   5.928
  283SOL    HW1 1748   4.105   2.117   5.831
  283SOL    HW2 1749   4.052   2.148   5.982
  284SOL     OW 1750   1.356   4.388   3.811
  284SOL    HW1 1751   1.321   4.296   3.790
  284SOL    HW2 1752   1.411   4.421   3.735
  285SOL     OW 1753   5.505   4.852   4.485
  285SOL    HW1 1754   5.567   4.804   4.547
  285SOL    HW2 1755   5.518   4.950   4.494
  286SOL     OW 1756   3.104   3.655   6.765
  286SOL    HW1 1757   3.040   3.697   6.701
  286SOL    HW2 1758   3.146   3.575   6.723
  287SOL     OW 1759   1.715   3.576   6.976
  287SOL    HW1 1760   1.771   3.498   6.948
  287SOL    HW2 1761   1.732   3.653   6.914
  288SOL     OW 1762   4.946   3.625   0.822
  288SOL    HW1 1763   5.017   3.624   0.893
  288SOL    HW2 1764   4.886   3.545   0.834
  289SOL     OW 1765   3.138   4.915   6.395
  289SOL    HW1 1766   3.132   4.825   6.438
  289SOL    HW2 1767   3.187   4.977   6.456
  290SOL     OW 1768   1.273   1.421   4.870
  290SOL    HW1 1769   1.253   1.484   4.945
  290SOL    HW2 1770   1.274   1.327   4.906
  291SOL     OW 1771   0.137   2.001   2.471
  291SOL    HW1 1772   0.066   1.935   2.495
  291SOL    HW2 1773   0.209   1.954   2.419
  292SOL     OW 1774   2.487   6.920   3.828
  292SOL    HW1 1775   2.443   6.853   3.888
  292SOL    HW2 1776   2.508   7.002   3.880
  293SOL     OW 1777   3.276   4.879   3.502
  293SOL    HW1 1778   3.376   4.878   3.511
  293SOL    HW2 1779   3.252   4.887   3.405
  294SOL     OW 1780   4.655   0.314   7.010
  294SOL    HW1 1781   4.568   0.286   6.971
  294SOL    HW2 1782   4.674   0.409   6.985
  295SOL     OW 1783   5.293   6.944   3.420
  295SOL    HW1 1784   5.356   6.906   3.352
  295SOL    HW2 1785   5.201   6.950   3.380
  296SOL     OW 1786   2.604   1.864   3.274
  296SOL    HW1 1787   2.540   1.865   3.351
  296SOL    HW2 1788   2.557   1.891   3.191
  297SOL     OW 1789   1.438   4.691   3.133
  297SOL    HW1 1790   1.522   4.661   3.089
  297SOL    HW2 1791   1.418   4.786   3.107
  298SOL     OW 1792   6.525   5.181   0.857
  298SOL    HW1 1793   6.476   5.186   0.944
  298SOL    HW2 1794   6.518   5.269   0.810
  299SOL     OW 1795   6.138   2.504   4.416
  299SOL    HW1 1796   6.141   2.594   4.459
  299SOL    HW2 1797   6.226   2.459   4.425
  300SOL     OW 1798   6.620   6.910   2.365
  300SOL    HW1 1799   6.566   6.931   2.446
  300SOL    HW2 1800   6.608   6.983   2.297
  301SOL     OW 1801   4.482   3.406   6.088
  301SOL    HW1 1802   4.540   3.352   6.027
  301SOL    HW2 1803   4.490   3.503   6.064
  302SOL     OW 1804   1.114   6.614   3.898
  302SOL    HW1 1805   1.147   6.708   3.887
  302SOL    HW2 1806   1.015   6.615   3.913
  303SOL     OW 1807   6.169   6.523   2.916
  303SOL    HW1 1808   6.152   6.553   2.823
  303SOL    HW2 1809   6.158   6.601   2.979
  304SOL     OW 1810   3.578   6.435   3.893
  304SOL    HW1 1811   3.622   6.462   3.808
  304SOL    HW2 1812   3.571   6.515   3.954
  305SOL     OW 1813   1.558   3.969   1.690
  305SOL    HW1 1814   1.510   3.901   1.635
  305SOL    HW2 1815   1.640   4.000   1.641
  306SOL     OW 1816   2.341   0.648   3.365
  306SOL    HW1 1817   2.414   0.660   3.432
  306SOL    HW2 1818   2.268   0.714   3.383
  307SOL     OW 1819   3.187   0.183   1.695
  307SOL    HW1 1820   3.197   0.114   1.767
  307SOL    HW2 1821   3.253   0.166   1.622
  308SOL     OW 1822   1.124   5.077   4.491
  308SOL    HW1 1823   1.109   5.064   4.589
  308SOL    HW2 1824   1.087   5.166   4.462
  309SOL     OW 1825   3.757   4.928   5.115
  309SOL    HW1 1826   3.798   4.900   5.029
  309SOL    HW2 1827   3.660   4.950   5.100
  310SOL     OW 1828   1.097   5.940   6.264
  310SOL    HW1 1829   1.029   5.955   6.335
  310SOL    HW2 1830   1.146   5.854   6.282
  311SOL     OW 1831   0.434   0.540   1.497
  311SOL    HW1 1832   0.373   0.615   1.471
  311SOL    HW2 1833   0.382   0.471   1.547
  312SOL     OW 1834   3.867   1.616   4.685
  312SOL    HW1 1835   3.831   1.676   4.757
  312SOL    HW2 1836   3.816   1.631   4.600
  313SOL     OW 1837   6.969   4.719   0.599
  313SOL    HW1 1838   6.914   4.731   0.682
  313SOL    HW2 1839   0.022   4.652   0.617
  314SOL     OW 1840   3.121   6.424   1.222
  314SOL    HW1 1841   3.029   6.414   1.184
  314SOL    HW2 1842   3.185   6.444   1.148
  315SOL     OW 1843   0.980   3.200   2.528
  315SOL    HW1 1844   1.013   3.106   2.523
  315SOL    HW2 1845   0.887   3.204   2.491
  316SOL     OW 1846   2.175   4.020   4.331
  316SOL    HW1 1847   2.223   4.106   4.316
  316SOL    HW2 1848   2.114   4.028   4.409
  317SOL     OW 1849   6.435   1.135   0.244
  317SOL    HW1 1850   6.472   1.228   0.240
  317SOL    HW2 1851   6.503   1.070   0.210
  318SOL     OW 1852   2.148   4.955   0.868
  318SOL    HW1 1853   2.231   4.911   0.904
  318SOL    HW2 1854   2.145   5.050   0.900
  319SOL     OW 1855   1.285   6.944   6.809
  319SOL    HW1 1856   1.269   6.971   6.904
  319SOL    HW2 1857   1.379   6.968   6.783
  320SOL     OW 1858   4.909   3.174   0.968
  320SOL    HW1 1859   4.983   3.241   0.973
  320SOL    HW2 1860   4.880   3.150   1.060
  321SOL     OW 1861   2.177   1.203   1.885
  321SOL    HW1 1862   2.115   1.222   1.961
  321SOL    HW2 1863   2.125   1.200   1.799
  322SOL     OW 1864   3.172   2.696   5.562
  322SOL    HW1 1865   3.180   2.667   5.657
  322SOL    HW2 1866   3.166   2.616   5.503
  323SOL     OW 1867   0.670   4.197   2.142
  323SOL    HW1 1868   0.674   4.102   2.172
  323SOL    HW2 1869   0.580   4.217   2.105
  324SOL     OW 1870   0.620   3.331   4.356
  324SOL    HW1 1871   0.565   3.344   4.438
  324SOL    HW2 1872   0.619   3.415   4.302
  325SOL     OW 1873   2.476   2.391   2.945
  325SOL    HW1 1874   2.459   2.486   2.970
  325SOL    HW2 1875   2.405   2.332   2.983
  326SOL     OW 1876   2.343   5.024   5.620
  326SOL    HW1 1877   2.424   5.003   5.566
  326SOL    HW2 1878   2.346   4.974   5.707
  327SOL     OW 1879   6.141   5.119   6.110
  327SOL    HW1 1880   6.175   5.122   6.204
  327SOL    HW2 1881   6.210   5.158   6.049
  328SOL     OW 1882   3.133   5.678   1.526
  328SOL    HW1 1883   3.138   5.592   1.475
  328SOL    HW2 1884   3.213   5.735   1.504
  329SOL     OW 1885   3.211   3.596   2.366
  329SOL    HW1 1886   3.203   3.534   2.288
  329SOL    HW2 1887   3.131   3.586   2.425
  330SOL     OW 1888   3.206   1.601   1.807
  330SOL    HW1 1889   3.183   1.668   1.737
  330SOL    HW2 1890   3.275   1.538   1.772
  331SOL     OW 1891   5.790   4.318   5.886
  331SOL    HW1 1892   5.775   4.416   5.876
  331SOL    HW2 1893   5.851   4.287   5.813
  332SOL     OW 1894   4.652   1.975   4.073
  332SOL    HW1 1895   4.621   1.949   3.981
  332SOL    HW2 1896   4.572   1.986   4.132
  333SOL     OW 1897   4.159   6.333   0.380
  333SOL    HW1 1898   4.155   6.415   0.323
  333SOL    HW2 1899   4.252   6.297   0.382
  334SOL     OW 1900   4.671   6.570   2.732
  334SOL    HW1 1901   4.658   6.481   2.775
  334SOL    HW2 1902   4.587   6.595   2.684
  335SOL     OW 1903   3.434   6.748   3.209
  335SOL    HW1 1904   3.476   6.687   3.142
  335SOL    HW2 1905   3.459   6.842   3.189
  336SOL     OW 1906   3.600   0.484   4.880
  336SOL    HW1 1907   3.524   0.545   4.858
  336SOL    HW2 1908   3.670   0.490   4.808
  337SOL     OW 1909   0.362   4.176   1.522
  337SOL    HW1 1910   0.390   4.082   1.540
  337SOL    HW2 1911   0.325   4.182   1.429
  338SOL     OW 1912   2.638   2.685   1.518
  338SOL    HW1 1913   2.600   2.609   1.465
  338SOL    HW2 1914   2.718   2.654   1.568
  339SOL     OW 1915   4.061   0.590   3.129
  339SOL    HW1 1916   4.055   0.499   3.086
  339SOL    HW2 1917   4.054   0.580   3.228
  340SOL     OW 1918   5.044   3.603   4.550
  340SOL    HW1 1919   5.016   3.515   4.511
  340SOL    HW2 1920   4.966   3.665   4.552
  341SOL     OW 1921   5.099   4.857   5.637
  341SOL    HW1 1922   5.193   4.888   5.649
  341SOL    HW2 1923   5.097   4.757   5.637
  342SOL     OW 1924   5.528   3.863   0.444
  342SOL    HW1 1925   5.550   3.828   0.535
  342SOL    HW2 1926   5.437   3.832   0.417
  343SOL     OW 1927   2.263   0.890   2.549
  343SOL    HW1 1928   2.325   0.962   2.515
  343SOL    HW2 1929   2.197   0.867   2.478
  344SOL     OW 1930   3.559   5.365   6.706
  344SOL    HW1 1931   3.585   5.292   6.769
  344SOL    HW2 1932   3.483   5.334   6.649
  345SOL     OW 1933   1.413   0.483   5.971
  345SOL    HW1 1934   1.411   0.416   6.045
  345SOL    HW2 1935   1.388   0.437   5.885
  346SOL     OW 1936   3.319   0.773   4.358
  346SOL    HW1 1937   3.282   0.692   4.311
  346SOL    HW2 1938   3.406   0.799   4.315
  347SOL     OW 1939   4.864   6.687   5.722
  347SOL    HW1 1940   4.796   6.680   5.796
  347SOL    HW2 1941   4.919   6.604   5.720
  348SOL     OW 1942   2.840   6.294   2.668
  348SOL    HW1 1943   2.847   6.233   2.589
  348SOL    HW2 1944   2.750   6.336   2.671
  349SOL     OW 1945   2.166   4.853   1.709
  349SOL    HW1 1946   2.107   4.818   1.636
  349SOL    HW2 1947   2.109   4.888   1.784
  350SOL     OW 1948   4.541   2.838   0.744
  350SOL    HW1 1949   4.547   2.855   0.843
  350SOL    HW2 1950   4.605   2.765   0.719
  351SOL     OW 1951   3.052   1.725   0.643
  351SOL    HW1 1952   3.051   1.690   0.737
  351SOL    HW2 1953   2.964   1.709   0.600
  352SOL     OW 1954   3.295   1.600   6.326
  352SOL    HW1 1955   3.276   1.521   6.268
  352SOL    HW2 1956   3.236   1.677   6.297
  353SOL     OW 1957   2.127   0.585   1.153
  353SOL    HW1 1958   2.082   0.673   1.139
  353SOL    HW2 1959   2.150   0.574   1.250
  354SOL     OW 1960   5.010   1.044   2.402
  354SOL    HW1 1961   4.960   1.035   2.316
  354SOL    HW2 1962   5.101   1.004   2.393
  355SOL     OW 1963   1.423   1.494   1.730
  355SOL    HW1 1964   1.388   1.427   1.665
  355SOL    HW2 1965   1.347   1.543   1.772
  356SOL     OW 1966   3.962   6.251   2.836
  356SOL    HW1 1967   3.962   6.344   2.872
  356SOL    HW2 1968   3.928   6.252   2.742
  357SOL     OW 1969   1.730   4.578   6.132
  357SOL    HW1 1970   1.658   4.641   6.159
  357SOL    HW2 1971   1.697   4.519   6.058
  358SOL     OW 1972   5.450   0.826   2.512
  358SOL    HW1 1973   5.518   0.752   2.513
  358SOL    HW2 1974   5.472   0.891   2.584
  359SOL     OW 1975   1.205   2.171   0.667
  359SOL    HW1 1976   1.259   2.143   0.587
  359SOL    HW2 1977   1.180   2.090   0.720
  360SOL     OW 1978   4.845   6.849   0.784
  360SOL    HW1 1979   4.802   6.905   0.855
  360SOL    HW2 1980   4.809   6.876   0.695
  361SOL     OW 1981   3.538   0.820   3.656
  361SOL    HW1 1982   3.523   0.889   3.585
  361SOL    HW2 1983   3.517   0.729   3.620
  362SOL     OW 1984   2.716   3.825   0.962
  362SOL    HW1 1985   2.635   3.834   0.904
  362SOL    HW2 1986   2.696   3.766   1.040
  363SOL     OW 1987   4.147   4.754   3.592
  363SOL    HW1 1988   4.213   4.679   3.596
  363SOL    HW2 1989   4.101   4.761   3.680
  364SOL     OW 1990   1.862   6.289   6.167
  364SOL    HW1 1991   1.788   6.248   6.219
  364SOL    HW2 1992   1.840   6.288   6.070
  365SOL     OW 1993   4.797   6.809   2.657
  365SOL    HW1 1994   4.868   6.848   2.715
  365SOL    HW2 1995   4.757   6.729   2.702
  366SOL     OW 1996   5.035   0.860   0.493
  366SOL    HW1 1997   5.072   0.930   0.555
  366SOL    HW2 1998   4.994   0.786   0.546
  367SOL     OW 1999   4.703   1.802   1.740
  367SOL    HW1 2000   4.732   1.896   1.722
  367SOL    HW2 2001   4.614   1.803   1.785
  368SOL     OW 2002   1.703   5.037   5.768
  368SOL    HW1 2003   1.763   4.957   5.755
  368SOL    HW2 2004   1.641   5.020   5.844
  369SOL     OW 2005   0.647   3.533   1.440
  369SOL    HW1 2006   0.689   3.520   1.350
  369SOL    HW2 2007   0.695   3.476   1.508
  370SOL     OW 2008   3.175   1.740   0.034
  370SOL    HW1 2009   3.258   1.736   6.999
  370SOL    HW2 2010   3.154   1.835   0.055
  371SOL     OW 2011   3.904   3.036   6.011
  371SOL    HW1 2012   3.847   2.985   6.076
  371SOL    HW2 2013   3.847   3.072   5.938
  372SOL     OW 2014   1.764   5.039   0.070
  372SOL    HW1 2015   1.859   5.009   0.063
  372SOL    HW2 2016   1.720   5.032   7.000
  373SOL     OW 2017   6.696   6.577   0.025
  373SOL    HW1 2018   6.617   6.637   0.018
  373SOL    HW2 2019   6.776   6.630   0.054
  374SOL     OW 2020   4.691   1.099   1.200
  374SOL    HW1 2021   4.653   1.011   1.171
  374SOL    HW2 2022   4.674   1.167   1.129
  375SOL     OW 2023   6.891   4.488   1.215
  375SOL    HW1 2024   6.818   4.556   1.222
  375SOL    HW2 2025   6.851   4.396   1.218
  376SOL     OW 2026   2.105   3.610   4.476
  376SOL    HW1 2027   2.087   3.524   4.525
  376SOL    HW2 2028   2.124   3.682   4.542
  377SOL     OW 2029   4.537   2.185   4.569
  377SOL    HW1 2030   4.495   2.123   4.503
  377SOL    HW2 2031   4.623   2.219   4.532
  378SOL     OW 2032   5.103   2.673   4.497
  378SOL    HW1 2033   5.013   2.716   4.498
  378SOL    HW2 2034   5.105   2.600   4.429
  379SOL     OW 2035   7.014   2.691   1.462
  379SOL    HW1 2036   0.089   2.697   1.490
  379SOL    HW2 2037   6.987   2.595   1.455
  380SOL     OW 2038   1.241   2.079   0.328
  380SOL    HW1 2039   1.309   2.080   0.402
  380SOL    HW2 2040   1.224   2.172   0.298
  381SOL     OW 2041   4.013   4.720   0.376
  381SOL    HW1 2042   3.916   4.744   0.383
  381SOL    HW2 2043   4.051   4.704   0.467
  382SOL     OW 2044   2.374   5.008   0.603
  382SOL    HW1 2045   2.351   4.935   0.539
  382SOL    HW2 2046   2.290   5.051   0.636
  383SOL     OW 2047   6.274   2.127   0.534
  383SOL    HW1 2048   6.262   2.175   0.447
  383SOL    HW2 2049   6.200   2.153   0.596
  384SOL     OW 2050   1.943   4.921   5.009
  384SOL    HW1 2051   2.035   4.916   5.050
  384SOL    HW2 2052   1.928   5.012   4.972
  385SOL     OW 2053   4.334   5.259   1.696
  385SOL    HW1 2054   4.253   5.249   1.639
  385SOL    HW2 2055   4.369   5.168   1.721
  386SOL     OW 2056   2.524   6.516   4.644
  386SOL    HW1 2057   2.514   6.490   4.547
  386SOL    HW2 2058   2.489   6.442   4.702
  387SOL     OW 2059   6.664   0.152   6.072
  387SOL    HW1 2060   6.760   0.178   6.087
  387SOL    HW2 2061   6.609   0.181   6.151
  388SOL     OW 2062   0.247   2.274   4.375
  388SOL    HW1 2063   0.165   2.265   4.432
  388SOL    HW2 2064   0.224   2.256   4.280
  389SOL     OW 2065   5.100   4.217   2.100
  389SOL    HW1 2066   5.030   4.256   2.041
  389SOL    HW2 2067   5.178   4.279   2.106
  390SOL     OW 2068   4.148   2.500   6.928
  390SOL    HW1 2069   4.070   2.449   6.964
  390SOL    HW2 2070   4.195   2.546   7.003
  391SOL     OW 2071   4.087   3.690   3.577
  391SOL    HW1 2072   4.085   3.591   3.567
  391SOL    HW2 2073   4.154   3.716   3.646
  392SOL     OW 2074   1.993   4.083   1.658
  392SOL    HW1 2075   2.059   4.037   1.598
  392SOL    HW2 2076   2.004   4.049   1.751
  393SOL     OW 2077   1.631   5.422   1.517
  393SOL    HW1 2078   1.706   5.488   1.519
  393SOL    HW2 2079   1.617   5.384   1.608
  394SOL     OW 2080   6.081   1.384   6.273
  394SOL    HW1 2081   6.073   1.481   6.251
  394SOL    HW2 2082   6.097   1.374   6.371
  395SOL     OW 2083   5.894   4.552   0.244
  395SOL    HW1 2084   5.917   4.551   0.341
  395SOL    HW2 2085   5.920   4.465   0.202
  396SOL     OW 2086   1.395   0.792   1.331
  396SOL    HW1 2087   1.493   0.791   1.351
  396SOL    HW2 2088   1.379   0.822   1.237
  397SOL     OW 2089   4.387   2.407   4.646
  397SOL    HW1 2090   4.301   2.402   4.697
  397SOL    HW2 2091   4.432   2.318   4.649
  398SOL     OW 2092   0.167   0.868   3.403
  398SOL    HW1 2093   0.079   0.820   3.397
  398SOL    HW2 2094   0.219   0.833   3.481
  399SOL     OW 2095   5.907   5.899   3.719
  399SOL    HW1 2096   5.903   5.852   3.807
  399SOL    HW2 2097   5.817   5.934   3.695
  400SOL     OW 2098   6.816   6.866   3.602
  400SOL    HW1 2099   6.869   6.785   3.579
  400SOL    HW2 2100   6.772   6.901   3.520
  401SOL     OW 2101   1.318   5.346   4.529
  401SOL    HW1 2102   1.281   5.413   4.464
  401SOL    HW2 2103   1.371   5.277   4.479
  402SOL     OW 2104   5.866   1.716   4.148
  402SOL    HW1 2105   5.876   1.627   4.193
  402SOL    HW2 2106   5.795   1.769   4.195
  403SOL     OW 2107   2.983   1.718   4.891
  403SOL    HW1 2108   2.984   1.688   4.986
  403SOL    HW2 2109   2.922   1.797   4.881
  404SOL     OW 2110   2.942   5.260   3.403
  404SOL    HW1 2111   3.029   5.227   3.367
  404SOL    HW2 2112   2.929   5.226   3.496
  405SOL     OW 2113   2.480   5.230   4.149
  405SOL    HW1 2114   2.532   5.305   4.109
  405SOL    HW2 2115   2.541   5.154   4.172
  406SOL     OW 2116   0.404   6.742   6.069
  406SOL    HW1 2117   0.415   6.680   6.146
  406SOL    HW2 2118   0.418   6.693   5.984
  407SOL     OW 2119   1.889   3.520   4.047
  407SOL    HW1 2120   1.942   3.604   4.054
  407SOL    HW2 2121   1.878   3.480   4.138
  408SOL     OW 2122   2.297   2.799   2.783
  408SOL    HW1 2123   2.339   2.804   2.693
  408SOL    HW2 2124   2.230   2.873   2.794
  409SOL     OW 2125   0.386   2.862   2.723
  409SOL    HW1 2126   0.479   2.832   2.745
  409SOL    HW2 2127   0.367   2.846   2.626
  410SOL     OW 2128   1.762   3.051   1.674
  410SOL    HW1 2129   1.778   3.148   1.691
  410SOL    HW2 2130   1.810   2.997   1.743
  411SOL     OW 2131   6.906   2.095   0.429
  411SOL    HW1 2132   6.852   2.158   0.485
  411SOL    HW2 2133   6.913   2.007   0.475
  412SOL     OW 2134   1.486   5.165   2.765
  412SOL    HW1 2135   1.465   5.259   2.792
  412SOL    HW2 2136   1.406   5.123   2.723
  413SOL     OW 2137   6.138   4.769   1.929
  413SOL    HW1 2138   6.146   4.675   1.894
  413SOL    HW2 2139   6.193   4.778   2.012
  414SOL     OW 2140   2.386   6.758   3.110
  414SOL    HW1 2141   2.477   6.721   3.132
  414SOL    HW2 2142   2.317   6.714   3.168
  415SOL     OW 2143   5.563   1.562   6.549
  415SOL    HW1 2144   5.582   1.481   6.604
  415SOL    HW2 2145   5.623   1.563   6.469
  416SOL     OW 2146   5.655   2.956   6.326
  416SOL    HW1 2147   5.666   2.880   6.390
  416SOL    HW2 2148   5.569   2.946   6.276
  417SOL     OW 2149   2.314   2.570   5.664
  417SOL    HW1 2150   2.348   2.660   5.638
  417SOL    HW2 2151   2.376   2.529   5.730
  418SOL     OW 2152   3.524   6.581   5.796
  418SOL    HW1 2153   3.442   6.634   5.815
  418SOL    HW2 2154   3.595   6.642   5.760
  419SOL     OW 2155   5.945   0.720   6.847
  419SOL    HW1 2156   5.980   0.773   6.925
  419SOL    HW2 2157   5.903   0.782   6.782
  420SOL     OW 2158   3.662   0.183   1.111
  420SOL    HW1 2159   3.714   0.135   1.181
  420SOL    HW2 2160   3.611   0.117   1.055
  421SOL     OW 2161   4.843   4.368   2.611
  421SOL    HW1 2162   4.864   4.397   2.518
  421SOL    HW2 2163   4.838   4.449   2.670
  422SOL     OW 2164   4.150   2.001   1.741
  422SOL    HW1 2165   4.158   1.976   1.838
  422SOL    HW2 2166   4.206   2.082   1.723
  423SOL     OW 2167   3.010   0.775   6.356
  423SOL    HW1 2168   3.019   0.677   6.377
  423SOL    HW2 2169   3.031   0.829   6.437
  424SOL     OW 2170   1.733   3.726   4.280
  424SOL    HW1 2171   1.758   3.803   4.222
  424SOL    HW2 2172   1.814   3.693   4.328
  425SOL     OW 2173   3.079   1.274   6.968
  425SOL    HW1 2174   3.118   1.349   0.003
  425SOL    HW2 2175   3.038   1.312   6.885
  426SOL     OW 2176   2.430   2.202   4.434
  426SOL    HW1 2177   2.408   2.222   4.339
  426SOL    HW2 2178   2.345   2.198   4.488
  427SOL     OW 2179   4.726   1.567   3.474
  427SOL    HW1 2180   4.654   1.530   3.415
  427SOL    HW2 2181   4.715   1.531   3.567
  428SOL     OW 2182   2.534   1.943   6.486
  428SOL    HW1 2183   2.523   1.882   6.564
  428SOL    HW2 2184   2.461   2.010   6.485
  429SOL     OW 2185   0.327   6.077   3.944
  429SOL    HW1 2186   0.280   6.074   4.032
  429SOL    HW2 2187   0.292   6.152   3.889
  430SOL     OW 2188   2.302   0.535   4.107
  430SOL    HW1 2189   2.213   0.489   4.103
  430SOL    HW2 2190   2.331   0.562   4.015
  431SOL     OW 2191   2.787   1.262   1.277
  431SOL    HW1 2192   2.732   1.318   1.339
  431SOL    HW2 2193   2.791   1.168   1.311
  432SOL     OW 2194   5.143   1.689   1.325
  432SOL    HW1 2195   5.168   1.762   1.387
  432SOL    HW2 2196   5.224   1.633   1.305
  433SOL     OW 2197   1.648   4.348   0.611
  433SOL    HW1 2198   1.564   4.325   0.660
  433SOL    HW2 2199   1.641   4.316   0.517
  434SOL     OW 2200   4.468   5.500   2.831
  434SOL    HW1 2201   4.490   5.453   2.746
  434SOL    HW2 2202   4.466   5.435   2.907
  435SOL     OW 2203   3.816   2.853   6.208
  435SOL    HW1 2204   3.913   2.866   6.227
  435SOL    HW2 2205   3.800   2.758   6.181
  436SOL     OW 2206   5.267   5.805   1.932
  436SOL    HW1 2207   5.246   5.867   2.008
  436SOL    HW2 2208   5.346   5.839   1.882
  437SOL     OW 2209   6.969   1.509   4.984
  437SOL    HW1 2210   0.041   1.535   5.014
  437SOL    HW2 2211   6.975   1.433   4.920
  438SOL     OW 2212   0.938   4.342   2.606
  438SOL    HW1 2213   0.889   4.362   2.522
  438SOL    HW2 2214   1.024   4.294   2.585
  439SOL     OW 2215   0.243   0.631   5.840
  439SOL    HW1 2216   0.232   0.673   5.930
  439SOL    HW2 2217   0.255   0.532   5.851
  440SOL     OW 2218   4.324   2.176   0.761
  440SOL    HW1 2219   4.388   2.208   0.830
  440SOL    HW2 2220   4.327   2.077   0.755
  441SOL     OW 2221   7.013   4.600   2.453
  441SOL    HW1 2222   6.997   4.505   2.480
  441SOL    HW2 2223   7.011   4.607   2.354
  442SOL     OW 2224   3.620   3.346   5.067
  442SOL    HW1 2225   3.667   3.392   4.993
  442SOL    HW2 2226   3.584   3.413   5.132
  443SOL     OW 2227   4.698   2.752   3.255
  443SOL    HW1 2228   4.649   2.705   3.181
  443SOL    HW2 2229   4.678   2.706   3.342
  444SOL     OW 2230   4.464   1.937   1.367
  444SOL    HW1 2231   4.478   1.862   1.302
  444SOL    HW2 2232   4.371   1.932   1.404
  445SOL     OW 2233   2.837   5.479   2.496
  445SOL    HW1 2234   2.872   5.434   2.578
  445SOL    HW2 2235   2.745   5.515   2.514
  446SOL     OW 2236   6.089   0.254   1.679
  446SOL    HW1 2237   6.084   0.261   1.580
  446SOL    HW2 2238   6.097   0.345   1.719
  447SOL     OW 2239   6.001   4.028   0.478
  447SOL    HW1 2240   5.971   4.104   0.421
  447SOL    HW2 2241   5.936   4.014   0.552
  448SOL     OW 2242   3.643   6.210   4.045
  448SOL    HW1 2243   3.609   6.288   3.992
  448SOL    HW2 2244   3.717   6.239   4.104
  449SOL     OW 2245   0.948   4.000   4.903
  449SOL    HW1 2246   1.041   3.988   4.938
  449SOL    HW2 2247   0.933   4.096   4.878
  450SOL     OW 2248   6.629   4.111   3.364
  450SOL    HW1 2249   6.611   4.140   3.458
  450SOL    HW2 2250   6.703   4.166   3.326
  451SOL     OW 2251   1.566   2.371   0.347
  451SOL    HW1 2252   1.607   2.449   0.395
  451SOL    HW2 2253   1.536   2.303   0.414
  452SOL     OW 2254   4.130   5.508   1.770
  452SOL    HW1 2255   4.145   5.506   1.671
  452SOL    HW2 2256   4.185   5.582   1.809
  453SOL     OW 2257   4.210   0.892   0.183
  453SOL    HW1 2258   4.171   0.811   0.226
  453SOL    HW2 2259   4.298   0.913   0.225
  454SOL     OW 2260   7.004   3.207   4.271
  454SOL    HW1 2261   7.012   3.136   4.341
  454SOL    HW2 2262   6.974   3.293   4.314
  455SOL     OW 2263   5.540   5.259   6.889
  455SOL    HW1 2264   5.614   5.326   6.878
  455SOL    HW2 2265   5.550   5.188   6.818
  456SOL     OW 2266   2.121   0.964   3.008
  456SOL    HW1 2267   2.143   1.059   2.984
  456SOL    HW2 2268   2.150   0.904   2.933
  457SOL     OW 2269   3.118   5.661   0.221
  457SOL    HW1 2270   3.213   5.651   0.251
  457SOL    HW2 2271   3.061   5.596   0.271
  458SOL     OW 2272   4.028   1.518   3.465
  458SOL    HW1 2273   4.072   1.605   3.442
  458SOL    HW2 2274   4.090   1.461   3.518
  459SOL     OW 2275   2.938   1.397   3.160
  459SOL    HW1 2276   3.025   1.428   3.198
  459SOL    HW2 2277   2.935   1.297   3.160
  460SOL     OW 2278   0.774   1.429   6.281
  460SOL    HW1 2279   0.781   1.362   6.355
  460SOL    HW2 2280   0.865   1.453   6.249
  461SOL     OW 2281   1.540   6.801   5.518
  461SOL    HW1 2282   1.574   6.885   5.561
  461SOL    HW2 2283   1.535   6.728   5.586
  462SOL     OW 2284   3.667   4.198   4.576
  462SOL    HW1 2285   3.605   4.202   4.654
  462SOL    HW2 2286   3.760   4.217   4.606
  463SOL     OW 2287   5.347   6.030   3.017
  463SOL    HW1 2288   5.271   6.074   3.064
  463SOL    HW2 2289   5.420   6.096   3.000
  464SOL     OW 2290   4.439   5.740   5.124
  464SOL    HW1 2291   4.489   5.826   5.123
  464SOL    HW2 2292   4.496   5.667   5.162
  465SOL     OW 2293   7.007   4.812   6.894
  465SOL    HW1 2294   0.044   4.788   6.815
  465SOL    HW2 2295   6.921   4.763   6.890
  466SOL     OW 2296   3.735   4.886   4.081
  466SOL    HW1 2297   3.673   4.828   4.028
  466SOL    HW2 2298   3.699   4.979   4.084
  467SOL     OW 2299   6.544   6.988   1.939
  467SOL    HW1 2300   6.621   7.010   1.879
  467SOL    HW2 2301   6.468   0.031   1.918
  468SOL     OW 2302   2.481   6.058   6.329
  468SOL    HW1 2303   2.454   6.022   6.418
  468SOL    HW2 2304   2.401   6.101   6.286
  469SOL     OW 2305   3.217   4.570   5.345
  469SOL    HW1 2306   3.118   4.574   5.359
  469SOL    HW2 2307   3.247   4.652   5.296
  470SOL     OW 2308   2.183   5.072   2.522
  470SOL    HW1 2309   2.260   5.054   2.461
  470SOL    HW2 2310   2.212   5.132   2.596
  471SOL     OW 2311   1.550   1.830   3.897
  471SOL    HW1 2312   1.644   1.811   3.926
  471SOL    HW2 2313   1.511   1.903   3.953
  472SOL     OW 2314   5.402   4.189   6.533
  472SOL    HW1 2315   5.434   4.094   6.534
  472SOL    HW2 2316   5.480   4.250   6.549
  473SOL     OW 2317   5.439   3.240   2.215
  473SOL    HW1 2318   5.343   3.234   2.242
  473SOL    HW2 2319   5.463   3.158   2.162
  474SOL     OW 2320   5.055   5.354   3.677
  474SOL    HW1 2321   5.051   5.422   3.604
  474SOL    HW2 2322   5.136   5.297   3.665
  475SOL     OW 2323   5.496   1.457   0.193
  475SOL    HW1 2324   5.454   1.537   0.149
  475SOL    HW2 2325   5.451   1.441   0.281
  476SOL     OW 2326   1.236   3.701   0.282
  476SOL    HW1 2327   1.190   3.698   0.193
  476SOL    HW2 2328   1.219   3.789   0.326
  477SOL     OW 2329   6.918   5.276   3.438
  477SOL    HW1 2330   6.945   5.372   3.430
  477SOL    HW2 2331   6.840   5.258   3.379
  478SOL     OW 2332   5.899   5.172   2.543
  478SOL    HW1 2333   5.965   5.103   2.572
  478SOL    HW2 2334   5.896   5.175   2.444
  479SOL     OW 2335   3.118   4.015   2.617
  479SOL    HW1 2336   3.084   4.038   2.525
  479SOL    HW2 2337   3.210   4.052   2.628
  480SOL     OW 2338   0.866   0.954   1.984
  480SOL    HW1 2339   0.914   1.017   2.046
  480SOL    HW2 2340   0.889   0.977   1.890
  481SOL     OW 2341   5.745   6.352   1.019
  481SOL    HW1 2342   5.814   6.409   0.975
  481SOL    HW2 2343   5.663   6.348   0.962
  482SOL     OW 2344   3.642   4.999   2.707
  482SOL    HW1 2345   3.673   4.923   2.651
  482SOL    HW2 2346   3.606   5.072   2.648
  483SOL     OW 2347   5.790   0.969   3.823
  483SOL    HW1 2348   5.723   0.912   3.778
  483SOL    HW2 2349   5.855   1.004   3.756
  484SOL     OW 2350   1.960   5.266   3.150
  484SOL    HW1 2351   1.954   5.252   3.051
  484SOL    HW2 2352   1.872   5.297   3.185
  485SOL     OW 2353   5.075   2.082   0.792
  485SOL    HW1 2354   5.046   2.165   0.840
  485SOL    HW2 2355   5.165   2.055   0.826
  486SOL     OW 2356   6.189   6.786   5.547
  486SOL    HW1 2357   6.100   6.775   5.590
  486SOL    HW2 2358   6.179   6.780   5.448
  487SOL     OW 2359   0.234   0.853   6.738
  487SOL    HW1 2360   0.261   0.939   6.783
  487SOL    HW2 2361   0.262   0.776   6.795
  488SOL     OW 2362   1.941   5.728   3.094
  488SOL    HW1 2363   1.991   5.716   3.008
  488SOL    HW2 2364   1.892   5.815   3.092
  489SOL     OW 2365   2.996   4.785   5.249
  489SOL    HW1 2366   2.932   4.830   5.311
  489SOL    HW2 2367   2.956   4.698   5.218
  490SOL     OW 2368   1.448   3.457   4.725
  490SOL    HW1 2369   1.474   3.473   4.820
  490SOL    HW2 2370   1.488   3.529   4.667
  491SOL     OW 2371   6.133   3.102   1.076
  491SOL    HW1 2372   6.225   3.098   1.038
  491SOL    HW2 2373   6.074   3.036   1.030
  492SOL     OW 2374   1.862   2.253   5.833
  492SOL    HW1 2375   1.915   2.257   5.919
  492SOL    HW2 2376   1.925   2.249   5.756
  493SOL     OW 2377   2.047   5.622   3.800
  493SOL    HW1 2378   2.125   5.585   3.750
  493SOL    HW2 2379   2.072   5.708   3.843
  494SOL     OW 2380   3.043   0.679   4.111
  494SOL    HW1 2381   3.085   0.607   4.167
  494SOL    HW2 2382   3.115   0.727   4.061
  495SOL     OW 2383   3.763   4.405   6.594
  495SOL    HW1 2384   3.712   4.458   6.662
  495SOL    HW2 2385   3.786   4.464   6.517
  496SOL     OW 2386   5.189   0.942   2.838
  496SOL    HW1 2387   5.288   0.944   2.850
  496SOL    HW2 2388   5.144   0.942   2.928
  497SOL     OW 2389   4.214   2.593   0.995
  497SOL    HW1 2390   4.160   2.628   1.071
  497SOL    HW2 2391   4.204   2.493   0.990
  498SOL     OW 2392   0.379   0.148   1.161
  498SOL    HW1 2393   0.396   0.235   1.208
  498SOL    HW2 2394   0.411   0.073   1.218
  499SOL     OW 2395   2.969   6.211   0.243
  499SOL    HW1 2396   3.067   6.215   0.263
  499SOL    HW2 2397   2.939   6.116   0.243
  500SOL     OW 2398   5.512   1.936   6.189
  500SOL    HW1 2399   5.590   1.875   6.177
  500SOL    HW2 2400   5.520   1.983   6.277
  501SOL     OW 2401   1.737   1.582   4.373
  501SOL    HW1 2402   1.803   1.652   4.401
  501SOL    HW2 2403   1.646   1.623   4.366
  502SOL     OW 2404   2.503   3.959   6.753
  502SOL    HW1 2405   2.580   3.909   6.793
  502SOL    HW2 2406   2.468   3.909   6.674
  503SOL     OW 2407   3.386   5.223   0.999
  503SOL    HW1 2408   3.451   5.222   0.923
  503SOL    HW2 2409   3.382   5.132   1.041
  504SOL     OW 2410   6.015   0.174   0.363
  504SOL    HW1 2411   6.030   0.142   0.457
  504SOL    HW2 2412   5.971   0.102   0.310
  505SOL     OW 2413   6.612   4.029   5.641
  505SOL    HW1 2414   6.643   4.118   5.609
  505SOL    HW2 2415   6.555   4.042   5.723
  506SOL     OW 2416   3.137   5.212   3.182
  506SOL    HW1 2417   3.158   5.115   3.195
  506SOL    HW2 2418   3.040   5.223   3.161
  507SOL     OW 2419   3.379   0.264   2.848
  507SOL    HW1 2420   3.338   0.173   2.857
  507SOL    HW2 2421   3.338   0.326   2.914
  508SOL     OW 2422   0.485   5.270   3.583
  508SOL    HW1 2423   0.457   5.246   3.490
  508SOL    HW2 2424   0.505   5.187   3.634
  509SOL     OW 2425   4.285   0.141   6.531
  509SOL    HW1 2426   4.308   0.220   6.588
  509SOL    HW2 2427   4.364   0.080   6.525
  510SOL     OW 2428   6.293   4.069   6.959
  510SOL    HW1 2429   6.315   4.163   6.934
  510SOL    HW2 2430   6.302   4.009   6.879
  511SOL     OW 2431   0.954   1.260   6.733
  511SOL    HW1 2432   0.876   1.241   6.792
  511SOL    HW2 2433   0.923   1.297   6.646
  512SOL     OW 2434   0.207   2.140   4.099
  512SOL    HW1 2435   0.230   2.051   4.061
  512SOL    HW2 2436   0.149   2.190   4.034
  513SOL     OW 2437   5.895   6.446   2.911
  513SOL    HW1 2438   5.991   6.466   2.933
  513SOL    HW2 2439   5.853   6.396   2.987
  514SOL     OW 2440   4.924   1.584   4.843
  514SOL    HW1 2441   5.018   1.579   4.876
  514SOL    HW2 2442   4.906   1.674   4.804
  515SOL     OW 2443   3.074   0.762   0.149
  515SOL    HW1 2444   3.080   0.807   0.060
  515SOL    HW2 2445   3.162   0.770   0.196
  516SOL     OW 2446   1.547   6.113   1.805
  516SOL    HW1 2447   1.562   6.206   1.840
  516SOL    HW2 2448   1.470   6.114   1.741
  517SOL     OW 2449   3.161   5.188   1.464
  517SOL    HW1 2450   3.134   5.247   1.387
  517SOL    HW2 2451   3.082   5.173   1.523
  518SOL     OW 2452   2.236   6.041   4.064
  518SOL    HW1 2453   2.324   6.084   4.046
  518SOL    HW2 2454   2.166   6.111   4.078
  519SOL     OW 2455   6.556   0.198   2.570
  519SOL    HW1 2456   6.476   0.140   2.582
  519SOL    HW2 2457   6.630   0.167   2.631
  520SOL     OW 2458   2.179   5.064   1.212
  520SOL    HW1 2459   2.207   5.125   1.137
  520SOL    HW2 2460   2.194   4.969   1.184
  521SOL     OW 2461   6.488   5.863   5.531
  521SOL    HW1 2462   6.541   5.803   5.471
  521SOL    HW2 2463   6.538   5.947   5.549
  522SOL     OW 2464   4.018   4.654   6.873
  522SOL    HW1 2465   4.015   4.570   6.819
  522SOL    HW2 2466   4.112   4.673   6.900
  523SOL     OW 2467   1.898   6.872   6.028
  523SOL    HW1 2468   1.877   6.820   5.945
  523SOL    HW2 2469   1.812   6.901   6.071
  524SOL     OW 2470   0.207   1.068   0.871
  524SOL    HW1 2471   0.201   1.064   0.771
  524SOL    HW2 2472   0.164   1.152   0.903
  525SOL     OW 2473   0.901   3.281   3.416
  525SOL    HW1 2474   0.886   3.236   3.328
  525SOL    HW2 2475   0.898   3.380   3.404
  526SOL     OW 2476   4.251   6.786   5.207
  526SOL    HW1 2477   4.264   6.729   5.288
  526SOL    HW2 2478   4.328   6.775   5.145
  527SOL     OW 2479   0.435   0.805   1.069
  527SOL    HW1 2480   0.434   0.772   0.975
  527SOL    HW2 2481   0.476   0.896   1.072
  528SOL     OW 2482   6.932   2.494   4.630
  528SOL    HW1 2483   6.965   2.564   4.568
  528SOL    HW2 2484   6.840   2.465   4.602
  529SOL     OW 2485   1.253   0.924   5.977
  529SOL    HW1 2486   1.297   0.851   6.029
  529SOL    HW2 2487   1.286   0.924   5.883
  530SOL     OW 2488   2.909   4.827   1.680
  530SOL    HW1 2489   2.819   4.788   1.663
  530SOL    HW2 2490   2.977   4.782   1.621
  531SOL     OW 2491   1.019   0.748   6.339
  531SOL    HW1 2492   1.115   0.733   6.363
  531SOL    HW2 2493   0.983   0.668   6.292
  532SOL     OW 2494   2.845   0.424   6.788
  532SOL    HW1 2495   2.844   0.503   6.728
  532SOL    HW2 2496   2.932   0.375   6.776
  533SOL     OW 2497   4.421   0.190   4.503
  533SOL    HW1 2498   4.485   0.267   4.493
  533SOL    HW2 2499   4.395   0.157   4.413
  534SOL     OW 2500   1.896   4.333   1.769
  534SOL    HW1 2501   1.933   4.241   1.758
  534SOL    HW2 2502   1.901   4.359   1.866
  535SOL     OW 2503   4.822   3.796   4.549
  535SOL    HW1 2504   4.814   3.859   4.471
  535SOL    HW2 2505   4.731   3.768   4.579
  536SOL     OW 2506   6.740   6.463   1.269
  536SOL    HW1 2507   6.756   6.556   1.301
  536SOL    HW2 2508   6.826   6.425   1.234
  537SOL     OW 2509   2.567   1.962   2.224
  537SOL    HW1 2510   2.569   1.982   2.126
  537SOL    HW2 2511   2.525   2.039   2.273
  538SOL     OW 2512   4.302   4.782   5.069
  538SOL    HW1 2513   4.295   4.817   5.162
  538SOL    HW2 2514   4.339   4.689   5.071
  539SOL     OW 2515   2.239   0.071   6.808
  539SOL    HW1 2516   2.336   0.071   6.783
  539SOL    HW2 2517   2.231   0.071   6.908
  540SOL     OW 2518   2.047   1.320   5.365
  540SOL    HW1 2519   2.027   1.299   5.269
  540SOL    HW2 2520   2.032   1.238   5.420
  541SOL     OW 2521   5.108   6.320   3.606
  541SOL    HW1 2522   5.060   6.233   3.600
  541SOL    HW2 2523   5.102   6.368   3.518
  542SOL     OW 2524   3.429   6.261   6.121
  542SOL    HW1 2525   3.422   6.163   6.138
  542SOL    HW2 2526   3.342   6.305   6.142
  543SOL     OW 2527   6.000   2.633   4.163
  543SOL    HW1 2528   5.972   2.724   4.194
  543SOL    HW2 2529   6.050   2.587   4.236
  544SOL     OW 2530   1.336   3.558   1.097
  544SOL    HW1 2531   1.413   3.604   1.143
  544SOL    HW2 2532   1.362   3.534   1.004
  545SOL     OW 2533   6.569   5.390   0.591
  545SOL    HW1 2534   6.583   5.450   0.670
  545SOL    HW2 2535   6.574   5.443   0.507
  546SOL     OW 2536   6.821   4.543   2.005
  546SOL    HW1 2537   6.822   4.617   1.938
  546SOL    HW2 2538   6.894   4.557   2.072
  547SOL     OW 2539   3.865   0.158   6.807
  547SOL    HW1 2540   3.944   0.149   6.867
  547SOL    HW2 2541   3.896   0.174   6.713
  548SOL     OW 2542   4.239   2.892   0.134
  548SOL    HW1 2543   4.157   2.924   0.181
  548SOL    HW2 2544   4.223   2.891   0.035
  549SOL     OW 2545   5.527   2.166   3.638
  549SOL    HW1 2546   5.486   2.171   3.547
  549SOL    HW2 2547   5.563   2.256   3.663
  550SOL     OW 2548   6.837   5.658   3.661
  550SOL    HW1 2549   6.761   5.698   3.712
  550SOL    HW2 2550   6.898   5.611   3.724
  551SOL     OW 2551   5.349   0.443   0.261
  551SOL    HW1 2552   5.395   0.524   0.296
  551SOL    HW2 2553   5.338   0.377   0.335
  552SOL     OW 2554   0.394   0.168   4.809
  552SOL    HW1 2555   0.350   0.185   4.897
  552SOL    HW2 2556   0.332   0.195   4.735
  553SOL     OW 2557   3.742   2.377   5.928
  553SOL    HW1 2558   3.643   2.381   5.938
  553SOL    HW2 2559   3.771   2.281   5.919
  554SOL     OW 2560   6.622   6.199   0.578
  554SOL    HW1 2561   6.629   6.174   0.481
  554SOL    HW2 2562   6.612   6.116   0.633
  555SOL     OW 2563   2.815   3.883   6.082
  555SOL    HW1 2564   2.816   3.930   5.993
  555SOL    HW2 2565   2.909   3.859   6.107
  556SOL     OW 2566   6.286   6.062   2.825
  556SOL    HW1 2567   6.216   6.094   2.763
  556SOL    HW2 2568   6.254   5.980   2.873
  557SOL     OW 2569   5.492   3.931   6.275
  557SOL    HW1 2570   5.485   4.023   6.235
  557SOL    HW2 2571   5.519   3.940   6.371
  558SOL     OW 2572   3.651   3.606   2.193
  558SOL    HW1 2573   3.660   3.686   2.252
  558SOL    HW2 2574   3.620   3.528   2.247
  559SOL     OW 2575   6.667   1.240   5.994
  559SOL    HW1 2576   6.758   1.220   6.030
  559SOL    HW2 2577   6.653   1.189   5.909
  560SOL     OW 2578   0.022   2.675   3.677
  560SOL    HW1 2579   0.050   2.579   3.668
  560SOL    HW2 2580   0.103   2.732   3.688
  561SOL     OW 2581   0.702   4.256   0.018
  561SOL    HW1 2582   0.679   4.343   6.995
  561SOL    HW2 2583   0.795   4.260   0.055
  562SOL     OW 2584   4.574   6.461   3.674
  562SOL    HW1 2585   4.592   6.363   3.681
  562SOL    HW2 2586   4.507   6.487   3.744
  563SOL     OW 2587   1.129   1.205   4.097
  563SOL    HW1 2588   1.140   1.155   4.010
  563SOL    HW2 2589   1.218   1.240   4.126
  564SOL     OW 2590   5.867   1.512   6.018
  564SOL    HW1 2591   5.894   1.422   5.984
  564SOL    HW2 2592   5.945   1.556   6.063
  565SOL     OW 2593   2.893   3.579   3.501
  565SOL    HW1 2594   2.949   3.661   3.516
  565SOL    HW2 2595   2.882   3.563   3.403
  566SOL     OW 2596   2.026   1.797   3.806
  566SOL    HW1 2597   2.079   1.866   3.855
  566SOL    HW2 2598   2.082   1.715   3.794
  567SOL     OW 2599   1.931   3.299   5.210
  567SOL    HW1 2600   2.030   3.282   5.209
  567SOL    HW2 2601   1.901   3.313   5.304
  568SOL     OW 2602   0.968   6.924   6.919
  568SOL    HW1 2603   1.017   6.997   6.967
  568SOL    HW2 2604   0.907   6.877   6.983
  569SOL     OW 2605   5.307   3.400   6.025
  569SOL    HW1 2606   5.327   3.496   6.007
  569SOL    HW2 2607   5.235   3.368   5.962
  570SOL     OW 2608   3.926   0.524   6.046
  570SOL    HW1 2609   3.915   0.508   5.948
  570SOL    HW2 2610   3.836   0.531   6.089
  571SOL     OW 2611   2.470   4.392   1.828
  571SOL    HW1 2612   2.516   4.339   1.756
  571SOL    HW2 2613   2.532   4.464   1.860
  572SOL     OW 2614   3.154   1.197   4.541
  572SOL    HW1 2615   3.064   1.198   4.585
  572SOL    HW2 2616   3.154   1.129   4.467
  573SOL     OW 2617   0.424   0.650   5.374
  573SOL    HW1 2618   0.519   0.639   5.345
  573SOL    HW2 2619   0.420   0.705   5.457
  574SOL     OW 2620   2.170   1.227   6.238
  574SOL    HW1 2621   2.228   1.273   6.306
  574SOL    HW2 2622   2.198   1.255   6.146
  575SOL     OW 2623   3.710   4.021   0.120
  575SOL    HW1 2624   3.639   3.990   0.184
  575SOL    HW2 2625   3.777   3.948   0.107
  576SOL     OW 2626   0.855   0.974   2.901
  576SOL    HW1 2627   0.836   1.072   2.898
  576SOL    HW2 2628   0.953   0.958   2.896
  577SOL     OW 2629   0.315   0.645   2.183
  577SOL    HW1 2630   0.296   0.547   2.196
  577SOL    HW2 2631   0.407   0.665   2.214
  578SOL     OW 2632   3.919   6.638   0.149
  578SOL    HW1 2633   3.874   6.683   0.226
  578SOL    HW2 2634   3.860   6.642   0.068
  579SOL     OW 2635   1.007   3.700   2.014
  579SOL    HW1 2636   0.976   3.713   1.920
  579SOL    HW2 2637   0.929   3.706   2.076
  580SOL     OW 2638   4.759   5.129   4.419
  580SOL    HW1 2639   4.788   5.171   4.505
  580SOL    HW2 2640   4.739   5.032   4.434
  581SOL     OW 2641   2.084   2.274   4.116
  581SOL    HW1 2642   2.079   2.229   4.205
  581SOL    HW2 2643   2.033   2.360   4.119
  582SOL     OW 2644   5.733   4.315   5.338
  582SOL    HW1 2645   5.646   4.319   5.387
  582SOL    HW2 2646   5.730   4.242   5.269
  583SOL     OW 2647   3.258   6.070   5.820
  583SOL    HW1 2648   3.283   6.031   5.732
  583SOL    HW2 2649   3.341   6.095   5.871
  584SOL     OW 2650   4.019   0.641   5.294
  584SOL    HW1 2651   4.024   0.708   5.219
  584SOL    HW2 2652   4.091   0.573   5.283
  585SOL     OW 2653   3.315   6.541   1.438
  585SOL    HW1 2654   3.318   6.510   1.533
  585SOL    HW2 2655   3.220   6.551   1.409
  586SOL     OW 2656   3.141   6.988   0.679
  586SOL    HW1 2657   3.071   0.037   0.698
  586SOL    HW2 2658   3.213   0.008   0.623
  587SOL     OW 2659   4.830   1.452   2.673
  587SOL    HW1 2660   4.774   1.455   2.591
  587SOL    HW2 2661   4.774   1.474   2.753
  588SOL     OW 2662   1.982   4.572   2.791
  588SOL    HW1 2663   1.922   4.651   2.808
  588SOL    HW2 2664   2.008   4.569   2.695
  589SOL     OW 2665   3.462   5.022   0.641
  589SOL    HW1 2666   3.532   4.955   0.616
  589SOL    HW2 2667   3.506   5.101   0.684
  590SOL     OW 2668   3.075   2.291   6.289
  590SOL    HW1 2669   3.107   2.342   6.368
  590SOL    HW2 2670   3.053   2.354   6.215
  591SOL     OW 2671   2.638   6.743   3.639
  591SOL    HW1 2672   2.597   6.815   3.696
  591SOL    HW2 2673   2.621   6.763   3.543
  592SOL     OW 2674   5.134   2.316   4.554
  592SOL    HW1 2675   5.232   2.297   4.549
  592SOL    HW2 2676   5.103   2.358   4.469
  593SOL     OW 2677   1.673   1.256   6.804
  593SOL    HW1 2678   1.765   1.264   6.766
  593SOL    HW2 2679   1.678   1.227   6.899
  594SOL     OW 2680   3.679   1.030   4.056
  594SOL    HW1 2681   3.762   1.085   4.046
  594SOL    HW2 2682   3.637   1.048   4.145
  595SOL     OW 2683   6.091   4.276   2.211
  595SOL    HW1 2684   6.069   4.236   2.300
  595SOL    HW2 2685   6.178   4.324   2.216
  596SOL     OW 2686   6.033   4.829   4.498
  596SOL    HW1 2687   5.958   4.784   4.450
  596SOL    HW2 2688   6.072   4.765   4.564
  597SOL     OW 2689   3.330   1.756   6.625
  597SOL    HW1 2690   3.247   1.753   6.569
  597SOL    HW2 2691   3.383   1.839   6.602
  598SOL     OW 2692   3.210   3.518   3.105
  598SOL    HW1 2693   3.232   3.608   3.142
  598SOL    HW2 2694   3.141   3.527   3.033
  599SOL     OW 2695   1.692   4.748   1.715
  599SOL    HW1 2696   1.685   4.836   1.667
  599SOL    HW2 2697   1.613   4.691   1.692
  600SOL     OW 2698   0.320   3.609   5.181
  600SOL    HW1 2699   0.328   3.509   5.178
  600SOL    HW2 2700   0.261   3.635   5.257
  601SOL     OW 2701   0.348   6.493   5.857
  601SOL    HW1 2702   0.377   6.449   5.772
  601SOL    HW2 2703   0.269   6.551   5.839
  602SOL     OW 2704   1.561   1.079   3.328
  602SOL    HW1 2705   1.590   1.115   3.417
  602SOL    HW2 2706   1.532   0.984   3.338
  603SOL     OW 2707   1.799   1.726   3.980
  603SOL    HW1 2708   1.871   1.770   3.927
  603SOL    HW2 2709   1.759   1.651   3.928
  604SOL     OW 2710   5.799   2.671   0.781
  604SOL    HW1 2711   5.879   2.664   0.840
  604SOL    HW2 2712   5.725   2.614   0.817
  605SOL     OW 2713   5.997   6.443   0.890
  605SOL    HW1 2714   5.956   6.435   0.799
  605SOL    HW2 2715   6.002   6.540   0.915
  606SOL     OW 2716   3.365   6.706   4.917
  606SOL    HW1 2717   3.403   6.627   4.868
  606SOL    HW2 2718   3.300   6.753   4.858
  607SOL     OW 2719   1.559   2.602   6.252
  607SOL    HW1 2720   1.500   2.539   6.303
  607SOL    HW2 2721   1.653   2.570   6.257
  608SOL     OW 2722   3.274   1.094   6.933
  608SOL    HW1 2723   3.209   1.164   6.962
  608SOL    HW2 2724   3.344   1.082   7.003
  609SOL     OW 2725   3.679   2.922   2.229
  609SOL    HW1 2726   3.659   2.870   2.146
  609SOL    HW2 2727   3.668   3.019   2.211
  610SOL     OW 2728   4.775   3.586   1.776
  610SOL    HW1 2729   4.681   3.561   1.797
  610SOL    HW2 2730   4.776   3.660   1.708
  611SOL     OW 2731   4.077   1.103   2.705
  611SOL    HW1 2732   3.986   1.061   2.711
  611SOL    HW2 2733   4.107   1.131   2.796
  612SOL     OW 2734   4.920   4.510   4.175
  612SOL    HW1 2735   4.914   4.574   4.099
  612SOL    HW2 2736   4.995   4.536   4.235
  613SOL     OW 2737   3.861   5.042   6.527
  613SOL    HW1 2738   3.806   5.043   6.444
  613SOL    HW2 2739   3.806   5.008   6.603
  614SOL     OW 2740   2.629   6.550   6.482
  614SOL    HW1 2741   2.559   6.490   6.443
  614SOL    HW2 2742   2.719   6.511   6.465
  615SOL     OW 2743   0.068   4.595   3.023
  615SOL    HW1 2744   0.037   4.558   3.110
  615SOL    HW2 2745   0.064   4.524   2.953
  616SOL     OW 2746   6.410   3.445   4.000
  616SOL    HW1 2747   6.458   3.360   4.020
  616SOL    HW2 2748   6.316   3.439   4.034
  617SOL     OW 2749   2.857   0.066   5.658
  617SOL    HW1 2750   2.775   0.124   5.656
  617SOL    HW2 2751   2.831   6.990   5.647
  618SOL     OW 2752   1.726   0.578   3.495
  618SOL    HW1 2753   1.713   0.636   3.575
  618SOL    HW2 2754   1.771   0.493   3.523
  619SOL     OW 2755   1.058   1.863   6.433
  619SOL    HW1 2756   1.092   1.784   6.484
  619SOL    HW2 2757   0.991   1.832   6.365
  620SOL     OW 2758   4.607   3.416   0.621
  620SOL    HW1 2759   4.612   3.509   0.583
  620SOL    HW2 2760   4.659   3.413   0.706
  621SOL     OW 2761   6.995   6.057   0.499
  621SOL    HW1 2762   6.946   6.041   0.584
  621SOL    HW2 2763   0.060   6.005   0.498
  622SOL     OW 2764   0.259   0.601   6.881
  622SOL    HW1 2765   0.184   0.568   6.824
  622SOL    HW2 2766   0.297   0.525   6.933
  623SOL     OW 2767   0.443   4.497   4.744
  623SOL    HW1 2768   0.499   4.552   4.683
  623SOL    HW2 2769   0.347   4.525   4.737
  624SOL     OW 2770   0.890   1.723   1.647
  624SOL    HW1 2771   0.968   1.781   1.624
  624SOL    HW2 2772   0.919   1.627   1.645
  625SOL     OW 2773   1.350   1.556   2.839
  625SOL    HW1 2774   1.309   1.640   2.873
  625SOL    HW2 2775   1.422   1.579   2.773
  626SOL     OW 2776   2.980   5.963   4.624
  626SOL    HW1 2777   2.942   5.941   4.714
  626SOL    HW2 2778   3.067   5.914   4.612
  627SOL     OW 2779   5.461   6.745   6.891
  627SOL    HW1 2780   5.412   6.772   6.974
  627SOL    HW2 2781   5.559   6.761   6.904
  628SOL     OW 2782   5.550   4.106   3.161
  628SOL    HW1 2783   5.465   4.069   3.199
  628SOL    HW2 2784   5.565   4.069   3.069
  629SOL     OW 2785   1.367   0.175   0.798
  629SOL    HW1 2786   1.379   0.156   0.701
  629SOL    HW2 2787   1.288   0.235   0.811
  630SOL     OW 2788   2.934   1.302   1.056
  630SOL    HW1 2789   2.881   1.274   1.136
  630SOL    HW2 2790   3.010   1.360   1.086
  631SOL     OW 2791   2.611   0.696   4.431
  631SOL    HW1 2792   2.668   0.776   4.450
  631SOL    HW2 2793   2.625   0.668   4.336
  632SOL     OW 2794   2.926   0.350   1.321
  632SOL    HW1 2795   2.826   0.347   1.316
  632SOL    HW2 2796   2.953   0.392   1.408
  633SOL     OW 2797   2.279   6.934   5.066
  633SOL    HW1 2798   2.248   6.912   5.158
  633SOL    HW2 2799   2.203   6.973   5.014
  634SOL     OW 2800   2.443   5.563   2.002
  634SOL    HW1 2801   2.442   5.476   1.953
  634SOL    HW2 2802   2.418   5.637   1.940
  635SOL     OW 2803   2.851   7.013   2.862
  635SOL    HW1 2804   2.909   0.044   2.926
  635SOL    HW2 2805   2.768   0.046   2.843
  636SOL     OW 2806   4.382   5.427   6.561
  636SOL    HW1 2807   4.314   5.478   6.508
  636SOL    HW2 2808   4.472   5.469   6.547
  637SOL     OW 2809   6.198   4.558   6.723
  637SOL    HW1 2810   6.232   4.542   6.816
  637SOL    HW2 2811   6.174   4.471   6.682
  638SOL     OW 2812   5.212   1.258   3.202
  638SOL    HW1 2813   5.152   1.281   3.125
  638SOL    HW2 2814   5.284   1.327   3.209
  639SOL     OW 2815   4.775   3.784   1.550
  639SOL    HW1 2816   4.675   3.790   1.560
  639SOL    HW2 2817   4.817   3.865   1.591
  640SOL     OW 2818   2.210   3.309   5.228
  640SOL    HW1 2819   2.251   3.395   5.259
  640SOL    HW2 2820   2.229   3.237   5.295
  641SOL     OW 2821   0.035   5.386   5.220
  641SOL    HW1 2822   6.979   5.349   5.166
  641SOL    HW2 2823   0.002   5.459   5.279
  642SOL     OW 2824   1.989   4.624   6.107
  642SOL    HW1 2825   1.903   4.574   6.122
  642SOL    HW2 2826   2.029   4.647   6.196
  643SOL     OW 2827   6.095   5.979   5.012
  643SOL    HW1 2828   6.033   5.903   5.031
  643SOL    HW2 2829   6.042   6.062   4.995
  644SOL     OW 2830   2.218   6.338   1.698
  644SOL    HW1 2831   2.196   6.429   1.662
  644SOL    HW2 2832   2.291   6.346   1.765
  645SOL     OW 2833   6.808   2.426   2.967
  645SOL    HW1 2834   6.822   2.392   3.061
  645SOL    HW2 2835   6.892   2.414   2.914
  646SOL     OW 2836   1.135   2.886   4.464
  646SOL    HW1 2837   1.054   2.830   4.445
  646SOL    HW2 2838   1.136   2.965   4.403
  647SOL     OW 2839   5.257   3.633   0.694
  647SOL    HW1 2840   5.272   3.729   0.671
  647SOL    HW2 2841   5.304   3.611   0.779
  648SOL     OW 2842   4.586   2.540   4.523
  648SOL    HW1 2843   4.640   2.472   4.474
  648SOL    HW2 2844   4.503   2.497   4.559
  649SOL     OW 2845   4.380   4.537   1.826
  649SOL    HW1 2846   4.291   4.524   1.784
  649SOL    HW2 2847   4.412   4.450   1.865
  650SOL     OW 2848   5.096   4.193   0.625
  650SOL    HW1 2849   5.054   4.145   0.702
  650SOL    HW2 2850   5.042   4.275   0.603
  651SOL     OW 2851   1.174   5.719   6.398
  651SOL    HW1 2852   1.109   5.642   6.400
  651SOL    HW2 2853   1.216   5.728   6.488
  652SOL     OW 2854   4.737   1.816   2.751
  652SOL    HW1 2855   4.767   1.808   2.846
  652SOL    HW2 2856   4.812   1.788   2.691
  653SOL     OW 2857   3.729   4.809   2.539
  653SOL    HW1 2858   3.662   4.794   2.466
  653SOL    HW2 2859   3.816   4.768   2.512
  654SOL     OW 2860   6.786   5.785   6.485
  654SOL    HW1 2861   6.790   5.851   6.560
  654SOL    HW2 2862   6.699   5.735   6.489
  655SOL     OW 2863   0.724   1.864   6.868
  655SOL    HW1 2864   0.803   1.839   6.812
  655SOL    HW2 2865   0.752   1.927   6.940
  656SOL     OW 2866   2.426   6.212   1.027
  656SOL    HW1 2867   2.485   6.133   1.015
  656SOL    HW2 2868   2.340   6.197   0.979
  657SOL     OW 2869   4.032   1.101   0.212
  657SOL    HW1 2870   4.052   1.176   0.149
  657SOL    HW2 2871   4.094   1.024   0.193
  658SOL     OW 2872   3.493   5.604   6.623
  658SOL    HW1 2873   3.483   5.657   6.708
  658SOL    HW2 2874   3.532   5.514   6.645
  659SOL     OW 2875   3.961   0.801   6.005
  659SOL    HW1 2876   3.975   0.710   6.044
  659SOL    HW2 2877   3.868   0.832   6.026
  660SOL     OW 2878   3.806   6.115   3.036
  660SOL    HW1 2879   3.866   6.159   2.970
  660SOL    HW2 2880   3.847   6.119   3.127
  661SOL     OW 2881   5.524   5.113   2.546
  661SOL    HW1 2882   5.595   5.090   2.613
  661SOL    HW2 2883   5.564   5.168   2.473
  662SOL     OW 2884   3.929   2.016   0.607
  662SOL    HW1 2885   3.992   2.051   0.538
  662SOL    HW2 2886   3.927   2.077   0.686
  663SOL     OW 2887   1.596   4.318   4.953
  663SOL    HW1 2888   1.580   4.344   4.858
  663SOL    HW2 2889   1.687   4.349   4.982
  664SOL     OW 2890   5.959   0.069   6.013
  664SOL    HW1 2891   5.967   6.990   6.020
  664SOL    HW2 2892   5.954   0.095   5.916
  665SOL     OW 2893   0.868   4.371   1.918
  665SOL    HW1 2894   0.769   4.369   1.909
  665SOL    HW2 2895   0.908   4.410   1.835
  666SOL     OW 2896   4.399   1.438   1.679
  666SOL    HW1 2897   4.312   1.403   1.645
  666SOL    HW2 2898   4.397   1.538   1.679
  667SOL     OW 2899   0.916   0.222   2.472
  667SOL    HW1 2900   0.865   0.140   2.499
  667SOL    HW2 2901   1.014   0.206   2.481
  668SOL     OW 2902   5.951   3.064   0.138
  668SOL    HW1 2903   5.873   3.027   0.190
  668SOL    HW2 2904   5.917   3.124   0.066
  669SOL     OW 2905   5.282   1.688   3.266
  669SOL    HW1 2906   5.222   1.642   3.332
  669SOL    HW2 2907   5.332   1.762   3.312
  670SOL     OW 2908   3.389   1.908   2.581
  670SOL    HW1 2909   3.289   1.904   2.582
  670SOL    HW2 2910   3.420   1.982   2.640
  671SOL     OW 2911   1.954   6.276   2.005
  671SOL    HW1 2912   1.947   6.310   2.099
  671SOL    HW2 2913   1.982   6.351   1.945
  672SOL     OW 2914   0.586   0.140   2.217
  672SOL    HW1 2915   0.584   0.239   2.207
  672SOL    HW2 2916   0.680   0.109   2.228
  673SOL     OW 2917   6.084   0.017   6.778
  673SOL    HW1 2918   6.154   6.978   6.738
  673SOL    HW2 2919   5.996   7.019   6.734
  674SOL     OW 2920   5.104   0.302   3.983
  674SOL    HW1 2921   5.116   0.265   4.075
  674SOL    HW2 2922   5.073   0.397   3.990
  675SOL     OW 2923   0.714   3.715   2.691
  675SOL    HW1 2924   0.636   3.738   2.750
  675SOL    HW2 2925   0.680   3.676   2.605
  676SOL     OW 2926   2.359   6.049   6.597
  676SOL    HW1 2927   2.296   6.125   6.610
  676SOL    HW2 2928   2.430   6.052   6.667
  677SOL     OW 2929   6.100   1.471   1.239
  677SOL    HW1 2930   6.026   1.418   1.198
  677SOL    HW2 2931   6.179   1.472   1.178
  678SOL     OW 2932   0.874   5.363   3.754
  678SOL    HW1 2933   0.902   5.307   3.676
  678SOL    HW2 2934   0.781   5.396   3.739
  679SOL     OW 2935   4.692   2.259   5.042
  679SOL    HW1 2936   4.734   2.286   5.129
  679SOL    HW2 2937   4.731   2.313   4.967
  680SOL     OW 2938   6.428   6.726   3.652
  680SOL    HW1 2939   6.510   6.669   3.651
  680SOL    HW2 2940   6.386   6.724   3.742
  681SOL     OW 2941   4.684   4.935   3.030
  681SOL    HW1 2942   4.645   4.876   3.100
  681SOL    HW2 2943   4.779   4.957   3.053
  682SOL     OW 2944   6.906   1.614   3.208
  682SOL    HW1 2945   6.834   1.607   3.277
  682SOL    HW2 2946   6.935   1.709   3.199
  683SOL     OW 2947   3.463   3.834   1.055
  683SOL    HW1 2948   3.439   3.919   1.100
  683SOL    HW2 2949   3.417   3.758   1.102
  684SOL     OW 2950   6.285   1.047   5.421
  684SOL    HW1 2951   6.218   1.121   5.410
  684SOL    HW2 2952   6.325   1.025   5.332
  685SOL     OW 2953   3.148   6.609   3.096
  685SOL    HW1 2954   3.133   6.694   3.046
  685SOL    HW2 2955   3.132   6.625   3.193
  686SOL     OW 2956   4.324   1.052   5.226
  686SOL    HW1 2957   4.414   1.019   5.256
  686SOL    HW2 2958   4.264   1.062   5.305
  687SOL     OW 2959   6.950   1.537   4.375
  687SOL    HW1 2960   6.889   1.477   4.322
  687SOL    HW2 2961   6.896   1.586   4.444
  688SOL     OW 2962   5.853   1.798   6.931
  688SOL    HW1 2963   5.904   1.773   6.849
  688SOL    HW2 2964   5.758   1.815   6.907
  689SOL     OW 2965   1.955   5.502   0.341
  689SOL    HW1 2966   1.980   5.595   0.315
  689SOL    HW2 2967   2.029   5.439   0.315
  690SOL     OW 2968   5.289   3.929   3.423
  690SOL    HW1 2969   5.375   3.884   3.399
  690SOL    HW2 2970   5.273   4.005   3.361
  691SOL     OW 2971   5.965   1.158   1.291
  691SOL    HW1 2972   5.880   1.126   1.331
  691SOL    HW2 2973   6.024   1.197   1.363
  692SOL     OW 2974   1.839   1.323   4.082
  692SOL    HW1 2975   1.804   1.323   4.176
  692SOL    HW2 2976   1.777   1.378   4.024
  693SOL     OW 2977   5.772   5.015   3.384
  693SOL    HW1 2978   5.693   5.068   3.414
  693SOL    HW2 2979   5.801   4.954   3.457
  694SOL     OW 2980   4.208   5.647   4.396
  694SOL    HW1 2981   4.243   5.561   4.434
  694SOL    HW2 2982   4.128   5.628   4.339
  695SOL     OW 2983   4.973   6.591   3.783
  695SOL    HW1 2984   4.963   6.532   3.863
  695SOL    HW2 2985   4.933   6.545   3.703
  696SOL     OW 2986   5.557   4.073   2.316
  696SOL    HW1 2987   5.499   4.134   2.369
  696SOL    HW2 2988   5.652   4.105   2.319
  697SOL     OW 2989   1.019   6.720   2.460
  697SOL    HW1 2990   1.072   6.726   2.375
  697SOL    HW2 2991   1.079   6.738   2.537
  698SOL     OW 2992   5.644   6.099   6.184
  698SOL    HW1 2993   5.709   6.035   6.224
  698SOL    HW2 2994   5.570   6.117   6.249
  699SOL     OW 2995   4.150   3.814   0.476
  699SOL    HW1 2996   4.218   3.887   0.478
  699SOL    HW2 2997   4.068   3.844   0.524
  700SOL     OW 2998   3.607   6.636   5.425
  700SOL    HW1 2999   3.677   6.568   5.403
  700SOL    HW2 3000   3.545   6.599   5.494
  701SOL     OW 3001   4.337   4.924   1.533
  701SOL    HW1 3002   4.262   4.873   1.574
  701SOL    HW2 3003   4.359   4.886   1.443
  702SOL     OW 3004   4.423   0.546   5.096
  702SOL    HW1 3005   4.325   0.559   5.082
  702SOL    HW2 3006   4.468   0.636   5.097
  703SOL     OW 3007   2.937   2.983   6.983
  703SOL    HW1 3008   2.930   2.991   6.884
  703SOL    HW2 3009   3.033   2.973   7.009
  704SOL     OW 3010   3.767   1.164   6.002
  704SOL    HW1 3011   3.710   1.244   5.985
  704SOL    HW2 3012   3.852   1.172   5.949
  705SOL     OW 3013   0.270   6.171   5.696
  705SOL    HW1 3014   0.209   6.192   5.773
  705SOL    HW2 3015   0.306   6.078   5.707
  706SOL     OW 3016   3.958   0.878   5.142
  706SOL    HW1 3017   3.898   0.858   5.219
  706SOL    HW2 3018   3.961   0.976   5.127
  707SOL     OW 3019   2.707   5.406   4.245
  707SOL    HW1 3020   2.776   5.386   4.176
  707SOL    HW2 3021   2.709   5.503   4.268
  708SOL     OW 3022   4.065   6.136   4.057
  708SOL    HW1 3023   4.045   6.038   4.061
  708SOL    HW2 3024   4.071   6.165   3.962
  709SOL     OW 3025   2.605   0.459   1.713
  709SOL    HW1 3026   2.549   0.437   1.793
  709SOL    HW2 3027   2.700   0.473   1.742
  710SOL     OW 3028   5.046   3.735   2.420
  710SOL    HW1 3029   4.966   3.783   2.456
  710SOL    HW2 3030   5.048   3.746   2.320
  711SOL     OW 3031   0.507   1.827   0.293
  711SOL    HW1 3032   0.537   1.854   0.384
  711SOL    HW2 3033   0.425   1.879   0.268
  712SOL     OW 3034   5.377   3.994   6.876
  712SOL    HW1 3035   5.323   3.977   6.959
  712SOL    HW2 3036   5.331   3.953   6.797
  713SOL     OW 3037   4.065   3.224   5.732
  713SOL    HW1 3038   4.148   3.177   5.761
  713SOL    HW2 3039   4.089   3.309   5.686
  714SOL     OW 3040   5.312   6.383   2.944
  714SOL    HW1 3041   5.386   6.337   2.992
  714SOL    HW2 3042   5.226   6.368   2.994
  715SOL     OW 3043   6.071   4.998   5.353
  715SOL    HW1 3044   6.056   4.900   5.335
  715SOL    HW2 3045   6.044   5.019   5.446
  716SOL     OW 3046   3.076   2.104   3.471
  716SOL    HW1 3047   2.996   2.114   3.412
  716SOL    HW2 3048   3.159   2.107   3.415
  717SOL     OW 3049   5.289   4.980   3.815
  717SOL    HW1 3050   5.216   4.914   3.830
  717SOL    HW2 3051   5.373   4.932   3.789
  718SOL     OW 3052   6.145   2.130   5.175
  718SOL    HW1 3053   6.108   2.216   5.210
  718SOL    HW2 3054   6.128   2.057   5.241
  719SOL     OW 3055   4.757   6.315   3.428
  719SOL    HW1 3056   4.719   6.267   3.508
  719SOL    HW2 3057   4.740   6.413   3.437
  720SOL     OW 3058   2.963   1.316   1.609
  720SOL    HW1 3059   2.932   1.223   1.628
  720SOL    HW2 3060   2.956   1.371   1.692
  721SOL     OW 3061   6.557   2.991   1.980
  721SOL    HW1 3062   6.530   2.904   2.020
  721SOL    HW2 3063   6.485   3.059   1.995
  722SOL     OW 3064   4.672   6.244   1.077
  722SOL    HW1 3065   4.694   6.206   0.988
  722SOL    HW2 3066   4.713   6.335   1.086
  723SOL     OW 3067   2.131   0.556   4.596
  723SOL    HW1 3068   2.047   0.611   4.600
  723SOL    HW2 3069   2.118   0.473   4.651
  724SOL     OW 3070   1.099   2.078   4.447
  724SOL    HW1 3071   1.021   2.138   4.465
  724SOL    HW2 3072   1.168   2.089   4.518
  725SOL     OW 3073   1.863   4.866   2.743
  725SOL    HW1 3074   1.871   4.906   2.652
  725SOL    HW2 3075   1.948   4.882   2.793
  726SOL     OW 3076   2.210   3.874   0.639
  726SOL    HW1 3077   2.197   3.885   0.540
  726SOL    HW2 3078   2.155   3.797   0.671
  727SOL     OW 3079   3.392   5.227   4.947
  727SOL    HW1 3080   3.492   5.228   4.946
  727SOL    HW2 3081   3.360   5.132   4.952
  728SOL     OW 3082   0.116   3.321   3.800
  728SOL    HW1 3083   0.086   3.257   3.871
  728SOL    HW2 3084   0.115   3.276   3.711
  729SOL     OW 3085   0.659   4.188   0.745
  729SOL    HW1 3086   0.567   4.223   0.724
  729SOL    HW2 3087   0.680   4.206   0.841
  730SOL     OW 3088   4.310   1.593   3.154
  730SOL    HW1 3089   4.258   1.566   3.073
  730SOL    HW2 3090   4.366   1.673   3.133
  731SOL     OW 3091   4.592   4.385   4.578
  731SOL    HW1 3092   4.560   4.476   4.552
  731SOL    HW2 3093   4.527   4.316   4.547
  732SOL     OW 3094   4.073   0.737   4.551
  732SOL    HW1 3095   4.055   0.651   4.599
  732SOL    HW2 3096   4.158   0.777   4.585
  733SOL     OW 3097   6.367   5.341   3.887
  733SOL    HW1 3098   6.326   5.340   3.796
  733SOL    HW2 3099   6.430   5.418   3.894
  734SOL     OW 3100   6.529   6.534   2.834
  734SOL    HW1 3101   6.617   6.539   2.787
  734SOL    HW2 3102   6.456   6.555   2.770
  735SOL     OW 3103   4.119   0.139   2.459
  735SOL    HW1 3104   4.033   0.177   2.495
  735SOL    HW2 3105   4.168   0.091   2.532
  736SOL     OW 3106   1.653   1.950   3.589
  736SOL    HW1 3107   1.610   1.986   3.506
  736SOL    HW2 3108   1.589   1.956   3.665
  737SOL     OW 3109   3.433   1.307   6.242
  737SOL    HW1 3110   3.413   1.225   6.189
  737SOL    HW2 3111   3.457   1.282   6.335
  738SOL     OW 3112   1.516   4.849   0.305
  738SOL    HW1 3113   1.583   4.921   0.287
  738SOL    HW2 3114   1.465   4.828   0.222
  739SOL     OW 3115   2.019   6.932   3.659
  739SOL    HW1 3116   2.005   6.919   3.757
  739SOL    HW2 3117   2.110   6.899   3.634
  740SOL     OW 3118   4.997   3.566   3.469
  740SOL    HW1 3119   4.958   3.588   3.558
  740SOL    HW2 3120   5.091   3.601   3.464
  741SOL     OW 3121   3.137   1.176   3.003
  741SOL    HW1 3122   3.056   1.150   3.055
  741SOL    HW2 3123   3.142   1.276   2.997
  742SOL     OW 3124   1.492   7.004   2.127
  742SOL    HW1 3125   1.531   0.013   2.214
  742SOL    HW2 3126   1.395   6.981   2.141
  743SOL     OW 3127   0.391   6.237   2.811
  743SOL    HW1 3128   0.366   6.144   2.783
  743SOL    HW2 3129   0.430   6.286   2.732
  744SOL     OW 3130   5.151   1.422   0.698
  744SOL    HW1 3131   5.201   1.367   0.765
  744SOL    HW2 3132   5.054   1.424   0.723
  745SOL     OW 3133   2.258   6.256   5.022
  745SOL    HW1 3134   2.222   6.283   4.933
  745SOL    HW2 3135   2.346   6.301   5.038
  746SOL     OW 3136   0.171   4.890   4.395
  746SOL    HW1 3137   0.115   4.923   4.471
  746SOL    HW2 3138   0.255   4.944   4.390
  747SOL     OW 3139   4.521   5.090   2.898
  747SOL    HW1 3140   4.589   5.092   2.825
  747SOL    HW2 3141   4.559   5.041   2.977
  748SOL     OW 3142   5.482   4.747   1.088
  748SOL    HW1 3143   5.449   4.659   1.121
  748SOL    HW2 3144   5.582   4.743   1.076
  749SOL     OW 3145   5.079   4.642   5.307
  749SOL    HW1 3146   5.041   4.726   5.343
  749SOL    HW2 3147   5.111   4.657   5.213
  750SOL     OW 3148   2.260   2.142   3.354
  750SOL    HW1 3149   2.304   2.161   3.266
  750SOL    HW2 3150   2.166   2.113   3.337
  751SOL     OW 3151   3.635   0.967   0.510
  751SOL    HW1 3152   3.556   0.990   0.453
  751SOL    HW2 3153   3.680   1.050   0.541
  752SOL     OW 3154   3.319   2.854   5.024
  752SOL    HW1 3155   3.319   2.756   5.003
  752SOL    HW2 3156   3.309   2.906   4.939
  753SOL     OW 3157   3.575   4.079   3.790
  753SOL    HW1 3158   3.649   4.140   3.761
  753SOL    HW2 3159   3.503   4.078   3.721
  754SOL     OW 3160   4.686   0.597   6.974
  754SOL    HW1 3161   4.745   0.628   6.899
  754SOL    HW2 3162   4.660   0.675   0.010
  755SOL     OW 3163   4.544   4.638   5.177
  755SOL    HW1 3164   4.542   4.594   5.267
  755SOL    HW2 3165   4.488   4.586   5.113
  756SOL     OW 3166   2.863   5.074   6.378
  756SOL    HW1 3167   2.951   5.028   6.369
  756SOL    HW2 3168   2.877   5.173   6.375
  757SOL     OW 3169   1.728   6.603   1.878
  757SOL    HW1 3170   1.807   6.563   1.924
  757SOL    HW2 3171   1.701   6.687   1.925
  758SOL     OW 3172   4.997   1.307   4.554
  758SOL    HW1 3173   4.988   1.243   4.631
  758SOL    HW2 3174   5.074   1.280   4.497
  759SOL     OW 3175   0.153   3.823   4.248
  759SOL    HW1 3176   0.139   3.918   4.221
  759SOL    HW2 3177   0.164   3.767   4.166
  760SOL     OW 3178   6.552   5.287   3.518
  760SOL    HW1 3179   6.600   5.259   3.435
  760SOL    HW2 3180   6.487   5.360   3.495
  761SOL     OW 3181   5.085   4.961   6.085
  761SOL    HW1 3182   5.067   4.867   6.056
  761SOL    HW2 3183   4.998   5.010   6.092
  762SOL     OW 3184   3.946   5.593   3.872
  762SOL    HW1 3185   3.929   5.508   3.922
  762SOL    HW2 3186   4.037   5.589   3.832
  763SOL     OW 3187   5.147   0.617   0.760
  763SOL    HW1 3188   5.179   0.526   0.789
  763SOL    HW2 3189   5.212   0.657   0.696
  764SOL     OW 3190   5.177   6.276   5.110
  764SOL    HW1 3191   5.153   6.180   5.094
  764SOL    HW2 3192   5.161   6.297   5.207
  765SOL     OW 3193   5.958   6.538   0.449
  765SOL    HW1 3194   5.943   6.520   0.352
  765SOL    HW2 3195   6.039   6.487   0.480
  766SOL     OW 3196   2.590   2.037   4.268
  766SOL    HW1 3197   2.573   2.113   4.330
  766SOL    HW2 3198   2.611   1.955   4.321
  767SOL     OW 3199   6.883   5.979   4.004
  767SOL    HW1 3200   6.925   6.033   3.932
  767SOL    HW2 3201   6.891   5.882   3.982
  768SOL     OW 3202   2.263   5.337   2.287
  768SOL    HW1 3203   2.165   5.319   2.275
  768SOL    HW2 3204   2.297   5.390   2.209
  769SOL     OW 3205   3.184   1.994   5.268
  769SOL    HW1 3206   3.223   2.078   5.306
  769SOL    HW2 3207   3.171   2.004   5.170
  770SOL     OW 3208   1.402   4.472   5.867
  770SOL    HW1 3209   1.353   4.552   5.903
  770SOL    HW2 3210   1.451   4.497   5.784
  771SOL     OW 3211   1.264   4.863   2.656
  771SOL    HW1 3212   1.253   4.802   2.735
  771SOL    HW2 3213   1.326   4.821   2.590
  772SOL     OW 3214   5.286   4.548   0.353
  772SOL    HW1 3215   5.352   4.604   0.404
  772SOL    HW2 3216   5.325   4.523   0.265
  773SOL     OW 3217   2.356   4.533   3.550
  773SOL    HW1 3218   2.260   4.552   3.572
  773SOL    HW2 3219   2.369   4.535   3.451
  774SOL     OW 3220   2.375   1.479   3.805
  774SOL    HW1 3221   2.389   1.510   3.711
  774SOL    HW2 3222   2.436   1.529   3.866
  775SOL     OW 3223   1.166   4.636   2.794
  775SOL    HW1 3224   1.179   4.638   2.893
  775SOL    HW2 3225   1.209   4.554   2.756
  776SOL     OW 3226   2.431   5.265   6.260
  776SOL    HW1 3227   2.483   5.310   6.187
  776SOL    HW2 3228   2.334   5.287   6.249
  777SOL     OW 3229   2.149   3.782   6.062
  777SOL    HW1 3230   2.160   3.686   6.090
  777SOL    HW2 3231   2.141   3.786   5.962
  778SOL     OW 3232   3.429   5.917   6.638
  778SOL    HW1 3233   3.449   5.936   6.735
  778SOL    HW2 3234   3.441   5.819   6.620
  779SOL     OW 3235   6.058   1.992   3.040
  779SOL    HW1 3236   6.034   2.057   2.968
  779SOL    HW2 3237   6.152   1.961   3.027
  780SOL     OW 3238   6.790   2.085   4.232
  780SOL    HW1 3239   6.769   2.174   4.271
  780SOL    HW2 3240   6.754   2.080   4.139
  781SOL     OW 3241   0.392   4.475   6.640
  781SOL    HW1 3242   0.293   4.462   6.637
  781SOL    HW2 3243   0.438   4.387   6.629
  782SOL     OW 3244   2.430   4.088   5.416
  782SOL    HW1 3245   2.481   4.053   5.494
  782SOL    HW2 3246   2.446   4.029   5.337
  783SOL     OW 3247   6.677   5.161   6.928
  783SOL    HW1 3248   6.597   5.209   6.964
  783SOL    HW2 3249   6.760   5.202   6.966
  784SOL     OW 3250   2.062   5.757   0.798
  784SOL    HW1 3251   2.068   5.851   0.763
  784SOL    HW2 3252   2.133   5.743   0.867
  785SOL     OW 3253   0.501   0.575   4.473
  785SOL    HW1 3254   0.499   0.571   4.573
  785SOL    HW2 3255   0.465   0.489   4.436
  786SOL     OW 3256   5.986   0.698   4.196
  786SOL    HW1 3257   5.887   0.692   4.181
  786SOL    HW2 3258   6.004   0.731   4.289
  787SOL     OW 3259   1.968   6.622   1.300
  787SOL    HW1 3260   1.873   6.635   1.327
  787SOL    HW2 3261   2.010   6.710   1.278
  788SOL     OW 3262   2.186   3.127   2.347
  788SOL    HW1 3263   2.224   3.128   2.255
  788SOL    HW2 3264   2.198   3.036   2.387
  789SOL     OW 3265   3.952   4.879   2.829
  789SOL    HW1 3266   4.003   4.858   2.913
  789SOL    HW2 3267   3.853   4.875   2.848
  790SOL     OW 3268   0.465   3.242   2.463
  790SOL    HW1 3269   0.415   3.326   2.487
  790SOL    HW2 3270   0.401   3.175   2.427
  791SOL     OW 3271   2.809   0.447   3.786
  791SOL    HW1 3272   2.812   0.348   3.784
  791SOL    HW2 3273   2.803   0.479   3.881
  792SOL     OW 3274   2.390   0.562   0.740
  792SOL    HW1 3275   2.375   0.648   0.789
  792SOL    HW2 3276   2.355   0.486   0.793
  793SOL     OW 3277   2.044   5.920   4.665
  793SOL    HW1 3278   2.058   5.961   4.575
  793SOL    HW2 3279   2.133   5.895   4.704
  794SOL     OW 3280   2.999   3.587   2.540
  794SOL    HW1 3281   2.992   3.502   2.592
  794SOL    HW2 3282   2.968   3.663   2.597
  795SOL     OW 3283   4.954   0.697   5.280
  795SOL    HW1 3284   5.029   0.659   5.226
  795SOL    HW2 3285   4.867   0.673   5.237
  796SOL     OW 3286   0.786   2.029   0.048
  796SOL    HW1 3287   0.873   2.071   0.024
  796SOL    HW2 3288   0.770   2.039   0.146
  797SOL     OW 3289   3.349   6.708   1.229
  797SOL    HW1 3290   3.278   6.771   1.198
  797SOL    HW2 3291   3.318   6.659   1.310
  798SOL     OW 3292   5.218   4.191   1.477
  798SOL    HW1 3293   5.203   4.169   1.574
  798SOL    HW2 3294   5.213   4.290   1.465
  799SOL     OW 3295   2.809   2.660   5.789
  799SOL    HW1 3296   2.858   2.736   5.747
  799SOL    HW2 3297   2.846   2.643   5.881
  800SOL     OW 3298   5.799   3.119   3.438
  800SOL    HW1 3299   5.817   3.211   3.406
  800SOL    HW2 3300   5.866   3.093   3.508
  801SOL     OW 3301   1.981   5.895   6.560
  801SOL    HW1 3302   2.074   5.864   6.542
  801SOL    HW2 3303   1.985   5.985   6.603
  802SOL     OW 3304   4.459   2.404   6.255
  802SOL    HW1 3305   4.492   2.496   6.236
  802SOL    HW2 3306   4.394   2.406   6.331
  803SOL     OW 3307   2.162   1.957   3.986
  803SOL    HW1 3308   2.219   1.937   4.066
  803SOL    HW2 3309   2.078   2.002   4.015
  804SOL     OW 3310   5.001   0.181   2.803
  804SOL    HW1 3311   5.076   0.215   2.746
  804SOL    HW2 3312   5.035   0.112   2.867
  805SOL     OW 3313   3.271   0.803   4.014
  805SOL    HW1 3314   3.263   0.880   3.951
  805SOL    HW2 3315   3.343   0.821   4.081
  806SOL     OW 3316   3.132   6.568   5.816
  806SOL    HW1 3317   3.163   6.475   5.834
  806SOL    HW2 3318   3.200   6.633   5.851
  807SOL     OW 3319   1.051   5.966   6.009
  807SOL    HW1 3320   0.959   5.977   5.970
  807SOL    HW2 3321   1.047   5.981   6.108
  808SOL     OW 3322   5.049   2.682   6.504
  808SOL    HW1 3323   4.970   2.712   6.451
  808SOL    HW2 3324   5.078   2.592   6.472
  809SOL     OW 3325   3.149   5.797   6.425
  809SOL    HW1 3326   3.059   5.775   6.462
  809SOL    HW2 3327   3.145   5.887   6.382
  810SOL     OW 3328   3.532   4.006   6.907
  810SOL    HW1 3329   3.546   4.008   7.006
  810SOL    HW2 3330   3.512   3.912   6.878
  811SOL     OW 3331   5.828   5.487   4.185
  811SOL    HW1 3332   5.746   5.526   4.227
  811SOL    HW2 3333   5.801   5.429   4.108
  812SOL     OW 3334   1.043   3.321   1.426
  812SOL    HW1 3335   1.063   3.346   1.332
  812SOL    HW2 3336   1.090   3.235   1.449
  813SOL     OW 3337   2.266   1.588   4.926
  813SOL    HW1 3338   2.172   1.555   4.919
  813SOL    HW2 3339   2.292   1.633   4.840
  814SOL     OW 3340   0.365   4.272   2.125
  814SOL    HW1 3341   0.309   4.314   2.197
  814SOL    HW2 3342   0.321   4.287   2.036
  815SOL     OW 3343   4.800   2.826   4.769
  815SOL    HW1 3344   4.724   2.764   4.788
  815SOL    HW2 3345   4.823   2.821   4.672
  816SOL     OW 3346   5.240   3.872   6.366
  816SOL    HW1 3347   5.332   3.904   6.344
  816SOL    HW2 3348   5.175   3.947   6.356
  817SOL     OW 3349   6.865   5.033   6.633
  817SOL    HW1 3350   6.778   5.052   6.680
  817SOL    HW2 3351   6.861   4.942   6.591
  818SOL     OW 3352   0.228   1.581   5.034
  818SOL    HW1 3353   0.288   1.504   5.012
  818SOL    HW2 3354   0.267   1.634   5.109
  819SOL     OW 3355   5.098   2.973   1.433
  819SOL    HW1 3356   5.008   2.932   1.447
  819SOL    HW2 3357   5.160   2.943   1.505
  820SOL     OW 3358   2.864   1.952   4.888
  820SOL    HW1 3359   2.869   2.021   4.816
  820SOL    HW2 3360   2.802   1.982   4.959
  821SOL     OW 3361   4.724   4.021   6.839
  821SOL    HW1 3362   4.708   3.922   6.833
  821SOL    HW2 3363   4.822   4.039   6.827
  822SOL     OW 3364   6.987   5.117   3.627
  822SOL    HW1 3365   6.953   5.182   3.559
  822SOL    HW2 3366   6.911   5.059   3.658
  823SOL     OW 3367   1.995   2.375   4.545
  823SOL    HW1 3368   1.955   2.381   4.453
  823SOL    HW2 3369   1.979   2.462   4.593
  824SOL     OW 3370   5.255   0.262   6.940
  824SOL    HW1 3371   5.213   0.303   0.000
  824SOL    HW2 3372   5.267   0.331   6.869
  825SOL     OW 3373   6.083   5.803   0.513
  825SOL    HW1 3374   6.086   5.874   0.442
  825SOL    HW2 3375   5.988   5.789   0.542
  826SOL     OW 3376   3.916   1.818   0.399
  826SOL    HW1 3377   4.010   1.786   0.408
  826SOL    HW2 3378   3.900   1.848   0.305
  827SOL     OW 3379   3.208   3.422   4.444
  827SOL    HW1 3380   3.258   3.452   4.526
  827SOL    HW2 3381   3.173   3.330   4.458
  828SOL     OW 3382   0.275   6.809   6.479
  828SOL    HW1 3383   0.353   6.769   6.525
  828SOL    HW2 3384   0.304   6.892   6.431
  829SOL     OW 3385   3.791   3.313   1.803
  829SOL    HW1 3386   3.795   3.246   1.878
  829SOL    HW2 3387   3.696   3.326   1.775
  830SOL     OW 3388   6.938   4.503   6.060
  830SOL    HW1 3389   0.018   4.497   6.069
  830SOL    HW2 3390   6.896   4.435   6.120
  831SOL     OW 3391   5.738   1.228   2.520
  831SOL    HW1 3392   5.747   1.240   2.619
  831SOL    HW2 3393   5.821   1.185   2.484
  832SOL     OW 3394   2.941   1.945   4.278
  832SOL    HW1 3395   2.907   1.890   4.202
  832SOL    HW2 3396   2.969   2.035   4.244
  833SOL     OW 3397   3.659   3.211   0.255
  833SOL    HW1 3398   3.577   3.224   0.198
  833SOL    HW2 3399   3.737   3.256   0.211
  834SOL     OW 3400   5.416   2.957   0.300
  834SOL    HW1 3401   5.464   2.894   0.361
  834SOL    HW2 3402   5.333   2.914   0.265
  835SOL     OW 3403   0.079   0.007   4.491
  835SOL    HW1 3404   0.046   6.941   4.452
  835SOL    HW2 3405   0.008   0.046   4.549
  836SOL     OW 3406   5.131   0.424   4.422
  836SOL    HW1 3407   5.111   0.363   4.499
  836SOL    HW2 3408   5.188   0.500   4.453
  837SOL     OW 3409   1.605   0.515   6.560
  837SOL    HW1 3410   1.589   0.599   6.612
  837SOL    HW2 3411   1.606   0.437   6.622
  838SOL     OW 3412   1.849   5.981   3.110
  838SOL    HW1 3413   1.827   6.068   3.064
  838SOL    HW2 3414   1.915   5.998   3.183
  839SOL     OW 3415   1.246   2.439   0.557
  839SOL    HW1 3416   1.179   2.505   0.593
  839SOL    HW2 3417   1.248   2.359   0.617
  840SOL     OW 3418   4.410   4.902   1.033
  840SOL    HW1 3419   4.503   4.939   1.029
  840SOL    HW2 3420   4.360   4.931   0.951
  841SOL     OW 3421   2.198   5.191   6.649
  841SOL    HW1 3422   2.283   5.224   6.609
  841SOL    HW2 3423   2.202   5.197   6.748
  842SOL     OW 3424   4.349   6.236   0.696
  842SOL    HW1 3425   4.336   6.157   0.755
  842SOL    HW2 3426   4.336   6.320   0.748
  843SOL     OW 3427   1.383   0.493   1.758
  843SOL    HW1 3428   1.358   0.590   1.760
  843SOL    HW2 3429   1.324   0.444   1.694
  844SOL     OW 3430   6.800   0.433   1.746
  844SOL    HW1 3431   6.798   0.377   1.664
  844SOL    HW2 3432   6.890   0.429   1.789
  845SOL     OW 3433   3.675   1.450   2.217
  845SOL    HW1 3434   3.612   1.505   2.273
  845SOL    HW2 3435   3.680   1.358   2.255
  846SOL     OW 3436   2.346   2.221   0.702
  846SOL    HW1 3437   2.294   2.293   0.747
  846SOL    HW2 3438   2.327   2.133   0.747
  847SOL     OW 3439   2.648   3.775   1.572
  847SOL    HW1 3440   2.658   3.732   1.482
  847SOL    HW2 3441   2.738   3.800   1.607
  848SOL     OW 3442   6.517   6.438   0.200
  848SOL    HW1 3443   6.565   6.443   0.112
  848SOL    HW2 3444   6.472   6.525   0.218
  849SOL     OW 3445   5.852   3.123   6.715
  849SOL    HW1 3446   5.877   3.058   6.644
  849SOL    HW2 3447   5.811   3.205   6.673
  850SOL     OW 3448   1.768   0.953   4.601
  850SOL    HW1 3449   1.823   1.015   4.545
  850SOL    HW2 3450   1.771   0.982   4.696
  851SOL     OW 3451   5.110   2.818   6.738
  851SOL    HW1 3452   5.111   2.748   6.666
  851SOL    HW2 3453   5.192   2.875   6.730
  852SOL     OW 3454   6.890   4.689   1.554
  852SOL    HW1 3455   6.809   4.637   1.527
  852SOL    HW2 3456   6.867   4.786   1.561
  853SOL     OW 3457   3.029   3.186   0.650
  853SOL    HW1 3458   3.121   3.150   0.668
  853SOL    HW2 3459   3.008   3.178   0.553
  854SOL     OW 3460   6.834   0.160   5.329
  854SOL    HW1 3461   6.880   0.099   5.265
  854SOL    HW2 3462   6.735   0.145   5.325
  855SOL     OW 3463   5.333   1.841   0.400
  855SOL    HW1 3464   5.286   1.765   0.445
  855SOL    HW2 3465   5.429   1.817   0.386
  856SOL     OW 3466   1.954   5.303   1.819
  856SOL    HW1 3467   1.906   5.215   1.808
  856SOL    HW2 3468   1.888   5.376   1.832
  857SOL     OW 3469   6.945   5.153   5.094
  857SOL    HW1 3470   6.891   5.164   5.178
  857SOL    HW2 3471   6.884   5.159   5.015
  858SOL     OW 3472   4.402   4.259   0.141
  858SOL    HW1 3473   4.362   4.223   0.056
  858SOL    HW2 3474   4.455   4.187   0.186
  859SOL     OW 3475   4.916   5.346   5.552
  859SOL    HW1 3476   4.851   5.286   5.505
  859SOL    HW2 3477   5.006   5.335   5.511
  860SOL     OW 3478   4.640   3.422   6.356
  860SOL    HW1 3479   4.608   3.459   6.269
  860SOL    HW2 3480   4.701   3.345   6.340
  861SOL     OW 3481   1.507   5.412   2.562
  861SOL    HW1 3482   1.432   5.417   2.628
  861SOL    HW2 3483   1.499   5.488   2.497
  862SOL     OW 3484   0.747   4.081   3.806
  862SOL    HW1 3485   0.831   4.047   3.848
  862SOL    HW2 3486   0.732   4.034   3.719
  863SOL     OW 3487   6.380   0.733   1.516
  863SOL    HW1 3488   6.362   0.778   1.604
  863SOL    HW2 3489   6.445   0.788   1.464
  864SOL     OW 3490   5.905   5.798   2.654
  864SOL    HW1 3491   5.826   5.739   2.674
  864SOL    HW2 3492   5.985   5.741   2.637
  865SOL     OW 3493   1.887   5.572   5.193
  865SOL    HW1 3494   1.907   5.652   5.249
  865SOL    HW2 3495   1.874   5.492   5.252
  866SOL     OW 3496   3.419   0.450   2.022
  866SOL    HW1 3497   3.437   0.357   2.054
  866SOL    HW2 3498   3.395   0.508   2.100
  867SOL     OW 3499   5.874   2.826   5.754
  867SOL    HW1 3500   5.885   2.888   5.831
  867SOL    HW2 3501   5.802   2.860   5.694
  868SOL     OW 3502   0.612   2.383   1.600
  868SOL    HW1 3503   0.631   2.391   1.698
  868SOL    HW2 3504   0.686   2.334   1.555
  869SOL     OW 3505   6.894   3.884   3.203
  869SOL    HW1 3506   6.960   3.931   3.263
  869SOL    HW2 3507   6.819   3.850   3.258
  870SOL     OW 3508   3.482   5.121   2.380
  870SOL    HW1 3509   3.436   5.032   2.389
  870SOL    HW2 3510   3.527   5.127   2.291
  871SOL     OW 3511   5.173   2.082   3.969
  871SOL    HW1 3512   5.256   2.048   4.013
  871SOL    HW2 3513   5.190   2.174   3.932
  872SOL     OW 3514   1.292   1.872   4.783
  872SOL    HW1 3515   1.383   1.843   4.754
  872SOL    HW2 3516   1.233   1.884   4.704
  873SOL     OW 3517   4.400   0.363   6.652
  873SOL    HW1 3518   4.479   0.355   6.590
  873SOL    HW2 3519   4.396   0.456   6.688
  874SOL     OW 3520   5.800   3.555   1.422
  874SOL    HW1 3521   5.785   3.470   1.371
  874SOL    HW2 3522   5.786   3.539   1.519
  875SOL     OW 3523   4.933   5.490   1.717
  875SOL    HW1 3524   4.875   5.501   1.636
  875SOL    HW2 3525   5.019   5.448   1.690
  876SOL     OW 3526   5.696   0.509   6.954
  876SOL    HW1 3527   5.635   0.515   6.875
  876SOL    HW2 3528   5.784   0.550   6.931
  877SOL     OW 3529   1.131   3.703   0.010
  877SOL    HW1 3530   1.068   3.625   0.018
  877SOL    HW2 3531   1.223   3.669   7.008
  878SOL     OW 3532   4.179   6.697   4.511
  878SOL    HW1 3533   4.191   6.674   4.607
  878SOL    HW2 3534   4.236   6.776   4.488
  879SOL     OW 3535   5.964   6.646   6.572
  879SOL    HW1 3536   5.883   6.658   6.515
  879SOL    HW2 3537   5.953   6.564   6.629
  880SOL     OW 3538   2.999   3.804   2.736
  880SOL    HW1 3539   3.030   3.881   2.679
  880SOL    HW2 3540   2.986   3.835   2.830
  881SOL     OW 3541   4.857   1.650   0.486
  881SOL    HW1 3542   4.825   1.586   0.415
  881SOL    HW2 3543   4.847   1.744   0.453
  882SOL     OW 3544   1.713   2.997   3.352
  882SOL    HW1 3545   1.768   3.064   3.402
  882SOL    HW2 3546   1.748   2.986   3.259
  883SOL     OW 3547   2.753   7.011   3.251
  883SOL    HW1 3548   2.738   0.088   3.265
  883SOL    HW2 3549   2.845   6.986   3.281
  884SOL     OW 3550   3.436   3.553   5.926
  884SOL    HW1 3551   3.516   3.504   5.890
  884SOL    HW2 3552   3.377   3.580   5.850
  885SOL     OW 3553   4.323   2.710   6.054
  885SOL    HW1 3554   4.333   2.640   5.984
  885SOL    HW2 3555   4.373   2.684   6.136
  886SOL     OW 3556   3.588   2.086   6.740
  886SOL    HW1 3557   3.504   2.139   6.750
  886SOL    HW2 3558   3.572   2.010   6.677
  887SOL     OW 3559   5.359   0.894   5.245
  887SOL    HW1 3560   5.300   0.917   5.323
  887SOL    HW2 3561   5.455   0.898   5.274
  888SOL     OW 3562   6.857   6.033   2.178
  888SOL    HW1 3563   6.826   6.059   2.270
  888SOL    HW2 3564   6.910   5.948   2.184
  889SOL     OW 3565   0.722   3.829   0.159
  889SOL    HW1 3566   0.635   3.833   0.109
  889SOL    HW2 3567   0.726   3.743   0.210
  890SOL     OW 3568   2.526   6.171   4.697
  890SOL    HW1 3569   2.562   6.152   4.606
  890SOL    HW2 3570   2.597   6.212   4.753
  891SOL     OW 3571   5.260   4.970   2.058
  891SOL    HW1 3572   5.164   4.986   2.035
  891SOL    HW2 3573   5.301   4.908   1.991
  892SOL     OW 3574   2.454   4.649   0.538
  892SOL    HW1 3575   2.451   4.628   0.635
  892SOL    HW2 3576   2.510   4.580   0.491
  893SOL     OW 3577   1.333   5.633   2.574
  893SOL    HW1 3578   1.287   5.716   2.541
  893SOL    HW2 3579   1.427   5.656   2.602
  894SOL     OW 3580   1.208   4.219   0.910
  894SOL    HW1 3581   1.271   4.297   0.912
  894SOL    HW2 3582   1.243   4.151   0.846
  895SOL     OW 3583   0.182   5.800   4.518
  895SOL    HW1 3584   0.101   5.792   4.460
  895SOL    HW2 3585   0.202   5.711   4.560
  896SOL     OW 3586   0.681   0.812   6.762
  896SOL    HW1 3587   0.705   0.875   6.688
  896SOL    HW2 3588   0.763   0.769   6.797
  897SOL     OW 3589   4.800   1.055   0.425
  897SOL    HW1 3590   4.819   1.078   0.330
  897SOL    HW2 3591   4.764   0.962   0.430
  898SOL     OW 3592   4.344   0.283   3.152
  898SOL    HW1 3593   4.370   0.298   3.247
  898SOL    HW2 3594   4.298   0.194   3.144
  899SOL     OW 3595   6.738   5.899   0.157
  899SOL    HW1 3596   6.673   5.941   0.220
  899SOL    HW2 3597   6.831   5.912   0.191
  900SOL     OW 3598   5.318   5.382   0.948
  900SOL    HW1 3599   5.278   5.308   1.002
  900SOL    HW2 3600   5.349   5.455   1.009
  901SOL     OW 3601   1.232   0.486   2.888
  901SOL    HW1 3602   1.323   0.510   2.923
  901SOL    HW2 3603   1.186   0.425   2.953
  902SOL     OW 3604   6.216   2.585   1.614
  902SOL    HW1 3605   6.295   2.624   1.660
  902SOL    HW2 3606   6.241   2.497   1.573
  903SOL     OW 3607   0.297   1.556   1.328
  903SOL    HW1 3608   0.305   1.547   1.228
  903SOL    HW2 3609   0.265   1.648   1.350
  904SOL     OW 3610   2.653   1.139   2.346
  904SOL    HW1 3611   2.752   1.122   2.348
  904SOL    HW2 3612   2.610   1.075   2.282
  905SOL     OW 3613   5.948   2.170   6.601
  905SOL    HW1 3614   5.891   2.088   6.609
  905SOL    HW2 3615   5.978   2.198   6.692
  906SOL     OW 3616   5.073   2.629   6.996
  906SOL    HW1 3617   5.009   2.704   7.013
  906SOL    HW2 3618   5.093   2.624   6.898
  907SOL     OW 3619   5.407   4.607   6.859
  907SOL    HW1 3620   5.498   4.612   6.816
  907SOL    HW2 3621   5.408   4.658   6.944
  908SOL     OW 3622   1.177   4.642   3.083
  908SOL    HW1 3623   1.163   4.544   3.096
  908SOL    HW2 3624   1.270   4.666   3.110
  909SOL     OW 3625   5.349   5.419   6.303
  909SOL    HW1 3626   5.330   5.375   6.391
  909SOL    HW2 3627   5.446   5.444   6.299
  910SOL     OW 3628   2.821   5.062   0.658
  910SOL    HW1 3629   2.904   5.077   0.603
  910SOL    HW2 3630   2.829   4.975   0.706
  911SOL     OW 3631   1.058   4.643   5.878
  911SOL    HW1 3632   1.004   4.591   5.812
  911SOL    HW2 3633   1.080   4.584   5.956
  912SOL     OW 3634   5.293   1.771   4.592
  912SOL    HW1 3635   5.222   1.766   4.663
  912SOL    HW2 3636   5.270   1.842   4.526
  913SOL     OW 3637   5.773   6.616   2.726
  913SOL    HW1 3638   5.727   6.544   2.674
  913SOL    HW2 3639   5.801   6.579   2.815
  914SOL     OW 3640   3.339   6.519   6.792
  914SOL    HW1 3641   3.282   6.443   6.763
  914SOL    HW2 3642   3.304   6.555   6.879
  915SOL     OW 3643   5.090   5.717   1.249
  915SOL    HW1 3644   5.152   5.685   1.321
  915SOL    HW2 3645   4.996   5.697   1.274
  916SOL     OW 3646   1.518   3.436   2.546
  916SOL    HW1 3647   1.479   3.522   2.579
  916SOL    HW2 3648   1.510   3.366   2.618
  917SOL     OW 3649   0.215   6.393   0.288
  917SOL    HW1 3650   0.258   6.483   0.299
  917SOL    HW2 3651   0.148   6.378   0.361
  918SOL     OW 3652   3.165   6.307   6.835
  918SOL    HW1 3653   3.094   6.263   6.779
  918SOL    HW2 3654   3.155   6.277   6.930
  919SOL     OW 3655   5.218   1.282   6.023
  919SOL    HW1 3656   5.188   1.374   6.048
  919SOL    HW2 3657   5.139   1.229   5.993
  920SOL     OW 3658   2.838   4.989   2.179
  920SOL    HW1 3659   2.738   4.992   2.180
  920SOL    HW2 3660   2.870   4.957   2.090
  921SOL     OW 3661   4.893   5.398   4.828
  921SOL    HW1 3662   4.829   5.474   4.817
  921SOL    HW2 3663   4.973   5.412   4.769
  922SOL     OW 3664   3.132   3.030   3.966
  922SOL    HW1 3665   3.220   3.073   3.942
  922SOL    HW2 3666   3.149   2.942   4.011
  923SOL     OW 3667   2.256   3.400   5.522
  923SOL    HW1 3668   2.288   3.460   5.596
  923SOL    HW2 3669   2.326   3.331   5.502
  924SOL     OW 3670   6.790   2.984   1.564
  924SOL    HW1 3671   6.788   2.947   1.657
  924SOL    HW2 3672   6.737   3.069   1.561
  925SOL     OW 3673   0.914   1.840   0.522
  925SOL    HW1 3674   0.955   1.866   0.435
  925SOL    HW2 3675   0.902   1.921   0.579
  926SOL     OW 3676   1.814   1.921   1.850
  926SOL    HW1 3677   1.851   1.837   1.810
  926SOL    HW2 3678   1.819   1.995   1.783
  927SOL     OW 3679   6.781   3.695   4.469
  927SOL    HW1 3680   6.807   3.605   4.436
  927SOL    HW2 3681   6.752   3.689   4.565
  928SOL     OW 3682   3.240   4.334   5.704
  928SOL    HW1 3683   3.289   4.266   5.649
  928SOL    HW2 3684   3.213   4.293   5.791
  929SOL     OW 3685   0.151   1.572   4.143
  929SOL    HW1 3686   0.091   1.567   4.063
  929SOL    HW2 3687   0.096   1.584   4.225
  930SOL     OW 3688   5.013   5.354   5.213
  930SOL    HW1 3689   5.076   5.277   5.226
  930SOL    HW2 3690   4.940   5.326   5.151
  931SOL     OW 3691   6.189   0.611   3.024
  931SOL    HW1 3692   6.132   0.544   2.976
  931SOL    HW2 3693   6.266   0.563   3.068
  932SOL     OW 3694   3.637   0.779   3.907
  932SOL    HW1 3695   3.598   0.822   3.826
  932SOL    HW2 3696   3.654   0.850   3.977
  933SOL     OW 3697   1.598   5.755   2.171
  933SOL    HW1 3698   1.694   5.730   2.169
  933SOL    HW2 3699   1.589   5.852   2.193
  934SOL     OW 3700   1.794   3.178   0.712
  934SOL    HW1 3701   1.856   3.242   0.757
  934SOL    HW2 3702   1.839   3.138   0.632
  935SOL     OW 3703   5.629   2.354   5.670
  935SOL    HW1 3704   5.670   2.423   5.730
  935SOL    HW2 3705   5.657   2.263   5.700
  936SOL     OW 3706   1.855   0.515   6.080
  936SOL    HW1 3707   1.909   0.577   6.023
  936SOL    HW2 3708   1.904   0.498   6.166
  937SOL     OW 3709   3.385   1.660   5.887
  937SOL    HW1 3710   3.315   1.603   5.846
  937SOL    HW2 3711   3.343   1.735   5.937
  938SOL     OW 3712   5.553   5.847   4.283
  938SOL    HW1 3713   5.600   5.905   4.349
  938SOL    HW2 3714   5.516   5.904   4.209
  939SOL     OW 3715   1.139   6.937   5.668
  939SOL    HW1 3716   1.197   7.017   5.685
  939SOL    HW2 3717   1.194   6.865   5.625
  940SOL     OW 3718   1.699   5.050   0.313
  940SOL    HW1 3719   1.788   5.054   0.360
  940SOL    HW2 3720   1.714   5.040   0.215
  941SOL     OW 3721   3.323   0.103   0.521
  941SOL    HW1 3722   3.375   0.142   0.598
  941SOL    HW2 3723   3.334   0.162   0.441
  942SOL     OW 3724   6.406   4.847   7.012
  942SOL    HW1 3725   6.367   4.924   6.962
  942SOL    HW2 3726   6.384   4.856   0.089
  943SOL     OW 3727   3.602   5.686   1.272
  943SOL    HW1 3728   3.693   5.698   1.312
  943SOL    HW2 3729   3.588   5.590   1.247
  944SOL     OW 3730   6.732   6.365   3.480
  944SOL    HW1 3731   6.832   6.372   3.473
  944SOL    HW2 3732   6.706   6.268   3.481
  945SOL     OW 3733   0.227   5.296   6.048
  945SOL    HW1 3734   0.211   5.288   5.949
  945SOL    HW2 3735   0.276   5.215   6.080
  946SOL     OW 3736   5.686   2.061   4.404
  946SOL    HW1 3737   5.676   2.155   4.436
  946SOL    HW2 3738   5.761   2.017   4.454
  947SOL     OW 3739   3.753   3.805   3.811
  947SOL    HW1 3740   3.715   3.714   3.796
  947SOL    HW2 3741   3.789   3.841   3.726
  948SOL     OW 3742   3.186   1.210   3.742
  948SOL    HW1 3743   3.236   1.215   3.656
  948SOL    HW2 3744   3.249   1.189   3.817
  949SOL     OW 3745   3.078   0.202   5.629
  949SOL    HW1 3746   3.004   0.136   5.613
  949SOL    HW2 3747   3.051   0.291   5.592
  950SOL     OW 3748   0.019   0.428   2.452
  950SOL    HW1 3749   0.111   0.417   2.490
  950SOL    HW2 3750   7.009   0.523   2.465
  951SOL     OW 3751   1.688   6.974   3.159
  951SOL    HW1 3752   1.744   6.953   3.079
  951SOL    HW2 3753   1.735   0.020   3.217
  952SOL     OW 3754   3.762   1.736   3.511
  952SOL    HW1 3755   3.750   1.642   3.543
  952SOL    HW2 3756   3.738   1.743   3.415
  953SOL     OW 3757   0.518   4.500   5.800
  953SOL    HW1 3758   0.562   4.563   5.736
  953SOL    HW2 3759   0.432   4.540   5.833
  954SOL     OW 3760   4.792   6.426   2.249
  954SOL    HW1 3761   4.785   6.337   2.294
  954SOL    HW2 3762   4.782   6.415   2.151
  955SOL     OW 3763   1.915   5.014   1.290
  955SOL    HW1 3764   1.863   5.033   1.206
  955SOL    HW2 3765   2.007   5.051   1.281
  956SOL     OW 3766   4.573   0.873   1.119
  956SOL    HW1 3767   4.475   0.891   1.122
  956SOL    HW2 3768   4.597   0.835   1.029
  957SOL     OW 3769   5.987   0.387   3.196
  957SOL    HW1 3770   6.076   0.357   3.229
  957SOL    HW2 3771   5.993   0.408   3.098
  958SOL     OW 3772   4.965   6.309   1.286
  958SOL    HW1 3773   5.058   6.326   1.319
  958SOL    HW2 3774   4.968   6.282   1.190
  959SOL     OW 3775   4.992   6.754   2.866
  959SOL    HW1 3776   5.088   6.729   2.883
  959SOL    HW2 3777   4.973   6.842   2.909
  960SOL     OW 3778   1.304   6.633   6.557
  960SOL    HW1 3779   1.388   6.684   6.575
  960SOL    HW2 3780   1.326   6.536   6.546
  961SOL     OW 3781   3.775   1.435   3.479
  961SOL    HW1 3782   3.745   1.443   3.574
  961SOL    HW2 3783   3.869   1.467   3.471
  962SOL     OW 3784   0.248   0.235   4.586
  962SOL    HW1 3785   0.323   0.255   4.523
  962SOL    HW2 3786   0.192   0.162   4.548
  963SOL     OW 3787   5.817   3.090   1.246
  963SOL    HW1 3788   5.719   3.070   1.256
  963SOL    HW2 3789   5.867   3.006   1.226
  964SOL     OW 3790   3.986   6.390   4.793
  964SOL    HW1 3791   3.996   6.348   4.702
  964SOL    HW2 3792   4.044   6.341   4.858
  965SOL     OW 3793   5.921   2.147   3.723
  965SOL    HW1 3794   5.853   2.120   3.655
  965SOL    HW2 3795   5.986   2.072   3.738
  966SOL     OW 3796   4.904   0.890   4.445
  966SOL    HW1 3797   4.968   0.925   4.377
  966SOL    HW2 3798   4.864   0.805   4.412
  967SOL     OW 3799   4.236   5.010   6.400
  967SOL    HW1 3800   4.226   4.940   6.329
  967SOL    HW2 3801   4.332   5.014   6.428
  968SOL     OW 3802   3.391   0.473   1.566
  968SOL    HW1 3803   3.360   0.378   1.568
  968SOL    HW2 3804   3.442   0.491   1.482
  969SOL     OW 3805   2.637   3.884   6.362
  969SOL    HW1 3806   2.719   3.840   6.326
  969SOL    HW2 3807   2.625   3.973   6.318
  970SOL     OW 3808   5.257   6.397   5.844
  970SOL    HW1 3809   5.248   6.497   5.847
  970SOL    HW2 3810   5.321   6.367   5.915
  971SOL     OW 3811   5.256   3.639   3.484
  971SOL    HW1 3812   5.268   3.736   3.466
  971SOL    HW2 3813   5.334   3.604   3.536
  972SOL     OW 3814   0.360   2.788   0.806
  972SOL    HW1 3815   0.381   2.715   0.741
  972SOL    HW2 3816   0.305   2.751   0.881
  973SOL     OW 3817   0.255   2.811   5.142
  973SOL    HW1 3818   0.336   2.778   5.092
  973SOL    HW2 3819   0.193   2.735   5.157
  974SOL     OW 3820   0.822   4.295   2.340
  974SOL    HW1 3821   0.910   4.248   2.336
  974SOL    HW2 3822   0.768   4.273   2.260
  975SOL     OW 3823   3.279   0.441   2.653
  975SOL    HW1 3824   3.315   0.432   2.560
  975SOL    HW2 3825   3.196   0.386   2.662
  976SOL     OW 3826   6.905   3.076   3.260
  976SOL    HW1 3827   6.921   3.043   3.353
  976SOL    HW2 3828   6.866   3.003   3.204
  977SOL     OW 3829   6.391   1.386   1.776
  977SOL    HW1 3830   6.489   1.389   1.792
  977SOL    HW2 3831   6.364   1.460   1.715
  978SOL     OW 3832   5.033   2.878   0.987
  978SOL    HW1 3833   5.034   2.977   0.997
  978SOL    HW2 3834   5.101   2.850   0.919
  979SOL     OW 3835   0.300   4.879   6.620
  979SOL    HW1 3836   0.266   4.973   6.619
  979SOL    HW2 3837   0.363   4.866   6.544
  980SOL     OW 3838   4.525   1.021   4.400
  980SOL    HW1 3839   4.520   0.942   4.460
  980SOL    HW2 3840   4.437   1.034   4.354
  981SOL     OW 3841   0.813   6.530   5.572
  981SOL    HW1 3842   0.884   6.561   5.509
  981SOL    HW2 3843   0.729   6.581   5.554
  982SOL     OW 3844   0.023   1.386   6.328
  982SOL    HW1 3845   0.027   1.486   6.329
  982SOL    HW2 3846   6.988   1.354   6.405
  983SOL     OW 3847   0.600   4.078   3.251
  983SOL    HW1 3848   0.674   4.058   3.186
  983SOL    HW2 3849   0.513   4.049   3.212
  984SOL     OW 3850   0.496   3.764   3.917
  984SOL    HW1 3851   0.578   3.711   3.900
  984SOL    HW2 3852   0.521   3.856   3.947
  985SOL     OW 3853   6.206   5.507   5.084
  985SOL    HW1 3854   6.116   5.502   5.042
  985SOL    HW2 3855   6.276   5.491   5.014
  986SOL     OW 3856   4.151   5.474   1.496
  986SOL    HW1 3857   4.180   5.380   1.475
  986SOL    HW2 3858   4.155   5.529   1.412
  987SOL     OW 3859   4.872   4.654   5.053
  987SOL    HW1 3860   4.874   4.645   5.153
  987SOL    HW2 3861   4.907   4.569   5.012
  988SOL     OW 3862   2.707   4.652   2.255
  988SOL    HW1 3863   2.681   4.744   2.283
  988SOL    HW2 3864   2.751   4.655   2.165
  989SOL     OW 3865   1.006   2.562   0.896
  989SOL    HW1 3866   1.083   2.621   0.923
  989SOL    HW2 3867   1.003   2.555   0.796
  990SOL     OW 3868   3.856   6.645   4.723
  990SOL    HW1 3869   3.902   6.711   4.782
  990SOL    HW2 3870   3.877   6.552   4.754
  991SOL     OW 3871   0.880   5.806   4.258
  991SOL    HW1 3872   0.783   5.828   4.258
  991SOL    HW2 3873   0.934   5.891   4.256
  992SOL     OW 3874   7.000   2.570   6.949
  992SOL    HW1 3875   6.982   2.635   0.002
  992SOL    HW2 3876   6.919   2.512   6.935
  993SOL     OW 3877   1.405   4.777   7.007
  993SOL    HW1 3878   1.364   4.685   7.014
  993SOL    HW2 3879   1.481   4.775   6.942
  994SOL     OW 3880   3.149   6.868   0.938
  994SOL    HW1 3881   3.125   6.916   0.853
  994SOL    HW2 3882   3.245   6.841   0.935
  995SOL     OW 3883   6.240   3.696   5.500
  995SOL    HW1 3884   6.239   3.705   5.600
  995SOL    HW2 3885   6.178   3.623   5.472
  996SOL     OW 3886   4.199   6.606   4.767
  996SOL    HW1 3887   4.295   6.617   4.793
  996SOL    HW2 3888   4.144   6.589   4.849
  997SOL     OW 3889   1.481   6.360   3.484
  997SOL    HW1 3890   1.540   6.398   3.556
  997SOL    HW2 3891   1.386   6.379   3.506
  998SOL     OW 3892   4.652   0.334   6.520
  998SOL    HW1 3893   4.667   0.250   6.467
  998SOL    HW2 3894   4.740   0.367   6.554
  999SOL     OW 3895   5.604   3.023   2.778
  999SOL    HW1 3896   5.695   3.006   2.816
  999SOL    HW2 3897   5.613   3.077   2.694
 1000SOL     OW 3898   5.170   1.700   2.099
 1000SOL    HW1 3899   5.150   1.782   2.153
 1000SOL    HW2 3900   5.174   1.724   2.002
 1001SOL     OW 3901   2.923   6.637   2.566
 1001SOL    HW1 3902   2.885   6.729   2.570
 1001SOL    HW2 3903   2.874   6.578   2.631
 1002SOL     OW 3904   4.012   2.694   1.209
 1002SOL    HW1 3905   3.967   2.772   1.165
 1002SOL    HW2 3906   3.944   2.642   1.261
 1003SOL     OW 3907   1.292   0.179   2.916
 1003SOL    HW1 3908   1.220   0.187   2.985
 1003SOL    HW2 3909   1.361   0.249   2.931
 1004SOL     OW 3910   5.094   1.144   4.777
 1004SOL    HW1 3911   5.158   1.215   4.750
 1004SOL    HW2 3912   5.142   1.075   4.831
 1005SOL     OW 3913   0.553   5.027   2.088
 1005SOL    HW1 3914   0.545   4.943   2.035
 1005SOL    HW2 3915   0.576   5.103   2.027
 1006SOL     OW 3916   2.198   3.970   1.499
 1006SOL    HW1 3917   2.243   4.011   1.420
 1006SOL    HW2 3918   2.259   3.973   1.578
 1007SOL     OW 3919   4.965   0.524   6.304
 1007SOL    HW1 3920   4.950   0.520   6.205
 1007SOL    HW2 3921   5.043   0.584   6.323
 1008SOL     OW 3922   0.577   5.135   5.129
 1008SOL    HW1 3923   0.494   5.135   5.184
 1008SOL    HW2 3924   0.651   5.178   5.180
 1009SOL     OW 3925   6.426   6.013   5.815
 1009SOL    HW1 3926   6.520   6.042   5.796
 1009SOL    HW2 3927   6.369   6.093   5.835
 1010SOL     OW 3928   3.157   3.811   0.512
 1010SOL    HW1 3929   3.215   3.777   0.587
 1010SOL    HW2 3930   3.139   3.736   0.448
 1011SOL     OW 3931   6.783   4.796   3.074
 1011SOL    HW1 3932   6.785   4.870   3.140
 1011SOL    HW2 3933   6.839   4.720   3.107
 1012SOL     OW 3934   5.628   6.430   2.602
 1012SOL    HW1 3935   5.592   6.415   2.510
 1012SOL    HW2 3936   5.649   6.343   2.646
 1013SOL     OW 3937   0.370   0.019   6.334
 1013SOL    HW1 3938   0.374   0.065   6.423
 1013SOL    HW2 3939   0.462   7.014   6.305
 1014SOL     OW 3940   1.117   4.708   4.811
 1014SOL    HW1 3941   1.078   4.740   4.898
 1014SOL    HW2 3942   1.079   4.619   4.788
 1015SOL     OW 3943   2.050   6.233   0.437
 1015SOL    HW1 3944   1.978   6.298   0.462
 1015SOL    HW2 3945   2.043   6.212   0.340
 1016SOL     OW 3946   6.868   3.924   0.782
 1016SOL    HW1 3947   6.963   3.939   0.810
 1016SOL    HW2 3948   6.863   3.843   0.724
 1017SOL     OW 3949   2.484   1.153   2.576
 1017SOL    HW1 3950   2.428   1.236   2.578
 1017SOL    HW2 3951   2.517   1.136   2.483
 1018SOL     OW 3952   6.237   6.301   4.046
 1018SOL    HW1 3953   6.212   6.204   4.045
 1018SOL    HW2 3954   6.269   6.328   3.955
 1019SOL     OW 3955   6.106   4.309   1.242
 1019SOL    HW1 3956   6.044   4.264   1.178
 1019SOL    HW2 3957   6.123   4.249   1.320
 1020SOL     OW 3958   5.127   1.236   1.388
 1020SOL    HW1 3959   5.070   1.208   1.311
 1020SOL    HW2 3960   5.208   1.284   1.353
 1021SOL     OW 3961   0.976   6.621   1.275
 1021SOL    HW1 3962   1.025   6.541   1.241
 1021SOL    HW2 3963   1.007   6.703   1.228
 1022SOL     OW 3964   2.452   5.292   6.534
 1022SOL    HW1 3965   2.516   5.231   6.580
 1022SOL    HW2 3966   2.459   5.279   6.435
 1023SOL     OW 3967   0.695   1.773   2.362
 1023SOL    HW1 3968   0.616   1.831   2.383
 1023SOL    HW2 3969   0.770   1.795   2.424
 1024SOL     OW 3970   1.681   2.207   4.176
 1024SOL    HW1 3971   1.683   2.307   4.173
 1024SOL    HW2 3972   1.615   2.173   4.108
 1025SOL     OW 3973   4.756   4.423   1.083
 1025SOL    HW1 3974   4.738   4.522   1.080
 1025SOL    HW2 3975   4.719   4.386   1.168
 1026SOL     OW 3976   2.842   2.865   1.744
 1026SOL    HW1 3977   2.758   2.916   1.722
 1026SOL    HW2 3978   2.914   2.930   1.769
 1027SOL     OW 3979   6.852   7.020   7.007
 1027SOL    HW1 3980   6.906   6.946   0.028
 1027SOL    HW2 3981   6.891   0.088   0.013
 1028SOL     OW 3982   1.051   5.879   2.808
 1028SOL    HW1 3983   1.090   5.904   2.897
 1028SOL    HW2 3984   1.119   5.895   2.737
 1029SOL     OW 3985   1.468   1.153   5.166
 1029SOL    HW1 3986   1.382   1.204   5.161
 1029SOL    HW2 3987   1.453   1.059   5.135
 1030SOL     OW 3988   3.919   3.298   0.806
 1030SOL    HW1 3989   3.969   3.259   0.883
 1030SOL    HW2 3990   3.956   3.262   0.720
 1031SOL     OW 3991   4.142   3.525   0.492
 1031SOL    HW1 3992   4.162   3.622   0.477
 1031SOL    HW2 3993   4.043   3.511   0.497
 1032SOL     OW 3994   2.022   1.481   0.261
 1032SOL    HW1 3995   1.958   1.436   0.324
 1032SOL    HW2 3996   2.092   1.529   0.314
 1033SOL     OW 3997   0.168   1.056   2.073
 1033SOL    HW1 3998   0.213   1.010   2.150
 1033SOL    HW2 3999   0.071   1.067   2.094
 1034SOL     OW 4000   3.347   0.920   5.125
 1034SOL    HW1 4001   3.412   0.857   5.083
 1034SOL    HW2 4002   3.382   1.014   5.118
 1035SOL     OW 4003   1.507   0.885   0.330
 1035SOL    HW1 4004   1.575   0.839   0.387
 1035SOL    HW2 4005   1.516   0.854   0.235
 1036SOL     OW 4006   4.588   1.400   1.486
 1036SOL    HW1 4007   4.520   1.398   1.560
 1036SOL    HW2 4008   4.590   1.492   1.446
 1037SOL     OW 4009   1.358   3.718   2.286
 1037SOL    HW1 4010   1.420   3.700   2.210
 1037SOL    HW2 4011   1.340   3.634   2.336
 1038SOL     OW 4012   2.126   5.931   0.245
 1038SOL    HW1 4013   2.040   5.972   0.215
 1038SOL    HW2 4014   2.141   5.846   0.194
 1039SOL     OW 4015   3.303   3.815   2.821
 1039SOL    HW1 4016   3.295   3.906   2.861
 1039SOL    HW2 4017   3.214   3.784   2.788
 1040SOL     OW 4018   3.625   1.812   3.262
 1040SOL    HW1 4019   3.554   1.832   3.194
 1040SOL    HW2 4020   3.610   1.867   3.344
 1041SOL     OW 4021   6.226   6.440   6.728
 1041SOL    HW1 4022   6.305   6.495   6.753
 1041SOL    HW2 4023   6.142   6.488   6.756
 1042SOL     OW 4024   5.465   4.015   3.645
 1042SOL    HW1 4025   5.434   4.085   3.709
 1042SOL    HW2 4026   5.398   4.007   3.571
 1043SOL     OW 4027   2.608   1.716   4.189
 1043SOL    HW1 4028   2.526   1.725   4.133
 1043SOL    HW2 4029   2.599   1.636   4.249
 1044SOL     OW 4030   5.898   4.887   1.923
 1044SOL    HW1 4031   5.850   4.891   1.835
 1044SOL    HW2 4032   5.995   4.869   1.907
 1045SOL     OW 4033   2.129   0.727   2.108
 1045SOL    HW1 4034   2.199   0.721   2.038
 1045SOL    HW2 4035   2.048   0.675   2.079
 1046SOL     OW 4036   2.966   2.147   1.465
 1046SOL    HW1 4037   3.029   2.082   1.424
 1046SOL    HW2 4038   3.015   2.231   1.490
 1047SOL     OW 4039   3.773   0.341   3.326
 1047SOL    HW1 4040   3.677   0.361   3.345
 1047SOL    HW2 4041   3.789   0.348   3.227
 1048SOL     OW 4042   0.926   0.324   2.020
 1048SOL    HW1 4043   0.875   0.249   2.062
 1048SOL    HW2 4044   0.869   0.407   2.021
 1049SOL     OW 4045   4.312   6.597   6.432
 1049SOL    HW1 4046   4.332   6.556   6.520
 1049SOL    HW2 4047   4.261   6.682   6.445
 1050SOL     OW 4048   3.384   0.093   4.100
 1050SOL    HW1 4049   3.479   0.071   4.122
 1050SOL    HW2 4050   3.326   0.070   4.178
 1051SOL     OW 4051   1.779   1.449   5.198
 1051SOL    HW1 4052   1.730   1.395   5.266
 1051SOL    HW2 4053   1.875   1.421   5.195
 1052SOL     OW 4054   3.944   1.460   0.357
 1052SOL    HW1 4055   3.967   1.537   0.298
 1052SOL    HW2 4056   3.893   1.391   0.305
 1053SOL     OW 4057   5.199   2.389   4.825
 1053SOL    HW1 4058   5.203   2.309   4.885
 1053SOL    HW2 4059   5.186   2.358   4.731
 1054SOL     OW 4060   4.395   5.245   6.312
 1054SOL    HW1 4061   4.314   5.196   6.280
 1054SOL    HW2 4062   4.373   5.293   6.397
 1055SOL     OW 4063   4.777   5.831   6.434
 1055SOL    HW1 4064   4.686   5.861   6.405
 1055SOL    HW2 4065   4.771   5.789   6.525
 1056SOL     OW 4066   3.340   3.770   6.620
 1056SOL    HW1 4067   3.396   3.850   6.603
 1056SOL    HW2 4068   3.359   3.734   6.711
 1057SOL     OW 4069   3.162   2.801   6.862
 1057SOL    HW1 4070   3.109   2.865   6.806
 1057SOL    HW2 4071   3.251   2.840   6.882
 1058SOL     OW 4072   3.023   2.130   2.001
 1058SOL    HW1 4073   2.968   2.212   1.984
 1058SOL    HW2 4074   3.071   2.104   1.917
 1059SOL     OW 4075   2.519   6.233   2.060
 1059SOL    HW1 4076   2.543   6.287   2.141
 1059SOL    HW2 4077   2.553   6.139   2.072
 1060SOL     OW 4078   6.311   0.670   5.069
 1060SOL    HW1 4079   6.241   0.636   5.131
 1060SOL    HW2 4080   6.389   0.704   5.122
 1061SOL     OW 4081   0.473   3.526   6.129
 1061SOL    HW1 4082   0.469   3.589   6.051
 1061SOL    HW2 4083   0.431   3.439   6.105
 1062SOL     OW 4084   3.231   5.355   4.757
 1062SOL    HW1 4085   3.301   5.328   4.823
 1062SOL    HW2 4086   3.141   5.327   4.790
 1063SOL     OW 4087   3.077   6.626   4.118
 1063SOL    HW1 4088   3.170   6.594   4.139
 1063SOL    HW2 4089   3.078   6.725   4.108
 1064SOL     OW 4090   1.061   2.917   0.262
 1064SOL    HW1 4091   1.119   2.976   0.206
 1064SOL    HW2 4092   1.073   2.941   0.358
 1065SOL     OW 4093   6.078   1.044   4.579
 1065SOL    HW1 4094   6.067   1.030   4.677
 1065SOL    HW2 4095   6.077   1.142   4.558
 1066SOL     OW 4096   5.241   6.647   0.917
 1066SOL    HW1 4097   5.264   6.586   0.842
 1066SOL    HW2 4098   5.212   6.594   0.996
 1067SOL     OW 4099   2.401   1.508   0.010
 1067SOL    HW1 4100   2.387   1.606   7.017
 1067SOL    HW2 4101   2.314   1.460   7.018
 1068SOL     OW 4102   6.526   2.915   1.225
 1068SOL    HW1 4103   6.436   2.954   1.244
 1068SOL    HW2 4104   6.585   2.985   1.184
 1069SOL     OW 4105   6.551   3.215   2.803
 1069SOL    HW1 4106   6.582   3.170   2.720
 1069SOL    HW2 4107   6.510   3.148   2.864
 1070SOL     OW 4108   0.962   0.793   2.259
 1070SOL    HW1 4109   0.902   0.865   2.223
 1070SOL    HW2 4110   1.006   0.825   2.343
 1071SOL     OW 4111   0.896   3.005   6.299
 1071SOL    HW1 4112   0.956   2.952   6.239
 1071SOL    HW2 4113   0.868   3.088   6.253
 1072SOL     OW 4114   1.537   1.752   2.165
 1072SOL    HW1 4115   1.492   1.759   2.255
 1072SOL    HW2 4116   1.630   1.788   2.171
 1073SOL     OW 4117   5.378   2.351   3.070
 1073SOL    HW1 4118   5.365   2.367   3.168
 1073SOL    HW2 4119   5.331   2.422   3.018
 1074SOL     OW 4120   2.958   5.089   1.674
 1074SOL    HW1 4121   2.892   5.162   1.658
 1074SOL    HW2 4122   2.912   5.000   1.669
 1075SOL     OW 4123   6.819   3.840   5.665
 1075SOL    HW1 4124   6.739   3.901   5.669
 1075SOL    HW2 4125   6.795   3.751   5.704
 1076SOL     OW 4126   2.083   4.571   5.109
 1076SOL    HW1 4127   2.155   4.605   5.049
 1076SOL    HW2 4128   2.119   4.560   5.202
 1077SOL     OW 4129   6.845   6.787   0.189
 1077SOL    HW1 4130   6.789   6.823   0.264
 1077SOL    HW2 4131   6.918   6.730   0.227
 1078SOL     OW 4132   6.407   5.931   4.627
 1078SOL    HW1 4133   6.447   6.010   4.673
 1078SOL    HW2 4134   6.351   5.962   4.550
 1079SOL     OW 4135   0.740   6.469   1.314
 1079SOL    HW1 4136   0.816   6.506   1.260
 1079SOL    HW2 4137   0.660   6.528   1.304
 1080SOL     OW 4138   3.985   6.722   0.619
 1080SOL    HW1 4139   3.961   6.742   0.524
 1080SOL    HW2 4140   3.923   6.770   0.680
 1081SOL     OW 4141   6.296   6.560   3.421
 1081SOL    HW1 4142   6.320   6.627   3.491
 1081SOL    HW2 4143   6.377   6.508   3.395
 1082SOL     OW 4144   4.186   6.884   0.766
 1082SOL    HW1 4145   4.279   6.913   0.742
 1082SOL    HW2 4146   4.148   6.830   0.691
 1083SOL     OW 4147   5.981   4.051   1.982
 1083SOL    HW1 4148   6.013   4.066   2.076
 1083SOL    HW2 4149   5.888   4.015   1.984
 1084SOL     OW 4150   5.381   0.261   5.664
 1084SOL    HW1 4151   5.428   0.189   5.613
 1084SOL    HW2 4152   5.421   0.268   5.755
 1085SOL     OW 4153   2.135   3.798   4.676
 1085SOL    HW1 4154   2.132   3.789   4.775
 1085SOL    HW2 4155   2.135   3.895   4.652
 1086SOL     OW 4156   5.266   5.292   0.705
 1086SOL    HW1 4157   5.305   5.331   0.788
 1086SOL    HW2 4158   5.260   5.363   0.635
 1087SOL     OW 4159   4.121   0.133   5.776
 1087SOL    HW1 4160   4.095   0.131   5.872
 1087SOL    HW2 4161   4.082   0.053   5.729
 1088SOL     OW 4162   6.396   5.309   4.365
 1088SOL    HW1 4163   6.426   5.327   4.459
 1088SOL    HW2 4164   6.475   5.293   4.306
 1089SOL     OW 4165   5.530   5.326   4.047
 1089SOL    HW1 4166   5.619   5.326   4.002
 1089SOL    HW2 4167   5.536   5.278   4.135
 1090SOL     OW 4168   5.539   2.366   5.271
 1090SOL    HW1 4169   5.563   2.454   5.313
 1090SOL    HW2 4170   5.623   2.312   5.257
 1091SOL     OW 4171   1.724   3.492   3.427
 1091SOL    HW1 4172   1.666   3.447   3.495
 1091SOL    HW2 4173   1.683   3.483   3.336
 1092SOL     OW 4174   0.609   6.060   0.771
 1092SOL    HW1 4175   0.510   6.063   0.782
 1092SOL    HW2 4176   0.634   5.981   0.714
 1093SOL     OW 4177   1.463   0.823   3.331
 1093SOL    HW1 4178   1.498   0.729   3.330
 1093SOL    HW2 4179   1.363   0.821   3.327
 1094SOL     OW 4180   0.442   0.184   2.931
 1094SOL    HW1 4181   0.538   0.191   2.906
 1094SOL    HW2 4182   0.433   0.177   3.030
 1095SOL     OW 4183   5.704   3.759   0.206
 1095SOL    HW1 4184   5.671   3.786   0.296
 1095SOL    HW2 4185   5.703   3.659   0.198
 1096SOL     OW 4186   1.778   5.517   1.849
 1096SOL    HW1 4187   1.758   5.472   1.937
 1096SOL    HW2 4188   1.817   5.608   1.867
 1097SOL     OW 4189   3.131   6.508   4.421
 1097SOL    HW1 4190   3.045   6.497   4.470
 1097SOL    HW2 4191   3.142   6.433   4.356
 1098SOL     OW 4192   6.739   3.819   0.415
 1098SOL    HW1 4193   6.643   3.804   0.437
 1098SOL    HW2 4194   6.754   3.916   0.392
 1099SOL     OW 4195   5.102   0.230   6.582
 1099SOL    HW1 4196   5.027   0.270   6.529
 1099SOL    HW2 4197   5.188   0.273   6.556
 1100SOL     OW 4198   4.679   1.973   4.384
 1100SOL    HW1 4199   4.657   1.956   4.288
 1100SOL    HW2 4200   4.651   1.894   4.439
 1101SOL     OW 4201   4.676   2.739   6.559
 1101SOL    HW1 4202   4.739   2.785   6.622
 1101SOL    HW2 4203   4.671   2.641   6.582
 1102SOL     OW 4204   2.931   0.658   3.347
 1102SOL    HW1 4205   2.836   0.686   3.335
 1102SOL    HW2 4206   2.973   0.647   3.257
 1103SOL     OW 4207   3.554   6.052   0.766
 1103SOL    HW1 4208   3.609   6.133   0.744
 1103SOL    HW2 4209   3.518   6.061   0.859
 1104SOL     OW 4210   6.652   2.670   3.803
 1104SOL    HW1 4211   6.718   2.744   3.813
 1104SOL    HW2 4212   6.578   2.682   3.869
 1105SOL     OW 4213   5.009   1.584   6.140
 1105SOL    HW1 4214   5.069   1.561   6.064
 1105SOL    HW2 4215   5.055   1.649   6.200
 1106SOL     OW 4216   6.428   1.437   0.759
 1106SOL    HW1 4217   6.479   1.521   0.739
 1106SOL    HW2 4218   6.339   1.440   0.715
 1107SOL     OW 4219   0.688   1.439   6.686
 1107SOL    HW1 4220   0.706   1.370   6.617
 1107SOL    HW2 4221   0.733   1.524   6.660
 1108SOL     OW 4222   2.614   0.860   3.948
 1108SOL    HW1 4223   2.641   0.893   3.857
 1108SOL    HW2 4224   2.514   0.858   3.954
 1109SOL     OW 4225   4.989   2.759   5.038
 1109SOL    HW1 4226   4.936   2.839   5.009
 1109SOL    HW2 4227   5.074   2.789   5.081
 1110SOL     OW 4228   1.556   1.221   2.400
 1110SOL    HW1 4229   1.540   1.240   2.303
 1110SOL    HW2 4230   1.647   1.179   2.411
 1111SOL     OW 4231   5.673   3.600   6.414
 1111SOL    HW1 4232   5.623   3.528   6.366
 1111SOL    HW2 4233   5.620   3.630   6.494
 1112SOL     OW 4234   5.737   0.274   2.495
 1112SOL    HW1 4235   5.657   0.253   2.551
 1112SOL    HW2 4236   5.735   0.219   2.412
 1113SOL     OW 4237   6.589   3.070   2.525
 1113SOL    HW1 4238   6.532   3.076   2.443
 1113SOL    HW2 4239   6.679   3.108   2.506
 1114SOL     OW 4240   3.706   3.805   4.698
 1114SOL    HW1 4241   3.789   3.801   4.753
 1114SOL    HW2 4242   3.643   3.733   4.727
 1115SOL     OW 4243   2.748   4.894   5.785
 1115SOL    HW1 4244   2.649   4.899   5.800
 1115SOL    HW2 4245   2.775   4.798   5.772
 1116SOL     OW 4246   4.038   0.050   0.292
 1116SOL    HW1 4247   4.060   0.005   0.206
 1116SOL    HW2 4248   3.940   0.071   0.295
 1117SOL     OW 4249   2.152   2.149   1.790
 1117SOL    HW1 4250   2.122   2.119   1.880
 1117SOL    HW2 4251   2.243   2.113   1.770
 1118SOL     OW 4252   4.307   6.064   6.981
 1118SOL    HW1 4253   4.285   5.991   0.026
 1118SOL    HW2 4254   4.278   6.152   7.019
 1119SOL     OW 4255   3.336   4.923   3.836
 1119SOL    HW1 4256   3.303   4.831   3.812
 1119SOL    HW2 4257   3.436   4.926   3.826
 1120SOL     OW 4258   6.941   3.097   1.353
 1120SOL    HW1 4259   0.016   3.067   1.351
 1120SOL    HW2 4260   6.901   3.073   1.441
 1121SOL     OW 4261   6.662   4.716   5.199
 1121SOL    HW1 4262   6.735   4.754   5.143
 1121SOL    HW2 4263   6.585   4.780   5.201
 1122SOL     OW 4264   5.958   1.680   2.042
 1122SOL    HW1 4265   5.909   1.763   2.018
 1122SOL    HW2 4266   6.038   1.703   2.098
 1123SOL     OW 4267   3.943   1.410   4.515
 1123SOL    HW1 4268   3.903   1.415   4.424
 1123SOL    HW2 4269   3.931   1.497   4.562
 1124SOL     OW 4270   2.282   2.770   3.889
 1124SOL    HW1 4271   2.305   2.745   3.984
 1124SOL    HW2 4272   2.192   2.813   3.887
 1125SOL     OW 4273   1.666   3.721   3.725
 1125SOL    HW1 4274   1.706   3.807   3.759
 1125SOL    HW2 4275   1.612   3.739   3.643
 1126SOL     OW 4276   4.193   4.850   4.428
 1126SOL    HW1 4277   4.290   4.856   4.453
 1126SOL    HW2 4278   4.166   4.932   4.378
 1127SOL     OW 4279   6.682   6.968   1.640
 1127SOL    HW1 4280   6.746   6.942   1.712
 1127SOL    HW2 4281   6.628   6.888   1.612
 1128SOL     OW 4282   4.728   1.396   4.765
 1128SOL    HW1 4283   4.656   1.439   4.820
 1128SOL    HW2 4284   4.816   1.438   4.784
 1129SOL     OW 4285   1.052   0.404   0.033
 1129SOL    HW1 4286   0.954   0.386   0.034
 1129SOL    HW2 4287   1.078   0.455   0.116
 1130SOL     OW 4288   2.304   4.647   2.118
 1130SOL    HW1 4289   2.224   4.628   2.061
 1130SOL    HW2 4290   2.284   4.726   2.177
 1131SOL     OW 4291   2.217   5.543   3.612
 1131SOL    HW1 4292   2.215   5.599   3.529
 1131SOL    HW2 4293   2.312   5.519   3.634
 1132SOL     OW 4294   1.855   1.783   2.512
 1132SOL    HW1 4295   1.901   1.818   2.430
 1132SOL    HW2 4296   1.885   1.835   2.592
 1133SOL     OW 4297   0.976   6.305   6.336
 1133SOL    HW1 4298   1.070   6.275   6.352
 1133SOL    HW2 4299   0.923   6.228   6.301
 1134SOL     OW 4300   3.640   6.058   1.234
 1134SOL    HW1 4301   3.592   6.092   1.153
 1134SOL    HW2 4302   3.574   6.034   1.305
 1135SOL     OW 4303   1.551   6.739   3.164
 1135SOL    HW1 4304   1.597   6.665   3.214
 1135SOL    HW2 4305   1.618   6.811   3.143
 1136SOL     OW 4306   1.127   5.145   2.424
 1136SOL    HW1 4307   1.134   5.062   2.479
 1136SOL    HW2 4308   1.182   5.217   2.466
 1137SOL     OW 4309   1.215   6.142   4.540
 1137SOL    HW1 4310   1.256   6.188   4.461
 1137SOL    HW2 4311   1.259   6.053   4.552
 1138SOL     OW 4312   1.566   4.087   5.298
 1138SOL    HW1 4313   1.663   4.102   5.278
 1138SOL    HW2 4314   1.537   3.998   5.262
 1139SOL     OW 4315   2.572   5.284   4.980
 1139SOL    HW1 4316   2.662   5.316   4.950
 1139SOL    HW2 4317   2.535   5.221   4.912
 1140SOL     OW 4318   1.912   2.319   1.535
 1140SOL    HW1 4319   1.895   2.293   1.629
 1140SOL    HW2 4320   1.980   2.393   1.532
 1141SOL     OW 4321   0.288   4.645   5.844
 1141SOL    HW1 4322   0.197   4.674   5.816
 1141SOL    HW2 4323   0.351   4.722   5.837
 1142SOL     OW 4324   1.588   6.367   1.938
 1142SOL    HW1 4325   1.577   6.347   2.036
 1142SOL    HW2 4326   1.625   6.459   1.928
 1143SOL     OW 4327   0.221   3.880   1.801
 1143SOL    HW1 4328   0.240   3.790   1.763
 1143SOL    HW2 4329   0.140   3.875   1.860
 1144SOL     OW 4330   5.444   4.434   0.158
 1144SOL    HW1 4331   5.527   4.485   0.178
 1144SOL    HW2 4332   5.465   4.355   0.100
 1145SOL     OW 4333   5.547   6.981   0.606
 1145SOL    HW1 4334   5.487   6.975   0.526
 1145SOL    HW2 4335   5.635   6.941   0.584
 1146SOL     OW 4336   1.091   0.986   1.220
 1146SOL    HW1 4337   1.131   0.983   1.128
 1146SOL    HW2 4338   1.051   0.897   1.241
 1147SOL     OW 4339   1.839   6.443   0.503
 1147SOL    HW1 4340   1.884   6.530   0.481
 1147SOL    HW2 4341   1.800   6.447   0.595
 1148SOL     OW 4342   4.682   5.578   3.246
 1148SOL    HW1 4343   4.582   5.582   3.235
 1148SOL    HW2 4344   4.710   5.484   3.264
 1149SOL     OW 4345   5.025   3.322   1.700
 1149SOL    HW1 4346   4.965   3.377   1.642
 1149SOL    HW2 4347   4.977   3.297   1.784
 1150SOL     OW 4348   1.194   3.438   0.323
 1150SOL    HW1 4349   1.147   3.428   0.236
 1150SOL    HW2 4350   1.226   3.532   0.333
 1151SOL     OW 4351   5.845   5.328   4.431
 1151SOL    HW1 4352   5.934   5.290   4.456
 1151SOL    HW2 4353   5.858   5.408   4.373
 1152SOL     OW 4354   3.372   6.696   6.584
 1152SOL    HW1 4355   3.352   6.607   6.625
 1152SOL    HW2 4356   3.340   6.698   6.489
 1153SOL     OW 4357   5.743   6.385   1.897
 1153SOL    HW1 4358   5.823   6.441   1.875
 1153SOL    HW2 4359   5.660   6.438   1.879
 1154SOL     OW 4360   2.597   2.729   0.568
 1154SOL    HW1 4361   2.611   2.634   0.541
 1154SOL    HW2 4362   2.600   2.788   0.488
 1155SOL     OW 4363   3.583   5.870   4.121
 1155SOL    HW1 4364   3.624   5.931   4.053
 1155SOL    HW2 4365   3.650   5.801   4.149
 1156SOL     OW 4366   2.537   1.563   2.686
 1156SOL    HW1 4367   2.630   1.529   2.703
 1156SOL    HW2 4368   2.471   1.505   2.733
 1157SOL     OW 4369   2.768   1.370   0.548
 1157SOL    HW1 4370   2.771   1.281   0.503
 1157SOL    HW2 4371   2.772   1.357   0.647
 1158SOL     OW 4372   6.001   4.271   3.043
 1158SOL    HW1 4373   5.912   4.292   3.003
 1158SOL    HW2 4374   5.992   4.269   3.143
 1159SOL     OW 4375   6.508   5.128   0.530
 1159SOL    HW1 4376   6.525   5.226   0.542
 1159SOL    HW2 4377   6.410   5.114   0.512
 1160SOL     OW 4378   4.809   2.026   0.290
 1160SOL    HW1 4379   4.832   2.097   0.223
 1160SOL    HW2 4380   4.844   2.054   0.380
 1161SOL     OW 4381   6.406   5.463   1.095
 1161SOL    HW1 4382   6.388   5.365   1.105
 1161SOL    HW2 4383   6.359   5.497   1.014
 1162SOL     OW 4384   2.787   2.358   4.592
 1162SOL    HW1 4385   2.787   2.390   4.687
 1162SOL    HW2 4386   2.870   2.305   4.574
 1163SOL     OW 4387   5.956   2.625   1.341
 1163SOL    HW1 4388   6.051   2.597   1.328
 1163SOL    HW2 4389   5.904   2.549   1.380
 1164SOL     OW 4390   4.086   2.841   6.251
 1164SOL    HW1 4391   4.135   2.843   6.163
 1164SOL    HW2 4392   4.150   2.861   6.325
 1165SOL     OW 4393   4.561   6.829   3.481
 1165SOL    HW1 4394   4.481   6.889   3.493
 1165SOL    HW2 4395   4.623   6.841   3.558
 1166SOL     OW 4396   2.993   4.544   6.583
 1166SOL    HW1 4397   2.939   4.565   6.502
 1166SOL    HW2 4398   2.934   4.505   6.653
 1167SOL     OW 4399   4.853   4.663   2.692
 1167SOL    HW1 4400   4.811   4.601   2.625
 1167SOL    HW2 4401   4.930   4.710   2.650
 1168SOL     OW 4402   0.048   0.100   2.125
 1168SOL    HW1 4403   6.982   0.049   2.126
 1168SOL    HW2 4404   0.033   0.191   2.163
 1169SOL     OW 4405   4.470   1.528   5.311
 1169SOL    HW1 4406   4.382   1.490   5.337
 1169SOL    HW2 4407   4.527   1.455   5.272
 1170SOL     OW 4408   5.012   5.025   2.788
 1170SOL    HW1 4409   4.927   5.021   2.737
 1170SOL    HW2 4410   5.080   5.076   2.736
 1171SOL     OW 4411   0.010   6.329   0.500
 1171SOL    HW1 4412   0.008   6.230   0.490
 1171SOL    HW2 4413   6.967   6.357   0.572
 1172SOL     OW 4414   6.664   3.426   6.256
 1172SOL    HW1 4415   6.721   3.361   6.206
 1172SOL    HW2 4416   6.588   3.378   6.300
 1173SOL     OW 4417   3.833   2.320   0.566
 1173SOL    HW1 4418   3.908   2.365   0.614
 1173SOL    HW2 4419   3.863   2.295   0.474
 1174SOL     OW 4420   2.001   4.562   0.454
 1174SOL    HW1 4421   2.048   4.580   0.541
 1174SOL    HW2 4422   1.912   4.607   0.454
 1175SOL     OW 4423   3.162   3.398   4.042
 1175SOL    HW1 4424   3.252   3.412   4.084
 1175SOL    HW2 4425   3.096   3.371   4.112
 1176SOL     OW 4426   4.975   2.965   0.015
 1176SOL    HW1 4427   5.034   3.036   6.996
 1176SOL    HW2 4428   4.959   2.894   6.966
 1177SOL     OW 4429   1.129   1.771   4.228
 1177SOL    HW1 4430   1.119   1.710   4.150
 1177SOL    HW2 4431   1.195   1.843   4.206
 1178SOL     OW 4432   4.555   6.054   6.866
 1178SOL    HW1 4433   4.534   6.084   6.773
 1178SOL    HW2 4434   4.478   6.077   6.926
 1179SOL     OW 4435   0.989   5.691   0.246
 1179SOL    HW1 4436   1.019   5.659   0.336
 1179SOL    HW2 4437   0.906   5.745   0.255
 1180SOL     OW 4438   3.531   6.425   0.577
 1180SOL    HW1 4439   3.613   6.404   0.630
 1180SOL    HW2 4440   3.451   6.388   0.623
 1181SOL     OW 4441   6.282   6.901   6.645
 1181SOL    HW1 4442   6.294   6.977   6.581
 1181SOL    HW2 4443   6.359   6.900   6.709
 1182SOL     OW 4444   4.595   4.824   2.363
 1182SOL    HW1 4445   4.621   4.770   2.442
 1182SOL    HW2 4446   4.595   4.767   2.281
 1183SOL     OW 4447   1.982   4.051   6.059
 1183SOL    HW1 4448   1.923   4.036   5.980
 1183SOL    HW2 4449   2.038   3.970   6.074
 1184SOL     OW 4450   0.325   0.286   5.597
 1184SOL    HW1 4451   0.244   0.233   5.620
 1184SOL    HW2 4452   0.310   0.333   5.510
 1185SOL     OW 4453   6.824   1.419   6.922
 1185SOL    HW1 4454   6.786   1.339   6.970
 1185SOL    HW2 4455   6.919   1.431   6.949
 1186SOL     OW 4456   5.888   6.348   4.750
 1186SOL    HW1 4457   5.801   6.363   4.703
 1186SOL    HW2 4458   5.937   6.435   4.757
 1187SOL     OW 4459   6.600   1.103   5.759
 1187SOL    HW1 4460   6.566   1.009   5.765
 1187SOL    HW2 4461   6.698   1.102   5.737
 1188SOL     OW 4462   2.841   0.692   6.686
 1188SOL    HW1 4463   2.909   0.754   6.646
 1188SOL    HW2 4464   2.751   0.735   6.685
 1189SOL     OW 4465   5.563   3.357   4.045
 1189SOL    HW1 4466   5.515   3.422   3.986
 1189SOL    HW2 4467   5.642   3.319   3.996
 1190SOL     OW 4468   2.390   6.459   3.770
 1190SOL    HW1 4469   2.488   6.465   3.753
 1190SOL    HW2 4470   2.368   6.368   3.805
 1191SOL     OW 4471   4.156   6.109   2.588
 1191SOL    HW1 4472   4.175   6.013   2.609
 1191SOL    HW2 4473   4.234   6.166   2.614
 1192SOL     OW 4474   5.912   6.117   3.333
 1192SOL    HW1 4475   5.861   6.175   3.270
 1192SOL    HW2 4476   6.009   6.118   3.308
 1193SOL     OW 4477   0.147   5.565   4.228
 1193SOL    HW1 4478   0.187   5.540   4.316
 1193SOL    HW2 4479   0.167   5.661   4.208
 1194SOL     OW 4480   3.694   0.168   1.461
 1194SOL    HW1 4481   3.717   0.258   1.425
 1194SOL    HW2 4482   3.595   0.161   1.472
 1195SOL     OW 4483   5.380   2.569   3.880
 1195SOL    HW1 4484   5.350   2.606   3.792
 1195SOL    HW2 4485   5.461   2.619   3.911
 1196SOL     OW 4486   0.020   6.429   4.971
 1196SOL    HW1 4487   0.002   6.339   4.932
 1196SOL    HW2 4488   6.984   6.497   4.925
 1197SOL     OW 4489   2.265   6.151   0.604
 1197SOL    HW1 4490   2.205   6.188   0.534
 1197SOL    HW2 4491   2.349   6.206   0.608
 1198SOL     OW 4492   1.572   2.651   6.695
 1198SOL    HW1 4493   1.622   2.587   6.753
 1198SOL    HW2 4494   1.485   2.676   6.738
 1199SOL     OW 4495   6.028   4.113   1.723
 1199SOL    HW1 4496   6.033   4.104   1.822
 1199SOL    HW2 4497   6.109   4.072   1.682
 1200SOL     OW 4498   2.953   3.788   2.314
 1200SOL    HW1 4499   3.001   3.876   2.315
 1200SOL    HW2 4500   2.960   3.745   2.404
 1201SOL     OW 4501   1.609   2.039   4.769
 1201SOL    HW1 4502   1.631   1.991   4.854
 1201SOL    HW2 4503   1.671   2.116   4.758
 1202SOL     OW 4504   1.406   5.687   5.662
 1202SOL    HW1 4505   1.498   5.657   5.637
 1202SOL    HW2 4506   1.410   5.737   5.748
 1203SOL     OW 4507   3.772   5.754   5.219
 1203SOL    HW1 4508   3.816   5.833   5.261
 1203SOL    HW2 4509   3.804   5.744   5.125
 1204SOL     OW 4510   2.077   0.040   2.643
 1204SOL    HW1 4511   2.032   7.010   2.569
 1204SOL    HW2 4512   2.079   0.137   2.622
 1205SOL     OW 4513   5.456   3.863   2.188
 1205SOL    HW1 4514   5.469   3.956   2.221
 1205SOL    HW2 4515   5.358   3.840   2.192
 1206SOL     OW 4516   3.324   3.690   4.903
 1206SOL    HW1 4517   3.318   3.762   4.972
 1206SOL    HW2 4518   3.272   3.717   4.822
 1207SOL     OW 4519   1.246   5.945   2.637
 1207SOL    HW1 4520   1.248   5.952   2.537
 1207SOL    HW2 4521   1.247   6.037   2.677
 1208SOL     OW 4522   2.985   3.649   5.945
 1208SOL    HW1 4523   2.913   3.598   5.899
 1208SOL    HW2 4524   2.980   3.632   6.044
 1209SOL     OW 4525   3.594   6.361   5.662
 1209SOL    HW1 4526   3.530   6.349   5.586
 1209SOL    HW2 4527   3.564   6.438   5.718
 1210SOL     OW 4528   3.486   1.007   3.438
 1210SOL    HW1 4529   3.393   0.980   3.411
 1210SOL    HW2 4530   3.484   1.101   3.471
 1211SOL     OW 4531   1.235   2.653   0.198
 1211SOL    HW1 4532   1.243   2.614   0.106
 1211SOL    HW2 4533   1.168   2.727   0.197
 1212SOL     OW 4534   1.403   0.205   6.940
 1212SOL    HW1 4535   1.428   0.293   6.980
 1212SOL    HW2 4536   1.389   0.215   6.841
 1213SOL     OW 4537   5.405   3.163   1.183
 1213SOL    HW1 4538   5.344   3.085   1.168
 1213SOL    HW2 4539   5.463   3.176   1.103
 1214SOL     OW 4540   6.672   2.782   1.398
 1214SOL    HW1 4541   6.731   2.837   1.458
 1214SOL    HW2 4542   6.620   2.843   1.337
 1215SOL     OW 4543   1.557   6.003   3.485
 1215SOL    HW1 4544   1.562   5.918   3.434
 1215SOL    HW2 4545   1.615   6.072   3.441
 1216SOL     OW 4546   3.484   6.851   1.653
 1216SOL    HW1 4547   3.497   6.753   1.667
 1216SOL    HW2 4548   3.475   6.869   1.555
 1217SOL     OW 4549   3.066   4.823   0.111
 1217SOL    HW1 4550   3.166   4.813   0.112
 1217SOL    HW2 4551   3.025   4.759   0.176
 1218SOL     OW 4552   2.181   5.207   3.937
 1218SOL    HW1 4553   2.176   5.109   3.918
 1218SOL    HW2 4554   2.276   5.233   3.954
 1219SOL     OW 4555   3.805   6.638   2.277
 1219SOL    HW1 4556   3.737   6.566   2.295
 1219SOL    HW2 4557   3.767   6.704   2.213
 1220SOL     OW 4558   0.904   4.624   2.711
 1220SOL    HW1 4559   0.901   4.531   2.673
 1220SOL    HW2 4560   0.995   4.643   2.746
 1221SOL     OW 4561   5.182   4.619   6.681
 1221SOL    HW1 4562   5.225   4.609   6.592
 1221SOL    HW2 4563   5.251   4.611   6.753
 1222SOL     OW 4564   6.762   0.576   6.238
 1222SOL    HW1 4565   6.845   0.544   6.283
 1222SOL    HW2 4566   6.754   0.532   6.148
 1223SOL     OW 4567   3.592   6.621   0.843
 1223SOL    HW1 4568   3.642   6.546   0.885
 1223SOL    HW2 4569   3.548   6.588   0.759
 1224SOL     OW 4570   2.811   0.200   2.098
 1224SOL    HW1 4571   2.795   0.296   2.118
 1224SOL    HW2 4572   2.743   0.167   2.033
 1225SOL     OW 4573   2.641   3.751   5.593
 1225SOL    HW1 4574   2.677   3.807   5.518
 1225SOL    HW2 4575   2.657   3.654   5.573
 1226SOL     OW 4576   2.170   4.718   0.693
 1226SOL    HW1 4577   2.221   4.748   0.612
 1226SOL    HW2 4578   2.154   4.796   0.753
 1227SOL     OW 4579   1.146   2.966   5.800
 1227SOL    HW1 4580   1.229   2.911   5.806
 1227SOL    HW2 4581   1.168   3.058   5.767
 1228SOL     OW 4582   3.814   2.231   6.826
 1228SOL    HW1 4583   3.882   2.161   6.846
 1228SOL    HW2 4584   3.733   2.187   6.784
 1229SOL     OW 4585   2.831   4.110   6.700
 1229SOL    HW1 4586   2.771   4.090   6.622
 1229SOL    HW2 4587   2.824   4.036   6.767
 1230SOL     OW 4588   4.611   0.657   3.320
 1230SOL    HW1 4589   4.606   0.675   3.222
 1230SOL    HW2 4590   4.683   0.591   3.338
 1231SOL     OW 4591   1.313   4.605   4.644
 1231SOL    HW1 4592   1.283   4.573   4.733
 1231SOL    HW2 4593   1.259   4.685   4.617
 1232SOL     OW 4594   1.850   2.592   3.764
 1232SOL    HW1 4595   1.846   2.496   3.791
 1232SOL    HW2 4596   1.928   2.607   3.704
 1233SOL     OW 4597   0.592   3.151   4.164
 1233SOL    HW1 4598   0.661   3.146   4.092
 1233SOL    HW2 4599   0.598   3.239   4.210
 1234SOL     OW 4600   6.808   3.916   4.221
 1234SOL    HW1 4601   6.757   3.849   4.275
 1234SOL    HW2 4602   6.906   3.903   4.235
 1235SOL     OW 4603   6.788   5.500   4.060
 1235SOL    HW1 4604   6.871   5.533   4.015
 1235SOL    HW2 4605   6.776   5.403   4.042
 1236SOL     OW 4606   5.456   1.039   6.103
 1236SOL    HW1 4607   5.385   1.039   6.033
 1236SOL    HW2 4608   5.534   1.092   6.072
 1237SOL     OW 4609   2.910   4.854   6.652
 1237SOL    HW1 4610   2.853   4.812   6.581
 1237SOL    HW2 4611   2.853   4.880   6.729
 1238SOL     OW 4612   1.260   1.662   0.839
 1238SOL    HW1 4613   1.313   1.579   0.856
 1238SOL    HW2 4614   1.287   1.733   0.905
 1239SOL     OW 4615   0.854   7.001   5.687
 1239SOL    HW1 4616   0.951   6.983   5.673
 1239SOL    HW2 4617   0.818   6.938   5.755
 1240SOL     OW 4618   4.307   5.979   2.202
 1240SOL    HW1 4619   4.227   6.026   2.238
 1240SOL    HW2 4620   4.390   6.028   2.228
 1241SOL     OW 4621   0.323   2.548   4.376
 1241SOL    HW1 4622   0.301   2.451   4.376
 1241SOL    HW2 4623   0.344   2.577   4.283
 1242SOL     OW 4624   2.325   3.315   6.312
 1242SOL    HW1 4625   2.270   3.232   6.319
 1242SOL    HW2 4626   2.378   3.313   6.227
 1243SOL     OW 4627   2.431   5.236   5.341
 1243SOL    HW1 4628   2.358   5.231   5.410
 1243SOL    HW2 4629   2.393   5.272   5.256
 1244SOL     OW 4630   0.575   0.889   3.334
 1244SOL    HW1 4631   0.512   0.827   3.382
 1244SOL    HW2 4632   0.577   0.867   3.237
 1245SOL     OW 4633   3.116   2.804   6.042
 1245SOL    HW1 4634   3.157   2.893   6.021
 1245SOL    HW2 4635   3.017   2.813   6.043
 1246SOL     OW 4636   0.969   0.014   1.240
 1246SOL    HW1 4637   1.054   0.064   1.256
 1246SOL    HW2 4638   0.914   0.014   1.324
 1247SOL     OW 4639   1.057   6.394   6.836
 1247SOL    HW1 4640   0.988   6.413   6.766
 1247SOL    HW2 4641   1.031   6.440   6.921
 1248SOL     OW 4642   1.889   6.365   3.310
 1248SOL    HW1 4643   1.960   6.386   3.378
 1248SOL    HW2 4644   1.907   6.417   3.226
 1249SOL     OW 4645   5.934   3.073   3.660
 1249SOL    HW1 4646   5.968   3.166   3.663
 1249SOL    HW2 4647   5.989   3.014   3.719
 1250SOL     OW 4648   0.300   4.290   4.399
 1250SOL    HW1 4649   0.346   4.203   4.385
 1250SOL    HW2 4650   0.369   4.361   4.416
 1251SOL     OW 4651   3.302   6.978   6.222
 1251SOL    HW1 4652   3.385   0.012   6.210
 1251SOL    HW2 4653   3.244   6.987   6.142
 1252SOL     OW 4654   3.427   3.432   6.697
 1252SOL    HW1 4655   3.468   3.353   6.653
 1252SOL    HW2 4656   3.333   3.444   6.662
 1253SOL     OW 4657   4.278   6.832   2.829
 1253SOL    HW1 4658   4.227   6.793   2.906
 1253SOL    HW2 4659   4.242   6.794   2.743
 1254SOL     OW 4660   6.300   1.788   2.672
 1254SOL    HW1 4661   6.318   1.860   2.740
 1254SOL    HW2 4662   6.220   1.812   2.618
 1255SOL     OW 4663   6.351   0.485   0.445
 1255SOL    HW1 4664   6.407   0.504   0.525
 1255SOL    HW2 4665   6.364   0.557   0.377
 1256SOL     OW 4666   4.954   2.162   3.789
 1256SOL    HW1 4667   4.957   2.131   3.884
 1256SOL    HW2 4668   5.042   2.144   3.745
 1257SOL     OW 4669   6.251   1.619   4.113
 1257SOL    HW1 4670   6.243   1.719   4.115
 1257SOL    HW2 4671   6.202   1.583   4.033
 1258SOL     OW 4672   0.190   5.826   3.776
 1258SOL    HW1 4673   0.113   5.867   3.727
 1258SOL    HW2 4674   0.272   5.881   3.762
 1259SOL     OW 4675   4.603   2.344   5.426
 1259SOL    HW1 4676   4.585   2.362   5.522
 1259SOL    HW2 4677   4.541   2.400   5.370
 1260SOL     OW 4678   0.717   1.442   5.402
 1260SOL    HW1 4679   0.704   1.347   5.432
 1260SOL    HW2 4680   0.628   1.481   5.377
 1261SOL     OW 4681   6.727   3.551   0.583
 1261SOL    HW1 4682   6.812   3.603   0.592
 1261SOL    HW2 4683   6.649   3.614   0.578
 1262SOL     OW 4684   4.852   5.896   2.585
 1262SOL    HW1 4685   4.920   5.949   2.535
 1262SOL    HW2 4686   4.898   5.829   2.644
 1263SOL     OW 4687   6.427   2.429   3.690
 1263SOL    HW1 4688   6.362   2.443   3.616
 1263SOL    HW2 4689   6.433   2.512   3.746
 1264SOL     OW 4690   1.314   2.569   5.543
 1264SOL    HW1 4691   1.388   2.632   5.565
 1264SOL    HW2 4692   1.268   2.600   5.460
 1265SOL     OW 4693   5.943   0.124   5.730
 1265SOL    HW1 4694   5.984   0.058   5.667
 1265SOL    HW2 4695   5.991   0.211   5.724
 1266SOL     OW 4696   2.323   1.238   5.705
 1266SOL    HW1 4697   2.245   1.270   5.758
 1266SOL    HW2 4698   2.332   1.139   5.714
 1267SOL     OW 4699   3.613   0.336   2.728
 1267SOL    HW1 4700   3.642   0.413   2.786
 1267SOL    HW2 4701   3.525   0.301   2.761
 1268SOL     OW 4702   3.895   2.497   5.485
 1268SOL    HW1 4703   3.898   2.588   5.525
 1268SOL    HW2 4704   3.799   2.469   5.472
 1269SOL     OW 4705   6.038   1.892   3.729
 1269SOL    HW1 4706   5.981   1.822   3.685
 1269SOL    HW2 4707   6.040   1.876   3.827
 1270SOL     OW 4708   6.060   4.975   2.634
 1270SOL    HW1 4709   5.998   4.901   2.661
 1270SOL    HW2 4710   6.150   4.938   2.614
 1271SOL     OW 4711   2.340   1.293   1.166
 1271SOL    HW1 4712   2.394   1.302   1.082
 1271SOL    HW2 4713   2.325   1.383   1.205
 1272SOL     OW 4714   6.067   1.896   0.244
 1272SOL    HW1 4715   6.039   1.806   0.209
 1272SOL    HW2 4716   6.017   1.967   0.195
 1273SOL     OW 4717   2.060   4.129   5.743
 1273SOL    HW1 4718   2.139   4.099   5.797
 1273SOL    HW2 4719   2.072   4.224   5.716
 1274SOL     OW 4720   7.005   4.739   3.955
 1274SOL    HW1 4721   0.033   4.797   4.020
 1274SOL    HW2 4722   6.910   4.770   3.946
 1275SOL     OW 4723   2.213   1.559   2.591
 1275SOL    HW1 4724   2.131   1.581   2.538
 1275SOL    HW2 4725   2.290   1.612   2.555
 1276SOL     OW 4726   5.809   4.532   3.289
 1276SOL    HW1 4727   5.857   4.595   3.228
 1276SOL    HW2 4728   5.778   4.452   3.237
 1277SOL     OW 4729   0.718   6.308   6.930
 1277SOL    HW1 4730   0.636   6.277   6.881
 1277SOL    HW2 4731   0.757   6.387   6.882
 1278SOL     OW 4732   0.495   5.692   2.628
 1278SOL    HW1 4733   0.426   5.634   2.671
 1278SOL    HW2 4734   0.494   5.677   2.529
 1279SOL     OW 4735   2.678   3.084   1.070
 1279SOL    HW1 4736   2.737   3.146   1.018
 1279SOL    HW2 4737   2.722   2.994   1.077
 1280SOL     OW 4738   2.687   2.429   4.102
 1280SOL    HW1 4739   2.693   2.420   4.003
 1280SOL    HW2 4740   2.730   2.349   4.145
 1281SOL     OW 4741   6.222   6.268   4.956
 1281SOL    HW1 4742   6.129   6.241   4.981
 1281SOL    HW2 4743   6.223   6.305   4.863
 1282SOL     OW 4744   0.623   2.842   1.337
 1282SOL    HW1 4745   0.680   2.924   1.341
 1282SOL    HW2 4746   0.662   2.772   1.397
 1283SOL     OW 4747   6.913   1.809   4.143
 1283SOL    HW1 4748   6.914   1.843   4.237
 1283SOL    HW2 4749   6.889   1.884   4.081
 1284SOL     OW 4750   3.800   2.003   2.108
 1284SOL    HW1 4751   3.764   1.910   2.098
 1284SOL    HW2 4752   3.729   2.069   2.083
 1285SOL     OW 4753   4.682   0.932   4.180
 1285SOL    HW1 4754   4.731   0.851   4.213
 1285SOL    HW2 4755   4.672   0.997   4.255
 1286SOL     OW 4756   5.518   1.666   1.304
 1286SOL    HW1 4757   5.578   1.745   1.319
 1286SOL    HW2 4758   5.472   1.643   1.389
 1287SOL     OW 4759   5.752   4.939   5.389
 1287SOL    HW1 4760   5.830   4.893   5.347
 1287SOL    HW2 4761   5.668   4.914   5.340
 1288SOL     OW 4762   4.799   4.815   0.040
 1288SOL    HW1 4763   4.701   4.817   0.019
 1288SOL    HW2 4764   4.836   4.725   0.016
 1289SOL     OW 4765   6.594   0.040   0.476
 1289SOL    HW1 4766   6.610   6.969   0.440
 1289SOL    HW2 4767   6.657   0.058   0.552
 1290SOL     OW 4768   1.462   6.579   5.671
 1290SOL    HW1 4769   1.500   6.492   5.641
 1290SOL    HW2 4770   1.369   6.588   5.637
 1291SOL     OW 4771   5.918   5.127   3.838
 1291SOL    HW1 4772   6.008   5.110   3.798
 1291SOL    HW2 4773   5.903   5.065   3.915
 1292SOL     OW 4774   0.861   6.915   2.368
 1292SOL    HW1 4775   0.904   6.834   2.409
 1292SOL    HW2 4776   0.796   6.954   2.433
 1293SOL     OW 4777   5.018   1.102   0.776
 1293SOL    HW1 4778   5.117   1.109   0.783
 1293SOL    HW2 4779   4.988   1.012   0.808
 1294SOL     OW 4780   2.267   4.628   4.767
 1294SOL    HW1 4781   2.306   4.696   4.830
 1294SOL    HW2 4782   2.314   4.540   4.781
 1295SOL     OW 4783   0.205   4.581   0.541
 1295SOL    HW1 4784   0.230   4.486   0.520
 1295SOL    HW2 4785   0.259   4.613   0.619
 1296SOL     OW 4786   4.941   6.887   6.074
 1296SOL    HW1 4787   4.956   6.807   6.016
 1296SOL    HW2 4788   5.015   6.894   6.141
 1297SOL     OW 4789   6.371   7.012   0.668
 1297SOL    HW1 4790   6.428   0.030   0.595
 1297SOL    HW2 4791   6.430   6.980   0.743
 1298SOL     OW 4792   5.030   0.537   3.083
 1298SOL    HW1 4793   5.029   0.517   2.985
 1298SOL    HW2 4794   5.125   0.548   3.113
 1299SOL     OW 4795   0.910   3.542   4.375
 1299SOL    HW1 4796   0.975   3.617   4.369
 1299SOL    HW2 4797   0.820   3.577   4.400
 1300SOL     OW 4798   0.582   5.646   0.942
 1300SOL    HW1 4799   0.643   5.568   0.958
 1300SOL    HW2 4800   0.617   5.726   0.990
 1301SOL     OW 4801   6.616   0.455   0.095
 1301SOL    HW1 4802   6.669   0.441   0.179
 1301SOL    HW2 4803   6.543   0.387   0.089
 1302SOL     OW 4804   6.424   0.007   5.139
 1302SOL    HW1 4805   6.447   0.069   5.064
 1302SOL    HW2 4806   6.411   6.935   5.103
 1303SOL     OW 4807   2.920   6.510   1.538
 1303SOL    HW1 4808   2.941   6.583   1.473
 1303SOL    HW2 4809   2.981   6.432   1.522
 1304SOL     OW 4810   0.165   0.779   0.925
 1304SOL    HW1 4811   0.203   0.745   1.011
 1304SOL    HW2 4812   0.197   0.872   0.909
 1305SOL     OW 4813   4.108   4.755   6.032
 1305SOL    HW1 4814   4.178   4.771   6.102
 1305SOL    HW2 4815   4.135   4.677   5.975
 1306SOL     OW 4816   3.054   6.026   3.712
 1306SOL    HW1 4817   3.152   6.035   3.731
 1306SOL    HW2 4818   3.026   6.101   3.652
 1307SOL     OW 4819   2.086   3.238   4.071
 1307SOL    HW1 4820   1.987   3.232   4.081
 1307SOL    HW2 4821   2.126   3.271   4.157
 1308SOL     OW 4822   6.573   3.664   6.083
 1308SOL    HW1 4823   6.652   3.725   6.091
 1308SOL    HW2 4824   6.582   3.589   6.148
 1309SOL     OW 4825   5.825   3.818   6.603
 1309SOL    HW1 4826   5.767   3.807   6.684
 1309SOL    HW2 4827   5.895   3.887   6.622
 1310SOL     OW 4828   1.847   4.351   3.294
 1310SOL    HW1 4829   1.790   4.269   3.287
 1310SOL    HW2 4830   1.891   4.354   3.383
 1311SOL     OW 4831   5.282   5.461   0.478
 1311SOL    HW1 4832   5.212   5.499   0.417
 1311SOL    HW2 4833   5.372   5.495   0.450
 1312SOL     OW 4834   2.634   1.060   6.331
 1312SOL    HW1 4835   2.728   1.078   6.299
 1312SOL    HW2 4836   2.604   0.972   6.296
 1313SOL     OW 4837   6.473   5.787   1.256
 1313SOL    HW1 4838   6.454   5.812   1.351
 1313SOL    HW2 4839   6.545   5.718   1.253
 1314SOL     OW 4840   2.033   1.539   4.121
 1314SOL    HW1 4841   1.975   1.615   4.151
 1314SOL    HW2 4842   1.995   1.453   4.153
 1315SOL     OW 4843   5.983   0.990   2.816
 1315SOL    HW1 4844   5.947   0.917   2.758
 1315SOL    HW2 4845   6.003   0.954   2.907
 1316SOL     OW 4846   5.150   7.012   6.476
 1316SOL    HW1 4847   5.199   6.955   6.541
 1316SOL    HW2 4848   5.139   0.084   6.513
 1317SOL     OW 4849   3.149   3.099   5.366
 1317SOL    HW1 4850   3.242   3.134   5.355
 1317SOL    HW2 4851   3.151   3.000   5.375
 1318SOL     OW 4852   1.898   1.570   6.141
 1318SOL    HW1 4853   1.920   1.604   6.050
 1318SOL    HW2 4854   1.877   1.472   6.136
 1319SOL     OW 4855   6.898   0.518   0.318
 1319SOL    HW1 4856   6.924   0.422   0.307
 1319SOL    HW2 4857   6.977   0.577   0.298
 1320SOL     OW 4858   3.092   3.067   6.401
 1320SOL    HW1 4859   3.040   3.144   6.366
 1320SOL    HW2 4860   3.093   2.994   6.333
 1321SOL     OW 4861   6.913   2.791   0.835
 1321SOL    HW1 4862   6.918   2.739   0.921
 1321SOL    HW2 4863   6.952   2.736   0.761
 1322SOL     OW 4864   3.487   2.372   0.364
 1322SOL    HW1 4865   3.448   2.288   0.403
 1322SOL    HW2 4866   3.573   2.351   0.319
 1323SOL     OW 4867   3.940   0.136   1.636
 1323SOL    HW1 4868   3.865   0.153   1.573
 1323SOL    HW2 4869   3.959   0.038   1.641
 1324SOL     OW 4870   2.305   4.048   5.863
 1324SOL    HW1 4871   2.330   4.022   5.956
 1324SOL    HW2 4872   2.383   4.035   5.802
 1325SOL     OW 4873   3.507   6.102   4.944
 1325SOL    HW1 4874   3.530   6.174   4.880
 1325SOL    HW2 4875   3.513   6.013   4.898
 1326SOL     OW 4876   5.198   1.540   4.973
 1326SOL    HW1 4877   5.222   1.570   5.065
 1326SOL    HW2 4878   5.220   1.443   4.963
 1327SOL     OW 4879   4.961   5.297   2.597
 1327SOL    HW1 4880   4.893   5.363   2.626
 1327SOL    HW2 4881   5.046   5.311   2.648
 1328SOL     OW 4882   2.498   2.205   6.060
 1328SOL    HW1 4883   2.490   2.107   6.048
 1328SOL    HW2 4884   2.424   2.251   6.012
 1329SOL     OW 4885   0.808   2.852   3.873
 1329SOL    HW1 4886   0.804   2.759   3.836
 1329SOL    HW2 4887   0.898   2.868   3.913
 1330SOL     OW 4888   5.895   3.023   2.816
 1330SOL    HW1 4889   5.886   2.933   2.774
 1330SOL    HW2 4890   5.958   3.017   2.893
 1331SOL     OW 4891   4.861   2.402   3.489
 1331SOL    HW1 4892   4.933   2.394   3.420
 1331SOL    HW2 4893   4.833   2.311   3.519
 1332SOL     OW 4894   1.835   5.630   0.790
 1332SOL    HW1 4895   1.751   5.679   0.814
 1332SOL    HW2 4896   1.912   5.695   0.791
 1333SOL     OW 4897   3.525   3.702   2.973
 1333SOL    HW1 4898   3.442   3.722   2.921
 1333SOL    HW2 4899   3.580   3.635   2.924
 1334SOL     OW 4900   6.885   3.309   1.672
 1334SOL    HW1 4901   6.957   3.256   1.628
 1334SOL    HW2 4902   6.907   3.407   1.669
 1335SOL     OW 4903   0.355   3.594   3.571
 1335SOL    HW1 4904   0.400   3.507   3.591
 1335SOL    HW2 4905   0.413   3.670   3.601
 1336SOL     OW 4906   1.978   0.141   5.485
 1336SOL    HW1 4907   2.073   0.131   5.516
 1336SOL    HW2 4908   1.932   0.209   5.541
 1337SOL     OW 4909   6.948   6.829   2.124
 1337SOL    HW1 4910   0.008   6.772   2.140
 1337SOL    HW2 4911   6.880   6.811   2.195
 1338SOL     OW 4912   6.619   4.060   5.172
 1338SOL    HW1 4913   6.683   4.093   5.103
 1338SOL    HW2 4914   6.533   4.033   5.128
 1339SOL     OW 4915   6.010   0.922   6.538
 1339SOL    HW1 4916   5.991   0.954   6.445
 1339SOL    HW2 4917   6.059   0.993   6.589
 1340SOL     OW 4918   3.578   3.045   1.721
 1340SOL    HW1 4919   3.536   2.956   1.740
 1340SOL    HW2 4920   3.565   3.068   1.625
 1341SOL     OW 4921   5.054   5.399   6.798
 1341SOL    HW1 4922   5.108   5.480   6.818
 1341SOL    HW2 4923   5.056   5.380   6.700
 1342SOL     OW 4924   1.733   6.292   1.356
 1342SOL    HW1 4925   1.735   6.199   1.322
 1342SOL    HW2 4926   1.818   6.312   1.405
 1343SOL     OW 4927   5.333   5.631   2.916
 1343SOL    HW1 4928   5.268   5.692   2.963
 1343SOL    HW2 4929   5.287   5.588   2.838
 1344SOL     OW 4930   0.952   0.655   4.466
 1344SOL    HW1 4931   1.019   0.628   4.397
 1344SOL    HW2 4932   0.865   0.675   4.421
 1345SOL     OW 4933   1.141   6.847   6.601
 1345SOL    HW1 4934   1.175   6.890   6.685
 1345SOL    HW2 4935   1.207   6.778   6.570
 1346SOL     OW 4936   3.074   5.206   4.537
 1346SOL    HW1 4937   3.147   5.274   4.532
 1346SOL    HW2 4938   3.007   5.234   4.606
 1347SOL     OW 4939   1.792   0.574   6.380
 1347SOL    HW1 4940   1.809   0.489   6.329
 1347SOL    HW2 4941   1.720   0.559   6.447
 1348SOL     OW 4942   1.106   6.446   5.064
 1348SOL    HW1 4943   1.135   6.514   5.131
 1348SOL    HW2 4944   1.175   6.374   5.056
 1349SOL     OW 4945   5.288   3.596   4.110
 1349SOL    HW1 4946   5.343   3.675   4.081
 1349SOL    HW2 4947   5.245   3.616   4.199
 1350SOL     OW 4948   4.744   5.004   6.858
 1350SOL    HW1 4949   4.686   4.933   6.818
 1350SOL    HW2 4950   4.795   4.966   6.935
 1351SOL     OW 4951   6.662   2.624   5.958
 1351SOL    HW1 4952   6.727   2.566   6.008
 1351SOL    HW2 4953   6.620   2.571   5.884
 1352SOL     OW 4954   0.143   1.176   2.872
 1352SOL    HW1 4955   0.206   1.117   2.922
 1352SOL    HW2 4956   0.074   1.120   2.826
 1353SOL     OW 4957   6.933   1.257   0.414
 1353SOL    HW1 4958   6.836   1.234   0.417
 1353SOL    HW2 4959   6.984   1.178   0.378
 1354SOL     OW 4960   5.016   4.652   2.254
 1354SOL    HW1 4961   5.108   4.680   2.224
 1354SOL    HW2 4962   4.970   4.730   2.296
 1355SOL     OW 4963   4.665   3.340   5.428
 1355SOL    HW1 4964   4.713   3.389   5.355
 1355SOL    HW2 4965   4.727   3.272   5.468
 1356SOL     OW 4966   2.888   3.221   0.123
 1356SOL    HW1 4967   2.976   3.264   0.102
 1356SOL    HW2 4968   2.870   3.148   0.058
 1357SOL     OW 4969   1.464   2.359   6.086
 1357SOL    HW1 4970   1.496   2.452   6.102
 1357SOL    HW2 4971   1.519   2.295   6.141
 1358SOL     OW 4972   2.173   6.490   0.113
 1358SOL    HW1 4973   2.184   6.412   0.052
 1358SOL    HW2 4974   2.076   6.503   0.135
 1359SOL     OW 4975   6.229   4.040   0.896
 1359SOL    HW1 4976   6.210   4.128   0.939
 1359SOL    HW2 4977   6.278   3.981   0.962
 1360SOL     OW 4978   2.270   2.658   0.306
 1360SOL    HW1 4979   2.203   2.684   0.375
 1360SOL    HW2 4980   2.268   2.559   0.293
 1361SOL     OW 4981   6.492   4.583   4.743
 1361SOL    HW1 4982   6.584   4.551   4.769
 1361SOL    HW2 4983   6.500   4.651   4.670
 1362SOL     OW 4984   3.223   3.993   3.250
 1362SOL    HW1 4985   3.301   4.055   3.239
 1362SOL    HW2 4986   3.164   4.028   3.322
 1363SOL     OW 4987   0.926   6.525   4.328
 1363SOL    HW1 4988   0.833   6.560   4.320
 1363SOL    HW2 4989   0.929   6.431   4.295
 1364SOL     OW 4990   4.540   4.204   0.587
 1364SOL    HW1 4991   4.605   4.256   0.531
 1364SOL    HW2 4992   4.572   4.200   0.681
 1365SOL     OW 4993   6.104   2.810   6.789
 1365SOL    HW1 4994   6.119   2.885   6.853
 1365SOL    HW2 4995   6.108   2.723   6.839
 1366SOL     OW 4996   2.229   0.203   5.708
 1366SOL    HW1 4997   2.292   0.225   5.783
 1366SOL    HW2 4998   2.142   0.251   5.722
 1367SOL     OW 4999   2.812   1.711   1.991
 1367SOL    HW1 5000   2.864   1.631   2.022
 1367SOL    HW2 5001   2.847   1.793   2.037
 1368SOL     OW 5002   6.181   6.854   3.313
 1368SOL    HW1 5003   6.261   6.911   3.331
 1368SOL    HW2 5004   6.121   6.853   3.393
 1369SOL     OW 5005   1.125   0.419   2.661
 1369SOL    HW1 5006   1.191   0.449   2.730
 1369SOL    HW2 5007   1.173   0.404   2.574
 1370SOL     OW 5008   2.524   1.355   2.011
 1370SOL    HW1 5009   2.518   1.330   2.108
 1370SOL    HW2 5010   2.522   1.454   2.002
 1371SOL     OW 5011   3.667   0.493   6.161
 1371SOL    HW1 5012   3.650   0.480   6.259
 1371SOL    HW2 5013   3.605   0.435   6.108
 1372SOL     OW 5014   2.831   2.234   1.786
 1372SOL    HW1 5015   2.887   2.275   1.714
 1372SOL    HW2 5016   2.852   2.278   1.873
 1373SOL     OW 5017   1.625   5.722   6.671
 1373SOL    HW1 5018   1.652   5.787   6.741
 1373SOL    HW2 5019   1.604   5.771   6.586
 1374SOL     OW 5020   5.003   4.376   0.070
 1374SOL    HW1 5021   4.996   4.283   0.107
 1374SOL    HW2 5022   5.096   4.391   0.037
 1375SOL     OW 5023   0.988   4.437   5.082
 1375SOL    HW1 5024   1.082   4.451   5.051
 1375SOL    HW2 5025   0.928   4.504   5.037
 1376SOL     OW 5026   4.991   0.578   2.478
 1376SOL    HW1 5027   4.911   0.526   2.507
 1376SOL    HW2 5028   5.024   0.634   2.554
 1377SOL     OW 5029   0.826   4.654   4.400
 1377SOL    HW1 5030   0.890   4.709   4.346
 1377SOL    HW2 5031   0.838   4.557   4.378
 1378SOL     OW 5032   2.009   2.559   0.020
 1378SOL    HW1 5033   2.001   2.646   0.069
 1378SOL    HW2 5034   1.928   2.546   6.982
 1379SOL     OW 5035   3.707   6.276   1.431
 1379SOL    HW1 5036   3.668   6.241   1.517
 1379SOL    HW2 5037   3.736   6.199   1.374
 1380SOL     OW 5038   5.739   5.112   2.744
 1380SOL    HW1 5039   5.764   5.132   2.649
 1380SOL    HW2 5040   5.820   5.116   2.802
 1381SOL     OW 5041   6.112   6.736   2.096
 1381SOL    HW1 5042   6.100   6.646   2.054
 1381SOL    HW2 5043   6.144   6.801   2.027
 1382SOL     OW 5044   0.015   4.080   6.060
 1382SOL    HW1 5045   6.965   4.135   6.106
 1382SOL    HW2 5046   0.056   4.134   5.986
 1383SOL     OW 5047   2.781   0.311   0.382
 1383SOL    HW1 5048   2.772   0.394   0.327
 1383SOL    HW2 5049   2.722   0.240   0.344
 1384SOL     OW 5050   1.348   1.999   2.148
 1384SOL    HW1 5051   1.359   1.923   2.212
 1384SOL    HW2 5052   1.413   1.989   2.072
 1385SOL     OW 5053   5.200   3.341   4.083
 1385SOL    HW1 5054   5.177   3.326   3.986
 1385SOL    HW2 5055   5.270   3.411   4.090
 1386SOL     OW 5056   2.352   2.790   3.627
 1386SOL    HW1 5057   2.392   2.705   3.592
 1386SOL    HW2 5058   2.338   2.783   3.726
 1387SOL     OW 5059   3.213   0.539   4.286
 1387SOL    HW1 5060   3.231   0.457   4.232
 1387SOL    HW2 5061   3.190   0.513   4.380
 1388SOL     OW 5062   5.345   1.328   3.805
 1388SOL    HW1 5063   5.312   1.412   3.762
 1388SOL    HW2 5064   5.430   1.346   3.855
 1389SOL     OW 5065   6.962   0.304   3.731
 1389SOL    HW1 5066   0.041   0.303   3.748
 1389SOL    HW2 5067   6.920   0.226   3.776
 1390SOL     OW 5068   4.411   2.466   3.029
 1390SOL    HW1 5069   4.401   2.368   3.049
 1390SOL    HW2 5070   4.380   2.483   2.935
 1391SOL     OW 5071   5.424   0.723   4.429
 1391SOL    HW1 5072   5.398   0.768   4.514
 1391SOL    HW2 5073   5.491   0.651   4.448
 1392SOL     OW 5074   4.135   6.607   5.420
 1392SOL    HW1 5075   4.103   6.581   5.512
 1392SOL    HW2 5076   4.233   6.588   5.412
 1393SOL     OW 5077   4.725   0.031   7.015
 1393SOL    HW1 5078   4.649   0.045   6.952
 1393SOL    HW2 5079   4.791   0.106   7.007
 1394SOL     OW 5080   4.111   0.061   3.897
 1394SOL    HW1 5081   4.202   0.073   3.938
 1394SOL    HW2 5082   4.113   0.096   3.803
 1395SOL     OW 5083   0.127   4.956   2.569
 1395SOL    HW1 5084   0.032   4.944   2.539
 1395SOL    HW2 5085   0.135   4.927   2.664
 1396SOL     OW 5086   0.817   2.151   3.549
 1396SOL    HW1 5087   0.752   2.077   3.532
 1396SOL    HW2 5088   0.910   2.118   3.530
 1397SOL     OW 5089   2.108   5.160   4.777
 1397SOL    HW1 5090   2.028   5.179   4.834
 1397SOL    HW2 5091   2.107   5.065   4.747
 1398SOL     OW 5092   2.487   6.936   6.807
 1398SOL    HW1 5093   2.478   6.853   6.751
 1398SOL    HW2 5094   2.451   6.918   6.898
 1399SOL     OW 5095   3.576   6.930   6.987
 1399SOL    HW1 5096   3.632   6.953   6.908
 1399SOL    HW2 5097   3.572   7.009   0.029
 1400SOL     OW 5098   0.647   0.530   5.546
 1400SOL    HW1 5099   0.581   0.600   5.573
 1400SOL    HW2 5100   0.658   0.531   5.447
 1401SOL     OW 5101   5.820   6.740   1.988
 1401SOL    HW1 5102   5.893   6.730   2.055
 1401SOL    HW2 5103   5.859   6.761   1.898
 1402SOL     OW 5104   5.931   4.706   2.139
 1402SOL    HW1 5105   5.920   4.781   2.074
 1402SOL    HW2 5106   5.923   4.742   2.232
 1403SOL     OW 5107   2.921   3.928   6.369
 1403SOL    HW1 5108   2.951   4.019   6.341
 1403SOL    HW2 5109   2.975   3.859   6.320
 1404SOL     OW 5110   4.002   6.542   0.884
 1404SOL    HW1 5111   4.031   6.446   0.875
 1404SOL    HW2 5112   4.027   6.592   0.802
 1405SOL     OW 5113   1.024   3.443   0.108
 1405SOL    HW1 5114   0.932   3.475   0.089
 1405SOL    HW2 5115   1.041   3.358   0.057
 1406SOL     OW 5116   2.320   2.256   6.786
 1406SOL    HW1 5117   2.246   2.285   6.846
 1406SOL    HW2 5118   2.369   2.336   6.752
 1407SOL     OW 5119   0.270   2.473   1.380
 1407SOL    HW1 5120   0.359   2.486   1.336
 1407SOL    HW2 5121   0.209   2.422   1.319
 1408SOL     OW 5122   5.263   6.354   0.439
 1408SOL    HW1 5123   5.336   6.287   0.443
 1408SOL    HW2 5124   5.175   6.308   0.428
 1409SOL     OW 5125   6.107   1.377   5.674
 1409SOL    HW1 5126   6.027   1.434   5.657
 1409SOL    HW2 5127   6.190   1.429   5.654
 1410SOL     OW 5128   2.654   0.659   0.416
 1410SOL    HW1 5129   2.728   0.725   0.401
 1410SOL    HW2 5130   2.644   0.643   0.514
 1411SOL     OW 5131   3.775   5.646   6.821
 1411SOL    HW1 5132   3.676   5.660   6.816
 1411SOL    HW2 5133   3.798   5.556   6.785
 1412SOL     OW 5134   2.603   2.112   0.344
 1412SOL    HW1 5135   2.508   2.132   0.366
 1412SOL    HW2 5136   2.619   2.014   0.351
 1413SOL     OW 5137   2.413   1.481   5.558
 1413SOL    HW1 5138   2.372   1.395   5.591
 1413SOL    HW2 5139   2.438   1.471   5.462
 1414SOL     OW 5140   0.145   5.055   2.129
 1414SOL    HW1 5141   0.222   5.009   2.173
 1414SOL    HW2 5142   0.067   4.992   2.124
 1415SOL     OW 5143   3.705   1.756   4.860
 1415SOL    HW1 5144   3.686   1.731   4.955
 1415SOL    HW2 5145   3.713   1.855   4.852
 1416SOL     OW 5146   4.764   0.289   4.843
 1416SOL    HW1 5147   4.795   0.378   4.879
 1416SOL    HW2 5148   4.736   0.301   4.748
 1417SOL     OW 5149   3.551   3.378   4.413
 1417SOL    HW1 5150   3.621   3.313   4.441
 1417SOL    HW2 5151   3.483   3.387   4.485
 1418SOL     OW 5152   3.112   3.761   4.751
 1418SOL    HW1 5153   3.091   3.859   4.743
 1418SOL    HW2 5154   3.133   3.724   4.661
 1419SOL     OW 5155   1.088   5.992   1.962
 1419SOL    HW1 5156   1.053   6.086   1.962
 1419SOL    HW2 5157   1.186   5.992   1.942
 1420SOL     OW 5158   2.807   6.228   3.175
 1420SOL    HW1 5159   2.864   6.307   3.197
 1420SOL    HW2 5160   2.862   6.145   3.175
 1421SOL     OW 5161   1.758   5.530   0.536
 1421SOL    HW1 5162   1.835   5.524   0.473
 1421SOL    HW2 5163   1.789   5.569   0.623
 1422SOL     OW 5164   1.810   3.798   6.834
 1422SOL    HW1 5165   1.901   3.755   6.837
 1422SOL    HW2 5166   1.807   3.874   6.898
 1423SOL     OW 5167   4.773   1.125   4.783
 1423SOL    HW1 5168   4.681   1.086   4.774
 1423SOL    HW2 5169   4.770   1.222   4.758
 1424SOL     OW 5170   6.255   2.326   1.500
 1424SOL    HW1 5171   6.340   2.287   1.536
 1424SOL    HW2 5172   6.182   2.257   1.506
 1425SOL     OW 5173   5.832   6.674   3.212
 1425SOL    HW1 5174   5.904   6.639   3.271
 1425SOL    HW2 5175   5.872   6.700   3.123
 1426SOL     OW 5176   3.855   1.109   0.853
 1426SOL    HW1 5177   3.825   1.168   0.928
 1426SOL    HW2 5178   3.951   1.084   0.866
 1427SOL     OW 5179   1.129   0.550   4.289
 1427SOL    HW1 5180   1.061   0.478   4.305
 1427SOL    HW2 5181   1.218   0.507   4.270
 1428SOL     OW 5182   2.184   4.064   3.801
 1428SOL    HW1 5183   2.209   4.019   3.715
 1428SOL    HW2 5184   2.169   3.995   3.872
 1429SOL     OW 5185   6.262   0.077   2.200
 1429SOL    HW1 5186   6.193   0.134   2.246
 1429SOL    HW2 5187   6.269   0.105   2.104
 1430SOL     OW 5188   2.011   4.037   4.562
 1430SOL    HW1 5189   1.933   4.016   4.620
 1430SOL    HW2 5190   2.000   4.128   4.522
 1431SOL     OW 5191   3.303   1.634   0.602
 1431SOL    HW1 5192   3.215   1.681   0.595
 1431SOL    HW2 5193   3.344   1.652   0.691
 1432SOL     OW 5194   4.456   0.039   3.047
 1432SOL    HW1 5195   4.468   0.138   3.043
 1432SOL    HW2 5196   4.406   0.008   2.966
 1433SOL     OW 5197   2.948   2.231   3.694
 1433SOL    HW1 5198   3.026   2.258   3.750
 1433SOL    HW2 5199   2.980   2.190   3.609
 1434SOL     OW 5200   5.395   3.538   0.928
 1434SOL    HW1 5201   5.373   3.545   1.025
 1434SOL    HW2 5202   5.484   3.580   0.910
 1435SOL     OW 5203   0.646   6.531   4.084
 1435SOL    HW1 5204   0.630   6.432   4.082
 1435SOL    HW2 5205   0.592   6.575   4.011
 1436SOL     OW 5206   4.933   0.818   0.208
 1436SOL    HW1 5207   5.020   0.781   0.176
 1436SOL    HW2 5208   4.939   0.838   0.306
 1437SOL     OW 5209   4.494   1.340   0.732
 1437SOL    HW1 5210   4.582   1.296   0.711
 1437SOL    HW2 5211   4.421   1.295   0.680
 1438SOL     OW 5212   2.348   0.331   2.711
 1438SOL    HW1 5213   2.344   0.383   2.625
 1438SOL    HW2 5214   2.299   0.382   2.782
 1439SOL     OW 5215   0.780   5.315   5.230
 1439SOL    HW1 5216   0.788   5.334   5.328
 1439SOL    HW2 5217   0.726   5.387   5.186
 1440SOL     OW 5218   3.749   3.217   2.070
 1440SOL    HW1 5219   3.741   3.223   2.169
 1440SOL    HW2 5220   3.672   3.263   2.027
 1441SOL     OW 5221   6.741   2.099   5.980
 1441SOL    HW1 5222   6.795   2.142   6.052
 1441SOL    HW2 5223   6.801   2.071   5.905
 1442SOL     OW 5224   5.199   6.193   0.059
 1442SOL    HW1 5225   5.111   6.206   0.106
 1442SOL    HW2 5226   5.186   6.206   6.981
 1443SOL     OW 5227   1.604   2.858   3.567
 1443SOL    HW1 5228   1.627   2.943   3.519
 1443SOL    HW2 5229   1.655   2.854   3.653
 1444SOL     OW 5230   5.137   6.322   4.841
 1444SOL    HW1 5231   5.147   6.343   4.938
 1444SOL    HW2 5232   5.042   6.337   4.814
 1445SOL     OW 5233   6.993   2.226   6.990
 1445SOL    HW1 5234   6.964   2.321   6.978
 1445SOL    HW2 5235   6.974   2.197   0.064
 1446SOL     OW 5236   3.934   6.051   2.041
 1446SOL    HW1 5237   3.862   5.982   2.044
 1446SOL    HW2 5238   3.928   6.101   1.955
 1447SOL     OW 5239   6.717   0.769   4.431
 1447SOL    HW1 5240   6.816   0.772   4.441
 1447SOL    HW2 5241   6.687   0.842   4.369
 1448SOL     OW 5242   5.193   0.747   0.139
 1448SOL    HW1 5243   5.284   0.724   0.172
 1448SOL    HW2 5244   5.197   0.835   0.089
 1449SOL     OW 5245   4.411   5.754   0.295
 1449SOL    HW1 5246   4.345   5.802   0.236
 1449SOL    HW2 5247   4.462   5.688   0.241
 1450SOL     OW 5248   5.456   1.624   3.752
 1450SOL    HW1 5249   5.423   1.710   3.713
 1450SOL    HW2 5250   5.525   1.584   3.692
 1451SOL     OW 5251   1.148   6.834   1.721
 1451SOL    HW1 5252   1.081   6.791   1.662
 1451SOL    HW2 5253   1.102   6.880   1.797
 1452SOL     OW 5254   2.998   0.178   5.907
 1452SOL    HW1 5255   3.000   0.176   5.807
 1452SOL    HW2 5256   2.978   0.270   5.939
 1453SOL     OW 5257   5.344   4.184   4.190
 1453SOL    HW1 5258   5.300   4.095   4.202
 1453SOL    HW2 5259   5.419   4.194   4.256
 1454SOL     OW 5260   5.370   3.558   1.198
 1454SOL    HW1 5261   5.470   3.560   1.195
 1454SOL    HW2 5262   5.337   3.633   1.255
 1455SOL     OW 5263   1.681   1.941   1.454
 1455SOL    HW1 5264   1.644   1.948   1.546
 1455SOL    HW2 5265   1.626   1.996   1.391
 1456SOL     OW 5266   6.123   5.641   5.432
 1456SOL    HW1 5267   6.073   5.653   5.346
 1456SOL    HW2 5268   6.067   5.673   5.508
 1457SOL     OW 5269   1.824   0.629   4.345
 1457SOL    HW1 5270   1.895   0.698   4.358
 1457SOL    HW2 5271   1.747   0.670   4.296
 1458SOL     OW 5272   0.352   5.222   6.725
 1458SOL    HW1 5273   0.376   5.305   6.774
 1458SOL    HW2 5274   0.257   5.198   6.745
 1459SOL     OW 5275   2.511   6.940   1.434
 1459SOL    HW1 5276   2.535   6.905   1.525
 1459SOL    HW2 5277   2.502   6.863   1.371
 1460SOL     OW 5278   0.316   0.096   7.008
 1460SOL    HW1 5279   0.360   0.186   7.003
 1460SOL    HW2 5280   0.345   0.040   6.931
 1461SOL     OW 5281   4.915   5.355   2.197
 1461SOL    HW1 5282   5.007   5.366   2.159
 1461SOL    HW2 5283   4.885   5.442   2.236
 1462SOL     OW 5284   5.252   0.009   5.053
 1462SOL    HW1 5285   5.269   0.066   5.133
 1462SOL    HW2 5286   5.307   0.043   4.976
 1463SOL     OW 5287   0.678   2.650   5.640
 1463SOL    HW1 5288   0.635   2.721   5.695
 1463SOL    HW2 5289   0.760   2.616   5.687
 1464SOL     OW 5290   0.747   0.747   1.439
 1464SOL    HW1 5291   0.717   0.792   1.355
 1464SOL    HW2 5292   0.750   0.813   1.513
 1465SOL     OW 5293   1.259   1.159   3.580
 1465SOL    HW1 5294   1.344   1.211   3.573
 1465SOL    HW2 5295   1.280   1.062   3.593
 1466SOL     OW 5296   5.701   5.296   4.662
 1466SOL    HW1 5297   5.761   5.299   4.582
 1466SOL    HW2 5298   5.715   5.376   4.719
 1467SOL     OW 5299   6.581   4.042   4.070
 1467SOL    HW1 5300   6.681   4.042   4.077
 1467SOL    HW2 5301   6.552   3.973   4.004
 1468SOL     OW 5302   4.602   0.242   2.431
 1468SOL    HW1 5303   4.682   0.208   2.383
 1468SOL    HW2 5304   4.519   0.200   2.394
 1469SOL     OW 5305   0.742   0.523   2.073
 1469SOL    HW1 5306   0.719   0.612   2.034
 1469SOL    HW2 5307   0.669   0.493   2.134
 1470SOL     OW 5308   6.992   6.904   2.629
 1470SOL    HW1 5309   0.068   6.934   2.629
 1470SOL    HW2 5310   6.977   6.841   2.706
 1471SOL     OW 5311   5.960   1.058   1.024
 1471SOL    HW1 5312   5.889   0.996   0.991
 1471SOL    HW2 5313   5.938   1.088   1.117
 1472SOL     OW 5314   4.829   5.162   4.684
 1472SOL    HW1 5315   4.894   5.092   4.712
 1472SOL    HW2 5316   4.838   5.242   4.742
 1473SOL     OW 5317   6.326   3.719   3.587
 1473SOL    HW1 5318   6.386   3.784   3.542
 1473SOL    HW2 5319   6.378   3.664   3.652
 1474SOL     OW 5320   4.504   5.324   3.038
 1474SOL    HW1 5321   4.572   5.314   3.111
 1474SOL    HW2 5322   4.481   5.234   3.001
 1475SOL     OW 5323   6.505   6.445   3.346
 1475SOL    HW1 5324   6.593   6.426   3.391
 1475SOL    HW2 5325   6.511   6.420   3.250
 1476SOL     OW 5326   0.724   2.608   1.419
 1476SOL    HW1 5327   0.723   2.509   1.432
 1476SOL    HW2 5328   0.691   2.652   1.503
 1477SOL     OW 5329   2.808   6.563   4.200
 1477SOL    HW1 5330   2.899   6.585   4.165
 1477SOL    HW2 5331   2.810   6.474   4.245
 1478SOL     OW 5332   6.944   3.362   1.232
 1478SOL    HW1 5333   7.017   3.428   1.253
 1478SOL    HW2 5334   6.968   3.273   1.270
 1479SOL     OW 5335   1.112   5.298   0.263
 1479SOL    HW1 5336   1.182   5.233   0.293
 1479SOL    HW2 5337   1.021   5.257   0.275
 1480SOL     OW 5338   2.575   0.849   0.017
 1480SOL    HW1 5339   2.661   0.825   6.994
 1480SOL    HW2 5340   2.545   0.939   7.004
 1481SOL     OW 5341   0.413   3.829   6.994
 1481SOL    HW1 5342   0.351   3.857   0.048
 1481SOL    HW2 5343   0.427   3.907   6.932
 1482SOL     OW 5344   5.558   0.305   6.148
 1482SOL    HW1 5345   5.654   0.307   6.177
 1482SOL    HW2 5346   5.522   0.213   6.161
 1483SOL     OW 5347   6.380   1.594   6.260
 1483SOL    HW1 5348   6.333   1.669   6.215
 1483SOL    HW2 5349   6.369   1.510   6.206
 1484SOL     OW 5350   6.402   6.589   2.589
 1484SOL    HW1 5351   6.406   6.514   2.523
 1484SOL    HW2 5352   6.455   6.666   2.555
 1485SOL     OW 5353   5.544   3.243   4.287
 1485SOL    HW1 5354   5.453   3.236   4.327
 1485SOL    HW2 5355   5.541   3.303   4.207
 1486SOL     OW 5356   5.346   2.367   2.249
 1486SOL    HW1 5357   5.294   2.394   2.330
 1486SOL    HW2 5358   5.321   2.427   2.172
 1487SOL     OW 5359   6.853   0.312   5.586
 1487SOL    HW1 5360   6.805   0.257   5.518
 1487SOL    HW2 5361   6.934   0.353   5.544
 1488SOL     OW 5362   5.418   2.278   4.638
 1488SOL    HW1 5363   5.416   2.216   4.715
 1488SOL    HW2 5364   5.512   2.297   4.612
 1489SOL     OW 5365   3.578   5.080   4.654
 1489SOL    HW1 5366   3.602   5.027   4.573
 1489SOL    HW2 5367   3.580   5.178   4.631
 1490SOL     OW 5368   2.706   2.272   1.369
 1490SOL    HW1 5369   2.802   2.265   1.393
 1490SOL    HW2 5370   2.660   2.185   1.387
 1491SOL     OW 5371   0.188   2.337   5.091
 1491SOL    HW1 5372   0.243   2.255   5.074
 1491SOL    HW2 5373   0.092   2.312   5.101
 1492SOL     OW 5374   6.886   2.444   1.518
 1492SOL    HW1 5375   6.923   2.401   1.600
 1492SOL    HW2 5376   6.815   2.385   1.479
 1493SOL     OW 5377   5.932   2.052   5.448
 1493SOL    HW1 5378   5.868   1.976   5.463
 1493SOL    HW2 5379   6.019   2.015   5.416
 1494SOL     OW 5380   5.555   1.460   4.215
 1494SOL    HW1 5381   5.521   1.368   4.232
 1494SOL    HW2 5382   5.522   1.522   4.287
 1495SOL     OW 5383   1.146   3.890   2.236
 1495SOL    HW1 5384   1.221   3.823   2.231
 1495SOL    HW2 5385   1.060   3.845   2.214
 1496SOL     OW 5386   1.088   0.566   2.192
 1496SOL    HW1 5387   1.052   0.656   2.214
 1496SOL    HW2 5388   1.021   0.515   2.138
 1497SOL     OW 5389   5.557   5.518   5.937
 1497SOL    HW1 5390   5.627   5.548   6.001
 1497SOL    HW2 5391   5.491   5.459   5.985
 1498SOL     OW 5392   2.453   5.552   0.437
 1498SOL    HW1 5393   2.550   5.530   0.442
 1498SOL    HW2 5394   2.437   5.619   0.365
 1499SOL     OW 5395   0.818   4.266   4.598
 1499SOL    HW1 5396   0.844   4.184   4.548
 1499SOL    HW2 5397   0.855   4.262   4.691
 1500SOL     OW 5398   3.681   6.808   5.679
 1500SOL    HW1 5399   3.671   6.819   5.580
 1500SOL    HW2 5400   3.777   6.822   5.704
 1501SOL     OW 5401   3.653   0.402   0.851
 1501SOL    HW1 5402   3.744   0.361   0.842
 1501SOL    HW2 5403   3.624   0.399   0.946
 1502SOL     OW 5404   0.876   6.473   5.850
 1502SOL    HW1 5405   0.974   6.470   5.873
 1502SOL    HW2 5406   0.864   6.457   5.753
 1503SOL     OW 5407   3.156   3.718   5.246
 1503SOL    HW1 5408   3.180   3.632   5.200
 1503SOL    HW2 5409   3.158   3.793   5.180
 1504SOL     OW 5410   2.857   6.935   3.956
 1504SOL    HW1 5411   2.779   6.875   3.974
 1504SOL    HW2 5412   2.922   6.930   4.032
 1505SOL     OW 5413   5.026   6.861   2.467
 1505SOL    HW1 5414   5.051   6.767   2.490
 1505SOL    HW2 5415   4.936   6.882   2.505
 1506SOL     OW 5416   1.010   6.509   3.646
 1506SOL    HW1 5417   1.070   6.527   3.723
 1506SOL    HW2 5418   0.989   6.596   3.600
 1507SOL     OW 5419   1.822   2.314   6.666
 1507SOL    HW1 5420   1.761   2.238   6.691
 1507SOL    HW2 5421   1.860   2.297   6.575
 1508SOL     OW 5422   4.593   6.887   1.202
 1508SOL    HW1 5423   4.587   6.789   1.219
 1508SOL    HW2 5424   4.580   6.936   1.289
 1509SOL     OW 5425   5.854   1.610   6.398
 1509SOL    HW1 5426   5.938   1.637   6.446
 1509SOL    HW2 5427   5.832   1.515   6.421
 1510SOL     OW 5428   6.682   1.341   2.845
 1510SOL    HW1 5429   6.655   1.430   2.881
 1510SOL    HW2 5430   6.601   1.293   2.811
 1511SOL     OW 5431   1.378   2.937   6.987
 1511SOL    HW1 5432   1.475   2.946   7.009
 1511SOL    HW2 5433   1.323   2.987   0.035
 1512SOL     OW 5434   0.025   1.499   1.952
 1512SOL    HW1 5435   6.974   1.429   1.963
 1512SOL    HW2 5436   0.104   1.459   1.904
 1513SOL     OW 5437   2.716   0.956   2.968
 1513SOL    HW1 5438   2.635   0.907   2.998
 1513SOL    HW2 5439   2.701   0.994   2.877
 1514SOL     OW 5440   4.517   0.539   5.903
 1514SOL    HW1 5441   4.438   0.493   5.944
 1514SOL    HW2 5442   4.536   0.624   5.953
 1515SOL     OW 5443   5.388   4.920   5.593
 1515SOL    HW1 5444   5.388   4.838   5.537
 1515SOL    HW2 5445   5.482   4.946   5.616
 1516SOL     OW 5446   0.297   1.595   1.050
 1516SOL    HW1 5447   0.337   1.534   0.981
 1516SOL    HW2 5448   0.223   1.648   1.008
 1517SOL     OW 5449   3.219   5.501   2.566
 1517SOL    HW1 5450   3.254   5.413   2.534
 1517SOL    HW2 5451   3.175   5.549   2.491
 1518SOL     OW 5452   0.495   4.882   0.825
 1518SOL    HW1 5453   0.578   4.933   0.806
 1518SOL    HW2 5454   0.416   4.930   0.785
 1519SOL     OW 5455   0.478   3.910   0.933
 1519SOL    HW1 5456   0.425   3.979   0.884
 1519SOL    HW2 5457   0.567   3.897   0.888
 1520SOL     OW 5458   1.367   3.107   2.857
 1520SOL    HW1 5459   1.328   3.142   2.772
 1520SOL    HW2 5460   1.301   3.047   2.901
 1521SOL     OW 5461   2.567   4.632   5.090
 1521SOL    HW1 5462   2.509   4.567   5.041
 1521SOL    HW2 5463   2.661   4.625   5.056
 1522SOL     OW 5464   1.542   1.564   6.357
 1522SOL    HW1 5465   1.597   1.606   6.429
 1522SOL    HW2 5466   1.485   1.633   6.314
 1523SOL     OW 5467   5.910   1.670   1.113
 1523SOL    HW1 5468   5.933   1.593   1.053
 1523SOL    HW2 5469   5.978   1.676   1.186
 1524SOL     OW 5470   0.121   1.455   1.493
 1524SOL    HW1 5471   0.160   1.380   1.546
 1524SOL    HW2 5472   0.187   1.486   1.425
 1525SOL     OW 5473   4.778   1.509   5.966
 1525SOL    HW1 5474   4.704   1.551   6.020
 1525SOL    HW2 5475   4.820   1.436   6.020
 1526SOL     OW 5476   6.016   1.326   0.404
 1526SOL    HW1 5477   5.937   1.383   0.424
 1526SOL    HW2 5478   6.099   1.383   0.401
 1527SOL     OW 5479   3.226   1.226   6.052
 1527SOL    HW1 5480   3.295   1.156   6.071
 1527SOL    HW2 5481   3.168   1.196   5.976
 1528SOL     OW 5482   5.541   5.617   3.733
 1528SOL    HW1 5483   5.504   5.664   3.814
 1528SOL    HW2 5484   5.537   5.679   3.654
 1529SOL     OW 5485   1.851   6.974   5.299
 1529SOL    HW1 5486   1.768   0.000   5.267
 1529SOL    HW2 5487   1.897   0.010   5.368
 1530SOL     OW 5488   2.439   6.424   1.369
 1530SOL    HW1 5489   2.478   6.511   1.399
 1530SOL    HW2 5490   2.361   6.441   1.309
 1531SOL     OW 5491   5.597   0.650   6.605
 1531SOL    HW1 5492   5.599   0.556   6.640
 1531SOL    HW2 5493   5.549   0.709   6.669
 1532SOL     OW 5494   2.941   1.956   5.434
 1532SOL    HW1 5495   2.989   1.934   5.518
 1532SOL    HW2 5496   3.005   1.998   5.369
 1533SOL     OW 5497   4.437   3.165   6.846
 1533SOL    HW1 5498   4.514   3.157   6.910
 1533SOL    HW2 5499   4.351   3.162   6.896
 1534SOL     OW 5500   6.971   0.605   1.297
 1534SOL    HW1 5501   6.932   0.676   1.356
 1534SOL    HW2 5502   6.982   0.641   1.205
 1535SOL     OW 5503   4.965   4.435   4.650
 1535SOL    HW1 5504   4.996   4.402   4.561
 1535SOL    HW2 5505   4.881   4.489   4.638
 1536SOL     OW 5506   3.427   6.536   3.010
 1536SOL    HW1 5507   3.328   6.553   3.012
 1536SOL    HW2 5508   3.471   6.602   2.950
 1537SOL     OW 5509   2.929   5.626   4.696
 1537SOL    HW1 5510   3.016   5.632   4.745
 1537SOL    HW2 5511   2.864   5.574   4.751
 1538SOL     OW 5512   3.058   5.548   6.577
 1538SOL    HW1 5513   2.983   5.597   6.533
 1538SOL    HW2 5514   3.045   5.550   6.676
 1539SOL     OW 5515   2.789   6.478   1.801
 1539SOL    HW1 5516   2.802   6.528   1.716
 1539SOL    HW2 5517   2.811   6.381   1.787
 1540SOL     OW 5518   5.753   6.708   5.044
 1540SOL    HW1 5519   5.715   6.789   4.999
 1540SOL    HW2 5520   5.682   6.665   5.099
 1541SOL     OW 5521   5.421   1.624   1.556
 1541SOL    HW1 5522   5.418   1.723   1.566
 1541SOL    HW2 5523   5.346   1.582   1.608
 1542SOL     OW 5524   6.960   6.366   1.113
 1542SOL    HW1 5525   6.956   6.266   1.114
 1542SOL    HW2 5526   0.012   6.395   1.049
 1543SOL     OW 5527   3.581   3.400   3.341
 1543SOL    HW1 5528   3.654   3.391   3.274
 1543SOL    HW2 5529   3.496   3.366   3.302
 1544SOL     OW 5530   3.644   3.833   2.335
 1544SOL    HW1 5531   3.636   3.808   2.431
 1544SOL    HW2 5532   3.693   3.920   2.327
 1545SOL     OW 5533   6.997   6.982   4.847
 1545SOL    HW1 5534   0.073   6.972   4.823
 1545SOL    HW2 5535   6.944   7.006   4.766
 1546SOL     OW 5536   6.521   6.563   6.475
 1546SOL    HW1 5537   6.431   6.550   6.516
 1546SOL    HW2 5538   6.561   6.648   6.509
 1547SOL     OW 5539   3.275   5.733   0.011
 1547SOL    HW1 5540   3.218   5.714   0.091
 1547SOL    HW2 5541   3.365   5.764   0.041
 1548SOL     OW 5542   6.513   3.845   3.395
 1548SOL    HW1 5543   6.574   3.772   3.364
 1548SOL    HW2 5544   6.565   3.928   3.411
 1549SOL     OW 5545   6.867   2.292   0.869
 1549SOL    HW1 5546   6.879   2.207   0.920
 1549SOL    HW2 5547   6.769   2.307   0.850
 1550SOL     OW 5548   2.823   5.094   2.507
 1550SOL    HW1 5549   2.848   5.029   2.579
 1550SOL    HW2 5550   2.833   5.188   2.541
 1551SOL     OW 5551   0.374   2.527   1.632
 1551SOL    HW1 5552   0.319   2.530   1.548
 1551SOL    HW2 5553   0.455   2.470   1.616
 1552SOL     OW 5554   1.249   6.757   2.265
 1552SOL    HW1 5555   1.322   6.742   2.331
 1552SOL    HW2 5556   1.251   6.852   2.234
 1553SOL     OW 5557   5.654   1.085   5.817
 1553SOL    HW1 5558   5.746   1.064   5.848
 1553SOL    HW2 5559   5.636   1.183   5.829
 1554SOL     OW 5560   2.891   2.674   0.525
 1554SOL    HW1 5561   2.792   2.683   0.532
 1554SOL    HW2 5562   2.913   2.593   0.470
 1555SOL     OW 5563   4.325   1.249   0.533
 1555SOL    HW1 5564   4.327   1.302   0.449
 1555SOL    HW2 5565   4.232   1.247   0.569
 1556SOL     OW 5566   3.334   2.129   0.341
 1556SOL    HW1 5567   3.274   2.068   0.393
 1556SOL    HW2 5568   3.415   2.080   0.311
 1557SOL     OW 5569   1.871   3.107   0.465
 1557SOL    HW1 5570   1.948   3.153   0.420
 1557SOL    HW2 5571   1.879   3.008   0.452
 1558SOL     OW 5572   4.924   2.555   6.735
 1558SOL    HW1 5573   4.917   2.456   6.748
 1558SOL    HW2 5574   4.984   2.574   6.657
 1559SOL     OW 5575   3.001   6.390   3.337
 1559SOL    HW1 5576   3.025   6.487   3.332
 1559SOL    HW2 5577   3.077   6.334   3.305
 1560SOL     OW 5578   4.296   3.109   1.244
 1560SOL    HW1 5579   4.276   3.023   1.290
 1560SOL    HW2 5580   4.309   3.093   1.146
 1561SOL     OW 5581   5.304   6.140   0.784
 1561SOL    HW1 5582   5.211   6.128   0.819
 1561SOL    HW2 5583   5.302   6.134   0.684
 1562SOL     OW 5584   2.470   0.529   2.321
 1562SOL    HW1 5585   2.391   0.512   2.263
 1562SOL    HW2 5586   2.440   0.547   2.414
 1563SOL     OW 5587   2.099   3.553   3.847
 1563SOL    HW1 5588   2.160   3.495   3.794
 1563SOL    HW2 5589   2.049   3.497   3.913
 1564SOL     OW 5590   0.679   2.094   2.681
 1564SOL    HW1 5591   0.774   2.091   2.714
 1564SOL    HW2 5592   0.629   2.016   2.717
 1565SOL     OW 5593   4.814   1.904   5.530
 1565SOL    HW1 5594   4.821   2.002   5.513
 1565SOL    HW2 5595   4.718   1.880   5.549
 1566SOL     OW 5596   0.732   3.804   3.518
 1566SOL    HW1 5597   0.657   3.814   3.583
 1566SOL    HW2 5598   0.696   3.794   3.426
 1567SOL     OW 5599   5.394   0.126   5.265
 1567SOL    HW1 5600   5.407   0.131   5.364
 1567SOL    HW2 5601   5.473   0.167   5.219
 1568SOL     OW 5602   2.476   4.569   0.796
 1568SOL    HW1 5603   2.461   4.551   0.893
 1568SOL    HW2 5604   2.573   4.563   0.775
 1569SOL     OW 5605   1.953   1.128   2.657
 1569SOL    HW1 5606   1.890   1.201   2.685
 1569SOL    HW2 5607   2.046   1.164   2.650
 1570SOL     OW 5608   2.773   5.932   6.656
 1570SOL    HW1 5609   2.849   5.872   6.628
 1570SOL    HW2 5610   2.759   5.924   6.754
 1571SOL     OW 5611   6.783   2.398   4.324
 1571SOL    HW1 5612   6.767   2.469   4.256
 1571SOL    HW2 5613   6.723   2.413   4.403
 1572SOL     OW 5614   2.204   6.137   2.791
 1572SOL    HW1 5615   2.199   6.208   2.862
 1572SOL    HW2 5616   2.260   6.061   2.825
 1573SOL     OW 5617   5.470   5.578   0.316
 1573SOL    HW1 5618   5.483   5.567   0.217
 1573SOL    HW2 5619   5.556   5.608   0.358
 1574SOL     OW 5620   0.888   4.563   3.218
 1574SOL    HW1 5621   0.882   4.465   3.201
 1574SOL    HW2 5622   0.979   4.585   3.254
 1575SOL     OW 5623   6.943   2.427   0.319
 1575SOL    HW1 5624   7.001   2.508   0.325
 1575SOL    HW2 5625   6.928   2.390   0.411
 1576SOL     OW 5626   1.852   6.053   1.748
 1576SOL    HW1 5627   1.761   6.070   1.787
 1576SOL    HW2 5628   1.880   6.132   1.694
 1577SOL     OW 5629   4.629   5.623   3.845
 1577SOL    HW1 5630   4.670   5.658   3.930
 1577SOL    HW2 5631   4.615   5.524   3.853
 1578SOL     OW 5632   5.549   2.011   1.837
 1578SOL    HW1 5633   5.603   1.932   1.864
 1578SOL    HW2 5634   5.507   1.995   1.748
 1579SOL     OW 5635   1.793   3.043   2.022
 1579SOL    HW1 5636   1.838   3.117   1.973
 1579SOL    HW2 5637   1.831   3.036   2.114
 1580SOL     OW 5638   3.487   4.109   3.113
 1580SOL    HW1 5639   3.416   4.101   3.043
 1580SOL    HW2 5640   3.571   4.066   3.080
 1581SOL     OW 5641   5.528   4.352   5.023
 1581SOL    HW1 5642   5.460   4.286   4.992
 1581SOL    HW2 5643   5.535   4.427   4.957
 1582SOL     OW 5644   4.383   5.911   4.742
 1582SOL    HW1 5645   4.318   5.976   4.703
 1582SOL    HW2 5646   4.350   5.879   4.831
 1583SOL     OW 5647   1.568   4.938   5.391
 1583SOL    HW1 5648   1.662   4.954   5.423
 1583SOL    HW2 5649   1.527   4.865   5.446
 1584SOL     OW 5650   0.278   3.892   0.196
 1584SOL    HW1 5651   0.214   3.948   0.250
 1584SOL    HW2 5652   0.372   3.912   0.224
 1585SOL     OW 5653   5.012   6.211   4.582
 1585SOL    HW1 5654   4.930   6.164   4.547
 1585SOL    HW2 5655   4.997   6.310   4.582
 1586SOL     OW 5656   2.617   5.977   3.353
 1586SOL    HW1 5657   2.717   5.979   3.356
 1586SOL    HW2 5658   2.587   5.936   3.267
 1587SOL     OW 5659   3.252   6.237   0.100
 1587SOL    HW1 5660   3.280   6.219   0.194
 1587SOL    HW2 5661   3.276   6.158   0.043
 1588SOL     OW 5662   6.311   2.029   3.298
 1588SOL    HW1 5663   6.261   1.980   3.370
 1588SOL    HW2 5664   6.350   1.963   3.234
 1589SOL     OW 5665   0.134   2.513   4.884
 1589SOL    HW1 5666   0.152   2.461   4.967
 1589SOL    HW2 5667   0.058   2.472   4.834
 1590SOL     OW 5668   5.288   0.822   3.588
 1590SOL    HW1 5669   5.309   0.747   3.526
 1590SOL    HW2 5670   5.191   0.847   3.579
 1591SOL     OW 5671   0.515   5.607   0.248
 1591SOL    HW1 5672   0.485   5.640   0.159
 1591SOL    HW2 5673   0.610   5.577   0.243
 1592SOL     OW 5674   6.996   3.867   5.059
 1592SOL    HW1 5675   6.989   3.825   4.969
 1592SOL    HW2 5676   0.068   3.904   5.071
 1593SOL     OW 5677   3.899   6.081   1.200
 1593SOL    HW1 5678   3.942   5.993   1.222
 1593SOL    HW2 5679   3.800   6.070   1.200
 1594SOL     OW 5680   4.813   0.731   2.766
 1594SOL    HW1 5681   4.904   0.747   2.728
 1594SOL    HW2 5682   4.798   0.794   2.843
 1595SOL     OW 5683   0.714   3.475   6.668
 1595SOL    HW1 5684   0.628   3.485   6.719
 1595SOL    HW2 5685   0.702   3.409   6.594
 1596SOL     OW 5686   4.828   4.034   4.037
 1596SOL    HW1 5687   4.806   3.991   3.949
 1596SOL    HW2 5688   4.828   4.134   4.026
 1597SOL     OW 5689   3.539   5.814   0.090
 1597SOL    HW1 5690   3.569   5.909   0.090
 1597SOL    HW2 5691   3.576   5.767   0.170
 1598SOL     OW 5692   1.090   4.590   6.166
 1598SOL    HW1 5693   1.100   4.515   6.232
 1598SOL    HW2 5694   1.063   4.674   6.213
 1599SOL     OW 5695   4.808   5.295   3.774
 1599SOL    HW1 5696   4.817   5.352   3.856
 1599SOL    HW2 5697   4.894   5.296   3.723
 1600SOL     OW 5698   4.415   0.696   1.618
 1600SOL    HW1 5699   4.489   0.760   1.639
 1600SOL    HW2 5700   4.453   0.604   1.605
 1601SOL     OW 5701   6.362   0.915   4.693
 1601SOL    HW1 5702   6.399   0.835   4.645
 1601SOL    HW2 5703   6.333   0.983   4.626
 1602SOL     OW 5704   4.485   5.492   3.484
 1602SOL    HW1 5705   4.436   5.457   3.564
 1602SOL    HW2 5706   4.562   5.432   3.463
 1603SOL     OW 5707   3.265   4.947   2.141
 1603SOL    HW1 5708   3.202   5.004   2.194
 1603SOL    HW2 5709   3.212   4.883   2.086
 1604SOL     OW 5710   4.224   5.105   2.796
 1604SOL    HW1 5711   4.292   5.080   2.726
 1604SOL    HW2 5712   4.272   5.140   2.877
 1605SOL     OW 5713   4.748   5.367   0.355
 1605SOL    HW1 5714   4.733   5.314   0.438
 1605SOL    HW2 5715   4.814   5.320   0.297
 1606SOL     OW 5716   3.195   6.142   4.790
 1606SOL    HW1 5717   3.214   6.054   4.746
 1606SOL    HW2 5718   3.187   6.129   4.888
 1607SOL     OW 5719   4.825   3.921   3.688
 1607SOL    HW1 5720   4.851   3.825   3.672
 1607SOL    HW2 5721   4.908   3.976   3.698
 1608SOL     OW 5722   5.532   2.835   3.714
 1608SOL    HW1 5723   5.453   2.878   3.669
 1608SOL    HW2 5724   5.532   2.860   3.811
 1609SOL     OW 5725   1.763   0.163   0.917
 1609SOL    HW1 5726   1.696   0.217   0.968
 1609SOL    HW2 5727   1.852   0.169   0.962
 1610SOL     OW 5728   5.522   6.591   0.754
 1610SOL    HW1 5729   5.600   6.623   0.700
 1610SOL    HW2 5730   5.437   6.610   0.705
 1611SOL     OW 5731   0.981   4.205   0.116
 1611SOL    HW1 5732   1.004   4.270   0.044
 1611SOL    HW2 5733   1.000   4.112   0.085
 1612SOL     OW 5734   4.625   1.223   2.041
 1612SOL    HW1 5735   4.587   1.161   2.109
 1612SOL    HW2 5736   4.655   1.171   1.961
 1613SOL     OW 5737   0.246   5.990   2.722
 1613SOL    HW1 5738   0.181   5.915   2.709
 1613SOL    HW2 5739   0.266   6.031   2.633
 1614SOL     OW 5740   6.567   1.314   5.486
 1614SOL    HW1 5741   6.542   1.217   5.485
 1614SOL    HW2 5742   6.634   1.332   5.414
 1615SOL     OW 5743   0.035   3.300   5.393
 1615SOL    HW1 5744   6.968   3.253   5.382
 1615SOL    HW2 5745   0.045   3.368   5.321
 1616SOL     OW 5746   0.829   1.171   3.201
 1616SOL    HW1 5747   0.784   1.258   3.218
 1616SOL    HW2 5748   0.797   1.103   3.267
 1617SOL     OW 5749   6.534   5.558   3.924
 1617SOL    HW1 5750   6.629   5.538   3.948
 1617SOL    HW2 5751   6.528   5.649   3.883
 1618SOL     OW 5752   3.338   5.542   3.084
 1618SOL    HW1 5753   3.287   5.511   3.004
 1618SOL    HW2 5754   3.364   5.638   3.072
 1619SOL     OW 5755   1.164   3.800   6.641
 1619SOL    HW1 5756   1.071   3.773   6.666
 1619SOL    HW2 5757   1.192   3.751   6.559
 1620SOL     OW 5758   3.113   6.911   4.086
 1620SOL    HW1 5759   3.189   6.910   4.022
 1620SOL    HW2 5760   3.133   6.971   4.163
 1621SOL     OW 5761   4.613   5.546   0.735
 1621SOL    HW1 5762   4.664   5.578   0.814
 1621SOL    HW2 5763   4.658   5.575   0.651
 1622SOL     OW 5764   6.321   4.335   3.950
 1622SOL    HW1 5765   6.257   4.409   3.932
 1622SOL    HW2 5766   6.337   4.327   4.048
 1623SOL     OW 5767   0.505   2.561   3.811
 1623SOL    HW1 5768   0.432   2.519   3.758
 1623SOL    HW2 5769   0.562   2.617   3.750
 1624SOL     OW 5770   3.442   3.216   0.669
 1624SOL    HW1 5771   3.460   3.309   0.700
 1624SOL    HW2 5772   3.519   3.183   0.615
 1625SOL     OW 5773   0.780   6.510   0.373
 1625SOL    HW1 5774   0.730   6.449   0.311
 1625SOL    HW2 5775   0.799   6.596   0.326
 1626SOL     OW 5776   2.569   2.001   1.864
 1626SOL    HW1 5777   2.556   2.080   1.805
 1626SOL    HW2 5778   2.636   1.940   1.824
 1627SOL     OW 5779   4.111   1.851   6.026
 1627SOL    HW1 5780   4.142   1.806   5.942
 1627SOL    HW2 5781   4.122   1.950   6.018
 1628SOL     OW 5782   5.457   6.471   1.148
 1628SOL    HW1 5783   5.451   6.415   1.065
 1628SOL    HW2 5784   5.477   6.565   1.123
 1629SOL     OW 5785   1.866   6.884   3.430
 1629SOL    HW1 5786   1.919   6.904   3.512
 1629SOL    HW2 5787   1.777   6.845   3.456
 1630SOL     OW 5788   0.704   3.881   5.788
 1630SOL    HW1 5789   0.740   3.852   5.699
 1630SOL    HW2 5790   0.742   3.970   5.811
 1631SOL     OW 5791   5.621   3.290   0.162
 1631SOL    HW1 5792   5.673   3.211   0.132
 1631SOL    HW2 5793   5.562   3.265   0.239
 1632SOL     OW 5794   6.205   6.170   2.375
 1632SOL    HW1 5795   6.144   6.097   2.345
 1632SOL    HW2 5796   6.164   6.259   2.351
 1633SOL     OW 5797   5.523   3.592   4.993
 1633SOL    HW1 5798   5.560   3.519   5.051
 1633SOL    HW2 5799   5.570   3.678   5.014
 1634SOL     OW 5800   1.154   3.290   5.762
 1634SOL    HW1 5801   1.236   3.268   5.708
 1634SOL    HW2 5802   1.109   3.370   5.723
 1635SOL     OW 5803   2.731   0.328   3.255
 1635SOL    HW1 5804   2.796   0.322   3.330
 1635SOL    HW2 5805   2.643   0.289   3.283
 1636SOL     OW 5806   0.026   5.792   1.342
 1636SOL    HW1 5807   6.977   5.861   1.361
 1636SOL    HW2 5808   0.117   5.834   1.347
 1637SOL     OW 5809   1.260   1.621   2.511
 1637SOL    HW1 5810   1.348   1.626   2.558
 1637SOL    HW2 5811   1.191   1.584   2.574
 1638SOL     OW 5812   5.551   2.534   3.350
 1638SOL    HW1 5813   5.590   2.577   3.431
 1638SOL    HW2 5814   5.459   2.570   3.334
 1639SOL     OW 5815   4.597   2.197   2.022
 1639SOL    HW1 5816   4.528   2.243   2.079
 1639SOL    HW2 5817   4.619   2.255   1.944
 1640SOL     OW 5818   5.809   0.632   6.422
 1640SOL    HW1 5819   5.797   0.700   6.350
 1640SOL    HW2 5820   5.743   0.648   6.495
 1641SOL     OW 5821   5.889   1.240   3.059
 1641SOL    HW1 5822   5.947   1.165   3.091
 1641SOL    HW2 5823   5.820   1.261   3.128
 1642SOL     OW 5824   0.123   3.334   6.226
 1642SOL    HW1 5825   0.165   3.302   6.141
 1642SOL    HW2 5826   0.082   3.257   6.274
 1643SOL     OW 5827   2.058   5.300   3.571
 1643SOL    HW1 5828   2.153   5.288   3.543
 1643SOL    HW2 5829   2.050   5.385   3.624
 1644SOL     OW 5830   6.241   1.568   1.601
 1644SOL    HW1 5831   6.153   1.616   1.599
 1644SOL    HW2 5832   6.270   1.545   1.508
 1645SOL     OW 5833   2.681   0.846   4.859
 1645SOL    HW1 5834   2.740   0.765   4.851
 1645SOL    HW2 5835   2.684   0.882   4.952
 1646SOL     OW 5836   0.442   5.388   1.291
 1646SOL    HW1 5837   0.356   5.435   1.269
 1646SOL    HW2 5838   0.493   5.442   1.358
 1647SOL     OW 5839   6.002   3.224   5.063
 1647SOL    HW1 5840   6.080   3.220   5.001
 1647SOL    HW2 5841   6.033   3.246   5.156
 1648SOL     OW 5842   5.581   6.008   1.531
 1648SOL    HW1 5843   5.609   5.931   1.588
 1648SOL    HW2 5844   5.489   5.990   1.495
 1649SOL     OW 5845   3.835   1.382   2.917
 1649SOL    HW1 5846   3.902   1.430   2.975
 1649SOL    HW2 5847   3.780   1.322   2.974
 1650SOL     OW 5848   2.550   2.487   5.257
 1650SOL    HW1 5849   2.510   2.467   5.167
 1650SOL    HW2 5850   2.554   2.586   5.270
 1651SOL     OW 5851   1.222   2.038   4.177
 1651SOL    HW1 5852   1.172   2.089   4.108
 1651SOL    HW2 5853   1.202   2.076   4.268
 1652SOL     OW 5854   0.251   3.633   1.590
 1652SOL    HW1 5855   0.218   3.703   1.526
 1652SOL    HW2 5856   0.339   3.598   1.558
 1653SOL     OW 5857   6.933   4.212   1.697
 1653SOL    HW1 5858   0.011   4.219   1.718
 1653SOL    HW2 5859   6.913   4.121   1.661
 1654SOL     OW 5860   0.511   3.956   1.584
 1654SOL    HW1 5861   0.517   3.941   1.683
 1654SOL    HW2 5862   0.487   3.870   1.539
 1655SOL     OW 5863   0.153   0.741   5.577
 1655SOL    HW1 5864   0.197   0.742   5.667
 1655SOL    HW2 5865   0.212   0.787   5.511
 1656SOL     OW 5866   2.229   4.211   3.195
 1656SOL    HW1 5867   2.132   4.217   3.170
 1656SOL    HW2 5868   2.286   4.233   3.116
 1657SOL     OW 5869   0.546   0.416   6.001
 1657SOL    HW1 5870   0.449   0.397   5.984
 1657SOL    HW2 5871   0.599   0.393   5.919
 1658SOL     OW 5872   5.503   6.489   6.229
 1658SOL    HW1 5873   5.502   6.443   6.140
 1658SOL    HW2 5874   5.448   6.436   6.294
 1659SOL     OW 5875   3.891   6.875   5.835
 1659SOL    HW1 5876   3.922   6.805   5.899
 1659SOL    HW2 5877   3.860   6.955   5.886
 1660SOL     OW 5878   2.342   0.646   1.955
 1660SOL    HW1 5879   2.299   0.703   1.884
 1660SOL    HW2 5880   2.435   0.679   1.973
 1661SOL     OW 5881   4.684   4.164   2.791
 1661SOL    HW1 5882   4.766   4.201   2.747
 1661SOL    HW2 5883   4.603   4.209   2.754
 1662SOL     OW 5884   6.976   1.894   3.558
 1662SOL    HW1 5885   0.019   1.902   3.481
 1662SOL    HW2 5886   6.882   1.905   3.525
 1663SOL     OW 5887   5.491   3.985   1.203
 1663SOL    HW1 5888   5.497   3.987   1.303
 1663SOL    HW2 5889   5.583   3.985   1.164
 1664SOL     OW 5890   1.187   0.962   6.247
 1664SOL    HW1 5891   1.123   0.888   6.268
 1664SOL    HW2 5892   1.222   0.950   6.154
 1665SOL     OW 5893   2.423   3.840   6.532
 1665SOL    HW1 5894   2.508   3.847   6.481
 1665SOL    HW2 5895   2.346   3.845   6.468
 1666SOL     OW 5896   5.415   6.151   6.361
 1666SOL    HW1 5897   5.473   6.109   6.431
 1666SOL    HW2 5898   5.358   6.222   6.403
 1667SOL     OW 5899   6.990   5.227   0.731
 1667SOL    HW1 5900   6.926   5.172   0.677
 1667SOL    HW2 5901   6.944   5.262   0.812
 1668SOL     OW 5902   5.796   3.057   2.113
 1668SOL    HW1 5903   5.878   3.008   2.085
 1668SOL    HW2 5904   5.818   3.117   2.191
 1669SOL     OW 5905   5.991   2.559   5.657
 1669SOL    HW1 5906   5.939   2.556   5.572
 1669SOL    HW2 5907   6.089   2.562   5.636
 1670SOL     OW 5908   3.220   4.556   6.021
 1670SOL    HW1 5909   3.148   4.598   5.967
 1670SOL    HW2 5910   3.281   4.504   5.960
 1671SOL     OW 5911   5.596   2.112   0.419
 1671SOL    HW1 5912   5.539   2.152   0.346
 1671SOL    HW2 5913   5.592   2.171   0.500
 1672SOL     OW 5914   0.480   2.163   1.328
 1672SOL    HW1 5915   0.465   2.171   1.427
 1672SOL    HW2 5916   0.510   2.251   1.292
 1673SOL     OW 5917   1.289   0.757   4.428
 1673SOL    HW1 5918   1.244   0.668   4.427
 1673SOL    HW2 5919   1.379   0.751   4.386
 1674SOL     OW 5920   4.829   2.145   3.556
 1674SOL    HW1 5921   4.757   2.076   3.549
 1674SOL    HW2 5922   4.854   2.158   3.651
 1675SOL     OW 5923   5.766   0.293   1.736
 1675SOL    HW1 5924   5.838   0.262   1.797
 1675SOL    HW2 5925   5.723   0.376   1.773
 1676SOL     OW 5926   0.684   2.374   3.630
 1676SOL    HW1 5927   0.735   2.289   3.614
 1676SOL    HW2 5928   0.732   2.450   3.586
 1677SOL     OW 5929   3.016   3.540   2.877
 1677SOL    HW1 5930   3.009   3.623   2.822
 1677SOL    HW2 5931   2.973   3.464   2.829
 1678SOL     OW 5932   0.406   6.212   0.209
 1678SOL    HW1 5933   0.376   6.161   0.128
 1678SOL    HW2 5934   0.345   6.290   0.224
 1679SOL     OW 5935   6.291   1.421   0.008
 1679SOL    HW1 5936   6.275   1.409   0.106
 1679SOL    HW2 5937   6.389   1.421   7.010
 1680SOL     OW 5938   5.991   2.861   3.044
 1680SOL    HW1 5939   6.074   2.817   3.080
 1680SOL    HW2 5940   5.944   2.798   2.983
 1681SOL     OW 5941   3.561   6.267   4.743
 1681SOL    HW1 5942   3.619   6.308   4.814
 1681SOL    HW2 5943   3.619   6.237   4.667
 1682SOL     OW 5944   4.424   0.827   4.599
 1682SOL    HW1 5945   4.351   0.831   4.667
 1682SOL    HW2 5946   4.510   0.800   4.644
 1683SOL     OW 5947   0.243   2.545   2.868
 1683SOL    HW1 5948   0.313   2.502   2.925
 1683SOL    HW2 5949   0.229   2.639   2.899
 1684SOL     OW 5950   2.608   5.483   1.144
 1684SOL    HW1 5951   2.528   5.451   1.093
 1684SOL    HW2 5952   2.585   5.568   1.192
 1685SOL     OW 5953   0.219   1.199   5.296
 1685SOL    HW1 5954   0.197   1.165   5.387
 1685SOL    HW2 5955   0.284   1.136   5.252
 1686SOL     OW 5956   3.620   5.231   2.153
 1686SOL    HW1 5957   3.585   5.155   2.097
 1686SOL    HW2 5958   3.632   5.312   2.095
 1687SOL     OW 5959   5.109   3.673   1.039
 1687SOL    HW1 5960   5.117   3.597   1.104
 1687SOL    HW2 5961   5.200   3.707   1.016
 1688SOL     OW 5962   2.635   0.200   2.865
 1688SOL    HW1 5963   2.686   0.280   2.896
 1688SOL    HW2 5964   2.561   0.180   2.929
 1689SOL     OW 5965   3.718   0.638   2.080
 1689SOL    HW1 5966   3.645   0.662   2.016
 1689SOL    HW2 5967   3.698   0.679   2.169
 1690SOL     OW 5968   6.196   4.784   3.956
 1690SOL    HW1 5969   6.260   4.735   3.898
 1690SOL    HW2 5970   6.214   4.882   3.950
 1691SOL     OW 5971   3.914   2.795   5.308
 1691SOL    HW1 5972   3.988   2.854   5.339
 1691SOL    HW2 5973   3.952   2.707   5.278
 1692SOL     OW 5974   5.705   5.015   1.215
 1692SOL    HW1 5975   5.723   4.936   1.274
 1692SOL    HW2 5976   5.646   5.080   1.263
 1693SOL     OW 5977   5.251   6.680   5.935
 1693SOL    HW1 5978   5.345   6.678   5.969
 1693SOL    HW2 5979   5.224   6.775   5.918
 1694SOL     OW 5980   4.675   1.349   6.537
 1694SOL    HW1 5981   4.738   1.382   6.608
 1694SOL    HW2 5982   4.694   1.398   6.452
 1695SOL     OW 5983   4.023   0.534   5.616
 1695SOL    HW1 5984   3.996   0.630   5.611
 1695SOL    HW2 5985   4.100   0.518   5.555
 1696SOL     OW 5986   4.585   0.499   1.044
 1696SOL    HW1 5987   4.583   0.423   1.109
 1696SOL    HW2 5988   4.515   0.565   1.067
 1697SOL     OW 5989   4.486   2.777   1.691
 1697SOL    HW1 5990   4.464   2.869   1.724
 1697SOL    HW2 5991   4.403   2.733   1.657
 1698SOL     OW 5992   4.126   1.572   1.828
 1698SOL    HW1 5993   4.063   1.634   1.876
 1698SOL    HW2 5994   4.205   1.624   1.795
 1699SOL     OW 5995   2.037   0.690   0.589
 1699SOL    HW1 5996   2.015   0.782   0.621
 1699SOL    HW2 5997   2.132   0.689   0.555
 1700SOL     OW 5998   5.379   3.171   2.917
 1700SOL    HW1 5999   5.463   3.128   2.885
 1700SOL    HW2 6000   5.330   3.212   2.840
 1701SOL     OW 6001   1.320   5.912   5.047
 1701SOL    HW1 6002   1.366   5.981   4.991
 1701SOL    HW2 6003   1.384   5.837   5.067
 1702SOL     OW 6004   2.096   2.742   6.681
 1702SOL    HW1 6005   2.073   2.764   6.586
 1702SOL    HW2 6006   2.063   2.650   6.703
 1703SOL     OW 6007   1.125   2.396   2.085
 1703SOL    HW1 6008   1.080   2.484   2.101
 1703SOL    HW2 6009   1.155   2.390   1.990
 1704SOL     OW 6010   2.728   2.952   6.625
 1704SOL    HW1 6011   2.824   2.927   6.631
 1704SOL    HW2 6012   2.688   2.954   6.717
 1705SOL     OW 6013   5.136   3.333   0.959
 1705SOL    HW1 6014   5.192   3.412   0.934
 1705SOL    HW2 6015   5.166   3.252   0.910
 1706SOL     OW 6016   5.649   1.247   6.135
 1706SOL    HW1 6017   5.748   1.237   6.146
 1706SOL    HW2 6018   5.603   1.224   6.221
 1707SOL     OW 6019   3.897   1.141   2.311
 1707SOL    HW1 6020   3.943   1.094   2.236
 1707SOL    HW2 6021   3.897   1.082   2.392
 1708SOL     OW 6022   2.516   4.641   1.943
 1708SOL    HW1 6023   2.605   4.628   1.987
 1708SOL    HW2 6024   2.445   4.652   2.013
 1709SOL     OW 6025   5.162   4.664   1.170
 1709SOL    HW1 6026   5.236   4.598   1.162
 1709SOL    HW2 6027   5.096   4.649   1.096
 1710SOL     OW 6028   4.834   2.935   2.126
 1710SOL    HW1 6029   4.804   2.977   2.041
 1710SOL    HW2 6030   4.826   3.002   2.201
 1711SOL     OW 6031   3.998   5.657   0.205
 1711SOL    HW1 6032   4.003   5.650   0.305
 1711SOL    HW2 6033   3.935   5.588   0.170
 1712SOL     OW 6034   0.047   1.771   1.967
 1712SOL    HW1 6035   0.114   1.783   1.895
 1712SOL    HW2 6036   0.031   1.673   1.982
 1713SOL     OW 6037   2.703   1.676   2.327
 1713SOL    HW1 6038   2.751   1.621   2.258
 1713SOL    HW2 6039   2.656   1.752   2.282
 1714SOL     OW 6040   2.686   4.274   0.783
 1714SOL    HW1 6041   2.597   4.285   0.739
 1714SOL    HW2 6042   2.685   4.317   0.873
 1715SOL     OW 6043   0.891   5.799   0.871
 1715SOL    HW1 6044   0.977   5.848   0.885
 1715SOL    HW2 6045   0.891   5.756   0.781
 1716SOL     OW 6046   5.086   1.795   3.094
 1716SOL    HW1 6047   5.135   1.765   3.176
 1716SOL    HW2 6048   5.149   1.798   3.017
 1717SOL     OW 6049   3.913   6.251   3.728
 1717SOL    HW1 6050   3.978   6.186   3.767
 1717SOL    HW2 6051   3.865   6.209   3.651
 1718SOL     OW 6052   1.813   3.758   1.628
 1718SOL    HW1 6053   1.903   3.798   1.647
 1718SOL    HW2 6054   1.778   3.715   1.712
 1719SOL     OW 6055   1.545   5.698   2.835
 1719SOL    HW1 6056   1.615   5.629   2.817
 1719SOL    HW2 6057   1.479   5.663   2.901
 1720SOL     OW 6058   0.789   2.884   5.338
 1720SOL    HW1 6059   0.846   2.894   5.421
 1720SOL    HW2 6060   0.722   2.812   5.354
 1721SOL     OW 6061   2.351   2.376   0.285
 1721SOL    HW1 6062   2.330   2.292   0.336
 1721SOL    HW2 6063   2.449   2.394   0.290
 1722SOL     OW 6064   2.444   2.550   3.541
 1722SOL    HW1 6065   2.437   2.494   3.624
 1722SOL    HW2 6066   2.495   2.500   3.471
 1723SOL     OW 6067   5.558   4.405   1.411
 1723SOL    HW1 6068   5.534   4.321   1.458
 1723SOL    HW2 6069   5.586   4.385   1.317
 1724SOL     OW 6070   5.701   2.968   0.974
 1724SOL    HW1 6071   5.710   2.869   0.967
 1724SOL    HW2 6072   5.786   3.012   0.944
 1725SOL     OW 6073   2.255   6.730   5.864
 1725SOL    HW1 6074   2.174   6.685   5.827
 1725SOL    HW2 6075   2.264   6.821   5.823
 1726SOL     OW 6076   4.693   4.278   3.371
 1726SOL    HW1 6077   4.616   4.272   3.436
 1726SOL    HW2 6078   4.747   4.193   3.376
 1727SOL     OW 6079   3.358   3.292   2.995
 1727SOL    HW1 6080   3.341   3.216   3.058
 1727SOL    HW2 6081   3.317   3.375   3.032
 1728SOL     OW 6082   5.683   2.279   4.084
 1728SOL    HW1 6083   5.616   2.315   4.149
 1728SOL    HW2 6084   5.636   2.222   4.016
 1729SOL     OW 6085   1.045   2.684   2.933
 1729SOL    HW1 6086   0.975   2.621   2.968
 1729SOL    HW2 6087   1.121   2.631   2.895
 1730SOL     OW 6088   2.634   6.626   4.999
 1730SOL    HW1 6089   2.567   6.694   4.969
 1730SOL    HW2 6090   2.726   6.659   4.977
 1731SOL     OW 6091   4.863   4.294   3.964
 1731SOL    HW1 6092   4.858   4.330   4.057
 1731SOL    HW2 6093   4.958   4.275   3.941
 1732SOL     OW 6094   3.615   3.675   4.950
 1732SOL    HW1 6095   3.521   3.659   4.982
 1732SOL    HW2 6096   3.679   3.625   5.008
 1733SOL     OW 6097   1.536   2.361   6.585
 1733SOL    HW1 6098   1.535   2.448   6.634
 1733SOL    HW2 6099   1.488   2.371   6.498
 1734SOL     OW 6100   0.185   3.906   1.007
 1734SOL    HW1 6101   0.146   3.814   1.004
 1734SOL    HW2 6102   0.282   3.901   0.984
 1735SOL     OW 6103   3.034   5.261   5.960
 1735SOL    HW1 6104   3.132   5.260   5.980
 1735SOL    HW2 6105   3.004   5.170   5.934
 1736SOL     OW 6106   5.114   2.396   6.497
 1736SOL    HW1 6107   5.162   2.423   6.580
 1736SOL    HW2 6108   5.180   2.386   6.422
 1737SOL     OW 6109   2.895   0.777   5.950
 1737SOL    HW1 6110   2.845   0.763   6.035
 1737SOL    HW2 6111   2.905   0.690   5.902
 1738SOL     OW 6112   1.718   4.166   2.052
 1738SOL    HW1 6113   1.797   4.104   2.046
 1738SOL    HW2 6114   1.638   4.122   2.011
 1739SOL     OW 6115   5.127   5.345   2.822
 1739SOL    HW1 6116   5.197   5.320   2.888
 1739SOL    HW2 6117   5.038   5.354   2.868
 1740SOL     OW 6118   6.936   2.631   5.108
 1740SOL    HW1 6119   6.910   2.618   5.203
 1740SOL    HW2 6120   6.922   2.546   5.057
 1741SOL     OW 6121   0.961   2.944   4.690
 1741SOL    HW1 6122   0.917   3.016   4.637
 1741SOL    HW2 6123   1.026   2.894   4.632
 1742SOL     OW 6124   6.062   7.000   0.019
 1742SOL    HW1 6125   5.990   0.044   0.046
 1742SOL    HW2 6126   6.078   7.007   6.941
 1743SOL     OW 6127   1.482   2.677   1.595
 1743SOL    HW1 6128   1.561   2.621   1.621
 1743SOL    HW2 6129   1.513   2.757   1.544
 1744SOL     OW 6130   3.069   2.278   5.397
 1744SOL    HW1 6131   2.989   2.337   5.409
 1744SOL    HW2 6132   3.109   2.293   5.307
 1745SOL     OW 6133   6.640   6.791   0.417
 1745SOL    HW1 6134   6.563   6.818   0.360
 1745SOL    HW2 6135   6.622   6.700   0.455
 1746SOL     OW 6136   2.497   4.935   2.803
 1746SOL    HW1 6137   2.449   5.004   2.748
 1746SOL    HW2 6138   2.430   4.872   2.843
 1747SOL     OW 6139   3.422   0.302   2.428
 1747SOL    HW1 6140   3.519   0.325   2.433
 1747SOL    HW2 6141   3.407   0.214   2.474
 1748SOL     OW 6142   6.801   1.988   3.948
 1748SOL    HW1 6143   6.752   2.074   3.940
 1748SOL    HW2 6144   6.738   1.915   3.974
 1749SOL     OW 6145   6.623   5.255   1.934
 1749SOL    HW1 6146   6.653   5.182   1.994
 1749SOL    HW2 6147   6.523   5.253   1.925
 1750SOL     OW 6148   3.139   1.181   0.734
 1750SOL    HW1 6149   3.066   1.138   0.788
 1750SOL    HW2 6150   3.169   1.117   0.663
 1751SOL     OW 6151   5.695   4.109   5.134
 1751SOL    HW1 6152   5.600   4.108   5.102
 1751SOL    HW2 6153   5.756   4.084   5.059
 1752SOL     OW 6154   6.482   0.656   2.312
 1752SOL    HW1 6155   6.527   0.664   2.223
 1752SOL    HW2 6156   6.461   0.560   2.330
 1753SOL     OW 6157   6.763   2.203   1.949
 1753SOL    HW1 6158   6.765   2.112   1.908
 1753SOL    HW2 6159   6.835   2.260   1.910
 1754SOL     OW 6160   3.061   5.808   3.563
 1754SOL    HW1 6161   3.029   5.719   3.593
 1754SOL    HW2 6162   3.046   5.875   3.635
 1755SOL     OW 6163   6.587   0.336   5.136
 1755SOL    HW1 6164   6.657   0.381   5.191
 1755SOL    HW2 6165   6.629   0.265   5.079
 1756SOL     OW 6166   4.206   6.152   1.501
 1756SOL    HW1 6167   4.183   6.078   1.564
 1756SOL    HW2 6168   4.304   6.171   1.506
 1757SOL     OW 6169   3.106   4.911   4.989
 1757SOL    HW1 6170   3.090   4.867   4.900
 1757SOL    HW2 6171   3.057   4.860   5.060
 1758SOL     OW 6172   1.042   6.047   3.815
 1758SOL    HW1 6173   1.064   6.037   3.718
 1758SOL    HW2 6174   1.121   6.022   3.870
 1759SOL     OW 6175   1.289   5.020   6.834
 1759SOL    HW1 6176   1.323   5.033   6.741
 1759SOL    HW2 6177   1.189   5.029   6.833
 1760SOL     OW 6178   6.070   1.671   4.404
 1760SOL    HW1 6179   5.987   1.619   4.384
 1760SOL    HW2 6180   6.150   1.612   4.391
 1761SOL     OW 6181   5.195   1.767   3.693
 1761SOL    HW1 6182   5.151   1.747   3.605
 1761SOL    HW2 6183   5.275   1.824   3.678
 1762SOL     OW 6184   1.014   1.555   5.732
 1762SOL    HW1 6185   0.981   1.647   5.751
 1762SOL    HW2 6186   0.988   1.528   5.639
 1763SOL     OW 6187   1.846   5.495   3.303
 1763SOL    HW1 6188   1.941   5.497   3.271
 1763SOL    HW2 6189   1.845   5.494   3.403
 1764SOL     OW 6190   1.043   6.089   3.363
 1764SOL    HW1 6191   1.046   6.160   3.293
 1764SOL    HW2 6192   1.125   6.032   3.356
 1765SOL     OW 6193   5.380   4.204   2.445
 1765SOL    HW1 6194   5.292   4.156   2.433
 1765SOL    HW2 6195   5.377   4.291   2.395
 1766SOL     OW 6196   4.693   4.382   4.226
 1766SOL    HW1 6197   4.707   4.309   4.293
 1766SOL    HW2 6198   4.774   4.442   4.225
 1767SOL     OW 6199   0.611   4.458   1.859
 1767SOL    HW1 6200   0.663   4.536   1.824
 1767SOL    HW2 6201   0.580   4.401   1.783
 1768SOL     OW 6202   4.017   4.773   2.567
 1768SOL    HW1 6203   4.117   4.771   2.568
 1768SOL    HW2 6204   3.983   4.791   2.659
 1769SOL     OW 6205   5.130   0.428   1.059
 1769SOL    HW1 6206   5.090   0.516   1.036
 1769SOL    HW2 6207   5.150   0.377   0.975
 1770SOL     OW 6208   1.887   5.146   0.505
 1770SOL    HW1 6209   1.965   5.092   0.474
 1770SOL    HW2 6210   1.888   5.235   0.459
 1771SOL     OW 6211   1.391   2.798   6.514
 1771SOL    HW1 6212   1.378   2.870   6.583
 1771SOL    HW2 6213   1.488   2.774   6.510
 1772SOL     OW 6214   2.149   4.564   3.003
 1772SOL    HW1 6215   2.090   4.575   2.924
 1772SOL    HW2 6216   2.176   4.468   3.012
 1773SOL     OW 6217   2.539   6.354   5.028
 1773SOL    HW1 6218   2.584   6.442   5.010
 1773SOL    HW2 6219   2.608   6.285   5.051
 1774SOL     OW 6220   5.586   5.722   1.640
 1774SOL    HW1 6221   5.652   5.658   1.600
 1774SOL    HW2 6222   5.507   5.670   1.674
 1775SOL     OW 6223   1.248   6.204   0.584
 1775SOL    HW1 6224   1.161   6.250   0.605
 1775SOL    HW2 6225   1.228   6.116   0.540
 1776SOL     OW 6226   4.423   3.656   6.018
 1776SOL    HW1 6227   4.389   3.657   5.924
 1776SOL    HW2 6228   4.403   3.744   6.062
 1777SOL     OW 6229   4.521   6.281   0.143
 1777SOL    HW1 6230   4.424   6.273   0.165
 1777SOL    HW2 6231   4.563   6.348   0.205
 1778SOL     OW 6232   6.634   0.182   3.387
 1778SOL    HW1 6233   6.656   0.255   3.321
 1778SOL    HW2 6234   6.690   0.102   3.367
 1779SOL     OW 6235   5.963   0.397   4.665
 1779SOL    HW1 6236   6.060   0.386   4.683
 1779SOL    HW2 6237   5.949   0.461   4.589
 1780SOL     OW 6238   3.353   6.202   4.499
 1780SOL    HW1 6239   3.349   6.234   4.594
 1780SOL    HW2 6240   3.425   6.133   4.491
 1781SOL     OW 6241   4.296   1.222   5.870
 1781SOL    HW1 6242   4.257   1.147   5.922
 1781SOL    HW2 6243   4.294   1.200   5.772
 1782SOL     OW 6244   5.095   0.535   2.215
 1782SOL    HW1 6245   5.138   0.445   2.204
 1782SOL    HW2 6246   5.072   0.549   2.311
 1783SOL     OW 6247   1.721   3.759   6.381
 1783SOL    HW1 6248   1.656   3.753   6.306
 1783SOL    HW2 6249   1.677   3.801   6.460
 1784SOL     OW 6250   2.501   6.186   1.290
 1784SOL    HW1 6251   2.489   6.256   1.360
 1784SOL    HW2 6252   2.445   6.208   1.210
 1785SOL     OW 6253   1.676   6.024   4.327
 1785SOL    HW1 6254   1.673   6.105   4.385
 1785SOL    HW2 6255   1.625   5.950   4.370
 1786SOL     OW 6256   0.738   6.080   1.698
 1786SOL    HW1 6257   0.775   6.002   1.647
 1786SOL    HW2 6258   0.746   6.163   1.642
 1787SOL     OW 6259   2.073   2.214   5.694
 1787SOL    HW1 6260   2.126   2.187   5.774
 1787SOL    HW2 6261   2.135   2.239   5.619
 1788SOL     OW 6262   3.843   3.968   0.460
 1788SOL    HW1 6263   3.823   3.984   0.557
 1788SOL    HW2 6264   3.815   3.875   0.436
 1789SOL     OW 6265   5.818   2.879   1.797
 1789SOL    HW1 6266   5.895   2.883   1.861
 1789SOL    HW2 6267   5.828   2.953   1.729
 1790SOL     OW 6268   2.419   1.676   4.686
 1790SOL    HW1 6269   2.487   1.705   4.754
 1790SOL    HW2 6270   2.444   1.585   4.652
 1791SOL     OW 6271   5.670   0.229   3.834
 1791SOL    HW1 6272   5.743   0.193   3.776
 1791SOL    HW2 6273   5.615   0.153   3.869
 1792SOL     OW 6274   6.784   2.374   6.509
 1792SOL    HW1 6275   6.725   2.406   6.583
 1792SOL    HW2 6276   6.876   2.411   6.522
 1793SOL     OW 6277   0.144   1.334   4.453
 1793SOL    HW1 6278   0.178   1.367   4.541
 1793SOL    HW2 6279   0.068   1.392   4.423
 1794SOL     OW 6280   0.253   1.653   6.478
 1794SOL    HW1 6281   0.309   1.708   6.540
 1794SOL    HW2 6282   0.290   1.659   6.385
 1795SOL     OW 6283   5.395   4.768   0.500
 1795SOL    HW1 6284   5.487   4.803   0.483
 1795SOL    HW2 6285   5.328   4.833   0.464
 1796SOL     OW 6286   5.830   6.900   0.527
 1796SOL    HW1 6287   5.895   6.939   0.592
 1796SOL    HW2 6288   5.805   6.808   0.557
 1797SOL     OW 6289   2.919   6.009   5.506
 1797SOL    HW1 6290   2.894   6.042   5.414
 1797SOL    HW2 6291   2.837   5.975   5.552
 1798SOL     OW 6292   2.234   3.533   5.845
 1798SOL    HW1 6293   2.241   3.506   5.941
 1798SOL    HW2 6294   2.325   3.560   5.812
 1799SOL     OW 6295   3.521   1.192   2.014
 1799SOL    HW1 6296   3.517   1.189   2.114
 1799SOL    HW2 6297   3.547   1.285   1.985
 1800SOL     OW 6298   6.378   2.740   5.915
 1800SOL    HW1 6299   6.300   2.755   5.854
 1800SOL    HW2 6300   6.449   2.689   5.866
 1801SOL     OW 6301   6.913   1.376   2.521
 1801SOL    HW1 6302   6.898   1.381   2.620
 1801SOL    HW2 6303   6.951   1.287   2.497
 1802SOL     OW 6304   5.850   4.754   4.304
 1802SOL    HW1 6305   5.755   4.754   4.273
 1802SOL    HW2 6306   5.905   4.696   4.244
 1803SOL     OW 6307   0.311   6.607   4.161
 1803SOL    HW1 6308   0.409   6.626   4.161
 1803SOL    HW2 6309   0.260   6.692   4.146
 1804SOL     OW 6310   1.026   2.760   6.394
 1804SOL    HW1 6311   1.012   2.847   6.442
 1804SOL    HW2 6312   1.061   2.778   6.302
 1805SOL     OW 6313   5.952   4.609   6.810
 1805SOL    HW1 6314   5.885   4.537   6.788
 1805SOL    HW2 6315   6.036   4.592   6.758
 1806SOL     OW 6316   0.716   1.933   1.397
 1806SOL    HW1 6317   0.664   1.995   1.339
 1806SOL    HW2 6318   0.806   1.972   1.416
 1807SOL     OW 6319   6.064   2.921   2.387
 1807SOL    HW1 6320   6.096   2.880   2.473
 1807SOL    HW2 6321   6.028   3.012   2.405
 1808SOL     OW 6322   5.610   0.912   6.372
 1808SOL    HW1 6323   5.596   1.011   6.367
 1808SOL    HW2 6324   5.522   0.866   6.358
 1809SOL     OW 6325   5.048   0.349   5.054
 1809SOL    HW1 6326   5.091   0.439   5.058
 1809SOL    HW2 6327   4.980   0.341   5.127
 1810SOL     OW 6328   1.152   1.083   4.411
 1810SOL    HW1 6329   1.120   1.177   4.427
 1810SOL    HW2 6330   1.160   1.036   4.499
 1811SOL     OW 6331   3.096   5.628   2.160
 1811SOL    HW1 6332   3.075   5.535   2.127
 1811SOL    HW2 6333   3.098   5.691   2.083
 1812SOL     OW 6334   4.192   0.495   6.237
 1812SOL    HW1 6335   4.095   0.485   6.213
 1812SOL    HW2 6336   4.236   0.555   6.171
 1813SOL     OW 6337   5.347   3.556   1.778
 1813SOL    HW1 6338   5.391   3.466   1.776
 1813SOL    HW2 6339   5.257   3.548   1.822
 1814SOL     OW 6340   6.845   5.786   0.843
 1814SOL    HW1 6341   6.933   5.808   0.801
 1814SOL    HW2 6342   6.861   5.742   0.932
 1815SOL     OW 6343   6.171   5.209   0.866
 1815SOL    HW1 6344   6.092   5.163   0.827
 1815SOL    HW2 6345   6.144   5.301   0.896
 1816SOL     OW 6346   3.819   5.152   4.330
 1816SOL    HW1 6347   3.808   5.224   4.398
 1816SOL    HW2 6348   3.767   5.175   4.248
 1817SOL     OW 6349   6.738   2.907   3.439
 1817SOL    HW1 6350   6.694   2.827   3.480
 1817SOL    HW2 6351   6.832   2.914   3.472
 1818SOL     OW 6352   2.158   1.516   0.636
 1818SOL    HW1 6353   2.246   1.493   0.678
 1818SOL    HW2 6354   2.172   1.582   0.562
 1819SOL     OW 6355   0.848   3.955   1.190
 1819SOL    HW1 6356   0.877   3.950   1.285
 1819SOL    HW2 6357   0.926   3.940   1.130
 1820SOL     OW 6358   4.136   7.020   5.267
 1820SOL    HW1 6359   4.067   6.968   5.317
 1820SOL    HW2 6360   4.202   6.957   5.225
 1821SOL     OW 6361   3.956   1.580   3.084
 1821SOL    HW1 6362   4.023   1.632   3.136
 1821SOL    HW2 6363   3.934   1.628   3.000
 1822SOL     OW 6364   1.811   3.903   4.092
 1822SOL    HW1 6365   1.859   3.984   4.127
 1822SOL    HW2 6366   1.879   3.838   4.056
 1823SOL     OW 6367   3.556   6.533   3.515
 1823SOL    HW1 6368   3.473   6.481   3.492
 1823SOL    HW2 6369   3.626   6.471   3.550
 1824SOL     OW 6370   4.692   3.127   1.630
 1824SOL    HW1 6371   4.631   3.203   1.611
 1824SOL    HW2 6372   4.670   3.087   1.719
 1825SOL     OW 6373   1.431   3.682   7.012
 1825SOL    HW1 6374   1.428   3.721   6.920
 1825SOL    HW2 6375   1.518   3.633   0.004
 1826SOL     OW 6376   3.619   2.908   0.592
 1826SOL    HW1 6377   3.642   3.000   0.563
 1826SOL    HW2 6378   3.684   2.877   0.662
 1827SOL     OW 6379   5.017   4.374   0.340
 1827SOL    HW1 6380   5.002   4.401   0.245
 1827SOL    HW2 6381   5.090   4.306   0.344
 1828SOL     OW 6382   2.710   4.704   4.715
 1828SOL    HW1 6383   2.736   4.673   4.806
 1828SOL    HW2 6384   2.635   4.769   4.722
 1829SOL     OW 6385   2.453   6.407   1.850
 1829SOL    HW1 6386   2.547   6.439   1.846
 1829SOL    HW2 6387   2.440   6.349   1.931
 1830SOL     OW 6388   4.196   1.357   6.687
 1830SOL    HW1 6389   4.140   1.398   6.759
 1830SOL    HW2 6390   4.287   1.334   6.723
 1831SOL     OW 6391   3.731   4.806   0.312
 1831SOL    HW1 6392   3.640   4.769   0.294
 1831SOL    HW2 6393   3.785   4.805   0.229
 1832SOL     OW 6394   2.051   3.526   5.369
 1832SOL    HW1 6395   1.982   3.576   5.421
 1832SOL    HW2 6396   2.123   3.494   5.430
 1833SOL     OW 6397   5.625   0.809   6.979
 1833SOL    HW1 6398   5.693   0.881   6.972
 1833SOL    HW2 6399   5.633   0.765   0.049
 1834SOL     OW 6400   1.549   3.836   6.156
 1834SOL    HW1 6401   1.507   3.763   6.102
 1834SOL    HW2 6402   1.562   3.917   6.099
 1835SOL     OW 6403   6.402   6.492   0.990
 1835SOL    HW1 6404   6.500   6.491   0.973
 1835SOL    HW2 6405   6.357   6.431   0.925
 1836SOL     OW 6406   6.102   2.205   3.348
 1836SOL    HW1 6407   6.049   2.125   3.377
 1836SOL    HW2 6408   6.179   2.175   3.292
 1837SOL     OW 6409   1.626   1.996   0.283
 1837SOL    HW1 6410   1.636   1.898   0.299
 1837SOL    HW2 6411   1.573   2.011   0.199
 1838SOL     OW 6412   4.895   0.585   0.608
 1838SOL    HW1 6413   4.965   0.572   0.678
 1838SOL    HW2 6414   4.927   0.547   0.522
 1839SOL     OW 6415   6.571   0.961   6.533
 1839SOL    HW1 6416   6.557   0.889   6.465
 1839SOL    HW2 6417   6.657   0.944   6.583
 1840SOL     OW 6418   3.692   0.130   5.147
 1840SOL    HW1 6419   3.695   0.161   5.052
 1840SOL    HW2 6420   3.675   0.208   5.207
 1841SOL     OW 6421   2.013   0.808   1.582
 1841SOL    HW1 6422   2.061   0.896   1.577
 1841SOL    HW2 6423   2.012   0.765   1.492
 1842SOL     OW 6424   6.689   5.101   1.175
 1842SOL    HW1 6425   6.726   5.173   1.116
 1842SOL    HW2 6426   6.695   5.130   1.270
 1843SOL     OW 6427   2.970   1.370   6.758
 1843SOL    HW1 6428   2.914   1.442   6.797
 1843SOL    HW2 6429   3.004   1.398   6.669
 1844SOL     OW 6430   5.282   3.399   0.544
 1844SOL    HW1 6431   5.276   3.479   0.604
 1844SOL    HW2 6432   5.194   3.385   0.499
 1845SOL     OW 6433   1.174   2.751   4.168
 1845SOL    HW1 6434   1.141   2.702   4.249
 1845SOL    HW2 6435   1.245   2.816   4.195
 1846SOL     OW 6436   3.405   1.578   2.161
 1846SOL    HW1 6437   3.430   1.612   2.252
 1846SOL    HW2 6438   3.401   1.653   2.096
 1847SOL     OW 6439   2.293   6.025   6.927
 1847SOL    HW1 6440   2.221   5.956   6.918
 1847SOL    HW2 6441   2.372   5.998   6.872
 1848SOL     OW 6442   3.988   6.418   3.938
 1848SOL    HW1 6443   3.939   6.502   3.959
 1848SOL    HW2 6444   3.933   6.360   3.879
 1849SOL     OW 6445   4.728   2.776   2.727
 1849SOL    HW1 6446   4.643   2.797   2.679
 1849SOL    HW2 6447   4.747   2.847   2.795
 1850SOL     OW 6448   4.502   1.774   0.953
 1850SOL    HW1 6449   4.465   1.721   1.029
 1850SOL    HW2 6450   4.591   1.811   0.978
 1851SOL     OW 6451   0.733   5.137   4.264
 1851SOL    HW1 6452   0.832   5.150   4.260
 1851SOL    HW2 6453   0.689   5.222   4.292
 1852SOL     OW 6454   0.625   6.715   3.610
 1852SOL    HW1 6455   0.649   6.698   3.514
 1852SOL    HW2 6456   0.600   6.811   3.621
 1853SOL     OW 6457   0.961   1.817   5.800
 1853SOL    HW1 6458   1.037   1.881   5.788
 1853SOL    HW2 6459   0.889   1.838   5.735
 1854SOL     OW 6460   0.583   0.119   4.269
 1854SOL    HW1 6461   0.578   0.049   4.340
 1854SOL    HW2 6462   0.510   0.105   4.203
 1855SOL     OW 6463   6.539   1.634   4.876
 1855SOL    HW1 6464   6.590   1.557   4.915
 1855SOL    HW2 6465   6.486   1.679   4.947
 1856SOL     OW 6466   5.062   4.327   6.772
 1856SOL    HW1 6467   5.146   4.338   6.826
 1856SOL    HW2 6468   5.005   4.409   6.783
 1857SOL     OW 6469   4.069   1.049   6.408
 1857SOL    HW1 6470   4.148   1.033   6.350
 1857SOL    HW2 6471   4.055   1.147   6.420
 1858SOL     OW 6472   5.592   1.590   5.196
 1858SOL    HW1 6473   5.528   1.663   5.220
 1858SOL    HW2 6474   5.550   1.501   5.215
 1859SOL     OW 6475   6.857   6.754   2.432
 1859SOL    HW1 6476   6.909   6.812   2.494
 1859SOL    HW2 6477   6.767   6.795   2.417
 1860SOL     OW 6478   2.526   0.835   6.230
 1860SOL    HW1 6479   2.480   0.775   6.296
 1860SOL    HW2 6480   2.615   0.797   6.207
 1861SOL     OW 6481   6.608   6.661   5.281
 1861SOL    HW1 6482   6.618   6.562   5.292
 1861SOL    HW2 6483   6.517   6.681   5.245
 1862SOL     OW 6484   3.365   6.000   6.194
 1862SOL    HW1 6485   3.420   6.037   6.269
 1862SOL    HW2 6486   3.414   5.924   6.150
 1863SOL     OW 6487   6.963   1.668   1.527
 1863SOL    HW1 6488   0.021   1.605   1.524
 1863SOL    HW2 6489   6.890   1.628   1.582
 1864SOL     OW 6490   2.009   6.882   2.139
 1864SOL    HW1 6491   2.071   6.917   2.209
 1864SOL    HW2 6492   1.984   6.788   2.161
 1865SOL     OW 6493   6.350   1.860   6.161
 1865SOL    HW1 6494   6.317   1.946   6.123
 1865SOL    HW2 6495   6.448   1.852   6.146
 1866SOL     OW 6496   6.793   4.641   3.694
 1866SOL    HW1 6497   6.855   4.570   3.661
 1866SOL    HW2 6498   6.846   4.722   3.720
 1867SOL     OW 6499   1.425   1.117   1.663
 1867SOL    HW1 6500   1.507   1.068   1.632
 1867SOL    HW2 6501   1.408   1.195   1.603
 1868SOL     OW 6502   4.763   3.924   6.016
 1868SOL    HW1 6503   4.846   3.967   5.982
 1868SOL    HW2 6504   4.785   3.832   6.050
 1869SOL     OW 6505   5.419   0.673   5.101
 1869SOL    HW1 6506   5.447   0.635   5.190
 1869SOL    HW2 6507   5.388   0.767   5.114
 1870SOL     OW 6508   6.238   0.409   6.189
 1870SOL    HW1 6509   6.148   0.431   6.227
 1870SOL    HW2 6510   6.228   0.342   6.116
 1871SOL     OW 6511   1.430   5.292   6.795
 1871SOL    HW1 6512   1.354   5.282   6.732
 1871SOL    HW2 6513   1.403   5.258   6.886
 1872SOL     OW 6514   2.390   3.165   0.974
 1872SOL    HW1 6515   2.359   3.218   1.053
 1872SOL    HW2 6516   2.467   3.107   1.001
 1873SOL     OW 6517   5.921   1.704   2.490
 1873SOL    HW1 6518   5.957   1.618   2.452
 1873SOL    HW2 6519   5.938   1.778   2.425
 1874SOL     OW 6520   1.594   5.885   6.424
 1874SOL    HW1 6521   1.526   5.834   6.372
 1874SOL    HW2 6522   1.670   5.910   6.364
 1875SOL     OW 6523   0.901   6.411   2.375
 1875SOL    HW1 6524   0.931   6.330   2.425
 1875SOL    HW2 6525   0.967   6.433   2.304
 1876SOL     OW 6526   0.828   4.780   0.402
 1876SOL    HW1 6527   0.876   4.833   0.333
 1876SOL    HW2 6528   0.883   4.776   0.486
 1877SOL     OW 6529   1.133   0.988   2.876
 1877SOL    HW1 6530   1.148   1.054   2.802
 1877SOL    HW2 6531   1.170   1.026   2.962
 1878SOL     OW 6532   5.537   3.867   4.418
 1878SOL    HW1 6533   5.607   3.925   4.459
 1878SOL    HW2 6534   5.533   3.780   4.467
 1879SOL     OW 6535   4.346   6.304   5.417
 1879SOL    HW1 6536   4.377   6.387   5.372
 1879SOL    HW2 6537   4.349   6.227   5.352
 1880SOL     OW 6538   1.404   2.953   4.231
 1880SOL    HW1 6539   1.371   3.047   4.218
 1880SOL    HW2 6540   1.415   2.935   4.329
 1881SOL     OW 6541   2.200   1.145   3.833
 1881SOL    HW1 6542   2.234   1.207   3.903
 1881SOL    HW2 6543   2.163   1.198   3.757
 1882SOL     OW 6544   3.569   5.506   0.838
 1882SOL    HW1 6545   3.475   5.539   0.835
 1882SOL    HW2 6546   3.632   5.584   0.841
 1883SOL     OW 6547   2.096   3.549   2.466
 1883SOL    HW1 6548   2.112   3.547   2.565
 1883SOL    HW2 6549   1.998   3.560   2.449
 1884SOL     OW 6550   5.000   0.462   0.370
 1884SOL    HW1 6551   4.928   0.402   0.334
 1884SOL    HW2 6552   5.058   0.493   0.295
 1885SOL     OW 6553   0.121   1.410   0.506
 1885SOL    HW1 6554   0.051   1.361   0.454
 1885SOL    HW2 6555   0.081   1.448   0.589
 1886SOL     OW 6556   3.334   2.896   5.483
 1886SOL    HW1 6557   3.283   2.814   5.507
 1886SOL    HW2 6558   3.324   2.964   5.556
 1887SOL     OW 6559   0.766   5.782   5.037
 1887SOL    HW1 6560   0.754   5.736   4.949
 1887SOL    HW2 6561   0.864   5.797   5.054
 1888SOL     OW 6562   1.687   1.360   6.189
 1888SOL    HW1 6563   1.667   1.454   6.218
 1888SOL    HW2 6564   1.605   1.318   6.151
 1889SOL     OW 6565   3.552   3.057   7.006
 1889SOL    HW1 6566   3.630   3.030   0.044
 1889SOL    HW2 6567   3.586   3.086   6.917
 1890SOL     OW 6568   6.419   5.830   6.044
 1890SOL    HW1 6569   6.403   5.753   5.983
 1890SOL    HW2 6570   6.413   5.915   5.991
 1891SOL     OW 6571   5.213   3.352   0.118
 1891SOL    HW1 6572   5.262   3.320   0.199
 1891SOL    HW2 6573   5.278   3.394   0.055
 1892SOL     OW 6574   4.037   0.224   3.362
 1892SOL    HW1 6575   4.090   0.159   3.308
 1892SOL    HW2 6576   3.949   0.241   3.316
 1893SOL     OW 6577   2.597   0.834   6.682
 1893SOL    HW1 6578   2.507   0.852   6.642
 1893SOL    HW2 6579   2.591   0.755   6.743
 1894SOL     OW 6580   4.970   3.162   0.564
 1894SOL    HW1 6581   4.998   3.102   0.490
 1894SOL    HW2 6582   4.982   3.258   0.535
 1895SOL     OW 6583   4.859   5.187   3.436
 1895SOL    HW1 6584   4.950   5.225   3.422
 1895SOL    HW2 6585   4.808   5.246   3.499
 1896SOL     OW 6586   6.904   1.775   5.120
 1896SOL    HW1 6587   6.856   1.808   5.039
 1896SOL    HW2 6588   6.936   1.681   5.103
 1897SOL     OW 6589   5.115   4.907   3.534
 1897SOL    HW1 6590   5.180   4.835   3.559
 1897SOL    HW2 6591   5.052   4.922   3.609
 1898SOL     OW 6592   5.573   6.436   6.901
 1898SOL    HW1 6593   5.668   6.451   6.929
 1898SOL    HW2 6594   5.512   6.471   6.973
 1899SOL     OW 6595   2.213   2.912   3.309
 1899SOL    HW1 6596   2.202   2.956   3.398
 1899SOL    HW2 6597   2.202   2.979   3.236
 1900SOL     OW 6598   2.108   5.512   1.703
 1900SOL    HW1 6599   2.059   5.439   1.750
 1900SOL    HW2 6600   2.165   5.473   1.631
 1901SOL     OW 6601   1.857   0.607   5.315
 1901SOL    HW1 6602   1.950   0.595   5.348
 1901SOL    HW2 6603   1.854   0.585   5.217
 1902SOL     OW 6604   0.966   3.057   4.127
 1902SOL    HW1 6605   1.005   3.119   4.195
 1902SOL    HW2 6606   0.906   2.991   4.173
 1903SOL     OW 6607   6.483   4.896   3.877
 1903SOL    HW1 6608   6.427   4.817   3.851
 1903SOL    HW2 6609   6.425   4.977   3.884
 1904SOL     OW 6610   0.987   0.406   3.826
 1904SOL    HW1 6611   1.076   0.399   3.782
 1904SOL    HW2 6612   0.982   0.490   3.880
 1905SOL     OW 6613   6.212   2.846   5.189
 1905SOL    HW1 6614   6.115   2.866   5.201
 1905SOL    HW2 6615   6.262   2.930   5.170
 1906SOL     OW 6616   2.184   6.905   5.336
 1906SOL    HW1 6617   2.087   6.886   5.354
 1906SOL    HW2 6618   2.205   6.999   5.361
 1907SOL     OW 6619   4.351   6.762   3.147
 1907SOL    HW1 6620   4.400   6.837   3.102
 1907SOL    HW2 6621   4.319   6.791   3.237
 1908SOL     OW 6622   4.492   5.796   0.960
 1908SOL    HW1 6623   4.483   5.817   1.057
 1908SOL    HW2 6624   4.564   5.728   0.948
 1909SOL     OW 6625   5.265   5.185   3.656
 1909SOL    HW1 6626   5.271   5.117   3.729
 1909SOL    HW2 6627   5.348   5.240   3.655
 1910SOL     OW 6628   5.005   3.411   4.342
 1910SOL    HW1 6629   5.082   3.353   4.317
 1910SOL    HW2 6630   4.964   3.451   4.259
 1911SOL     OW 6631   0.909   2.669   5.812
 1911SOL    HW1 6632   0.928   2.575   5.838
 1911SOL    HW2 6633   0.934   2.730   5.888
 1912SOL     OW 6634   3.482   6.290   2.861
 1912SOL    HW1 6635   3.542   6.347   2.805
 1912SOL    HW2 6636   3.441   6.345   2.934
 1913SOL     OW 6637   2.720   4.220   5.668
 1913SOL    HW1 6638   2.803   4.258   5.627
 1913SOL    HW2 6639   2.661   4.296   5.698
 1914SOL     OW 6640   4.434   1.615   4.894
 1914SOL    HW1 6641   4.340   1.603   4.865
 1914SOL    HW2 6642   4.469   1.529   4.931
 1915SOL     OW 6643   3.029   6.918   5.347
 1915SOL    HW1 6644   3.054   6.836   5.295
 1915SOL    HW2 6645   3.035   6.898   5.445
 1916SOL     OW 6646   3.509   6.131   2.554
 1916SOL    HW1 6647   3.453   6.051   2.529
 1916SOL    HW2 6648   3.578   6.103   2.620
 1917SOL     OW 6649   3.587   3.781   4.075
 1917SOL    HW1 6650   3.666   3.813   4.021
 1917SOL    HW2 6651   3.513   3.848   4.067
 1918SOL     OW 6652   0.128   6.651   5.103
 1918SOL    HW1 6653   0.090   6.563   5.075
 1918SOL    HW2 6654   0.072   6.689   5.177
 1919SOL     OW 6655   6.291   0.991   2.652
 1919SOL    HW1 6656   6.267   0.939   2.735
 1919SOL    HW2 6657   6.270   0.937   2.571
 1920SOL     OW 6658   6.430   6.394   5.107
 1920SOL    HW1 6659   6.399   6.480   5.149
 1920SOL    HW2 6660   6.350   6.338   5.082
 1921SOL     OW 6661   2.200   6.683   6.954
 1921SOL    HW1 6662   2.202   6.615   0.007
 1921SOL    HW2 6663   2.232   6.640   6.869
 1922SOL     OW 6664   3.327   4.077   0.609
 1922SOL    HW1 6665   3.358   4.172   0.614
 1922SOL    HW2 6666   3.271   4.064   0.527
 1923SOL     OW 6667   1.670   2.891   0.668
 1923SOL    HW1 6668   1.608   2.871   0.593
 1923SOL    HW2 6669   1.692   2.988   0.670
 1924SOL     OW 6670   0.792   3.642   0.992
 1924SOL    HW1 6671   0.883   3.681   0.986
 1924SOL    HW2 6672   0.726   3.703   0.948
 1925SOL     OW 6673   3.145   4.477   0.260
 1925SOL    HW1 6674   3.094   4.392   0.272
 1925SOL    HW2 6675   3.209   4.467   0.183
 1926SOL     OW 6676   0.588   0.840   3.712
 1926SOL    HW1 6677   0.668   0.893   3.739
 1926SOL    HW2 6678   0.518   0.848   3.783
 1927SOL     OW 6679   5.205   3.213   1.514
 1927SOL    HW1 6680   5.169   3.128   1.474
 1927SOL    HW2 6681   5.136   3.253   1.574
 1928SOL     OW 6682   0.225   5.511   4.519
 1928SOL    HW1 6683   0.185   5.462   4.597
 1928SOL    HW2 6684   0.303   5.459   4.484
 1929SOL     OW 6685   1.060   5.623   2.998
 1929SOL    HW1 6686   1.081   5.718   3.021
 1929SOL    HW2 6687   1.005   5.621   2.914
 1930SOL     OW 6688   7.018   5.426   6.144
 1930SOL    HW1 6689   6.961   5.355   6.184
 1930SOL    HW2 6690   0.091   5.390   6.130
 1931SOL     OW 6691   0.904   2.299   4.126
 1931SOL    HW1 6692   0.895   2.221   4.064
 1931SOL    HW2 6693   0.862   2.276   4.214
 1932SOL     OW 6694   6.004   3.533   2.522
 1932SOL    HW1 6695   5.937   3.582   2.467
 1932SOL    HW2 6696   6.052   3.465   2.466
 1933SOL     OW 6697   2.845   5.192   0.329
 1933SOL    HW1 6698   2.925   5.181   0.388
 1933SOL    HW2 6699   2.856   5.136   0.248
 1934SOL     OW 6700   0.054   5.920   2.953
 1934SOL    HW1 6701   0.009   5.830   2.945
 1934SOL    HW2 6702   0.104   5.924   3.040
 1935SOL     OW 6703   1.829   1.175   3.268
 1935SOL    HW1 6704   1.855   1.271   3.279
 1935SOL    HW2 6705   1.737   1.162   3.305
 1936SOL     OW 6706   6.993   6.064   5.201
 1936SOL    HW1 6707   0.066   6.034   5.181
 1936SOL    HW2 6708   6.995   6.133   5.273
 1937SOL     OW 6709   4.095   1.114   3.233
 1937SOL    HW1 6710   4.176   1.089   3.180
 1937SOL    HW2 6711   4.106   1.207   3.267
 1938SOL     OW 6712   5.884   0.183   4.341
 1938SOL    HW1 6713   5.844   0.256   4.285
 1938SOL    HW2 6714   5.827   0.170   4.423
 1939SOL     OW 6715   3.202   0.408   4.520
 1939SOL    HW1 6716   3.283   0.360   4.554
 1939SOL    HW2 6717   3.136   0.341   4.486
 1940SOL     OW 6718   6.320   6.335   6.238
 1940SOL    HW1 6719   6.262   6.253   6.235
 1940SOL    HW2 6720   6.262   6.416   6.246
 1941SOL     OW 6721   4.673   5.122   2.559
 1941SOL    HW1 6722   4.736   5.128   2.482
 1941SOL    HW2 6723   4.714   5.065   2.631
 1942SOL     OW 6724   0.161   3.877   3.043
 1942SOL    HW1 6725   0.164   3.777   3.042
 1942SOL    HW2 6726   0.129   3.909   3.132
 1943SOL     OW 6727   2.889   5.980   3.408
 1943SOL    HW1 6728   2.910   5.971   3.310
 1943SOL    HW2 6729   2.944   5.914   3.460
 1944SOL     OW 6730   0.021   6.315   1.809
 1944SOL    HW1 6731   6.946   6.345   1.812
 1944SOL    HW2 6732   0.055   6.303   1.902
 1945SOL     OW 6733   3.235   4.962   3.232
 1945SOL    HW1 6734   3.333   4.972   3.249
 1945SOL    HW2 6735   3.222   4.892   3.161
 1946SOL     OW 6736   1.211   6.631   6.892
 1946SOL    HW1 6737   1.201   6.727   6.867
 1946SOL    HW2 6738   1.216   6.575   6.809
 1947SOL     OW 6739   4.569   0.101   3.299
 1947SOL    HW1 6740   4.537   0.074   3.208
 1947SOL    HW2 6741   4.645   0.042   3.326
 1948SOL     OW 6742   6.241   3.489   4.936
 1948SOL    HW1 6743   6.253   3.392   4.917
 1948SOL    HW2 6744   6.321   3.523   4.986
 1949SOL     OW 6745   4.235   4.596   6.666
 1949SOL    HW1 6746   4.183   4.510   6.662
 1949SOL    HW2 6747   4.313   4.584   6.727
 1950SOL     OW 6748   3.562   5.222   0.790
 1950SOL    HW1 6749   3.653   5.183   0.800
 1950SOL    HW2 6750   3.567   5.322   0.800
 1951SOL     OW 6751   6.450   2.525   0.628
 1951SOL    HW1 6752   6.397   2.556   0.549
 1951SOL    HW2 6753   6.542   2.562   0.623
 1952SOL     OW 6754   3.307   2.943   4.426
 1952SOL    HW1 6755   3.239   3.016   4.419
 1952SOL    HW2 6756   3.330   2.910   4.334
 1953SOL     OW 6757   0.497   2.752   4.727
 1953SOL    HW1 6758   0.425   2.757   4.657
 1953SOL    HW2 6759   0.487   2.829   4.791
 1954SOL     OW 6760   2.444   1.728   3.932
 1954SOL    HW1 6761   2.379   1.797   3.900
 1954SOL    HW2 6762   2.398   1.667   3.997
 1955SOL     OW 6763   5.984   5.686   1.872
 1955SOL    HW1 6764   5.904   5.663   1.928
 1955SOL    HW2 6765   5.976   5.644   1.782
 1956SOL     OW 6766   4.988   5.731   2.771
 1956SOL    HW1 6767   5.064   5.795   2.760
 1956SOL    HW2 6768   4.991   5.693   2.864
 1957SOL     OW 6769   1.611   6.609   4.418
 1957SOL    HW1 6770   1.602   6.557   4.503
 1957SOL    HW2 6771   1.534   6.673   4.410
 1958SOL     OW 6772   3.645   3.737   5.756
 1958SOL    HW1 6773   3.651   3.639   5.772
 1958SOL    HW2 6774   3.666   3.786   5.841
 1959SOL     OW 6775   2.249   0.979   0.584
 1959SOL    HW1 6776   2.203   1.023   0.507
 1959SOL    HW2 6777   2.343   0.956   0.558
 1960SOL     OW 6778   5.595   5.741   2.897
 1960SOL    HW1 6779   5.607   5.817   2.962
 1960SOL    HW2 6780   5.499   5.714   2.895
 1961SOL     OW 6781   5.837   5.269   5.328
 1961SOL    HW1 6782   5.823   5.173   5.349
 1961SOL    HW2 6783   5.932   5.283   5.300
 1962SOL     OW 6784   0.001   6.627   3.882
 1962SOL    HW1 6785   6.992   6.622   3.978
 1962SOL    HW2 6786   0.092   6.667   3.878
 1963SOL     OW 6787   2.328   0.907   3.856
 1963SOL    HW1 6788   2.306   1.000   3.826
 1963SOL    HW2 6789   2.253   0.871   3.910
 1964SOL     OW 6790   6.009   3.158   2.579
 1964SOL    HW1 6791   5.942   3.116   2.641
 1964SOL    HW2 6792   6.100   3.148   2.618
 1965SOL     OW 6793   2.021   6.473   3.082
 1965SOL    HW1 6794   2.095   6.423   3.035
 1965SOL    HW2 6795   2.059   6.552   3.129
 1966SOL     OW 6796   6.321   0.304   6.801
 1966SOL    HW1 6797   6.260   0.341   6.871
 1966SOL    HW2 6798   6.321   0.364   6.721
 1967SOL     OW 6799   5.228   3.606   5.194
 1967SOL    HW1 6800   5.249   3.519   5.149
 1967SOL    HW2 6801   5.158   3.654   5.142
 1968SOL     OW 6802   3.790   4.942   4.853
 1968SOL    HW1 6803   3.849   4.876   4.806
 1968SOL    HW2 6804   3.718   4.973   4.791
 1969SOL     OW 6805   6.750   1.587   1.680
 1969SOL    HW1 6806   6.677   1.646   1.714
 1969SOL    HW2 6807   6.735   1.493   1.712
 1970SOL     OW 6808   1.877   0.823   3.447
 1970SOL    HW1 6809   1.913   0.849   3.357
 1970SOL    HW2 6810   1.814   0.746   3.436
 1971SOL     OW 6811   0.319   1.222   6.072
 1971SOL    HW1 6812   0.417   1.244   6.076
 1971SOL    HW2 6813   0.281   1.257   5.987
 1972SOL     OW 6814   1.558   0.540   3.291
 1972SOL    HW1 6815   1.637   0.559   3.349
 1972SOL    HW2 6816   1.546   0.442   3.282
 1973SOL     OW 6817   2.724   3.424   0.260
 1973SOL    HW1 6818   2.791   3.366   0.215
 1973SOL    HW2 6819   2.759   3.517   0.268
 1974SOL     OW 6820   5.799   6.778   4.424
 1974SOL    HW1 6821   5.847   6.766   4.511
 1974SOL    HW2 6822   5.863   6.765   4.348
 1975SOL     OW 6823   2.605   0.450   3.042
 1975SOL    HW1 6824   2.659   0.392   3.103
 1975SOL    HW2 6825   2.662   0.527   3.011
 1976SOL     OW 6826   6.421   3.753   6.303
 1976SOL    HW1 6827   6.459   3.740   6.212
 1976SOL    HW2 6828   6.353   3.683   6.321
 1977SOL     OW 6829   3.298   1.887   5.549
 1977SOL    HW1 6830   3.273   1.818   5.482
 1977SOL    HW2 6831   3.397   1.885   5.564
 1978SOL     OW 6832   6.881   2.584   5.414
 1978SOL    HW1 6833   6.828   2.636   5.481
 1978SOL    HW2 6834   6.940   2.519   5.462
 1979SOL     OW 6835   6.112   4.173   2.471
 1979SOL    HW1 6836   6.118   4.257   2.524
 1979SOL    HW2 6837   6.182   4.109   2.503
 1980SOL     OW 6838   2.886   1.299   1.939
 1980SOL    HW1 6839   2.924   1.208   1.924
 1980SOL    HW2 6840   2.787   1.297   1.926
 1981SOL     OW 6841   4.893   3.225   1.923
 1981SOL    HW1 6842   4.831   3.147   1.914
 1981SOL    HW2 6843   4.956   3.208   2.000
 1982SOL     OW 6844   6.928   6.986   5.142
 1982SOL    HW1 6845   6.926   6.893   5.179
 1982SOL    HW2 6846   6.944   6.982   5.043
 1983SOL     OW 6847   0.378   4.379   2.579
 1983SOL    HW1 6848   0.422   4.425   2.502
 1983SOL    HW2 6849   0.330   4.446   2.635
 1984SOL     OW 6850   4.669   0.737   4.696
 1984SOL    HW1 6851   4.683   0.652   4.748
 1984SOL    HW2 6852   4.753   0.792   4.700
 1985SOL     OW 6853   1.511   6.133   1.133
 1985SOL    HW1 6854   1.491   6.131   1.231
 1985SOL    HW2 6855   1.505   6.227   1.100
 1986SOL     OW 6856   0.212   2.722   0.061
 1986SOL    HW1 6857   0.252   2.778   7.008
 1986SOL    HW2 6858   0.141   2.774   0.108
 1987SOL     OW 6859   2.704   4.429   6.590
 1987SOL    HW1 6860   2.647   4.486   6.531
 1987SOL    HW2 6861   2.674   4.334   6.584
 1988SOL     OW 6862   4.676   3.346   0.375
 1988SOL    HW1 6863   4.666   3.330   0.473
 1988SOL    HW2 6864   4.685   3.444   0.358
 1989SOL     OW 6865   2.116   2.084   4.333
 1989SOL    HW1 6866   2.142   2.134   4.416
 1989SOL    HW2 6867   2.037   2.026   4.353
 1990SOL     OW 6868   1.448   0.627   2.985
 1990SOL    HW1 6869   1.539   0.620   3.027
 1990SOL    HW2 6870   1.386   0.672   3.050
 1991SOL     OW 6871   4.636   5.739   2.804
 1991SOL    HW1 6872   4.594   5.649   2.803
 1991SOL    HW2 6873   4.653   5.767   2.898
 1992SOL     OW 6874   2.624   6.112   5.437
 1992SOL    HW1 6875   2.661   6.204   5.421
 1992SOL    HW2 6876   2.584   6.077   5.352
 1993SOL     OW 6877   2.877   3.537   3.972
 1993SOL    HW1 6878   2.791   3.540   4.023
 1993SOL    HW2 6879   2.951   3.505   4.032
 1994SOL     OW 6880   6.453   2.135   2.059
 1994SOL    HW1 6881   6.541   2.181   2.047
 1994SOL    HW2 6882   6.431   2.131   2.157
 1995SOL     OW 6883   3.957   2.007   1.343
 1995SOL    HW1 6884   3.889   1.934   1.342
 1995SOL    HW2 6885   4.044   1.971   1.376
 1996SOL     OW 6886   2.947   4.374   5.351
 1996SOL    HW1 6887   2.911   4.287   5.316
 1996SOL    HW2 6888   2.943   4.443   5.279
 1997SOL     OW 6889   5.567   6.404   3.378
 1997SOL    HW1 6890   5.494   6.346   3.341
 1997SOL    HW2 6891   5.591   6.373   3.469
 1998SOL     OW 6892   3.250   4.869   5.265
 1998SOL    HW1 6893   3.151   4.857   5.256
 1998SOL    HW2 6894   3.268   4.951   5.320
 1999SOL     OW 6895   2.188   1.590   1.813
 1999SOL    HW1 6896   2.224   1.652   1.743
 1999SOL    HW2 6897   2.194   1.496   1.780
 2000SOL     OW 6898   3.447   1.109   4.926
 2000SOL    HW1 6899   3.542   1.076   4.918
 2000SOL    HW2 6900   3.394   1.073   4.850
 2001SOL     OW 6901   2.298   3.429   0.080
 2001SOL    HW1 6902   2.219   3.433   0.141
 2001SOL    HW2 6903   2.363   3.361   0.113
 2002SOL     OW 6904   1.372   5.422   4.943
 2002SOL    HW1 6905   1.328   5.337   4.914
 2002SOL    HW2 6906   1.331   5.499   4.894
 2003SOL     OW 6907   6.562   4.451   3.374
 2003SOL    HW1 6908   6.485   4.464   3.312
 2003SOL    HW2 6909   6.588   4.539   3.413
 2004SOL     OW 6910   3.193   6.823   6.706
 2004SOL    HW1 6911   3.163   6.777   6.789
 2004SOL    HW2 6912   3.267   6.771   6.663
 2005SOL     OW 6913   3.054   6.644   5.309
 2005SOL    HW1 6914   3.140   6.653   5.260
 2005SOL    HW2 6915   3.069   6.599   5.397
 2006SOL     OW 6916   5.053   6.378   3.337
 2006SOL    HW1 6917   4.955   6.364   3.345
 2006SOL    HW2 6918   5.079   6.384   3.241
 2007SOL     OW 6919   6.379   5.785   0.101
 2007SOL    HW1 6920   6.355   5.863   0.044
 2007SOL    HW2 6921   6.402   5.707   0.043
 2008SOL     OW 6922   0.275   6.109   5.253
 2008SOL    HW1 6923   0.286   6.087   5.156
 2008SOL    HW2 6924   0.248   6.027   5.303
 2009SOL     OW 6925   1.090   0.341   6.778
 2009SOL    HW1 6926   1.015   0.276   6.768
 2009SOL    HW2 6927   1.098   0.368   6.874
 2010SOL     OW 6928   1.633   0.997   1.311
 2010SOL    HW1 6929   1.561   1.033   1.251
 2010SOL    HW2 6930   1.676   0.918   1.267
 2011SOL     OW 6931   0.267   2.035   4.993
 2011SOL    HW1 6932   0.357   2.023   5.034
 2011SOL    HW2 6933   0.233   1.947   4.960
 2012SOL     OW 6934   6.707   2.950   0.891
 2012SOL    HW1 6935   6.787   2.893   0.872
 2012SOL    HW2 6936   6.697   2.963   0.989
 2013SOL     OW 6937   4.229   2.181   2.081
 2013SOL    HW1 6938   4.272   2.271   2.095
 2013SOL    HW2 6939   4.145   2.192   2.029
 2014SOL     OW 6940   3.333   6.056   3.530
 2014SOL    HW1 6941   3.316   5.970   3.481
 2014SOL    HW2 6942   3.344   6.037   3.627
 2015SOL     OW 6943   2.976   6.478   0.329
 2015SOL    HW1 6944   3.023   6.519   0.250
 2015SOL    HW2 6945   2.937   6.390   0.302
 2016SOL     OW 6946   6.492   6.056   3.916
 2016SOL    HW1 6947   6.514   6.089   4.008
 2016SOL    HW2 6948   6.478   6.134   3.855
 2017SOL     OW 6949   2.280   4.915   2.088
 2017SOL    HW1 6950   2.355   4.932   2.023
 2017SOL    HW2 6951   2.223   4.996   2.095
 2018SOL     OW 6952   0.521   3.812   6.300
 2018SOL    HW1 6953   0.585   3.884   6.273
 2018SOL    HW2 6954   0.456   3.796   6.225
 2019SOL     OW 6955   5.868   1.555   2.797
 2019SOL    HW1 6956   5.788   1.600   2.757
 2019SOL    HW2 6957   5.860   1.456   2.784
 2020SOL     OW 6958   2.099   5.505   3.115
 2020SOL    HW1 6959   2.057   5.414   3.124
 2020SOL    HW2 6960   2.053   5.556   3.042
 2021SOL     OW 6961   2.164   0.261   1.570
 2021SOL    HW1 6962   2.071   0.279   1.604
 2021SOL    HW2 6963   2.158   0.204   1.488
 2022SOL     OW 6964   2.763   5.090   1.085
 2022SOL    HW1 6965   2.840   5.026   1.095
 2022SOL    HW2 6966   2.709   5.065   1.005
 2023SOL     OW 6967   6.367   1.340   6.138
 2023SOL    HW1 6968   6.390   1.261   6.081
 2023SOL    HW2 6969   6.286   1.319   6.193
 2024SOL     OW 6970   6.059   0.403   2.900
 2024SOL    HW1 6971   6.131   0.339   2.874
 2024SOL    HW2 6972   5.977   0.385   2.846
 2025SOL     OW 6973   6.367   0.585   0.922
 2025SOL    HW1 6974   6.387   0.682   0.919
 2025SOL    HW2 6975   6.359   0.554   1.017
 2026SOL     OW 6976   1.619   1.880   4.995
 2026SOL    HW1 6977   1.619   1.785   5.024
 2026SOL    HW2 6978   1.608   1.940   5.075
 2027SOL     OW 6979   0.378   1.100   2.455
 2027SOL    HW1 6980   0.309   1.157   2.412
 2027SOL    HW2 6981   0.467   1.144   2.449
 2028SOL     OW 6982   3.581   4.255   5.807
 2028SOL    HW1 6983   3.631   4.339   5.785
 2028SOL    HW2 6984   3.490   4.279   5.840
 2029SOL     OW 6985   1.803   0.488   0.476
 2029SOL    HW1 6986   1.770   0.581   0.488
 2029SOL    HW2 6987   1.902   0.489   0.462
 2030SOL     OW 6988   1.860   2.545   3.281
 2030SOL    HW1 6989   1.943   2.600   3.289
 2030SOL    HW2 6990   1.798   2.569   3.356
 2031SOL     OW 6991   5.847   0.104   2.841
 2031SOL    HW1 6992   5.854   0.014   2.799
 2031SOL    HW2 6993   5.839   0.174   2.769
 2032SOL     OW 6994   4.675   6.156   1.905
 2032SOL    HW1 6995   4.744   6.112   1.848
 2032SOL    HW2 6996   4.588   6.158   1.856
 2033SOL     OW 6997   0.085   5.035   0.000
 2033SOL    HW1 6998   0.032   5.040   0.085
 2033SOL    HW2 6999   0.054   4.956   6.966
 2034SOL     OW 7000   2.193   6.348   3.374
 2034SOL    HW1 7001   2.231   6.278   3.313
 2034SOL    HW2 7002   2.176   6.308   3.464
 2035SOL     OW 7003   0.444   2.294   2.025
 2035SOL    HW1 7004   0.352   2.326   2.001
 2035SOL    HW2 7005   0.440   2.199   2.054
 2036SOL     OW 7006   0.421   4.325   0.706
 2036SOL    HW1 7007   0.430   4.417   0.743
 2036SOL    HW2 7008   0.373   4.329   0.618
 2037SOL     OW 7009   0.355   1.830   6.650
 2037SOL    HW1 7010   0.419   1.859   6.579
 2037SOL    HW2 7011   0.272   1.886   6.645
 2038SOL     OW 7012   1.112   0.276   4.875
 2038SOL    HW1 7013   1.013   0.287   4.870
 2038SOL    HW2 7014   1.139   0.190   4.831
 2039SOL     OW 7015   1.213   5.458   1.940
 2039SOL    HW1 7016   1.174   5.418   1.856
 2039SOL    HW2 7017   1.191   5.399   2.018
 2040SOL     OW 7018   4.046   3.821   4.308
 2040SOL    HW1 7019   4.109   3.899   4.304
 2040SOL    HW2 7020   3.953   3.853   4.287
 2041SOL     OW 7021   5.670   2.939   6.804
 2041SOL    HW1 7022   5.767   2.947   6.782
 2041SOL    HW2 7023   5.622   3.022   6.775
 2042SOL     OW 7024   3.252   5.847   0.430
 2042SOL    HW1 7025   3.321   5.910   0.466
 2042SOL    HW2 7026   3.295   5.788   0.362
 2043SOL     OW 7027   4.398   5.083   2.547
 2043SOL    HW1 7028   4.351   5.171   2.549
 2043SOL    HW2 7029   4.496   5.098   2.533
 2044SOL     OW 7030   6.537   0.873   1.735
 2044SOL    HW1 7031   6.590   0.790   1.751
 2044SOL    HW2 7032   6.480   0.892   1.816
 2045SOL     OW 7033   2.686   6.244   6.282
 2045SOL    HW1 7034   2.640   6.157   6.263
 2045SOL    HW2 7035   2.633   6.319   6.243
 2046SOL     OW 7036   6.306   0.322   5.256
 2046SOL    HW1 7037   6.278   0.363   5.343
 2046SOL    HW2 7038   6.406   0.321   5.249
 2047SOL     OW 7039   4.721   2.395   0.259
 2047SOL    HW1 7040   4.633   2.416   0.215
 2047SOL    HW2 7041   4.732   2.452   0.340
 2048SOL     OW 7042   4.692   6.162   5.543
 2048SOL    HW1 7043   4.627   6.187   5.471
 2048SOL    HW2 7044   4.690   6.231   5.615
 2049SOL     OW 7045   4.946   6.219   0.168
 2049SOL    HW1 7046   4.920   6.316   0.167
 2049SOL    HW2 7047   4.886   6.168   0.105
 2050SOL     OW 7048   5.557   0.486   4.015
 2050SOL    HW1 7049   5.512   0.462   3.930
 2050SOL    HW2 7050   5.537   0.581   4.038
 2051SOL     OW 7051   2.760   5.382   0.855
 2051SOL    HW1 7052   2.705   5.300   0.869
 2051SOL    HW2 7053   2.703   5.451   0.809
 2052SOL     OW 7054   1.400   3.120   0.656
 2052SOL    HW1 7055   1.451   3.163   0.730
 2052SOL    HW2 7056   1.324   3.178   0.630
 2053SOL     OW 7057   5.607   1.473   0.608
 2053SOL    HW1 7058   5.522   1.429   0.578
 2053SOL    HW2 7059   5.585   1.551   0.667
 2054SOL     OW 7060   0.171   3.575   1.231
 2054SOL    HW1 7061   0.231   3.513   1.282
 2054SOL    HW2 7062   0.145   3.652   1.289
 2055SOL     OW 7063   6.335   1.840   3.899
 2055SOL    HW1 7064   6.283   1.879   3.975
 2055SOL    HW2 7065   6.367   1.914   3.840
 2056SOL     OW 7066   1.054   6.995   1.895
 2056SOL    HW1 7067   1.059   6.952   1.985
 2056SOL    HW2 7068   1.048   0.074   1.905
 2057SOL     OW 7069   5.894   2.443   4.539
 2057SOL    HW1 7070   5.889   2.446   4.639
 2057SOL    HW2 7071   5.989   2.450   4.510
 2058SOL     OW 7072   0.757   1.724   1.882
 2058SOL    HW1 7073   0.789   1.734   1.788
 2058SOL    HW2 7074   0.810   1.782   1.943
 2059SOL     OW 7075   1.422   0.295   6.454
 2059SOL    HW1 7076   1.478   0.218   6.426
 2059SOL    HW2 7077   1.481   0.371   6.482
 2060SOL     OW 7078   0.088   5.492   2.028
 2060SOL    HW1 7079   0.044   5.455   1.945
 2060SOL    HW2 7080   0.106   5.590   2.015
 2061SOL     OW 7081   0.917   1.121   1.410
 2061SOL    HW1 7082   0.862   1.108   1.328
 2061SOL    HW2 7083   1.013   1.100   1.390
 2062SOL     OW 7084   4.165   0.355   3.933
 2062SOL    HW1 7085   4.254   0.316   3.958
 2062SOL    HW2 7086   4.094   0.286   3.946
 2063SOL     OW 7087   2.313   1.961   0.783
 2063SOL    HW1 7088   2.368   1.878   0.797
 2063SOL    HW2 7089   2.221   1.945   0.819
 2064SOL     OW 7090   1.035   1.926   0.288
 2064SOL    HW1 7091   1.012   1.944   0.193
 2064SOL    HW2 7092   1.106   1.990   0.318
 2065SOL     OW 7093   6.805   3.843   2.589
 2065SOL    HW1 7094   6.869   3.884   2.524
 2065SOL    HW2 7095   6.785   3.749   2.561
 2066SOL     OW 7096   1.399   6.544   3.009
 2066SOL    HW1 7097   1.322   6.587   2.962
 2066SOL    HW2 7098   1.451   6.614   3.059
 2067SOL     OW 7099   6.776   0.040   0.684
 2067SOL    HW1 7100   6.797   6.987   0.748
 2067SOL    HW2 7101   6.797   0.128   0.727
 2068SOL     OW 7102   2.381   1.357   5.090
 2068SOL    HW1 7103   2.355   1.432   5.029
 2068SOL    HW2 7104   2.349   1.270   5.051
 2069SOL     OW 7105   1.434   2.063   1.591
 2069SOL    HW1 7106   1.471   2.117   1.667
 2069SOL    HW2 7107   1.394   1.979   1.626
 2070SOL     OW 7108   0.746   0.804   2.672
 2070SOL    HW1 7109   0.818   0.743   2.638
 2070SOL    HW2 7110   0.788   0.882   2.718
 2071SOL     OW 7111   2.039   5.844   4.999
 2071SOL    HW1 7112   1.994   5.919   5.048
 2071SOL    HW2 7113   1.970   5.791   4.950
 2072SOL     OW 7114   4.766   4.697   2.087
 2072SOL    HW1 7115   4.766   4.797   2.093
 2072SOL    HW2 7116   4.832   4.660   2.152
 2073SOL     OW 7117   3.266   6.500   5.173
 2073SOL    HW1 7118   3.319   6.568   5.122
 2073SOL    HW2 7119   3.181   6.481   5.125
 2074SOL     OW 7120   6.083   2.289   2.503
 2074SOL    HW1 7121   6.113   2.322   2.593
 2074SOL    HW2 7122   5.991   2.250   2.511
 2075SOL     OW 7123   3.528   3.645   6.160
 2075SOL    HW1 7124   3.485   3.623   6.073
 2075SOL    HW2 7125   3.600   3.713   6.145
 2076SOL     OW 7126   4.761   0.273   1.169
 2076SOL    HW1 7127   4.683   0.244   1.224
 2076SOL    HW2 7128   4.846   0.250   1.217
 2077SOL     OW 7129   4.747   1.237   3.366
 2077SOL    HW1 7130   4.808   1.175   3.317
 2077SOL    HW2 7131   4.758   1.330   3.330
 2078SOL     OW 7132   3.945   5.465   4.878
 2078SOL    HW1 7133   3.915   5.428   4.966
 2078SOL    HW2 7134   3.877   5.528   4.844
 2079SOL     OW 7135   5.449   0.589   3.482
 2079SOL    HW1 7136   5.513   0.544   3.545
 2079SOL    HW2 7137   5.363   0.536   3.479
 2080SOL     OW 7138   2.854   1.789   4.066
 2080SOL    HW1 7139   2.822   1.741   3.984
 2080SOL    HW2 7140   2.779   1.797   4.132
 2081SOL     OW 7141   1.364   6.310   4.305
 2081SOL    HW1 7142   1.336   6.248   4.233
 2081SOL    HW2 7143   1.321   6.399   4.291
 2082SOL     OW 7144   4.846   0.733   1.999
 2082SOL    HW1 7145   4.878   0.760   2.089
 2082SOL    HW2 7146   4.761   0.783   1.977
 2083SOL     OW 7147   3.579   4.862   5.837
 2083SOL    HW1 7148   3.543   4.812   5.758
 2083SOL    HW2 7149   3.670   4.827   5.859
 2084SOL     OW 7150   6.799   2.293   2.479
 2084SOL    HW1 7151   6.893   2.280   2.511
 2084SOL    HW2 7152   6.799   2.352   2.398
 2085SOL     OW 7153   5.705   5.883   6.811
 2085SOL    HW1 7154   5.636   5.941   6.768
 2085SOL    HW2 7155   5.780   5.866   6.746
 2086SOL     OW 7156   3.809   5.460   0.169
 2086SOL    HW1 7157   3.768   5.493   0.084
 2086SOL    HW2 7158   3.830   5.363   0.160
 2087SOL     OW 7159   6.153   5.882   3.557
 2087SOL    HW1 7160   6.197   5.967   3.586
 2087SOL    HW2 7161   6.062   5.875   3.600
 2088SOL     OW 7162   2.265   0.373   1.009
 2088SOL    HW1 7163   2.230   0.451   1.060
 2088SOL    HW2 7164   2.228   0.374   0.916
 2089SOL     OW 7165   2.811   0.679   6.952
 2089SOL    HW1 7166   2.833   0.617   0.007
 2089SOL    HW2 7167   2.811   0.629   6.866
 2090SOL     OW 7168   3.059   3.158   3.723
 2090SOL    HW1 7169   3.017   3.247   3.740
 2090SOL    HW2 7170   3.058   3.104   3.807
 2091SOL     OW 7171   2.162   5.209   0.986
 2091SOL    HW1 7172   2.065   5.231   0.993
 2091SOL    HW2 7173   2.214   5.291   0.965
 2092SOL     OW 7174   6.969   6.106   1.175
 2092SOL    HW1 7175   0.004   6.030   1.139
 2092SOL    HW2 7176   7.016   6.146   1.254
 2093SOL     OW 7177   1.066   2.793   1.502
 2093SOL    HW1 7178   1.125   2.738   1.561
 2093SOL    HW2 7179   1.056   2.747   1.413
 2094SOL     OW 7180   6.186   0.797   1.701
 2094SOL    HW1 7181   6.106   0.741   1.680
 2094SOL    HW2 7182   6.196   0.806   1.800
 2095SOL     OW 7183   6.886   4.768   4.566
 2095SOL    HW1 7184   6.836   4.848   4.532
 2095SOL    HW2 7185   6.945   4.796   4.641
 2096SOL     OW 7186   4.893   3.787   3.324
 2096SOL    HW1 7187   4.925   3.719   3.390
 2096SOL    HW2 7188   4.920   3.757   3.232
 2097SOL     OW 7189   6.288   3.646   6.658
 2097SOL    HW1 7190   6.329   3.639   6.567
 2097SOL    HW2 7191   6.294   3.558   6.704
 2098SOL     OW 7192   4.400   6.981   3.737
 2098SOL    HW1 7193   4.342   6.996   3.657
 2098SOL    HW2 7194   4.361   6.908   3.793
 2099SOL     OW 7195   2.904   1.918   2.924
 2099SOL    HW1 7196   2.905   1.946   3.020
 2099SOL    HW2 7197   2.827   1.857   2.907
 2100SOL     OW 7198   3.091   4.760   6.862
 2100SOL    HW1 7199   3.036   4.818   6.800
 2100SOL    HW2 7200   3.078   4.791   6.956
 2101SOL     OW 7201   0.293   0.907   2.296
 2101SOL    HW1 7202   0.314   0.810   2.299
 2101SOL    HW2 7203   0.331   0.953   2.377
 2102SOL     OW 7204   0.177   4.898   1.845
 2102SOL    HW1 7205   0.200   4.948   1.928
 2102SOL    HW2 7206   0.115   4.953   1.789
 2103SOL     OW 7207   2.757   3.369   6.149
 2103SOL    HW1 7208   2.711   3.455   6.170
 2103SOL    HW2 7209   2.844   3.365   6.199
 2104SOL     OW 7210   1.199   3.874   5.427
 2104SOL    HW1 7211   1.139   3.864   5.506
 2104SOL    HW2 7212   1.201   3.788   5.376
 2105SOL     OW 7213   5.943   5.722   1.449
 2105SOL    HW1 7214   5.998   5.780   1.388
 2105SOL    HW2 7215   5.922   5.773   1.533
 2106SOL     OW 7216   6.015   5.348   6.430
 2106SOL    HW1 7217   5.924   5.352   6.388
 2106SOL    HW2 7218   6.006   5.343   6.529
 2107SOL     OW 7219   2.768   4.622   6.948
 2107SOL    HW1 7220   2.786   4.720   6.945
 2107SOL    HW2 7221   2.780   4.589   0.022
 2108SOL     OW 7222   5.619   4.111   5.952
 2108SOL    HW1 7223   5.684   4.176   5.913
 2108SOL    HW2 7224   5.638   4.019   5.917
 2109SOL     OW 7225   5.649   6.191   2.702
 2109SOL    HW1 7226   5.576   6.133   2.666
 2109SOL    HW2 7227   5.732   6.136   2.715
 2110SOL     OW 7228   2.049   4.871   4.641
 2110SOL    HW1 7229   2.018   4.827   4.725
 2110SOL    HW2 7230   1.971   4.885   4.580
 2111SOL     OW 7231   1.940   2.848   0.141
 2111SOL    HW1 7232   1.907   2.853   0.236
 2111SOL    HW2 7233   1.994   2.930   0.121
 2112SOL     OW 7234   5.742   3.348   0.815
 2112SOL    HW1 7235   5.824   3.299   0.846
 2112SOL    HW2 7236   5.661   3.295   0.839
 2113SOL     OW 7237   6.445   1.464   3.148
 2113SOL    HW1 7238   6.360   1.515   3.163
 2113SOL    HW2 7239   6.511   1.524   3.102
 2114SOL     OW 7240   2.082   3.407   0.231
 2114SOL    HW1 7241   2.079   3.342   0.307
 2114SOL    HW2 7242   1.994   3.452   0.222
 2115SOL     OW 7243   2.969   5.719   1.741
 2115SOL    HW1 7244   3.021   5.727   1.656
 2115SOL    HW2 7245   2.938   5.624   1.752
 2116SOL     OW 7246   0.342   4.148   3.463
 2116SOL    HW1 7247   0.341   4.247   3.454
 2116SOL    HW2 7248   0.433   4.118   3.492
 2117SOL     OW 7249   0.340   5.729   6.352
 2117SOL    HW1 7250   0.410   5.772   6.296
 2117SOL    HW2 7251   0.341   5.769   6.443
 2118SOL     OW 7252   6.995   3.361   2.149
 2118SOL    HW1 7253   0.013   3.426   2.215
 2118SOL    HW2 7254   6.919   3.313   2.191
 2119SOL     OW 7255   3.671   6.415   1.006
 2119SOL    HW1 7256   3.609   6.449   1.077
 2119SOL    HW2 7257   3.752   6.374   1.050
 2120SOL     OW 7258   6.547   4.715   2.537
 2120SOL    HW1 7259   6.558   4.691   2.633
 2120SOL    HW2 7260   6.486   4.794   2.529
 2121SOL     OW 7261   0.880   4.033   4.377
 2121SOL    HW1 7262   0.841   3.982   4.299
 2121SOL    HW2 7263   0.847   3.992   4.462
 2122SOL     OW 7264   4.547   4.764   5.550
 2122SOL    HW1 7265   4.467   4.711   5.576
 2122SOL    HW2 7266   4.550   4.849   5.601
 2123SOL     OW 7267   4.370   4.545   3.640
 2123SOL    HW1 7268   4.387   4.599   3.722
 2123SOL    HW2 7269   4.441   4.475   3.632
 2124SOL     OW 7270   3.242   1.838   1.604
 2124SOL    HW1 7271   3.335   1.821   1.569
 2124SOL    HW2 7272   3.179   1.849   1.527
 2125SOL     OW 7273   4.458   6.667   0.594
 2125SOL    HW1 7274   4.459   6.767   0.584
 2125SOL    HW2 7275   4.378   6.631   0.546
 2126SOL     OW 7276   3.066   1.058   2.128
 2126SOL    HW1 7277   3.090   0.966   2.158
 2126SOL    HW2 7278   3.087   1.068   2.031
 2127SOL     OW 7279   5.605   2.815   5.201
 2127SOL    HW1 7280   5.581   2.749   5.272
 2127SOL    HW2 7281   5.623   2.904   5.243
 2128SOL     OW 7282   0.716   4.415   4.132
 2128SOL    HW1 7283   0.734   4.400   4.035
 2128SOL    HW2 7284   0.801   4.435   4.179
 2129SOL     OW 7285   4.110   2.068   5.642
 2129SOL    HW1 7286   4.204   2.101   5.652
 2129SOL    HW2 7287   4.108   1.994   5.574
 2130SOL     OW 7288   4.907   0.779   3.114
 2130SOL    HW1 7289   4.824   0.809   3.066
 2130SOL    HW2 7290   4.936   0.690   3.077
 2131SOL     OW 7291   5.193   1.654   6.511
 2131SOL    HW1 7292   5.272   1.715   6.515
 2131SOL    HW2 7293   5.123   1.693   6.451
 2132SOL     OW 7294   1.906   3.559   0.736
 2132SOL    HW1 7295   1.889   3.562   0.637
 2132SOL    HW2 7296   1.967   3.634   0.762
 2133SOL     OW 7297   2.461   3.624   5.791
 2133SOL    HW1 7298   2.503   3.661   5.708
 2133SOL    HW2 7299   2.499   3.670   5.871
 2134SOL     OW 7300   0.065   6.632   1.286
 2134SOL    HW1 7301   0.110   6.651   1.199
 2134SOL    HW2 7302   0.108   6.553   1.330
 2135SOL     OW 7303   6.913   4.299   5.205
 2135SOL    HW1 7304   7.013   4.310   5.204
 2135SOL    HW2 7305   6.887   4.224   5.144
 2136SOL     OW 7306   0.773   5.004   0.715
 2136SOL    HW1 7307   0.792   4.963   0.804
 2136SOL    HW2 7308   0.717   5.086   0.728
 2137SOL     OW 7309   1.518   6.127   4.104
 2137SOL    HW1 7310   1.574   6.096   4.180
 2137SOL    HW2 7311   1.543   6.220   4.079
 2138SOL     OW 7312   4.974   1.916   2.130
 2138SOL    HW1 7313   4.912   1.914   2.209
 2138SOL    HW2 7314   4.936   1.859   2.058
 2139SOL     OW 7315   2.892   0.042   5.169
 2139SOL    HW1 7316   2.932   7.004   5.240
 2139SOL    HW2 7317   2.836   0.113   5.212
 2140SOL     OW 7318   2.569   1.482   4.325
 2140SOL    HW1 7319   2.583   1.384   4.311
 2140SOL    HW2 7320   2.585   1.505   4.421
 2141SOL     OW 7321   6.498   3.256   3.238
 2141SOL    HW1 7322   6.555   3.289   3.163
 2141SOL    HW2 7323   6.516   3.311   3.320
 2142SOL     OW 7324   1.461   2.427   2.714
 2142SOL    HW1 7325   1.507   2.460   2.797
 2142SOL    HW2 7326   1.486   2.485   2.637
 2143SOL     OW 7327   0.516   4.857   5.872
 2143SOL    HW1 7328   0.470   4.939   5.840
 2143SOL    HW2 7329   0.605   4.848   5.826
 2144SOL     OW 7330   6.359   4.487   3.191
 2144SOL    HW1 7331   6.369   4.442   3.103
 2144SOL    HW2 7332   6.404   4.576   3.189
 2145SOL     OW 7333   4.247   1.375   3.618
 2145SOL    HW1 7334   4.340   1.395   3.585
 2145SOL    HW2 7335   4.249   1.292   3.674
 2146SOL     OW 7336   2.486   2.475   6.735
 2146SOL    HW1 7337   2.573   2.459   6.688
 2146SOL    HW2 7338   2.464   2.572   6.733
 2147SOL     OW 7339   6.009   6.548   3.971
 2147SOL    HW1 7340   5.918   6.510   3.958
 2147SOL    HW2 7341   6.076   6.474   3.972
 2148SOL     OW 7342   0.308   2.914   5.667
 2148SOL    HW1 7343   0.285   2.817   5.652
 2148SOL    HW2 7344   0.348   2.951   5.583
 2149SOL     OW 7345   0.694   6.850   0.049
 2149SOL    HW1 7346   0.605   6.807   0.063
 2149SOL    HW2 7347   0.766   6.780   0.053
 2150SOL     OW 7348   1.778   3.463   0.972
 2150SOL    HW1 7349   1.743   3.525   1.042
 2150SOL    HW2 7350   1.789   3.512   0.886
 2151SOL     OW 7351   0.973   4.942   0.188
 2151SOL    HW1 7352   1.050   4.999   0.215
 2151SOL    HW2 7353   0.951   4.959   0.092
 2152SOL     OW 7354   5.435   6.035   4.121
 2152SOL    HW1 7355   5.524   6.038   4.076
 2152SOL    HW2 7356   5.381   6.114   4.093
 2153SOL     OW 7357   5.289   6.827   4.274
 2153SOL    HW1 7358   5.284   6.926   4.259
 2153SOL    HW2 7359   5.227   6.801   4.348
 2154SOL     OW 7360   2.498   0.280   2.441
 2154SOL    HW1 7361   2.478   0.376   2.418
 2154SOL    HW2 7362   2.431   0.221   2.397
 2155SOL     OW 7363   4.212   0.687   0.958
 2155SOL    HW1 7364   4.242   0.673   1.052
 2155SOL    HW2 7365   4.113   0.676   0.952
 2156SOL     OW 7366   5.496   2.128   4.877
 2156SOL    HW1 7367   5.495   2.030   4.896
 2156SOL    HW2 7368   5.581   2.168   4.911
 2157SOL     OW 7369   3.850   6.559   4.323
 2157SOL    HW1 7370   3.758   6.540   4.356
 2157SOL    HW2 7371   3.883   6.644   4.363
 2158SOL     OW 7372   2.849   6.929   0.230
 2158SOL    HW1 7373   2.787   6.995   0.272
 2158SOL    HW2 7374   2.824   6.916   0.134
 2159SOL     OW 7375   0.578   1.229   5.474
 2159SOL    HW1 7376   0.615   1.142   5.443
 2159SOL    HW2 7377   0.521   1.269   5.401
 2160SOL     OW 7378   5.517   0.036   0.263
 2160SOL    HW1 7379   5.551   0.118   0.309
 2160SOL    HW2 7380   5.551   0.034   0.169
 2161SOL     OW 7381   1.656   3.389   0.574
 2161SOL    HW1 7382   1.699   3.476   0.550
 2161SOL    HW2 7383   1.726   3.320   0.589
 2162SOL     OW 7384   1.584   0.458   1.523
 2162SOL    HW1 7385   1.570   0.518   1.602
 2162SOL    HW2 7386   1.550   0.367   1.545
 2163SOL     OW 7387   1.598   3.418   2.876
 2163SOL    HW1 7388   1.626   3.372   2.960
 2163SOL    HW2 7389   1.602   3.352   2.800
 2164SOL     OW 7390   2.116   3.687   2.227
 2164SOL    HW1 7391   2.171   3.631   2.165
 2164SOL    HW2 7392   2.118   3.647   2.319
 2165SOL     OW 7393   6.150   1.310   4.545
 2165SOL    HW1 7394   6.174   1.376   4.475
 2165SOL    HW2 7395   6.224   1.303   4.612
 2166SOL     OW 7396   6.838   3.100   2.171
 2166SOL    HW1 7397   6.750   3.060   2.149
 2166SOL    HW2 7398   6.890   3.116   2.087
 2167SOL     OW 7399   1.921   1.835   3.085
 2167SOL    HW1 7400   1.925   1.915   3.025
 2167SOL    HW2 7401   1.839   1.781   3.063
 2168SOL     OW 7402   1.924   1.671   3.432
 2168SOL    HW1 7403   1.923   1.762   3.473
 2168SOL    HW2 7404   1.988   1.612   3.481
 2169SOL     OW 7405   6.707   6.949   1.253
 2169SOL    HW1 7406   6.621   6.944   1.304
 2169SOL    HW2 7407   6.731   0.024   1.236
 2170SOL     OW 7408   1.499   3.616   5.974
 2170SOL    HW1 7409   1.508   3.646   5.879
 2170SOL    HW2 7410   1.474   3.519   5.977
 2171SOL     OW 7411   6.810   6.188   0.923
 2171SOL    HW1 7412   6.865   6.151   0.998
 2171SOL    HW2 7413   6.713   6.167   0.939
 2172SOL     OW 7414   2.533   1.734   5.362
 2172SOL    HW1 7415   2.510   1.637   5.351
 2172SOL    HW2 7416   2.490   1.787   5.288
 2173SOL     OW 7417   5.085   0.518   4.769
 2173SOL    HW1 7418   5.180   0.548   4.767
 2173SOL    HW2 7419   5.080   0.425   4.804
 2174SOL     OW 7420   5.561   0.377   5.875
 2174SOL    HW1 7421   5.600   0.465   5.848
 2174SOL    HW2 7422   5.545   0.376   5.974
 2175SOL     OW 7423   2.911   3.759   5.351
 2175SOL    HW1 7424   2.918   3.752   5.451
 2175SOL    HW2 7425   3.002   3.762   5.311
 2176SOL     OW 7426   5.546   1.994   3.111
 2176SOL    HW1 7427   5.447   1.988   3.121
 2176SOL    HW2 7428   5.568   2.036   3.023
 2177SOL     OW 7429   1.040   1.203   4.872
 2177SOL    HW1 7430   1.016   1.202   4.775
 2177SOL    HW2 7431   1.133   1.167   4.883
 2178SOL     OW 7432   1.368   2.339   3.084
 2178SOL    HW1 7433   1.343   2.249   3.046
 2178SOL    HW2 7434   1.432   2.384   3.022
 2179SOL     OW 7435   1.641   3.844   6.626
 2179SOL    HW1 7436   1.632   3.938   6.596
 2179SOL    HW2 7437   1.708   3.838   6.700
 2180SOL     OW 7438   0.636   5.738   2.871
 2180SOL    HW1 7439   0.726   5.704   2.843
 2180SOL    HW2 7440   0.574   5.738   2.793
 2181SOL     OW 7441   4.007   4.849   4.649
 2181SOL    HW1 7442   4.065   4.814   4.575
 2181SOL    HW2 7443   4.063   4.860   4.731
 2182SOL     OW 7444   0.210   6.461   1.437
 2182SOL    HW1 7445   0.297   6.426   1.402
 2182SOL    HW2 7446   0.227   6.511   1.523
 2183SOL     OW 7447   3.379   3.009   6.592
 2183SOL    HW1 7448   3.313   3.034   6.520
 2183SOL    HW2 7449   3.411   2.916   6.576
 2184SOL     OW 7450   6.661   1.252   0.771
 2184SOL    HW1 7451   6.723   1.252   0.849
 2184SOL    HW2 7452   6.585   1.315   0.788
 2185SOL     OW 7453   0.772   0.904   5.885
 2185SOL    HW1 7454   0.807   0.815   5.855
 2185SOL    HW2 7455   0.795   0.974   5.817
 2186SOL     OW 7456   6.690   6.373   5.345
 2186SOL    HW1 7457   6.671   6.385   5.442
 2186SOL    HW2 7458   6.641   6.292   5.311
 2187SOL     OW 7459   5.919   5.536   1.662
 2187SOL    HW1 7460   5.823   5.509   1.665
 2187SOL    HW2 7461   5.940   5.576   1.573
 2188SOL     OW 7462   2.738   0.784   0.891
 2188SOL    HW1 7463   2.817   0.760   0.948
 2188SOL    HW2 7464   2.702   0.701   0.848
 2189SOL     OW 7465   1.866   0.868   1.817
 2189SOL    HW1 7466   1.778   0.833   1.785
 2189SOL    HW2 7467   1.926   0.882   1.739
 2190SOL     OW 7468   6.708   4.401   1.520
 2190SOL    HW1 7469   6.782   4.351   1.475
 2190SOL    HW2 7470   6.727   4.407   1.618
 2191SOL     OW 7471   3.274   0.428   6.774
 2191SOL    HW1 7472   3.333   0.377   6.836
 2191SOL    HW2 7473   3.282   0.526   6.792
 2192SOL     OW 7474   4.903   1.741   1.919
 2192SOL    HW1 7475   4.903   1.648   1.954
 2192SOL    HW2 7476   4.844   1.746   1.838
 2193SOL     OW 7477   2.500   6.866   4.929
 2193SOL    HW1 7478   2.423   6.890   4.988
 2193SOL    HW2 7479   2.579   6.923   4.953
 2194SOL     OW 7480   0.489   3.893   6.553
 2194SOL    HW1 7481   0.501   3.859   6.459
 2194SOL    HW2 7482   0.437   3.826   6.606
 2195SOL     OW 7483   0.104   4.038   4.674
 2195SOL    HW1 7484   0.202   4.018   4.680
 2195SOL    HW2 7485   0.091   4.130   4.638
 2196SOL     OW 7486   3.644   0.917   0.147
 2196SOL    HW1 7487   3.682   0.886   0.234
 2196SOL    HW2 7488   3.607   1.009   0.157
 2197SOL     OW 7489   3.437   5.745   6.072
 2197SOL    HW1 7490   3.472   5.659   6.034
 2197SOL    HW2 7491   3.350   5.767   6.029
 2198SOL     OW 7492   1.108   1.008   6.678
 2198SOL    HW1 7493   1.050   1.077   6.722
 2198SOL    HW2 7494   1.170   1.054   6.614
 2199SOL     OW 7495   4.168   6.743   3.649
 2199SOL    HW1 7496   4.119   6.829   3.632
 2199SOL    HW2 7497   4.217   6.750   3.735
 2200SOL     OW 7498   2.789   2.038   3.822
 2200SOL    HW1 7499   2.704   1.986   3.835
 2200SOL    HW2 7500   2.777   2.101   3.746
 2201SOL     OW 7501   5.639   3.714   5.461
 2201SOL    HW1 7502   5.633   3.622   5.424
 2201SOL    HW2 7503   5.693   3.772   5.400
 2202SOL     OW 7504   3.398   0.024   3.196
 2202SOL    HW1 7505   3.330   0.027   3.269
 2202SOL    HW2 7506   3.461   0.101   3.206
 2203SOL     OW 7507   1.433   4.882   1.223
 2203SOL    HW1 7508   1.495   4.955   1.195
 2203SOL    HW2 7509   1.484   4.813   1.274
 2204SOL     OW 7510   6.051   2.578   0.910
 2204SOL    HW1 7511   6.003   2.506   0.959
 2204SOL    HW2 7512   6.136   2.541   0.871
 2205SOL     OW 7513   6.648   5.554   1.227
 2205SOL    HW1 7514   6.710   5.609   1.170
 2205SOL    HW2 7515   6.581   5.508   1.169
 2206SOL     OW 7516   3.616   2.668   5.656
 2206SOL    HW1 7517   3.646   2.694   5.564
 2206SOL    HW2 7518   3.601   2.570   5.660
 2207SOL     OW 7519   4.561   5.849   1.804
 2207SOL    HW1 7520   4.545   5.758   1.842
 2207SOL    HW2 7521   4.658   5.872   1.811
 2208SOL     OW 7522   7.005   6.816   3.225
 2208SOL    HW1 7523   0.045   6.803   3.304
 2208SOL    HW2 7524   6.960   6.730   3.201
 2209SOL     OW 7525   3.108   5.844   4.067
 2209SOL    HW1 7526   3.142   5.937   4.085
 2209SOL    HW2 7527   3.013   5.849   4.036
 2210SOL     OW 7528   5.052   0.346   1.633
 2210SOL    HW1 7529   5.144   0.331   1.667
 2210SOL    HW2 7530   5.006   0.414   1.690
 2211SOL     OW 7531   1.586   1.776   0.963
 2211SOL    HW1 7532   1.615   1.827   0.882
 2211SOL    HW2 7533   1.559   1.840   1.035
 2212SOL     OW 7534   2.704   5.496   6.301
 2212SOL    HW1 7535   2.750   5.460   6.220
 2212SOL    HW2 7536   2.662   5.584   6.280
 2213SOL     OW 7537   3.535   1.968   5.243
 2213SOL    HW1 7538   3.454   2.026   5.248
 2213SOL    HW2 7539   3.614   2.018   5.278
 2214SOL     OW 7540   3.926   4.141   6.406
 2214SOL    HW1 7541   4.019   4.156   6.438
 2214SOL    HW2 7542   3.863   4.196   6.460
 2215SOL     OW 7543   4.867   6.371   0.774
 2215SOL    HW1 7544   4.895   6.304   0.843
 2215SOL    HW2 7545   4.825   6.449   0.819
 2216SOL     OW 7546   0.498   6.395   6.568
 2216SOL    HW1 7547   0.577   6.382   6.508
 2216SOL    HW2 7548   0.495   6.490   6.599
 2217SOL     OW 7549   4.428   1.245   3.799
 2217SOL    HW1 7550   4.438   1.240   3.899
 2217SOL    HW2 7551   4.413   1.153   3.763
 2218SOL     OW 7552   6.781   5.205   5.309
 2218SOL    HW1 7553   6.683   5.212   5.327
 2218SOL    HW2 7554   6.832   5.236   5.389
 2219SOL     OW 7555   5.388   1.324   0.879
 2219SOL    HW1 7556   5.420   1.274   0.959
 2219SOL    HW2 7557   5.332   1.402   0.908
 2220SOL     OW 7558   7.018   6.082   4.399
 2220SOL    HW1 7559   0.031   6.113   4.488
 2220SOL    HW2 7560   6.960   6.002   4.412
 2221SOL     OW 7561   5.895   1.241   4.348
 2221SOL    HW1 7562   5.863   1.160   4.397
 2221SOL    HW2 7563   5.941   1.214   4.264
 2222SOL     OW 7564   4.491   0.183   2.793
 2222SOL    HW1 7565   4.472   0.261   2.852
 2222SOL    HW2 7566   4.588   0.158   2.800
 2223SOL     OW 7567   0.833   6.898   5.417
 2223SOL    HW1 7568   0.837   6.950   5.503
 2223SOL    HW2 7569   0.764   6.826   5.425
 2224SOL     OW 7570   5.023   4.079   0.167
 2224SOL    HW1 7571   4.997   4.012   0.097
 2224SOL    HW2 7572   5.120   4.071   0.187
 2225SOL     OW 7573   6.824   6.717   1.324
 2225SOL    HW1 7574   6.801   6.802   1.277
 2225SOL    HW2 7575   6.921   6.696   1.308
 2226SOL     OW 7576   2.305   4.337   6.982
 2226SOL    HW1 7577   2.310   4.323   0.060
 2226SOL    HW2 7578   2.391   4.376   6.949
 2227SOL     OW 7579   3.977   2.048   2.362
 2227SOL    HW1 7580   4.040   1.977   2.394
 2227SOL    HW2 7581   3.938   2.021   2.274
 2228SOL     OW 7582   5.726   5.410   6.721
 2228SOL    HW1 7583   5.724   5.389   6.624
 2228SOL    HW2 7584   5.689   5.502   6.736
 2229SOL     OW 7585   2.959   3.394   3.729
 2229SOL    HW1 7586   2.943   3.466   3.661
 2229SOL    HW2 7587   2.945   3.430   3.821
 2230SOL     OW 7588   6.248   0.736   6.398
 2230SOL    HW1 7589   6.222   0.831   6.415
 2230SOL    HW2 7590   6.175   0.675   6.427
 2231SOL     OW 7591   1.583   0.141   6.021
 2231SOL    HW1 7592   1.678   0.148   6.054
 2231SOL    HW2 7593   1.578   0.073   5.948
 2232SOL     OW 7594   1.690   0.525   5.847
 2232SOL    HW1 7595   1.617   0.504   5.912
 2232SOL    HW2 7596   1.778   0.495   5.885
 2233SOL     OW 7597   3.042   4.888   0.819
 2233SOL    HW1 7598   3.003   4.863   0.907
 2233SOL    HW2 7599   3.141   4.896   0.827
 2234SOL     OW 7600   4.818   2.048   1.686
 2234SOL    HW1 7601   4.784   2.053   1.592
 2234SOL    HW2 7602   4.756   2.100   1.746
 2235SOL     OW 7603   0.532   1.791   2.963
 2235SOL    HW1 7604   0.509   1.869   2.904
 2235SOL    HW2 7605   0.537   1.708   2.909
 2236SOL     OW 7606   2.785   5.109   5.612
 2236SOL    HW1 7607   2.775   5.034   5.677
 2236SOL    HW2 7608   2.817   5.191   5.659
 2237SOL     OW 7609   6.235   6.244   5.834
 2237SOL    HW1 7610   6.187   6.194   5.906
 2237SOL    HW2 7611   6.168   6.286   5.772
 2238SOL     OW 7612   5.891   3.488   2.159
 2238SOL    HW1 7613   5.895   3.584   2.183
 2238SOL    HW2 7614   5.820   3.442   2.212
 2239SOL     OW 7615   4.602   6.402   3.123
 2239SOL    HW1 7616   4.523   6.454   3.157
 2239SOL    HW2 7617   4.685   6.457   3.131
 2240SOL     OW 7618   5.008   4.994   1.934
 2240SOL    HW1 7619   4.937   4.998   2.005
 2240SOL    HW2 7620   4.990   5.065   1.866
 2241SOL     OW 7621   0.221   1.587   2.823
 2241SOL    HW1 7622   0.188   1.567   2.731
 2241SOL    HW2 7623   0.315   1.556   2.832
 2242SOL     OW 7624   5.336   2.202   4.309
 2242SOL    HW1 7625   5.320   2.266   4.235
 2242SOL    HW2 7626   5.421   2.225   4.356
 2243SOL     OW 7627   2.456   0.105   0.684
 2243SOL    HW1 7628   2.362   0.087   0.713
 2243SOL    HW2 7629   2.456   0.168   0.607
 2244SOL     OW 7630   1.967   1.664   0.778
 2244SOL    HW1 7631   2.021   1.598   0.726
 2244SOL    HW2 7632   1.918   1.724   0.715
 2245SOL     OW 7633   0.105   0.722   0.319
 2245SOL    HW1 7634   0.188   0.675   0.287
 2245SOL    HW2 7635   0.109   0.731   0.418
 2246SOL     OW 7636   3.961   1.976   5.132
 2246SOL    HW1 7637   4.050   2.013   5.157
 2246SOL    HW2 7638   3.911   1.950   5.214
 2247SOL     OW 7639   2.985   3.325   1.756
 2247SOL    HW1 7640   2.926   3.297   1.680
 2247SOL    HW2 7641   2.929   3.352   1.834
 2248SOL     OW 7642   4.795   4.005   5.036
 2248SOL    HW1 7643   4.761   3.968   5.123
 2248SOL    HW2 7644   4.822   3.929   4.976
 2249SOL     OW 7645   2.318   6.826   2.851
 2249SOL    HW1 7646   2.333   6.924   2.834
 2249SOL    HW2 7647   2.313   6.810   2.950
 2250SOL     OW 7648   4.349   6.326   6.489
 2250SOL    HW1 7649   4.293   6.396   6.444
 2250SOL    HW2 7650   4.291   6.249   6.516
 2251SOL     OW 7651   4.675   6.456   4.728
 2251SOL    HW1 7652   4.726   6.521   4.785
 2251SOL    HW2 7653   4.692   6.477   4.631
 2252SOL     OW 7654   3.820   0.773   2.685
 2252SOL    HW1 7655   3.822   0.838   2.761
 2252SOL    HW2 7656   3.808   0.823   2.599
 2253SOL     OW 7657   0.193   3.078   1.358
 2253SOL    HW1 7658   0.240   3.055   1.273
 2253SOL    HW2 7659   0.252   3.054   1.435
 2254SOL     OW 7660   4.006   3.181   2.757
 2254SOL    HW1 7661   4.044   3.244   2.825
 2254SOL    HW2 7662   3.968   3.101   2.803
 2255SOL     OW 7663   1.717   2.828   6.365
 2255SOL    HW1 7664   1.785   2.800   6.297
 2255SOL    HW2 7665   1.656   2.895   6.324
 2256SOL     OW 7666   5.666   0.319   1.311
 2256SOL    HW1 7667   5.684   0.251   1.241
 2256SOL    HW2 7668   5.615   0.278   1.386
 2257SOL     OW 7669   6.676   0.460   5.362
 2257SOL    HW1 7670   6.599   0.423   5.414
 2257SOL    HW2 7671   6.744   0.497   5.426
 2258SOL     OW 7672   2.362   6.699   3.911
 2258SOL    HW1 7673   2.364   6.612   3.862
 2258SOL    HW2 7674   2.271   6.714   3.950
 2259SOL     OW 7675   6.116   1.917   4.975
 2259SOL    HW1 7676   6.144   2.009   5.005
 2259SOL    HW2 7677   6.098   1.919   4.877
 2260SOL     OW 7678   1.131   3.588   1.287
 2260SOL    HW1 7679   1.156   3.667   1.342
 2260SOL    HW2 7680   1.200   3.573   1.216
 2261SOL     OW 7681   5.498   4.215   0.000
 2261SOL    HW1 7682   5.471   4.154   6.945
 2261SOL    HW2 7683   5.523   4.160   0.080
 2262SOL     OW 7684   6.482   0.063   4.730
 2262SOL    HW1 7685   6.421   0.142   4.739
 2262SOL    HW2 7686   6.536   0.073   4.647
 2263SOL     OW 7687   2.377   4.160   6.415
 2263SOL    HW1 7688   2.296   4.101   6.419
 2263SOL    HW2 7689   2.349   4.256   6.421
 2264SOL     OW 7690   2.638   0.296   5.771
 2264SOL    HW1 7691   2.552   0.270   5.815
 2264SOL    HW2 7692   2.624   0.377   5.714
 2265SOL     OW 7693   6.979   6.342   4.292
 2265SOL    HW1 7694   6.932   6.382   4.371
 2265SOL    HW2 7695   6.989   6.244   4.305
 2266SOL     OW 7696   4.090   2.705   6.727
 2266SOL    HW1 7697   4.139   2.776   6.778
 2266SOL    HW2 7698   4.105   2.616   6.770
 2267SOL     OW 7699   5.493   2.911   4.552
 2267SOL    HW1 7700   5.590   2.888   4.558
 2267SOL    HW2 7701   5.452   2.907   4.643
 2268SOL     OW 7702   1.646   6.144   4.726
 2268SOL    HW1 7703   1.711   6.069   4.717
 2268SOL    HW2 7704   1.693   6.231   4.715
 2269SOL     OW 7705   1.850   2.228   5.416
 2269SOL    HW1 7706   1.758   2.243   5.381
 2269SOL    HW2 7707   1.876   2.305   5.475
 2270SOL     OW 7708   4.635   1.185   6.254
 2270SOL    HW1 7709   4.635   1.111   6.322
 2270SOL    HW2 7710   4.608   1.148   6.165
 2271SOL     OW 7711   4.621   5.536   5.533
 2271SOL    HW1 7712   4.652   5.541   5.438
 2271SOL    HW2 7713   4.545   5.600   5.546
 2272SOL     OW 7714   5.360   1.312   5.791
 2272SOL    HW1 7715   5.454   1.327   5.824
 2272SOL    HW2 7716   5.304   1.276   5.865
 2273SOL     OW 7717   0.844   2.832   3.304
 2273SOL    HW1 7718   0.939   2.860   3.295
 2273SOL    HW2 7719   0.799   2.888   3.374
 2274SOL     OW 7720   1.094   1.586   0.034
 2274SOL    HW1 7721   0.994   1.587   0.036
 2274SOL    HW2 7722   1.125   1.506   7.002
 2275SOL     OW 7723   5.541   3.971   2.923
 2275SOL    HW1 7724   5.513   3.890   2.870
 2275SOL    HW2 7725   5.543   4.051   2.862
 2276SOL     OW 7726   2.075   1.881   0.933
 2276SOL    HW1 7727   2.022   1.824   0.870
 2276SOL    HW2 7728   2.019   1.959   0.960
 2277SOL     OW 7729   3.728   2.901   3.689
 2277SOL    HW1 7730   3.656   2.970   3.699
 2277SOL    HW2 7731   3.687   2.814   3.662
 2278SOL     OW 7732   0.236   2.922   4.077
 2278SOL    HW1 7733   0.327   2.920   4.035
 2278SOL    HW2 7734   0.198   2.829   4.077
 2279SOL     OW 7735   1.046   5.913   5.607
 2279SOL    HW1 7736   1.073   5.817   5.595
 2279SOL    HW2 7737   1.023   5.953   5.519
 2280SOL     OW 7738   4.892   1.898   5.999
 2280SOL    HW1 7739   4.885   1.820   5.937
 2280SOL    HW2 7740   4.899   1.866   6.093
 2281SOL     OW 7741   5.844   6.597   2.345
 2281SOL    HW1 7742   5.768   6.593   2.410
 2281SOL    HW2 7743   5.923   6.639   2.390
 2282SOL     OW 7744   3.566   6.485   6.057
 2282SOL    HW1 7745   3.551   6.520   5.965
 2282SOL    HW2 7746   3.522   6.396   6.067
 2283SOL     OW 7747   6.991   0.933   4.231
 2283SOL    HW1 7748   7.012   1.030   4.235
 2283SOL    HW2 7749   0.026   0.889   4.160
 2284SOL     OW 7750   1.313   2.715   6.820
 2284SOL    HW1 7751   1.298   2.788   6.886
 2284SOL    HW2 7752   1.226   2.690   6.777
 2285SOL     OW 7753   1.661   4.541   6.559
 2285SOL    HW1 7754   1.599   4.494   6.496
 2285SOL    HW2 7755   1.634   4.523   6.653
 2286SOL     OW 7756   4.698   4.766   3.247
 2286SOL    HW1 7757   4.742   4.679   3.270
 2286SOL    HW2 7758   4.741   4.840   3.299
 2287SOL     OW 7759   1.103   1.446   3.717
 2287SOL    HW1 7760   1.193   1.419   3.750
 2287SOL    HW2 7761   1.075   1.385   3.642
 2288SOL     OW 7762   0.312   5.515   2.701
 2288SOL    HW1 7763   0.310   5.464   2.787
 2288SOL    HW2 7764   0.222   5.512   2.658
 2289SOL     OW 7765   0.350   5.789   0.892
 2289SOL    HW1 7766   0.311   5.712   0.840
 2289SOL    HW2 7767   0.444   5.766   0.918
 2290SOL     OW 7768   1.126   5.399   0.014
 2290SOL    HW1 7769   1.212   5.348   0.017
 2290SOL    HW2 7770   1.078   5.389   0.102
 2291SOL     OW 7771   2.163   1.391   6.963
 2291SOL    HW1 7772   2.087   1.456   6.957
 2291SOL    HW2 7773   2.127   1.300   6.984
 2292SOL     OW 7774   2.458   1.412   4.578
 2292SOL    HW1 7775   2.397   1.384   4.504
 2292SOL    HW2 7776   2.474   1.334   4.639
 2293SOL     OW 7777   5.424   3.901   2.523
 2293SOL    HW1 7778   5.339   3.922   2.571
 2293SOL    HW2 7779   5.421   3.942   2.432
 2294SOL     OW 7780   3.549   6.106   0.102
 2294SOL    HW1 7781   3.457   6.101   0.061
 2294SOL    HW2 7782   3.593   6.191   0.075
 2295SOL     OW 7783   0.435   2.159   1.609
 2295SOL    HW1 7784   0.461   2.084   1.670
 2295SOL    HW2 7785   0.475   2.244   1.643
 2296SOL     OW 7786   3.534   0.034   0.938
 2296SOL    HW1 7787   3.496   6.962   0.931
 2296SOL    HW2 7788   3.464   0.097   0.971
 2297SOL     OW 7789   4.587   6.416   6.603
 2297SOL    HW1 7790   4.599   6.402   6.701
 2297SOL    HW2 7791   4.509   6.363   6.571
 2298SOL     OW 7792   4.388   3.161   6.161
 2298SOL    HW1 7793   4.364   3.154   6.258
 2298SOL    HW2 7794   4.420   3.254   6.141
 2299SOL     OW 7795   4.391   6.896   0.176
 2299SOL    HW1 7796   4.489   6.912   0.188
 2299SOL    HW2 7797   4.377   6.805   0.136
 2300SOL     OW 7798   1.092   4.392   1.253
 2300SOL    HW1 7799   1.042   4.327   1.310
 2300SOL    HW2 7800   1.043   4.406   1.167
 2301SOL     OW 7801   3.955   3.508   1.883
 2301SOL    HW1 7802   3.898   3.426   1.875
 2301SOL    HW2 7803   3.947   3.544   1.976
 2302SOL     OW 7804   2.462   6.011   3.017
 2302SOL    HW1 7805   2.508   6.093   2.983
 2302SOL    HW2 7806   2.531   5.946   3.049
 2303SOL     OW 7807   0.479   3.420   4.849
 2303SOL    HW1 7808   0.423   3.340   4.868
 2303SOL    HW2 7809   0.529   3.446   4.932
 2304SOL     OW 7810   2.299   0.713   4.323
 2304SOL    HW1 7811   2.279   0.640   4.258
 2304SOL    HW2 7812   2.350   0.675   4.401
 2305SOL     OW 7813   4.077   5.018   1.722
 2305SOL    HW1 7814   4.012   4.970   1.663
 2305SOL    HW2 7815   4.120   4.953   1.784
 2306SOL     OW 7816   0.266   4.320   0.457
 2306SOL    HW1 7817   0.300   4.343   0.366
 2306SOL    HW2 7818   0.204   4.242   0.451
 2307SOL     OW 7819   0.048   1.453   3.037
 2307SOL    HW1 7820   0.087   1.499   2.957
 2307SOL    HW2 7821   6.995   1.509   3.076
 2308SOL     OW 7822   0.174   6.635   0.515
 2308SOL    HW1 7823   0.193   6.712   0.576
 2308SOL    HW2 7824   0.196   6.549   0.562
 2309SOL     OW 7825   3.292   5.357   6.046
 2309SOL    HW1 7826   3.352   5.290   6.090
 2309SOL    HW2 7827   3.347   5.424   5.997
 2310SOL     OW 7828   5.831   1.841   2.927
 2310SOL    HW1 7829   5.899   1.874   2.992
 2310SOL    HW2 7830   5.793   1.754   2.961
 2311SOL     OW 7831   2.863   0.691   2.922
 2311SOL    HW1 7832   2.855   0.669   2.824
 2311SOL    HW2 7833   2.824   0.781   2.940
 2312SOL     OW 7834   2.714   1.072   2.717
 2312SOL    HW1 7835   2.807   1.098   2.690
 2312SOL    HW2 7836   2.648   1.125   2.664
 2313SOL     OW 7837   5.005   3.862   1.415
 2313SOL    HW1 7838   4.914   3.822   1.427
 2313SOL    HW2 7839   5.055   3.858   1.501
 2314SOL     OW 7840   6.592   6.718   3.170
 2314SOL    HW1 7841   6.691   6.711   3.164
 2314SOL    HW2 7842   6.555   6.635   3.211
 2315SOL     OW 7843   4.193   5.801   4.992
 2315SOL    HW1 7844   4.166   5.894   5.016
 2315SOL    HW2 7845   4.264   5.769   5.055
 2316SOL     OW 7846   2.739   1.897   5.962
 2316SOL    HW1 7847   2.748   1.948   6.047
 2316SOL    HW2 7848   2.798   1.816   5.964
 2317SOL     OW 7849   6.637   5.654   3.309
 2317SOL    HW1 7850   6.730   5.625   3.335
 2317SOL    HW2 7851   6.640   5.700   3.220
 2318SOL     OW 7852   1.507   4.480   5.614
 2318SOL    HW1 7853   1.441   4.439   5.550
 2318SOL    HW2 7854   1.566   4.408   5.652
 2319SOL     OW 7855   2.174   4.961   3.575
 2319SOL    HW1 7856   2.191   4.942   3.478
 2319SOL    HW2 7857   2.173   5.060   3.590
 2320SOL     OW 7858   0.953   2.255   5.409
 2320SOL    HW1 7859   0.932   2.186   5.479
 2320SOL    HW2 7860   1.049   2.247   5.383
 2321SOL     OW 7861   2.463   5.011   5.875
 2321SOL    HW1 7862   2.521   5.082   5.916
 2321SOL    HW2 7863   2.430   4.950   5.948
 2322SOL     OW 7864   1.763   4.087   1.538
 2322SOL    HW1 7865   1.854   4.057   1.565
 2322SOL    HW2 7866   1.753   4.185   1.556
 2323SOL     OW 7867   2.344   5.213   1.645
 2323SOL    HW1 7868   2.393   5.139   1.598
 2323SOL    HW2 7869   2.248   5.214   1.616
 2324SOL     OW 7870   6.892   5.335   2.809
 2324SOL    HW1 7871   6.919   5.252   2.858
 2324SOL    HW2 7872   6.803   5.367   2.843
 2325SOL     OW 7873   6.795   5.227   1.717
 2325SOL    HW1 7874   6.740   5.254   1.796
 2325SOL    HW2 7875   6.738   5.177   1.652
 2326SOL     OW 7876   1.785   0.854   0.069
 2326SOL    HW1 7877   1.694   0.817   0.084
 2326SOL    HW2 7878   1.845   0.828   0.145
 2327SOL     OW 7879   0.237   0.318   2.522
 2327SOL    HW1 7880   0.278   0.255   2.456
 2327SOL    HW2 7881   0.191   0.266   2.594
 2328SOL     OW 7882   1.880   2.956   3.098
 2328SOL    HW1 7883   1.969   3.001   3.110
 2328SOL    HW2 7884   1.816   3.020   3.056
 2329SOL     OW 7885   0.404   5.112   2.896
 2329SOL    HW1 7886   0.427   5.015   2.892
 2329SOL    HW2 7887   0.489   5.166   2.901
 2330SOL     OW 7888   6.563   3.095   0.441
 2330SOL    HW1 7889   6.487   3.030   0.434
 2330SOL    HW2 7890   6.535   3.183   0.402
 2331SOL     OW 7891   4.463   5.904   1.204
 2331SOL    HW1 7892   4.530   5.961   1.252
 2331SOL    HW2 7893   4.373   5.945   1.210
 2332SOL     OW 7894   5.688   6.872   5.752
 2332SOL    HW1 7895   5.693   6.930   5.834
 2332SOL    HW2 7896   5.595   6.875   5.715
 2333SOL     OW 7897   0.005   4.330   2.586
 2333SOL    HW1 7898   6.942   4.284   2.617
 2333SOL    HW2 7899   0.085   4.286   2.627
 2334SOL     OW 7900   3.078   1.764   6.483
 2334SOL    HW1 7901   3.105   1.787   6.390
 2334SOL    HW2 7902   2.988   1.804   6.503
 2335SOL     OW 7903   6.361   1.382   3.402
 2335SOL    HW1 7904   6.428   1.425   3.342
 2335SOL    HW2 7905   6.407   1.313   3.459
 2336SOL     OW 7906   1.707   1.864   2.745
 2336SOL    HW1 7907   1.791   1.916   2.758
 2336SOL    HW2 7908   1.628   1.926   2.743
 2337SOL     OW 7909   4.800   1.647   1.502
 2337SOL    HW1 7910   4.750   1.691   1.576
 2337SOL    HW2 7911   4.743   1.642   1.421
 2338SOL     OW 7912   6.880   3.956   3.594
 2338SOL    HW1 7913   6.814   4.004   3.652
 2338SOL    HW2 7914   6.864   3.858   3.599
 2339SOL     OW 7915   3.646   2.931   2.889
 2339SOL    HW1 7916   3.583   2.915   2.812
 2339SOL    HW2 7917   3.597   2.918   2.975
 2340SOL     OW 7918   2.036   5.429   6.508
 2340SOL    HW1 7919   1.997   5.434   6.416
 2340SOL    HW2 7920   2.089   5.345   6.517
 2341SOL     OW 7921   2.499   4.487   3.239
 2341SOL    HW1 7922   2.557   4.518   3.163
 2341SOL    HW2 7923   2.453   4.402   3.214
 2342SOL     OW 7924   3.226   0.318   4.127
 2342SOL    HW1 7925   3.223   0.373   4.043
 2342SOL    HW2 7926   3.289   0.242   4.115
 2343SOL     OW 7927   1.205   0.198   2.037
 2343SOL    HW1 7928   1.123   0.255   2.042
 2343SOL    HW2 7929   1.281   0.252   2.002
 2344SOL     OW 7930   5.609   3.768   0.690
 2344SOL    HW1 7931   5.692   3.712   0.699
 2344SOL    HW2 7932   5.589   3.811   0.778
 2345SOL     OW 7933   2.910   5.285   4.759
 2345SOL    HW1 7934   2.965   5.249   4.835
 2345SOL    HW2 7935   2.848   5.356   4.793
 2346SOL     OW 7936   3.848   3.917   6.593
 2346SOL    HW1 7937   3.844   3.835   6.536
 2346SOL    HW2 7938   3.912   3.983   6.553
 2347SOL     OW 7939   1.086   2.121   2.086
 2347SOL    HW1 7940   1.100   2.217   2.110
 2347SOL    HW2 7941   1.151   2.064   2.136
 2348SOL     OW 7942   7.017   4.908   2.838
 2348SOL    HW1 7943   6.938   4.851   2.815
 2348SOL    HW2 7944   6.988   4.982   2.899
 2349SOL     OW 7945   0.458   4.023   6.041
 2349SOL    HW1 7946   0.489   4.072   5.959
 2349SOL    HW2 7947   0.536   4.009   6.103
 2350SOL     OW 7948   5.727   3.462   6.879
 2350SOL    HW1 7949   5.799   3.514   6.833
 2350SOL    HW2 7950   5.640   3.511   6.870
 2351SOL     OW 7951   2.879   5.298   2.696
 2351SOL    HW1 7952   2.831   5.226   2.746
 2351SOL    HW2 7953   2.977   5.276   2.691
 2352SOL     OW 7954   7.005   2.945   3.507
 2352SOL    HW1 7955   0.072   2.917   3.466
 2352SOL    HW2 7956   0.001   2.979   3.599
 2353SOL     OW 7957   3.490   5.859   4.789
 2353SOL    HW1 7958   3.530   5.851   4.697
 2353SOL    HW2 7959   3.504   5.773   4.838
 2354SOL     OW 7960   2.157   2.428   3.703
 2354SOL    HW1 7961   2.241   2.453   3.751
 2354SOL    HW2 7962   2.134   2.499   3.636
 2355SOL     OW 7963   2.424   5.610   5.255
 2355SOL    HW1 7964   2.449   5.599   5.159
 2355SOL    HW2 7965   2.331   5.577   5.270
 2356SOL     OW 7966   6.928   3.454   0.020
 2356SOL    HW1 7967   6.834   3.438   7.008
 2356SOL    HW2 7968   6.948   3.552   0.016
 2357SOL     OW 7969   2.427   6.719   2.186
 2357SOL    HW1 7970   2.477   6.805   2.180
 2357SOL    HW2 7971   2.432   6.685   2.280
 2358SOL     OW 7972   3.643   4.818   6.635
 2358SOL    HW1 7973   3.609   4.745   6.576
 2358SOL    HW2 7974   3.631   4.906   6.590
 2359SOL     OW 7975   1.310   0.044   4.558
 2359SOL    HW1 7976   1.239   0.017   4.623
 2359SOL    HW2 7977   1.400   0.038   4.602
 2360SOL     OW 7978   6.540   3.574   0.236
 2360SOL    HW1 7979   6.451   3.617   0.218
 2360SOL    HW2 7980   6.568   3.595   0.330
 2361SOL     OW 7981   3.452   1.198   6.531
 2361SOL    HW1 7982   3.549   1.206   6.508
 2361SOL    HW2 7983   3.413   1.289   6.544
 2362SOL     OW 7984   3.620   5.460   3.116
 2362SOL    HW1 7985   3.627   5.471   3.017
 2362SOL    HW2 7986   3.525   5.465   3.144
 2363SOL     OW 7987   3.982   1.109   4.514
 2363SOL    HW1 7988   3.991   1.208   4.507
 2363SOL    HW2 7989   4.000   1.080   4.608
 2364SOL     OW 7990   1.415   2.869   1.051
 2364SOL    HW1 7991   1.349   2.922   0.998
 2364SOL    HW2 7992   1.435   2.916   1.137
 2365SOL     OW 7993   5.787   1.942   6.599
 2365SOL    HW1 7994   5.722   1.937   6.522
 2365SOL    HW2 7995   5.754   1.885   6.674
 2366SOL     OW 7996   3.910   5.230   0.608
 2366SOL    HW1 7997   3.857   5.184   0.679
 2366SOL    HW2 7998   3.966   5.302   0.649
 2367SOL     OW 7999   2.782   3.159   6.417
 2367SOL    HW1 8000   2.705   3.215   6.385
 2367SOL    HW2 8001   2.747   3.089   6.479
 2368SOL     OW 8002   6.619   5.942   2.664
 2368SOL    HW1 8003   6.599   5.849   2.696
 2368SOL    HW2 8004   6.718   5.952   2.651
 2369SOL     OW 8005   2.150   0.871   3.447
 2369SOL    HW1 8006   2.198   0.959   3.449
 2369SOL    HW2 8007   2.053   0.886   3.465
 2370SOL     OW 8008   6.034   2.016   6.997
 2370SOL    HW1 8009   6.134   2.006   6.990
 2370SOL    HW2 8010   5.991   1.928   6.981
 2371SOL     OW 8011   2.686   6.322   1.484
 2371SOL    HW1 8012   2.597   6.366   1.476
 2371SOL    HW2 8013   2.756   6.392   1.500
 2372SOL     OW 8014   6.657   3.640   3.030
 2372SOL    HW1 8015   6.734   3.677   2.979
 2372SOL    HW2 8016   6.575   3.693   3.008
 2373SOL     OW 8017   2.215   2.983   6.196
 2373SOL    HW1 8018   2.303   2.959   6.155
 2373SOL    HW2 8019   2.229   3.016   6.290
 2374SOL     OW 8020   5.789   3.041   4.968
 2374SOL    HW1 8021   5.707   3.097   4.972
 2374SOL    HW2 8022   5.861   3.082   5.025
 2375SOL     OW 8023   3.147   6.212   5.329
 2375SOL    HW1 8024   3.058   6.173   5.306
 2375SOL    HW2 8025   3.163   6.294   5.275
 2376SOL     OW 8026   6.619   3.206   4.780
 2376SOL    HW1 8027   6.699   3.199   4.839
 2376SOL    HW2 8028   6.576   3.295   4.792
 2377SOL     OW 8029   3.580   3.548   3.939
 2377SOL    HW1 8030   3.558   3.568   3.844
 2377SOL    HW2 8031   3.590   3.634   3.990
 2378SOL     OW 8032   5.259   2.495   6.709
 2378SOL    HW1 8033   5.316   2.577   6.706
 2378SOL    HW2 8034   5.296   2.431   6.776
 2379SOL     OW 8035   6.394   6.841   0.310
 2379SOL    HW1 8036   6.306   6.794   0.317
 2379SOL    HW2 8037   6.386   6.919   0.248
 2380SOL     OW 8038   6.054   1.468   2.394
 2380SOL    HW1 8039   6.061   1.397   2.464
 2380SOL    HW2 8040   6.119   1.450   2.321
 2381SOL     OW 8041   1.645   6.572   3.343
 2381SOL    HW1 8042   1.730   6.521   3.353
 2381SOL    HW2 8043   1.575   6.533   3.404
 2382SOL     OW 8044   1.906   3.726   4.972
 2382SOL    HW1 8045   2.001   3.752   4.991
 2382SOL    HW2 8046   1.895   3.628   4.987
 2383SOL     OW 8047   6.120   5.888   1.295
 2383SOL    HW1 8048   6.109   5.968   1.354
 2383SOL    HW2 8049   6.150   5.917   1.204
 2384SOL     OW 8050   4.498   1.801   1.921
 2384SOL    HW1 8051   4.530   1.731   1.985
 2384SOL    HW2 8052   4.403   1.825   1.943
 2385SOL     OW 8053   0.797   2.062   6.273
 2385SOL    HW1 8054   0.729   2.061   6.200
 2385SOL    HW2 8055   0.831   2.155   6.286
 2386SOL     OW 8056   4.722   5.735   4.116
 2386SOL    HW1 8057   4.767   5.821   4.138
 2386SOL    HW2 8058   4.711   5.681   4.199
 2387SOL     OW 8059   2.050   1.369   3.645
 2387SOL    HW1 8060   2.119   1.379   3.573
 2387SOL    HW2 8061   2.063   1.441   3.713
 2388SOL     OW 8062   6.221   1.887   4.449
 2388SOL    HW1 8063   6.319   1.865   4.452
 2388SOL    HW2 8064   6.168   1.802   4.443
 2389SOL     OW 8065   4.189   5.590   2.820
 2389SOL    HW1 8066   4.288   5.591   2.810
 2389SOL    HW2 8067   4.157   5.495   2.831
 2390SOL     OW 8068   3.380   4.188   1.703
 2390SOL    HW1 8069   3.301   4.232   1.660
 2390SOL    HW2 8070   3.351   4.099   1.740
 2391SOL     OW 8071   4.047   5.232   5.341
 2391SOL    HW1 8072   3.968   5.274   5.385
 2391SOL    HW2 8073   4.123   5.226   5.406
 2392SOL     OW 8074   3.563   1.390   6.742
 2392SOL    HW1 8075   3.482   1.430   6.699
 2392SOL    HW2 8076   3.536   1.310   6.795
 2393SOL     OW 8077   4.155   5.322   5.810
 2393SOL    HW1 8078   4.220   5.358   5.878
 2393SOL    HW2 8079   4.116   5.237   5.844
 2394SOL     OW 8080   0.703   4.116   5.140
 2394SOL    HW1 8081   0.675   4.074   5.054
 2394SOL    HW2 8082   0.636   4.186   5.166
 2395SOL     OW 8083   4.065   0.166   6.031
 2395SOL    HW1 8084   4.151   0.204   6.064
 2395SOL    HW2 8085   3.989   0.204   6.085
 2396SOL     OW 8086   4.119   4.355   0.759
 2396SOL    HW1 8087   4.176   4.340   0.679
 2396SOL    HW2 8088   4.024   4.333   0.738
 2397SOL     OW 8089   0.018   3.965   4.433
 2397SOL    HW1 8090   0.063   3.999   4.516
 2397SOL    HW2 8091   0.055   3.875   4.409
 2398SOL     OW 8092   3.866   4.941   5.609
 2398SOL    HW1 8093   3.877   4.949   5.510
 2398SOL    HW2 8094   3.929   5.003   5.655
 2399SOL     OW 8095   4.241   1.911   1.994
 2399SOL    HW1 8096   4.164   1.850   2.014
 2399SOL    HW2 8097   4.221   2.002   2.031
 2400SOL     OW 8098   2.443   5.320   1.917
 2400SOL    HW1 8099   2.371   5.277   1.971
 2400SOL    HW2 8100   2.428   5.301   1.820
 2401SOL     OW 8101   6.864   6.289   5.835
 2401SOL    HW1 8102   6.847   6.302   5.933
 2401SOL    HW2 8103   6.960   6.265   5.821
 2402SOL     OW 8104   0.001   6.653   4.580
 2402SOL    HW1 8105   6.976   6.669   4.668
 2402SOL    HW2 8106   7.008   6.558   4.552
 2403SOL     OW 8107   0.751   1.805   5.077
 2403SOL    HW1 8108   0.765   1.861   5.159
 2403SOL    HW2 8109   0.770   1.860   4.996
 2404SOL     OW 8110   0.993   0.153   0.297
 2404SOL    HW1 8111   1.023   0.068   0.340
 2404SOL    HW2 8112   0.894   0.150   0.282
 2405SOL     OW 8113   2.623   4.082   1.650
 2405SOL    HW1 8114   2.662   4.174   1.651
 2405SOL    HW2 8115   2.695   4.015   1.633
 2406SOL     OW 8116   4.966   1.138   1.585
 2406SOL    HW1 8117   4.883   1.139   1.529
 2406SOL    HW2 8118   5.046   1.136   1.525
 2407SOL     OW 8119   4.996   0.949   3.616
 2407SOL    HW1 8120   5.077   1.006   3.604
 2407SOL    HW2 8121   4.918   0.993   3.572
 2408SOL     OW 8122   4.531   4.445   2.294
 2408SOL    HW1 8123   4.504   4.534   2.259
 2408SOL    HW2 8124   4.508   4.374   2.226
 2409SOL     OW 8125   1.402   4.248   0.639
 2409SOL    HW1 8126   1.396   4.230   0.541
 2409SOL    HW2 8127   1.400   4.161   0.689
 2410SOL     OW 8128   3.479   2.937   2.640
 2410SOL    HW1 8129   3.474   3.036   2.630
 2410SOL    HW2 8130   3.451   2.893   2.555
 2411SOL     OW 8131   4.895   6.662   4.411
 2411SOL    HW1 8132   4.890   6.747   4.464
 2411SOL    HW2 8133   4.940   6.680   4.323
 2412SOL     OW 8134   4.435   3.160   0.947
 2412SOL    HW1 8135   4.395   3.251   0.958
 2412SOL    HW2 8136   4.403   3.120   0.862
 2413SOL     OW 8137   4.792   0.086   2.331
 2413SOL    HW1 8138   4.770   0.099   2.234
 2413SOL    HW2 8139   4.738   0.011   2.368
 2414SOL     OW 8140   5.641   3.742   4.205
 2414SOL    HW1 8141   5.739   3.761   4.205
 2414SOL    HW2 8142   5.599   3.784   4.286
 2415SOL     OW 8143   4.406   0.880   3.337
 2415SOL    HW1 8144   4.315   0.873   3.379
 2415SOL    HW2 8145   4.454   0.793   3.349
 2416SOL     OW 8146   5.151   1.908   5.897
 2416SOL    HW1 8147   5.142   1.973   5.821
 2416SOL    HW2 8148   5.091   1.936   5.972
 2417SOL     OW 8149   3.246   4.115   4.078
 2417SOL    HW1 8150   3.279   4.128   4.171
 2417SOL    HW2 8151   3.147   4.127   4.076
 2418SOL     OW 8152   3.504   2.969   3.111
 2418SOL    HW1 8153   3.414   3.010   3.104
 2418SOL    HW2 8154   3.545   2.990   3.200
 2419SOL     OW 8155   6.891   6.988   3.018
 2419SOL    HW1 8156   6.933   0.058   3.029
 2419SOL    HW2 8157   6.950   6.919   3.059
 2420SOL     OW 8158   2.093   0.256   2.017
 2420SOL    HW1 8159   2.071   0.238   1.921
 2420SOL    HW2 8160   2.018   0.223   2.075
 2421SOL     OW 8161   3.360   2.135   3.672
 2421SOL    HW1 8162   3.446   2.183   3.656
 2421SOL    HW2 8163   3.334   2.085   3.589
 2422SOL     OW 8164   5.070   1.273   0.978
 2422SOL    HW1 8165   5.025   1.209   1.041
 2422SOL    HW2 8166   5.053   1.245   0.884
 2423SOL     OW 8167   2.064   5.076   2.138
 2423SOL    HW1 8168   2.065   5.007   2.211
 2423SOL    HW2 8169   1.996   5.146   2.160
 2424SOL     OW 8170   6.324   0.456   1.472
 2424SOL    HW1 8171   6.363   0.535   1.519
 2424SOL    HW2 8172   6.395   0.388   1.457
 2425SOL     OW 8173   6.989   6.815   4.383
 2425SOL    HW1 8174   6.983   6.757   4.464
 2425SOL    HW2 8175   6.911   6.797   4.323
 2426SOL     OW 8176   2.595   4.823   3.766
 2426SOL    HW1 8177   2.661   4.846   3.695
 2426SOL    HW2 8178   2.567   4.727   3.756
 2427SOL     OW 8179   6.233   0.118   5.510
 2427SOL    HW1 8180   6.250   0.169   5.594
 2427SOL    HW2 8181   6.286   0.034   5.510
 2428SOL     OW 8182   6.525   0.551   0.641
 2428SOL    HW1 8183   6.615   0.589   0.621
 2428SOL    HW2 8184   6.499   0.574   0.735
 2429SOL     OW 8185   5.146   5.299   2.035
 2429SOL    HW1 8186   5.089   5.277   1.957
 2429SOL    HW2 8187   5.199   5.381   2.015
 2430SOL     OW 8188   5.170   0.284   2.622
 2430SOL    HW1 8189   5.099   0.292   2.552
 2430SOL    HW2 8190   5.251   0.336   2.593
 2431SOL     OW 8191   4.446   0.326   2.141
 2431SOL    HW1 8192   4.427   0.254   2.209
 2431SOL    HW2 8193   4.407   0.300   2.053
 2432SOL     OW 8194   2.451   6.296   2.382
 2432SOL    HW1 8195   2.519   6.327   2.315
 2432SOL    HW2 8196   2.492   6.228   2.442
 2433SOL     OW 8197   4.084   0.131   0.762
 2433SOL    HW1 8198   4.098   0.034   0.781
 2433SOL    HW2 8199   4.168   0.171   0.726
 2434SOL     OW 8200   3.860   3.318   5.407
 2434SOL    HW1 8201   3.880   3.394   5.345
 2434SOL    HW2 8202   3.934   3.251   5.401
 2435SOL     OW 8203   6.196   5.892   5.505
 2435SOL    HW1 8204   6.293   5.866   5.498
 2435SOL    HW2 8205   6.155   5.846   5.583
 2436SOL     OW 8206   3.014   5.322   0.777
 2436SOL    HW1 8207   2.918   5.336   0.804
 2436SOL    HW2 8208   3.017   5.261   0.698
 2437SOL     OW 8209   7.015   0.361   6.029
 2437SOL    HW1 8210   6.980   0.415   5.952
 2437SOL    HW2 8211   0.085   0.325   6.006
 2438SOL     OW 8212   2.935   2.971   0.911
 2438SOL    HW1 8213   2.917   2.922   0.826
 2438SOL    HW2 8214   2.923   3.069   0.897
 2439SOL     OW 8215   5.606   3.803   5.879
 2439SOL    HW1 8216   5.663   3.778   5.958
 2439SOL    HW2 8217   5.653   3.778   5.795
 2440SOL     OW 8218   5.968   4.988   5.869
 2440SOL    HW1 8219   5.925   4.900   5.888
 2440SOL    HW2 8220   5.998   5.031   5.954
 2441SOL     OW 8221   6.334   1.739   0.811
 2441SOL    HW1 8222   6.238   1.764   0.801
 2441SOL    HW2 8223   6.377   1.735   0.721
 2442SOL     OW 8224   6.996   2.453   5.676
 2442SOL    HW1 8225   6.978   2.383   5.745
 2442SOL    HW2 8226   0.026   2.412   5.599
 2443SOL     OW 8227   2.672   4.695   5.390
 2443SOL    HW1 8228   2.663   4.638   5.309
 2443SOL    HW2 8229   2.752   4.755   5.380
 2444SOL     OW 8230   3.478   2.831   5.272
 2444SOL    HW1 8231   3.425   2.848   5.189
 2444SOL    HW2 8232   3.422   2.853   5.352
 2445SOL     OW 8233   0.716   0.106   0.895
 2445SOL    HW1 8234   0.750   0.200   0.899
 2445SOL    HW2 8235   0.616   0.107   0.903
 2446SOL     OW 8236   5.240   3.248   6.276
 2446SOL    HW1 8237   5.253   3.272   6.180
 2446SOL    HW2 8238   5.328   3.227   6.318
 2447SOL     OW 8239   0.658   2.936   6.428
 2447SOL    HW1 8240   0.752   2.953   6.397
 2447SOL    HW2 8241   0.611   2.876   6.363
 2448SOL     OW 8242   0.537   6.825   4.285
 2448SOL    HW1 8243   0.478   6.845   4.363
 2448SOL    HW2 8244   0.633   6.831   4.313
 2449SOL     OW 8245   0.588   3.137   4.665
 2449SOL    HW1 8246   0.488   3.140   4.654
 2449SOL    HW2 8247   0.623   3.230   4.670
 2450SOL     OW 8248   2.223   3.058   1.655
 2450SOL    HW1 8249   2.173   3.038   1.739
 2450SOL    HW2 8250   2.255   2.972   1.615
 2451SOL     OW 8251   2.456   6.444   4.365
 2451SOL    HW1 8252   2.455   6.357   4.315
 2451SOL    HW2 8253   2.421   6.517   4.306
 2452SOL     OW 8254   2.358   2.285   4.164
 2452SOL    HW1 8255   2.266   2.290   4.126
 2452SOL    HW2 8256   2.414   2.356   4.122
 2453SOL     OW 8257   0.360   3.451   1.356
 2453SOL    HW1 8258   0.439   3.508   1.335
 2453SOL    HW2 8259   0.389   3.355   1.359
 2454SOL     OW 8260   2.242   0.051   1.354
 2454SOL    HW1 8261   2.319   0.027   1.413
 2454SOL    HW2 8262   2.275   0.103   1.275
 2455SOL     OW 8263   5.514   3.388   1.464
 2455SOL    HW1 8264   5.591   3.347   1.414
 2455SOL    HW2 8265   5.523   3.366   1.561
 2456SOL     OW 8266   2.466   6.935   1.035
 2456SOL    HW1 8267   2.552   6.887   1.018
 2456SOL    HW2 8268   2.400   6.871   1.075
 2457SOL     OW 8269   5.851   6.096   1.106
 2457SOL    HW1 8270   5.808   6.182   1.078
 2457SOL    HW2 8271   5.782   6.024   1.110
 2458SOL     OW 8272   0.449   6.003   2.098
 2458SOL    HW1 8273   0.509   5.931   2.132
 2458SOL    HW2 8274   0.484   6.039   2.012
 2459SOL     OW 8275   0.820   1.571   0.411
 2459SOL    HW1 8276   0.858   1.655   0.449
 2459SOL    HW2 8277   0.799   1.586   0.314
 2460SOL     OW 8278   2.999   4.738   1.359
 2460SOL    HW1 8279   3.043   4.652   1.384
 2460SOL    HW2 8280   2.901   4.723   1.347
 2461SOL     OW 8281   5.011   1.269   2.996
 2461SOL    HW1 8282   5.094   1.254   2.942
 2461SOL    HW2 8283   4.933   1.228   2.948
 2462SOL     OW 8284   2.542   3.602   6.263
 2462SOL    HW1 8285   2.495   3.688   6.283
 2462SOL    HW2 8286   2.599   3.576   6.341
 2463SOL     OW 8287   1.046   2.493   5.103
 2463SOL    HW1 8288   1.114   2.553   5.145
 2463SOL    HW2 8289   0.960   2.499   5.154
 2464SOL     OW 8290   1.466   3.753   0.447
 2464SOL    HW1 8291   1.410   3.730   0.368
 2464SOL    HW2 8292   1.447   3.688   0.522
 2465SOL     OW 8293   5.944   5.384   2.071
 2465SOL    HW1 8294   5.847   5.375   2.051
 2465SOL    HW2 8295   5.956   5.439   2.154
 2466SOL     OW 8296   3.854   1.436   1.657
 2466SOL    HW1 8297   3.835   1.535   1.653
 2466SOL    HW2 8298   3.831   1.394   1.569
 2467SOL     OW 8299   0.243   1.294   4.863
 2467SOL    HW1 8300   0.331   1.306   4.909
 2467SOL    HW2 8301   0.229   1.370   4.799
 2468SOL     OW 8302   6.320   4.579   6.972
 2468SOL    HW1 8303   6.331   4.679   6.964
 2468SOL    HW2 8304   6.294   4.556   0.045
 2469SOL     OW 8305   3.447   2.815   5.785
 2469SOL    HW1 8306   3.510   2.756   5.735
 2469SOL    HW2 8307   3.393   2.869   5.721
 2470SOL     OW 8308   5.440   2.654   0.893
 2470SOL    HW1 8309   5.367   2.618   0.951
 2470SOL    HW2 8310   5.517   2.683   0.951
 2471SOL     OW 8311   0.326   1.355   3.056
 2471SOL    HW1 8312   0.340   1.446   3.094
 2471SOL    HW2 8313   0.229   1.344   3.032
 2472SOL     OW 8314   5.588   1.407   3.613
 2472SOL    HW1 8315   5.550   1.325   3.656
 2472SOL    HW2 8316   5.586   1.397   3.513
 2473SOL     OW 8317   0.525   6.185   5.355
 2473SOL    HW1 8318   0.558   6.122   5.426
 2473SOL    HW2 8319   0.435   6.156   5.324
 2474SOL     OW 8320   6.175   6.661   4.391
 2474SOL    HW1 8321   6.173   6.742   4.450
 2474SOL    HW2 8322   6.105   6.670   4.320
 2475SOL     OW 8323   4.136   1.925   6.308
 2475SOL    HW1 8324   4.050   1.894   6.349
 2475SOL    HW2 8325   4.133   1.911   6.209
 2476SOL     OW 8326   0.679   1.301   3.542
 2476SOL    HW1 8327   0.596   1.284   3.597
 2476SOL    HW2 8328   0.712   1.215   3.505
 2477SOL     OW 8329   4.440   4.973   2.181
 2477SOL    HW1 8330   4.469   4.936   2.270
 2477SOL    HW2 8331   4.509   5.036   2.147
 2478SOL     OW 8332   0.250   6.856   2.608
 2478SOL    HW1 8333   0.233   6.759   2.624
 2478SOL    HW2 8334   0.272   6.870   2.511
 2479SOL     OW 8335   0.555   2.182   6.934
 2479SOL    HW1 8336   0.573   2.280   6.933
 2479SOL    HW2 8337   0.637   2.133   6.962
 2480SOL     OW 8338   6.796   4.938   1.572
 2480SOL    HW1 8339   6.718   4.993   1.541
 2480SOL    HW2 8340   6.868   4.998   1.607
 2481SOL     OW 8341   3.838   5.063   2.253
 2481SOL    HW1 8342   3.784   5.145   2.234
 2481SOL    HW2 8343   3.777   4.984   2.259
 2482SOL     OW 8344   4.979   2.536   4.884
 2482SOL    HW1 8345   4.994   2.634   4.900
 2482SOL    HW2 8346   5.061   2.495   4.845
 2483SOL     OW 8347   0.708   2.836   0.016
 2483SOL    HW1 8348   0.649   2.908   0.053
 2483SOL    HW2 8349   0.760   2.794   0.090
 2484SOL     OW 8350   4.021   4.401   5.703
 2484SOL    HW1 8351   4.032   4.323   5.641
 2484SOL    HW2 8352   3.953   4.379   5.773
 2485SOL     OW 8353   0.470   6.084   6.920
 2485SOL    HW1 8354   0.456   6.088   6.821
 2485SOL    HW2 8355   0.381   6.084   6.966
 2486SOL     OW 8356   0.632   5.475   3.678
 2486SOL    HW1 8357   0.569   5.405   3.644
 2486SOL    HW2 8358   0.580   5.558   3.701
 2487SOL     OW 8359   3.835   1.725   1.614
 2487SOL    HW1 8360   3.861   1.819   1.635
 2487SOL    HW2 8361   3.842   1.710   1.515
 2488SOL     OW 8362   3.139   6.091   6.325
 2488SOL    HW1 8363   3.157   6.102   6.423
 2488SOL    HW2 8364   3.225   6.076   6.277
 2489SOL     OW 8365   0.126   6.053   4.135
 2489SOL    HW1 8366   0.039   6.032   4.091
 2489SOL    HW2 8367   0.110   6.075   4.231
 2490SOL     OW 8368   5.728   2.697   1.612
 2490SOL    HW1 8369   5.777   2.768   1.664
 2490SOL    HW2 8370   5.715   2.617   1.671
 2491SOL     OW 8371   0.297   4.382   3.090
 2491SOL    HW1 8372   0.313   4.470   3.045
 2491SOL    HW2 8373   0.381   4.353   3.136
 2492SOL     OW 8374   4.308   1.359   6.103
 2492SOL    HW1 8375   4.282   1.324   6.013
 2492SOL    HW2 8376   4.319   1.282   6.167
 2493SOL     OW 8377   6.883   0.870   4.729
 2493SOL    HW1 8378   6.846   0.778   4.743
 2493SOL    HW2 8379   6.913   0.880   4.635
 2494SOL     OW 8380   4.249   5.323   1.125
 2494SOL    HW1 8381   4.231   5.232   1.163
 2494SOL    HW2 8382   4.299   5.314   1.039
 2495SOL     OW 8383   6.968   0.990   2.771
 2495SOL    HW1 8384   6.886   0.982   2.714
 2495SOL    HW2 8385   7.019   0.904   2.768
 2496SOL     OW 8386   1.562   5.510   0.230
 2496SOL    HW1 8387   1.500   5.553   0.165
 2496SOL    HW2 8388   1.624   5.449   0.181
 2497SOL     OW 8389   5.600   0.388   6.693
 2497SOL    HW1 8390   5.675   0.338   6.651
 2497SOL    HW2 8391   5.559   0.332   6.765
 2498SOL     OW 8392   0.988   3.316   4.744
 2498SOL    HW1 8393   0.977   3.397   4.801
 2498SOL    HW2 8394   0.908   3.305   4.685
 2499SOL     OW 8395   5.322   1.097   0.436
 2499SOL    HW1 8396   5.234   1.121   0.393
 2499SOL    HW2 8397   5.340   1.000   0.422
 2500SOL     OW 8398   4.468   3.868   6.499
 2500SOL    HW1 8399   4.493   3.856   6.403
 2500SOL    HW2 8400   4.465   3.965   6.522
 2501SOL     OW 8401   6.776   5.037   0.858
 2501SOL    HW1 8402   6.685   5.077   0.860
 2501SOL    HW2 8403   6.842   5.104   0.893
 2502SOL     OW 8404   0.621   0.566   3.667
 2502SOL    HW1 8405   0.615   0.531   3.761
 2502SOL    HW2 8406   0.611   0.665   3.668
 2503SOL     OW 8407   5.343   6.286   4.102
 2503SOL    HW1 8408   5.387   6.273   4.192
 2503SOL    HW2 8409   5.263   6.344   4.113
 2504SOL     OW 8410   2.332   4.356   2.956
 2504SOL    HW1 8411   2.320   4.283   2.888
 2504SOL    HW2 8412   2.394   4.425   2.919
 2505SOL     OW 8413   4.941   4.416   4.949
 2505SOL    HW1 8414   4.906   4.323   4.957
 2505SOL    HW2 8415   4.989   4.427   4.862
 2506SOL     OW 8416   0.755   1.178   0.368
 2506SOL    HW1 8417   0.832   1.183   0.432
 2506SOL    HW2 8418   0.677   1.135   0.414
 2507SOL     OW 8419   6.075   6.634   6.836
 2507SOL    HW1 8420   6.100   6.666   6.928
 2507SOL    HW2 8421   6.089   6.708   6.770
 2508SOL     OW 8422   1.710   2.577   1.718
 2508SOL    HW1 8423   1.716   2.557   1.816
 2508SOL    HW2 8424   1.797   2.616   1.687
 2509SOL     OW 8425   5.844   1.084   3.418
 2509SOL    HW1 8426   5.871   1.091   3.322
 2509SOL    HW2 8427   5.744   1.084   3.425
 2510SOL     OW 8428   3.927   5.942   2.720
 2510SOL    HW1 8429   3.936   5.913   2.625
 2510SOL    HW2 8430   3.970   6.031   2.733
 2511SOL     OW 8431   1.016   6.752   3.567
 2511SOL    HW1 8432   0.940   6.797   3.519
 2511SOL    HW2 8433   1.044   6.808   3.645
 2512SOL     OW 8434   5.940   3.780   4.568
 2512SOL    HW1 8435   5.982   3.723   4.639
 2512SOL    HW2 8436   6.010   3.838   4.526
 2513SOL     OW 8437   0.274   4.616   1.030
 2513SOL    HW1 8438   0.187   4.571   1.010
 2513SOL    HW2 8439   0.307   4.584   1.119
 2514SOL     OW 8440   6.872   2.589   3.472
 2514SOL    HW1 8441   6.942   2.638   3.523
 2514SOL    HW2 8442   6.897   2.492   3.466
 2515SOL     OW 8443   0.940   4.560   6.719
 2515SOL    HW1 8444   1.014   4.617   6.754
 2515SOL    HW2 8445   0.965   4.527   6.628
 2516SOL     OW 8446   5.241   6.470   3.777
 2516SOL    HW1 8447   5.271   6.554   3.731
 2516SOL    HW2 8448   5.186   6.415   3.715
 2517SOL     OW 8449   1.623   5.256   0.763
 2517SOL    HW1 8450   1.540   5.205   0.783
 2517SOL    HW2 8451   1.665   5.286   0.849
 2518SOL     OW 8452   2.051   2.458   6.702
 2518SOL    HW1 8453   2.109   2.428   6.626
 2518SOL    HW2 8454   1.959   2.419   6.691
 2519SOL     OW 8455   5.780   3.923   5.336
 2519SOL    HW1 8456   5.869   3.890   5.304
 2519SOL    HW2 8457   5.730   3.965   5.260
 2520SOL     OW 8458   3.381   5.813   1.447
 2520SOL    HW1 8459   3.453   5.833   1.513
 2520SOL    HW2 8460   3.420   5.770   1.366
 2521SOL     OW 8461   5.702   6.376   5.815
 2521SOL    HW1 8462   5.644   6.314   5.764
 2521SOL    HW2 8463   5.716   6.460   5.763
 2522SOL     OW 8464   2.073   5.277   4.511
 2522SOL    HW1 8465   2.079   5.212   4.586
 2522SOL    HW2 8466   2.107   5.234   4.427
 2523SOL     OW 8467   1.298   1.993   5.225
 2523SOL    HW1 8468   1.221   2.030   5.172
 2523SOL    HW2 8469   1.278   2.000   5.323
 2524SOL     OW 8470   1.718   6.868   4.256
 2524SOL    HW1 8471   1.806   6.832   4.288
 2524SOL    HW2 8472   1.733   6.929   4.179
 2525SOL     OW 8473   2.591   4.594   2.516
 2525SOL    HW1 8474   2.634   4.619   2.430
 2525SOL    HW2 8475   2.528   4.518   2.501
 2526SOL     OW 8476   1.609   2.371   4.625
 2526SOL    HW1 8477   1.662   2.286   4.618
 2526SOL    HW2 8478   1.605   2.416   4.536
 2527SOL     OW 8479   6.601   0.086   4.150
 2527SOL    HW1 8480   6.548   0.115   4.070
 2527SOL    HW2 8481   6.611   0.163   4.213
 2528SOL     OW 8482   5.362   5.836   0.361
 2528SOL    HW1 8483   5.383   5.912   0.299
 2528SOL    HW2 8484   5.367   5.750   0.311
 2529SOL     OW 8485   4.889   4.087   5.372
 2529SOL    HW1 8486   4.868   4.176   5.331
 2529SOL    HW2 8487   4.821   4.020   5.342
 2530SOL     OW 8488   1.015   6.302   3.151
 2530SOL    HW1 8489   1.015   6.307   3.051
 2530SOL    HW2 8490   1.056   6.385   3.189
 2531SOL     OW 8491   5.167   1.436   6.656
 2531SOL    HW1 8492   5.245   1.432   6.717
 2531SOL    HW2 8493   5.171   1.519   6.600
 2532SOL     OW 8494   0.994   4.883   5.505
 2532SOL    HW1 8495   0.924   4.814   5.485
 2532SOL    HW2 8496   1.047   4.901   5.423
 2533SOL     OW 8497   5.837   0.237   5.449
 2533SOL    HW1 8498   5.856   0.290   5.531
 2533SOL    HW2 8499   5.883   0.148   5.455
 2534SOL     OW 8500   6.263   1.632   3.494
 2534SOL    HW1 8501   6.272   1.627   3.593
 2534SOL    HW2 8502   6.311   1.555   3.452
 2535SOL     OW 8503   2.859   1.456   2.236
 2535SOL    HW1 8504   2.880   1.409   2.321
 2535SOL    HW2 8505   2.937   1.449   2.173
 2536SOL     OW 8506   0.048   0.502   4.255
 2536SOL    HW1 8507   6.975   0.523   4.286
 2536SOL    HW2 8508   0.057   0.403   4.245
 2537SOL     OW 8509   3.468   6.376   2.435
 2537SOL    HW1 8510   3.473   6.291   2.487
 2537SOL    HW2 8511   3.372   6.399   2.417
 2538SOL     OW 8512   0.706   4.945   5.440
 2538SOL    HW1 8513   0.645   5.022   5.459
 2538SOL    HW2 8514   0.772   4.971   5.370
 2539SOL     OW 8515   2.072   0.510   5.614
 2539SOL    HW1 8516   2.165   0.486   5.586
 2539SOL    HW2 8517   2.053   0.471   5.704
 2540SOL     OW 8518   4.796   2.090   2.520
 2540SOL    HW1 8519   4.845   2.012   2.482
 2540SOL    HW2 8520   4.808   2.169   2.460
 2541SOL     OW 8521   1.050   1.408   6.373
 2541SOL    HW1 8522   1.147   1.423   6.356
 2541SOL    HW2 8523   1.023   1.319   6.335
 2542SOL     OW 8524   4.016   1.826   3.920
 2542SOL    HW1 8525   4.034   1.923   3.910
 2542SOL    HW2 8526   4.001   1.785   3.830
 2543SOL     OW 8527   6.023   0.662   5.201
 2543SOL    HW1 8528   6.027   0.617   5.291
 2543SOL    HW2 8529   5.994   0.596   5.132
 2544SOL     OW 8530   0.205   0.023   1.473
 2544SOL    HW1 8531   0.161   0.113   1.470
 2544SOL    HW2 8532   0.196   7.005   1.565
 2545SOL     OW 8533   6.884   1.604   0.435
 2545SOL    HW1 8534   6.795   1.575   0.468
 2545SOL    HW2 8535   6.913   1.545   0.360
 2546SOL     OW 8536   6.343   3.614   2.426
 2546SOL    HW1 8537   6.358   3.582   2.519
 2546SOL    HW2 8538   6.374   3.545   2.361
 2547SOL     OW 8539   5.653   3.478   1.047
 2547SOL    HW1 8540   5.637   3.429   0.961
 2547SOL    HW2 8541   5.678   3.573   1.027
 2548SOL     OW 8542   6.511   0.699   5.245
 2548SOL    HW1 8543   6.593   0.655   5.210
 2548SOL    HW2 8544   6.533   0.748   5.330
 2549SOL     OW 8545   2.577   5.214   0.580
 2549SOL    HW1 8546   2.654   5.161   0.616
 2549SOL    HW2 8547   2.499   5.153   0.567
 2550SOL     OW 8548   3.579   6.749   1.373
 2550SOL    HW1 8549   3.640   6.673   1.396
 2550SOL    HW2 8550   3.508   6.717   1.310
 2551SOL     OW 8551   3.360   4.687   1.427
 2551SOL    HW1 8552   3.458   4.668   1.424
 2551SOL    HW2 8553   3.344   4.782   1.400
 2552SOL     OW 8554   2.316   4.644   1.397
 2552SOL    HW1 8555   2.255   4.585   1.450
 2552SOL    HW2 8556   2.379   4.588   1.344
 2553SOL     OW 8557   5.259   1.342   0.090
 2553SOL    HW1 8558   5.191   1.400   0.136
 2553SOL    HW2 8559   5.349   1.360   0.129
 2554SOL     OW 8560   0.661   5.232   1.242
 2554SOL    HW1 8561   0.653   5.132   1.244
 2554SOL    HW2 8562   0.570   5.272   1.234
 2555SOL     OW 8563   0.738   6.827   5.036
 2555SOL    HW1 8564   0.731   6.854   4.940
 2555SOL    HW2 8565   0.685   6.891   5.092
 2556SOL     OW 8566   4.487   0.250   1.280
 2556SOL    HW1 8567   4.481   0.201   1.367
 2556SOL    HW2 8568   4.395   0.271   1.248
 2557SOL     OW 8569   2.458   1.074   6.944
 2557SOL    HW1 8570   2.458   1.112   0.016
 2557SOL    HW2 8571   2.434   1.145   6.878
 2558SOL     OW 8572   5.459   2.078   1.340
 2558SOL    HW1 8573   5.448   2.033   1.251
 2558SOL    HW2 8574   5.549   2.122   1.344
 2559SOL     OW 8575   6.121   5.114   3.639
 2559SOL    HW1 8576   6.089   5.097   3.546
 2559SOL    HW2 8577   6.185   5.191   3.638
 2560SOL     OW 8578   4.621   2.532   2.069
 2560SOL    HW1 8579   4.656   2.580   2.149
 2560SOL    HW2 8580   4.647   2.581   1.986
 2561SOL     OW 8581   3.517   0.014   4.847
 2561SOL    HW1 8582   3.460   0.036   4.927
 2561SOL    HW2 8583   3.459   7.004   4.772
 2562SOL     OW 8584   1.949   6.695   4.952
 2562SOL    HW1 8585   1.949   6.598   4.977
 2562SOL    HW2 8586   1.865   6.718   4.903
 2563SOL     OW 8587   4.026   2.529   6.345
 2563SOL    HW1 8588   4.036   2.597   6.272
 2563SOL    HW2 8589   3.960   2.459   6.317
 2564SOL     OW 8590   1.202   1.337   0.217
 2564SOL    HW1 8591   1.114   1.347   0.172
 2564SOL    HW2 8592   1.238   1.428   0.241
 2565SOL     OW 8593   0.648   0.969   0.861
 2565SOL    HW1 8594   0.602   1.042   0.812
 2565SOL    HW2 8595   0.713   0.924   0.801
 2566SOL     OW 8596   2.923   0.996   0.773
 2566SOL    HW1 8597   2.895   0.968   0.864
 2566SOL    HW2 8598   2.968   0.920   0.726
 2567SOL     OW 8599   1.906   0.806   6.417
 2567SOL    HW1 8600   1.960   0.801   6.333
 2567SOL    HW2 8601   1.854   0.721   6.427
 2568SOL     OW 8602   1.621   5.115   1.167
 2568SOL    HW1 8603   1.619   5.196   1.108
 2568SOL    HW2 8604   1.583   5.138   1.256
 2569SOL     OW 8605   1.853   6.450   6.686
 2569SOL    HW1 8606   1.871   6.539   6.727
 2569SOL    HW2 8607   1.824   6.462   6.591
 2570SOL     OW 8608   0.776   6.935   3.977
 2570SOL    HW1 8609   0.769   6.876   4.058
 2570SOL    HW2 8610   0.870   6.967   3.967
 2571SOL     OW 8611   3.883   3.568   2.977
 2571SOL    HW1 8612   3.939   3.553   2.895
 2571SOL    HW2 8613   3.789   3.584   2.949
 2572SOL     OW 8614   2.211   6.199   2.431
 2572SOL    HW1 8615   2.168   6.153   2.353
 2572SOL    HW2 8616   2.290   6.251   2.400
 2573SOL     OW 8617   0.042   1.127   3.285
 2573SOL    HW1 8618   0.027   1.102   3.190
 2573SOL    HW2 8619   0.087   1.052   3.333
 2574SOL     OW 8620   0.151   3.136   2.059
 2574SOL    HW1 8621   0.177   3.165   2.151
 2574SOL    HW2 8622   0.066   3.180   2.033
 2575SOL     OW 8623   4.487   3.896   5.432
 2575SOL    HW1 8624   4.494   3.992   5.404
 2575SOL    HW2 8625   4.446   3.890   5.523
 2576SOL     OW 8626   1.080   0.203   3.110
 2576SOL    HW1 8627   1.078   0.118   3.161
 2576SOL    HW2 8628   0.992   0.249   3.117
 2577SOL     OW 8629   1.400   4.454   1.638
 2577SOL    HW1 8630   1.466   4.433   1.710
 2577SOL    HW2 8631   1.310   4.469   1.678
 2578SOL     OW 8632   4.509   2.725   5.183
 2578SOL    HW1 8633   4.589   2.779   5.156
 2578SOL    HW2 8634   4.442   2.725   5.109
 2579SOL     OW 8635   0.191   1.174   6.709
 2579SOL    HW1 8636   0.150   1.264   6.701
 2579SOL    HW2 8637   0.273   1.179   6.766
 2580SOL     OW 8638   1.844   1.650   5.492
 2580SOL    HW1 8639   1.804   1.607   5.573
 2580SOL    HW2 8640   1.786   1.633   5.413
 2581SOL     OW 8641   6.036   6.208   4.574
 2581SOL    HW1 8642   5.983   6.215   4.489
 2581SOL    HW2 8643   5.990   6.260   4.646
 2582SOL     OW 8644   6.829   4.491   3.191
 2582SOL    HW1 8645   6.741   4.483   3.238
 2582SOL    HW2 8646   6.826   4.438   3.106
 2583SOL     OW 8647   2.788   1.067   0.278
 2583SOL    HW1 8648   2.707   1.124   0.259
 2583SOL    HW2 8649   2.843   1.060   0.195
 2584SOL     OW 8650   4.141   0.971   3.462
 2584SOL    HW1 8651   4.078   0.984   3.540
 2584SOL    HW2 8652   4.111   1.028   3.386
 2585SOL     OW 8653   3.938   0.613   1.915
 2585SOL    HW1 8654   3.875   0.629   1.991
 2585SOL    HW2 8655   3.943   0.515   1.896
 2586SOL     OW 8656   0.415   1.761   4.107
 2586SOL    HW1 8657   0.329   1.720   4.077
 2586SOL    HW2 8658   0.478   1.690   4.137
 2587SOL     OW 8659   6.939   5.107   3.016
 2587SOL    HW1 8660   6.869   5.052   3.060
 2587SOL    HW2 8661   6.963   5.184   3.074
 2588SOL     OW 8662   3.849   6.927   2.533
 2588SOL    HW1 8663   3.891   6.904   2.445
 2588SOL    HW2 8664   3.903   6.887   2.607
 2589SOL     OW 8665   4.478   6.203   1.505
 2589SOL    HW1 8666   4.542   6.144   1.456
 2589SOL    HW2 8667   4.527   6.256   1.573
 2590SOL     OW 8668   3.696   5.954   3.899
 2590SOL    HW1 8669   3.732   5.908   3.818
 2590SOL    HW2 8670   3.662   6.045   3.874
 2591SOL     OW 8671   6.080   0.459   0.400
 2591SOL    HW1 8672   6.175   0.453   0.431
 2591SOL    HW2 8673   6.049   0.368   0.371
 2592SOL     OW 8674   2.687   4.651   1.691
 2592SOL    HW1 8675   2.595   4.672   1.724
 2592SOL    HW2 8676   2.742   4.616   1.767
 2593SOL     OW 8677   3.240   6.999   3.425
 2593SOL    HW1 8678   3.285   6.923   3.472
 2593SOL    HW2 8679   3.248   0.061   3.480
 2594SOL     OW 8680   1.724   5.380   6.859
 2594SOL    HW1 8681   1.743   5.471   6.894
 2594SOL    HW2 8682   1.626   5.368   6.847
 2595SOL     OW 8683   7.011   3.064   4.538
 2595SOL    HW1 8684   6.928   3.010   4.531
 2595SOL    HW2 8685   0.066   3.007   4.570
 2596SOL     OW 8686   3.949   1.642   0.953
 2596SOL    HW1 8687   3.975   1.736   0.976
 2596SOL    HW2 8688   3.976   1.581   1.027
 2597SOL     OW 8689   2.111   2.535   6.003
 2597SOL    HW1 8690   2.103   2.439   6.030
 2597SOL    HW2 8691   2.101   2.542   5.904
 2598SOL     OW 8692   0.014   0.725   2.735
 2598SOL    HW1 8693   0.114   0.719   2.742
 2598SOL    HW2 8694   6.992   0.663   2.801
 2599SOL     OW 8695   4.953   5.659   6.317
 2599SOL    HW1 8696   4.890   5.704   6.380
 2599SOL    HW2 8697   5.026   5.614   6.369
 2600SOL     OW 8698   0.860   2.203   4.694
 2600SOL    HW1 8699   0.899   2.189   4.785
 2600SOL    HW2 8700   0.817   2.293   4.689
 2601SOL     OW 8701   4.228   3.695   5.220
 2601SOL    HW1 8702   4.318   3.679   5.261
 2601SOL    HW2 8703   4.230   3.669   5.124
 2602SOL     OW 8704   6.122   6.565   6.271
 2602SOL    HW1 8705   6.173   6.624   6.334
 2602SOL    HW2 8706   6.125   6.604   6.179
 2603SOL     OW 8707   1.311   2.001   6.449
 2603SOL    HW1 8708   1.351   1.979   6.360
 2603SOL    HW2 8709   1.218   1.964   6.453
 2604SOL     OW 8710   5.876   1.895   0.910
 2604SOL    HW1 8711   5.869   1.825   0.980
 2604SOL    HW2 8712   5.788   1.943   0.902
 2605SOL     OW 8713   6.052   3.027   4.588
 2605SOL    HW1 8714   6.126   3.087   4.558
 2605SOL    HW2 8715   6.088   2.935   4.604
 2606SOL     OW 8716   6.465   4.393   1.403
 2606SOL    HW1 8717   6.540   4.393   1.469
 2606SOL    HW2 8718   6.496   4.431   1.316
 2607SOL     OW 8719   0.924   1.354   4.221
 2607SOL    HW1 8720   0.908   1.411   4.140
 2607SOL    HW2 8721   0.998   1.289   4.202
 2608SOL     OW 8722   5.082   7.001   0.585
 2608SOL    HW1 8723   5.094   6.984   0.683
 2608SOL    HW2 8724   5.154   0.043   0.554
 2609SOL     OW 8725   0.713   3.005   3.060
 2609SOL    HW1 8726   0.639   3.072   3.068
 2609SOL    HW2 8727   0.800   3.049   3.084
 2610SOL     OW 8728   5.230   5.919   4.508
 2610SOL    HW1 8729   5.212   5.945   4.413
 2610SOL    HW2 8730   5.243   6.000   4.564
 2611SOL     OW 8731   2.701   5.603   2.156
 2611SOL    HW1 8732   2.764   5.646   2.091
 2611SOL    HW2 8733   2.618   5.574   2.109
 2612SOL     OW 8734   0.343   6.999   5.480
 2612SOL    HW1 8735   0.332   0.070   5.441
 2612SOL    HW2 8736   0.286   6.991   5.562
 2613SOL     OW 8737   3.778   1.171   0.585
 2613SOL    HW1 8738   3.785   1.261   0.544
 2613SOL    HW2 8739   3.809   1.174   0.679
 2614SOL     OW 8740   6.689   6.092   6.565
 2614SOL    HW1 8741   6.755   6.138   6.625
 2614SOL    HW2 8742   6.645   6.160   6.507
 2615SOL     OW 8743   5.791   4.092   1.616
 2615SOL    HW1 8744   5.885   4.106   1.650
 2615SOL    HW2 8745   5.728   4.089   1.694
 2616SOL     OW 8746   4.098   3.208   1.927
 2616SOL    HW1 8747   4.168   3.137   1.939
 2616SOL    HW2 8748   4.083   3.254   2.015
 2617SOL     OW 8749   2.231   6.505   1.010
 2617SOL    HW1 8750   2.219   6.460   1.098
 2617SOL    HW2 8751   2.219   6.437   0.937
 2618SOL     OW 8752   1.115   6.761   0.227
 2618SOL    HW1 8753   1.158   6.725   0.309
 2618SOL    HW2 8754   1.186   6.793   0.164
 2619SOL     OW 8755   6.163   1.295   1.437
 2619SOL    HW1 8756   6.146   1.384   1.394
 2619SOL    HW2 8757   6.262   1.278   1.439
 2620SOL     OW 8758   1.239   5.754   4.119
 2620SOL    HW1 8759   1.234   5.762   4.020
 2620SOL    HW2 8760   1.182   5.678   4.150
 2621SOL     OW 8761   0.803   5.410   4.373
 2621SOL    HW1 8762   0.743   5.442   4.299
 2621SOL    HW2 8763   0.873   5.479   4.392
 2622SOL     OW 8764   2.529   2.154   5.298
 2622SOL    HW1 8765   2.537   2.253   5.314
 2622SOL    HW2 8766   2.581   2.105   5.368
 2623SOL     OW 8767   3.397   0.277   6.318
 2623SOL    HW1 8768   3.467   0.227   6.267
 2623SOL    HW2 8769   3.418   0.275   6.416
 2624SOL     OW 8770   6.133   2.157   4.215
 2624SOL    HW1 8771   6.047   2.137   4.169
 2624SOL    HW2 8772   6.114   2.200   4.304
 2625SOL     OW 8773   3.273   0.200   6.000
 2625SOL    HW1 8774   3.205   0.179   5.929
 2625SOL    HW2 8775   3.238   0.272   6.059
 2626SOL     OW 8776   1.745   0.117   2.880
 2626SOL    HW1 8777   1.796   0.035   2.905
 2626SOL    HW2 8778   1.744   0.181   2.957
 2627SOL     OW 8779   0.831   0.160   5.105
 2627SOL    HW1 8780   0.927   0.151   5.134
 2627SOL    HW2 8781   0.776   0.091   5.152
 2628SOL     OW 8782   3.816   6.109   0.239
 2628SOL    HW1 8783   3.724   6.095   0.203
 2628SOL    HW2 8784   3.810   6.136   0.335
 2629SOL     OW 8785   2.928   3.778   1.896
 2629SOL    HW1 8786   2.988   3.849   1.932
 2629SOL    HW2 8787   2.903   3.715   1.970
 2630SOL     OW 8788   2.607   2.312   2.693
 2630SOL    HW1 8789   2.546   2.321   2.771
 2630SOL    HW2 8790   2.700   2.294   2.725
 2631SOL     OW 8791   4.060   5.851   4.515
 2631SOL    HW1 8792   4.098   5.937   4.481
 2631SOL    HW2 8793   4.124   5.776   4.498
 2632SOL     OW 8794   4.823   1.443   1.121
 2632SOL    HW1 8795   4.887   1.384   1.171
 2632SOL    HW2 8796   4.768   1.387   1.059
 2633SOL     OW 8797   6.815   2.685   6.727
 2633SOL    HW1 8798   6.872   2.629   6.666
 2633SOL    HW2 8799   6.827   2.782   6.704
 2634SOL     OW 8800   3.328   4.892   0.862
 2634SOL    HW1 8801   3.331   4.925   0.957
 2634SOL    HW2 8802   3.383   4.952   0.804
 2635SOL     OW 8803   6.111   4.825   3.387
 2635SOL    HW1 8804   6.131   4.821   3.485
 2635SOL    HW2 8805   6.096   4.919   3.359
 2636SOL     OW 8806   5.943   5.938   5.404
 2636SOL    HW1 8807   6.039   5.925   5.429
 2636SOL    HW2 8808   5.912   5.861   5.349
 2637SOL     OW 8809   5.181   6.597   2.489
 2637SOL    HW1 8810   5.222   6.544   2.563
 2637SOL    HW2 8811   5.081   6.589   2.492
 2638SOL     OW 8812   4.830   5.869   1.002
 2638SOL    HW1 8813   4.754   5.887   0.940
 2638SOL    HW2 8814   4.914   5.909   0.966
 2639SOL     OW 8815   7.002   6.173   6.572
 2639SOL    HW1 8816   7.017   6.087   6.522
 2639SOL    HW2 8817   0.032   6.170   6.659
 2640SOL     OW 8818   6.466   7.011   6.271
 2640SOL    HW1 8819   6.453   0.088   6.287
 2640SOL    HW2 8820   6.564   6.990   6.273
 2641SOL     OW 8821   6.499   5.939   0.295
 2641SOL    HW1 8822   6.464   5.893   0.214
 2641SOL    HW2 8823   6.516   5.872   0.367
 2642SOL     OW 8824   6.458   0.797   3.884
 2642SOL    HW1 8825   6.468   0.699   3.903
 2642SOL    HW2 8826   6.384   0.834   3.939
 2643SOL     OW 8827   2.258   0.458   2.142
 2643SOL    HW1 8828   2.201   0.381   2.113
 2643SOL    HW2 8829   2.258   0.528   2.071
 2644SOL     OW 8830   0.003   5.683   5.157
 2644SOL    HW1 8831   0.004   5.620   5.079
 2644SOL    HW2 8832   6.954   5.654   5.223
 2645SOL     OW 8833   5.817   5.935   6.286
 2645SOL    HW1 8834   5.822   5.944   6.385
 2645SOL    HW2 8835   5.868   5.854   6.257
 2646SOL     OW 8836   6.010   5.981   6.896
 2646SOL    HW1 8837   6.012   5.960   6.994
 2646SOL    HW2 8838   6.097   5.956   6.855
 2647SOL     OW 8839   3.094   3.333   0.004
 2647SOL    HW1 8840   3.049   3.360   6.939
 2647SOL    HW2 8841   3.188   3.305   7.005
 2648SOL     OW 8842   3.923   1.430   3.894
 2648SOL    HW1 8843   3.994   1.359   3.892
 2648SOL    HW2 8844   3.948   1.499   3.962
 2649SOL     OW 8845   2.761   3.547   5.273
 2649SOL    HW1 8846   2.799   3.637   5.292
 2649SOL    HW2 8847   2.812   3.504   5.199
 2650SOL     OW 8848   0.212   6.806   2.951
 2650SOL    HW1 8849   0.262   6.857   2.881
 2650SOL    HW2 8850   0.273   6.738   2.992
 2651SOL     OW 8851   0.890   0.455   3.320
 2651SOL    HW1 8852   0.959   0.492   3.257
 2651SOL    HW2 8853   0.933   0.387   3.380
 2652SOL     OW 8854   2.960   3.325   2.691
 2652SOL    HW1 8855   3.047   3.285   2.722
 2652SOL    HW2 8856   2.934   3.285   2.603
 2653SOL     OW 8857   6.821   6.365   0.295
 2653SOL    HW1 8858   6.883   6.324   0.362
 2653SOL    HW2 8859   6.737   6.312   0.291
 2654SOL     OW 8860   6.724   1.707   5.917
 2654SOL    HW1 8861   6.734   1.742   5.824
 2654SOL    HW2 8862   6.665   1.769   5.970
 2655SOL     OW 8863   5.271   5.214   4.910
 2655SOL    HW1 8864   5.236   5.300   4.946
 2655SOL    HW2 8865   5.371   5.213   4.915
 2656SOL     OW 8866   5.757   3.489   5.316
 2656SOL    HW1 8867   5.714   3.416   5.262
 2656SOL    HW2 8868   5.828   3.449   5.374
 2657SOL     OW 8869   3.582   1.899   6.071
 2657SOL    HW1 8870   3.503   1.864   6.122
 2657SOL    HW2 8871   3.648   1.826   6.057
 2658SOL     OW 8872   6.301   4.129   5.360
 2658SOL    HW1 8873   6.230   4.190   5.324
 2658SOL    HW2 8874   6.391   4.170   5.346
 2659SOL     OW 8875   6.457   1.444   3.874
 2659SOL    HW1 8876   6.401   1.404   3.947
 2659SOL    HW2 8877   6.552   1.452   3.904
 2660SOL     OW 8878   0.114   2.353   3.117
 2660SOL    HW1 8879   0.122   2.452   3.133
 2660SOL    HW2 8880   0.047   2.337   3.046
 2661SOL     OW 8881   3.635   6.972   2.865
 2661SOL    HW1 8882   3.633   6.944   2.769
 2661SOL    HW2 8883   3.635   0.052   2.870
 2662SOL     OW 8884   3.397   1.187   3.921
 2662SOL    HW1 8885   3.443   1.131   3.851
 2662SOL    HW2 8886   3.466   1.238   3.973
 2663SOL     OW 8887   0.430   4.523   2.883
 2663SOL    HW1 8888   0.507   4.569   2.929
 2663SOL    HW2 8889   0.462   4.436   2.846
 2664SOL     OW 8890   4.220   3.912   1.695
 2664SOL    HW1 8891   4.214   3.884   1.599
 2664SOL    HW2 8892   4.251   4.007   1.699
 2665SOL     OW 8893   4.326   0.111   4.933
 2665SOL    HW1 8894   4.379   0.095   5.016
 2665SOL    HW2 8895   4.340   0.205   4.902
 2666SOL     OW 8896   5.016   6.228   1.801
 2666SOL    HW1 8897   5.029   6.131   1.783
 2666SOL    HW2 8898   4.961   6.240   1.884
 2667SOL     OW 8899   1.986   5.285   2.866
 2667SOL    HW1 8900   1.996   5.383   2.846
 2667SOL    HW2 8901   1.936   5.241   2.793
 2668SOL     OW 8902   6.298   2.266   5.622
 2668SOL    HW1 8903   6.262   2.328   5.552
 2668SOL    HW2 8904   6.398   2.268   5.621
 2669SOL     OW 8905   4.245   5.474   5.430
 2669SOL    HW1 8906   4.303   5.538   5.479
 2669SOL    HW2 8907   4.177   5.524   5.377
 2670SOL     OW 8908   2.770   6.738   4.388
 2670SOL    HW1 8909   2.778   6.670   4.314
 2670SOL    HW2 8910   2.771   6.830   4.349
 2671SOL     OW 8911   3.340   4.144   6.410
 2671SOL    HW1 8912   3.426   4.191   6.432
 2671SOL    HW2 8913   3.267   4.179   6.469
 2672SOL     OW 8914   1.017   4.357   6.912
 2672SOL    HW1 8915   0.975   4.401   6.832
 2672SOL    HW2 8916   1.113   4.337   6.891
 2673SOL     OW 8917   3.894   2.174   3.574
 2673SOL    HW1 8918   3.975   2.136   3.528
 2673SOL    HW2 8919   3.922   2.231   3.650
 2674SOL     OW 8920   6.556   5.635   5.319
 2674SOL    HW1 8921   6.571   5.548   5.272
 2674SOL    HW2 8922   6.475   5.680   5.282
 2675SOL     OW 8923   0.476   4.406   5.395
 2675SOL    HW1 8924   0.528   4.356   5.464
 2675SOL    HW2 8925   0.435   4.487   5.437
 2676SOL     OW 8926   4.571   0.137   1.911
 2676SOL    HW1 8927   4.535   0.069   1.975
 2676SOL    HW2 8928   4.497   0.196   1.880
 2677SOL     OW 8929   2.473   4.500   2.256
 2677SOL    HW1 8930   2.408   4.547   2.197
 2677SOL    HW2 8931   2.565   4.533   2.238
 2678SOL     OW 8932   6.839   6.382   6.176
 2678SOL    HW1 8933   6.753   6.412   6.135
 2678SOL    HW2 8934   6.845   6.418   6.270
 2679SOL     OW 8935   2.690   5.231   1.635
 2679SOL    HW1 8936   2.662   5.189   1.548
 2679SOL    HW2 8937   2.613   5.283   1.672
 2680SOL     OW 8938   1.427   2.411   1.461
 2680SOL    HW1 8939   1.431   2.486   1.527
 2680SOL    HW2 8940   1.338   2.412   1.415
 2681SOL     OW 8941   1.779   1.841   2.116
 2681SOL    HW1 8942   1.848   1.851   2.188
 2681SOL    HW2 8943   1.810   1.886   2.033
 2682SOL     OW 8944   6.374   2.862   4.166
 2682SOL    HW1 8945   6.406   2.828   4.077
 2682SOL    HW2 8946   6.443   2.843   4.235
 2683SOL     OW 8947   1.409   0.052   0.141
 2683SOL    HW1 8948   1.407   0.100   0.053
 2683SOL    HW2 8949   1.375   6.979   0.130
 2684SOL     OW 8950   2.600   5.613   2.664
 2684SOL    HW1 8951   2.580   5.620   2.566
 2684SOL    HW2 8952   2.556   5.689   2.712
 2685SOL     OW 8953   5.326   5.835   5.439
 2685SOL    HW1 8954   5.344   5.923   5.483
 2685SOL    HW2 8955   5.407   5.805   5.389
 2686SOL     OW 8956   1.393   2.940   4.537
 2686SOL    HW1 8957   1.403   3.029   4.582
 2686SOL    HW2 8958   1.296   2.918   4.529
 2687SOL     OW 8959   4.805   4.554   3.407
 2687SOL    HW1 8960   4.783   4.457   3.415
 2687SOL    HW2 8961   4.759   4.606   3.479
 2688SOL     OW 8962   3.849   4.784   5.856
 2688SOL    HW1 8963   3.873   4.826   5.769
 2688SOL    HW2 8964   3.932   4.758   5.905
 2689SOL     OW 8965   6.573   3.106   4.515
 2689SOL    HW1 8966   6.586   3.156   4.600
 2689SOL    HW2 8967   6.614   3.157   4.439
 2690SOL     OW 8968   2.937   3.316   3.348
 2690SOL    HW1 8969   2.889   3.337   3.433
 2690SOL    HW2 8970   2.989   3.396   3.318
 2691SOL     OW 8971   1.246   6.404   1.863
 2691SOL    HW1 8972   1.225   6.488   1.813
 2691SOL    HW2 8973   1.291   6.339   1.802
 2692SOL     OW 8974   7.015   5.370   3.101
 2692SOL    HW1 8975   6.942   5.437   3.095
 2692SOL    HW2 8976   0.066   5.403   3.162
 2693SOL     OW 8977   1.643   3.694   2.859
 2693SOL    HW1 8978   1.612   3.606   2.893
 2693SOL    HW2 8979   1.720   3.681   2.796
 2694SOL     OW 8980   2.020   1.524   2.792
 2694SOL    HW1 8981   2.021   1.540   2.890
 2694SOL    HW2 8982   2.111   1.543   2.754
 2695SOL     OW 8983   4.065   2.128   2.980
 2695SOL    HW1 8984   3.984   2.076   3.006
 2695SOL    HW2 8985   4.062   2.149   2.882
 2696SOL     OW 8986   4.091   3.936   5.238
 2696SOL    HW1 8987   4.151   3.859   5.213
 2696SOL    HW2 8988   4.035   3.910   5.316
 2697SOL     OW 8989   2.695   1.209   5.025
 2697SOL    HW1 8990   2.683   1.308   5.036
 2697SOL    HW2 8991   2.608   1.163   5.038
 2698SOL     OW 8992   2.072   2.808   6.405
 2698SOL    HW1 8993   2.158   2.829   6.359
 2698SOL    HW2 8994   2.010   2.763   6.342
 2699SOL     OW 8995   1.948   6.026   2.731
 2699SOL    HW1 8996   2.039   6.064   2.746
 2699SOL    HW2 8997   1.880   6.099   2.733
 2700SOL     OW 8998   1.736   4.590   3.162
 2700SOL    HW1 8999   1.786   4.514   3.203
 2700SOL    HW2 9000   1.718   4.570   3.066
 2701SOL     OW 9001   3.536   0.449   5.766
 2701SOL    HW1 9002   3.496   0.368   5.724
 2701SOL    HW2 9003   3.595   0.496   5.699
 2702SOL     OW 9004   0.044   6.184   2.786
 2702SOL    HW1 9005   0.120   6.120   2.779
 2702SOL    HW2 9006   0.013   6.190   2.881
 2703SOL     OW 9007   1.579   2.073   3.342
 2703SOL    HW1 9008   1.533   2.017   3.273
 2703SOL    HW2 9009   1.665   2.109   3.303
 2704SOL     OW 9010   1.471   6.118   0.724
 2704SOL    HW1 9011   1.437   6.145   0.814
 2704SOL    HW2 9012   1.402   6.138   0.655
 2705SOL     OW 9013   0.565   4.284   2.782
 2705SOL    HW1 9014   0.514   4.328   2.708
 2705SOL    HW2 9015   0.562   4.185   2.770
 2706SOL     OW 9016   6.334   2.295   3.201
 2706SOL    HW1 9017   6.318   2.271   3.105
 2706SOL    HW2 9018   6.345   2.212   3.256
 2707SOL     OW 9019   2.891   1.134   6.194
 2707SOL    HW1 9020   2.950   1.057   6.168
 2707SOL    HW2 9021   2.886   1.199   6.119
 2708SOL     OW 9022   1.346   4.523   0.684
 2708SOL    HW1 9023   1.356   4.432   0.644
 2708SOL    HW2 9024   1.393   4.590   0.627
 2709SOL     OW 9025   4.438   6.675   1.568
 2709SOL    HW1 9026   4.421   6.658   1.664
 2709SOL    HW2 9027   4.351   6.688   1.520
 2710SOL     OW 9028   6.538   3.835   2.686
 2710SOL    HW1 9029   6.637   3.828   2.695
 2710SOL    HW2 9030   6.513   3.842   2.589
 2711SOL     OW 9031   1.204   7.016   2.199
 2711SOL    HW1 9032   1.187   0.070   2.134
 2711SOL    HW2 9033   1.160   0.017   2.286
 2712SOL     OW 9034   3.687   5.199   2.517
 2712SOL    HW1 9035   3.604   5.175   2.467
 2712SOL    HW2 9036   3.730   5.278   2.472
 2713SOL     OW 9037   2.085   2.508   5.218
 2713SOL    HW1 9038   2.094   2.574   5.144
 2713SOL    HW2 9039   2.170   2.505   5.271
 2714SOL     OW 9040   5.499   6.729   6.062
 2714SOL    HW1 9041   5.565   6.804   6.058
 2714SOL    HW2 9042   5.525   6.666   6.135
 2715SOL     OW 9043   6.060   0.355   6.952
 2715SOL    HW1 9044   6.010   0.437   6.977
 2715SOL    HW2 9045   5.996   0.286   6.918
 2716SOL     OW 9046   6.774   6.585   2.727
 2716SOL    HW1 9047   6.733   6.674   2.708
 2716SOL    HW2 9048   6.869   6.597   2.758
 2717SOL     OW 9049   0.767   0.089   2.996
 2717SOL    HW1 9050   0.848   0.063   2.945
 2717SOL    HW2 9051   0.791   0.157   3.066
 2718SOL     OW 9052   0.603   4.124   3.548
 2718SOL    HW1 9053   0.628   4.081   3.461
 2718SOL    HW2 9054   0.607   4.224   3.538
 2719SOL     OW 9055   4.446   4.828   2.851
 2719SOL    HW1 9056   4.421   4.903   2.914
 2719SOL    HW2 9057   4.535   4.847   2.810
 2720SOL     OW 9058   0.869   6.260   3.871
 2720SOL    HW1 9059   0.833   6.306   3.789
 2720SOL    HW2 9060   0.939   6.194   3.844
 2721SOL     OW 9061   4.864   6.385   3.951
 2721SOL    HW1 9062   4.946   6.394   4.007
 2721SOL    HW2 9063   4.843   6.287   3.939
 2722SOL     OW 9064   1.480   6.148   1.404
 2722SOL    HW1 9065   1.480   6.072   1.469
 2722SOL    HW2 9066   1.558   6.208   1.422
 2723SOL     OW 9067   1.912   1.817   4.735
 2723SOL    HW1 9068   1.870   1.727   4.748
 2723SOL    HW2 9069   2.011   1.806   4.720
 2724SOL     OW 9070   3.871   6.170   6.011
 2724SOL    HW1 9071   3.948   6.222   6.048
 2724SOL    HW2 9072   3.837   6.107   6.080
 2725SOL     OW 9073   3.026   5.011   3.864
 2725SOL    HW1 9074   2.979   5.040   3.947
 2725SOL    HW2 9075   3.122   5.040   3.867
 2726SOL     OW 9076   4.722   6.845   2.380
 2726SOL    HW1 9077   4.801   6.817   2.325
 2726SOL    HW2 9078   4.738   6.822   2.476
 2727SOL     OW 9079   2.245   5.911   3.437
 2727SOL    HW1 9080   2.246   5.826   3.384
 2727SOL    HW2 9081   2.156   5.921   3.482
 2728SOL     OW 9082   3.543   6.915   5.251
 2728SOL    HW1 9083   3.568   6.818   5.253
 2728SOL    HW2 9084   3.616   6.967   5.205
 2729SOL     OW 9085   6.782   4.747   2.811
 2729SOL    HW1 9086   6.823   4.656   2.813
 2729SOL    HW2 9087   6.761   4.776   2.904
 2730SOL     OW 9088   1.135   4.523   1.766
 2730SOL    HW1 9089   1.113   4.617   1.794
 2730SOL    HW2 9090   1.051   4.478   1.735
 2731SOL     OW 9091   2.961   3.842   0.817
 2731SOL    HW1 9092   2.882   3.848   0.879
 2731SOL    HW2 9093   3.038   3.801   0.866
 2732SOL     OW 9094   5.169   3.306   4.787
 2732SOL    HW1 9095   5.093   3.258   4.743
 2732SOL    HW2 9096   5.136   3.392   4.827
 2733SOL     OW 9097   2.415   0.508   6.112
 2733SOL    HW1 9098   2.504   0.490   6.070
 2733SOL    HW2 9099   2.429   0.541   6.206
 2734SOL     OW 9100   2.588   0.281   3.989
 2734SOL    HW1 9101   2.522   0.210   4.015
 2734SOL    HW2 9102   2.669   0.238   3.949
 2735SOL     OW 9103   1.507   5.207   1.387
 2735SOL    HW1 9104   1.554   5.280   1.436
 2735SOL    HW2 9105   1.433   5.246   1.332
 2736SOL     OW 9106   3.569   6.970   6.501
 2736SOL    HW1 9107   3.513   6.912   6.442
 2736SOL    HW2 9108   3.515   6.997   6.581
 2737SOL     OW 9109   4.358   3.119   5.617
 2737SOL    HW1 9110   4.375   3.187   5.546
 2737SOL    HW2 9111   4.279   3.063   5.592
 2738SOL     OW 9112   5.804   4.130   4.325
 2738SOL    HW1 9113   5.849   4.056   4.374
 2738SOL    HW2 9114   5.828   4.126   4.228
 2739SOL     OW 9115   4.738   4.338   0.468
 2739SOL    HW1 9116   4.715   4.399   0.392
 2739SOL    HW2 9117   4.823   4.370   0.511
 2740SOL     OW 9118   6.153   2.546   3.804
 2740SOL    HW1 9119   6.171   2.569   3.708
 2740SOL    HW2 9120   6.100   2.620   3.846
 2741SOL     OW 9121   2.051   3.423   4.663
 2741SOL    HW1 9122   2.108   3.421   4.745
 2741SOL    HW2 9123   1.954   3.421   4.690
 2742SOL     OW 9124   2.519   6.170   5.690
 2742SOL    HW1 9125   2.551   6.136   5.601
 2742SOL    HW2 9126   2.597   6.174   5.753
 2743SOL     OW 9127   6.278   4.512   0.228
 2743SOL    HW1 9128   6.285   4.431   0.287
 2743SOL    HW2 9129   6.260   4.593   0.284
 2744SOL     OW 9130   4.476   0.374   0.789
 2744SOL    HW1 9131   4.521   0.421   0.713
 2744SOL    HW2 9132   4.508   0.412   0.876
 2745SOL     OW 9133   2.327   5.732   1.591
 2745SOL    HW1 9134   2.295   5.662   1.527
 2745SOL    HW2 9135   2.358   5.812   1.541
 2746SOL     OW 9136   1.019   2.067   6.107
 2746SOL    HW1 9137   1.093   2.097   6.167
 2746SOL    HW2 9138   0.938   2.045   6.162
 2747SOL     OW 9139   5.585   5.770   3.482
 2747SOL    HW1 9140   5.603   5.732   3.391
 2747SOL    HW2 9141   5.664   5.823   3.512
 2748SOL     OW 9142   4.880   0.508   4.577
 2748SOL    HW1 9143   4.902   0.533   4.483
 2748SOL    HW2 9144   4.953   0.537   4.638
 2749SOL     OW 9145   4.887   4.391   3.692
 2749SOL    HW1 9146   4.863   4.362   3.785
 2749SOL    HW2 9147   4.952   4.326   3.652
 2750SOL     OW 9148   0.464   6.577   0.271
 2750SOL    HW1 9149   0.430   6.646   0.208
 2750SOL    HW2 9150   0.527   6.515   0.224
 2751SOL     OW 9151   1.616   0.284   6.688
 2751SOL    HW1 9152   1.559   0.215   6.732
 2751SOL    HW2 9153   1.705   0.289   6.733
 2752SOL     OW 9154   0.060   6.546   5.889
 2752SOL    HW1 9155   0.080   6.476   5.957
 2752SOL    HW2 9156   0.069   6.637   5.931
 2753SOL     OW 9157   3.517   5.345   5.363
 2753SOL    HW1 9158   3.542   5.250   5.383
 2753SOL    HW2 9159   3.419   5.357   5.380
 2754SOL     OW 9160   1.025   6.053   4.276
 2754SOL    HW1 9161   0.992   6.141   4.243
 2754SOL    HW2 9162   1.120   6.063   4.305
 2755SOL     OW 9163   4.649   5.710   2.487
 2755SOL    HW1 9164   4.698   5.793   2.513
 2755SOL    HW2 9165   4.552   5.731   2.476
 2756SOL     OW 9166   0.405   2.846   5.398
 2756SOL    HW1 9167   0.331   2.834   5.331
 2756SOL    HW2 9168   0.440   2.939   5.391
 2757SOL     OW 9169   5.047   4.060   6.341
 2757SOL    HW1 9170   5.040   4.135   6.407
 2757SOL    HW2 9171   4.990   3.983   6.372
 2758SOL     OW 9172   6.852   6.849   1.820
 2758SOL    HW1 9173   6.910   6.790   1.763
 2758SOL    HW2 9174   6.876   6.837   1.916
 2759SOL     OW 9175   3.271   3.499   5.119
 2759SOL    HW1 9176   3.261   3.399   5.118
 2759SOL    HW2 9177   3.274   3.533   5.026
 2760SOL     OW 9178   5.743   5.556   2.768
 2760SOL    HW1 9179   5.679   5.506   2.710
 2760SOL    HW2 9180   5.693   5.627   2.819
 2761SOL     OW 9181   1.488   3.272   3.951
 2761SOL    HW1 9182   1.509   3.183   3.909
 2761SOL    HW2 9183   1.556   3.339   3.923
 2762SOL     OW 9184   4.151   1.451   1.305
 2762SOL    HW1 9185   4.226   1.410   1.254
 2762SOL    HW2 9186   4.134   1.399   1.389
 2763SOL     OW 9187   5.839   1.355   3.718
 2763SOL    HW1 9188   5.815   1.344   3.814
 2763SOL    HW2 9189   5.760   1.390   3.668
 2764SOL     OW 9190   0.233   2.862   3.434
 2764SOL    HW1 9191   0.307   2.799   3.411
 2764SOL    HW2 9192   0.196   2.901   3.350
 2765SOL     OW 9193   6.587   6.431   5.598
 2765SOL    HW1 9194   6.487   6.429   5.599
 2765SOL    HW2 9195   6.620   6.496   5.666
 2766SOL     OW 9196   4.488   0.172   0.421
 2766SOL    HW1 9197   4.552   0.167   0.344
 2766SOL    HW2 9198   4.398   0.200   0.388
 2767SOL     OW 9199   0.403   5.534   6.077
 2767SOL    HW1 9200   0.352   5.449   6.092
 2767SOL    HW2 9201   0.387   5.566   5.984
 2768SOL     OW 9202   3.354   6.185   1.820
 2768SOL    HW1 9203   3.428   6.181   1.752
 2768SOL    HW2 9204   3.394   6.189   1.912
 2769SOL     OW 9205   0.656   4.640   5.607
 2769SOL    HW1 9206   0.709   4.715   5.647
 2769SOL    HW2 9207   0.667   4.642   5.507
 2770SOL     OW 9208   2.057   6.992   0.593
 2770SOL    HW1 9209   1.978   0.032   0.608
 2770SOL    HW2 9210   2.123   7.005   0.666
 2771SOL     OW 9211   4.397   6.612   5.374
 2771SOL    HW1 9212   4.482   6.572   5.408
 2771SOL    HW2 9213   4.395   6.710   5.397
 2772SOL     OW 9214   5.050   1.685   3.478
 2772SOL    HW1 9215   5.000   1.753   3.424
 2772SOL    HW2 9216   4.986   1.618   3.515
 2773SOL     OW 9217   5.635   2.253   6.166
 2773SOL    HW1 9218   5.622   2.246   6.264
 2773SOL    HW2 9219   5.547   2.243   6.119
 2774SOL     OW 9220   6.489   0.525   3.893
 2774SOL    HW1 9221   6.452   0.432   3.889
 2774SOL    HW2 9222   6.589   0.521   3.894
 2775SOL     OW 9223   0.426   2.459   4.664
 2775SOL    HW1 9224   0.384   2.517   4.594
 2775SOL    HW2 9225   0.402   2.494   4.755
 2776SOL     OW 9226   4.674   4.389   6.250
 2776SOL    HW1 9227   4.616   4.400   6.330
 2776SOL    HW2 9228   4.770   4.397   6.276
 2777SOL     OW 9229   2.217   2.356   0.031
 2777SOL    HW1 9230   2.265   2.383   0.115
 2777SOL    HW2 9231   2.156   2.429   0.002
 2778SOL     OW 9232   3.521   0.317   6.002
 2778SOL    HW1 9233   3.501   0.363   5.915
 2778SOL    HW2 9234   3.449   0.250   6.022
 2779SOL     OW 9235   5.264   0.964   2.371
 2779SOL    HW1 9236   5.303   1.054   2.351
 2779SOL    HW2 9237   5.324   0.915   2.434
 2780SOL     OW 9238   6.975   1.234   4.912
 2780SOL    HW1 9239   6.910   1.185   4.856
 2780SOL    HW2 9240   0.048   1.221   4.876
 2781SOL     OW 9241   0.109   0.471   3.105
 2781SOL    HW1 9242   0.201   0.504   3.086
 2781SOL    HW2 9243   0.042   0.525   3.054
 2782SOL     OW 9244   5.535   0.051   5.500
 2782SOL    HW1 9245   5.483   7.005   5.553
 2782SOL    HW2 9246   5.631   0.023   5.496
 2783SOL     OW 9247   5.640   2.786   1.361
 2783SOL    HW1 9248   5.681   2.739   1.439
 2783SOL    HW2 9249   5.613   2.878   1.388
 2784SOL     OW 9250   0.038   2.873   1.669
 2784SOL    HW1 9251   7.015   2.810   1.605
 2784SOL    HW2 9252   7.017   2.964   1.660
 2785SOL     OW 9253   4.988   3.751   3.066
 2785SOL    HW1 9254   5.056   3.735   2.995
 2785SOL    HW2 9255   4.922   3.675   3.067
 2786SOL     OW 9256   0.632   5.875   0.571
 2786SOL    HW1 9257   0.595   5.783   0.557
 2786SOL    HW2 9258   0.565   5.943   0.541
 2787SOL     OW 9259   0.600   6.025   5.568
 2787SOL    HW1 9260   0.521   5.994   5.622
 2787SOL    HW2 9261   0.650   6.094   5.619
 2788SOL     OW 9262   2.965   6.658   0.525
 2788SOL    HW1 9263   2.996   6.743   0.482
 2788SOL    HW2 9264   2.970   6.584   0.459
 2789SOL     OW 9265   1.916   2.084   4.048
 2789SOL    HW1 9266   1.826   2.119   4.071
 2789SOL    HW2 9267   1.983   2.159   4.051
 2790SOL     OW 9268   0.200   5.287   1.675
 2790SOL    HW1 9269   0.132   5.329   1.735
 2790SOL    HW2 9270   0.286   5.338   1.682
 2791SOL     OW 9271   0.750   3.397   4.639
 2791SOL    HW1 9272   0.717   3.469   4.699
 2791SOL    HW2 9273   0.749   3.430   4.545
 2792SOL     OW 9274   2.918   1.696   6.080
 2792SOL    HW1 9275   2.991   1.707   6.147
 2792SOL    HW2 9276   2.957   1.662   5.994
 2793SOL     OW 9277   3.898   3.559   6.520
 2793SOL    HW1 9278   3.886   3.639   6.460
 2793SOL    HW2 9279   3.961   3.495   6.479
 2794SOL     OW 9280   1.996   2.142   0.039
 2794SOL    HW1 9281   2.010   2.142   0.138
 2794SOL    HW2 9282   2.063   2.202   7.016
 2795SOL     OW 9283   1.516   6.701   0.864
 2795SOL    HW1 9284   1.441   6.635   0.855
 2795SOL    HW2 9285   1.480   6.790   0.891
 2796SOL     OW 9286   2.536   6.039   6.801
 2796SOL    HW1 9287   2.577   5.948   6.810
 2796SOL    HW2 9288   2.605   6.109   6.819
 2797SOL     OW 9289   5.077   3.683   3.945
 2797SOL    HW1 9290   5.161   3.629   3.960
 2797SOL    HW2 9291   5.037   3.706   4.034
 2798SOL     OW 9292   5.048   2.176   2.068
 2798SOL    HW1 9293   5.143   2.165   2.037
 2798SOL    HW2 9294   5.012   2.088   2.098
 2799SOL     OW 9295   3.526   6.229   5.407
 2799SOL    HW1 9296   3.562   6.220   5.314
 2799SOL    HW2 9297   3.463   6.306   5.412
 2800SOL     OW 9298   4.790   0.840   6.704
 2800SOL    HW1 9299   4.821   0.811   6.794
 2800SOL    HW2 9300   4.807   0.938   6.693
 2801SOL     OW 9301   0.427   4.613   3.848
 2801SOL    HW1 9302   0.352   4.551   3.825
 2801SOL    HW2 9303   0.416   4.699   3.800
 2802SOL     OW 9304   1.247   5.229   4.774
 2802SOL    HW1 9305   1.269   5.275   4.687
 2802SOL    HW2 9306   1.258   5.131   4.763
 2803SOL     OW 9307   3.555   2.535   6.357
 2803SOL    HW1 9308   3.573   2.555   6.261
 2803SOL    HW2 9309   3.642   2.522   6.405
 2804SOL     OW 9310   6.366   2.770   3.636
 2804SOL    HW1 9311   6.458   2.768   3.596
 2804SOL    HW2 9312   6.302   2.811   3.570
 2805SOL     OW 9313   4.318   4.351   0.561
 2805SOL    HW1 9314   4.366   4.423   0.612
 2805SOL    HW2 9315   4.373   4.268   0.561
 2806SOL     OW 9316   0.362   3.295   5.177
 2806SOL    HW1 9317   0.298   3.231   5.219
 2806SOL    HW2 9318   0.450   3.291   5.224
 2807SOL     OW 9319   4.593   1.474   3.723
 2807SOL    HW1 9320   4.681   1.430   3.740
 2807SOL    HW2 9321   4.521   1.404   3.720
 2808SOL     OW 9322   1.463   6.053   5.709
 2808SOL    HW1 9323   1.377   6.025   5.752
 2808SOL    HW2 9324   1.463   6.022   5.613
 2809SOL     OW 9325   0.671   5.644   1.270
 2809SOL    HW1 9326   0.689   5.571   1.205
 2809SOL    HW2 9327   0.715   5.728   1.239
 2810SOL     OW 9328   0.586   6.237   2.980
 2810SOL    HW1 9329   0.659   6.178   2.945
 2810SOL    HW2 9330   0.513   6.245   2.912
 2811SOL     OW 9331   0.472   1.136   0.276
 2811SOL    HW1 9332   0.459   1.228   0.313
 2811SOL    HW2 9333   0.544   1.138   0.207
 2812SOL     OW 9334   1.590   1.374   1.172
 2812SOL    HW1 9335   1.565   1.369   1.268
 2812SOL    HW2 9336   1.669   1.433   1.160
 2813SOL     OW 9337   6.932   2.334   0.590
 2813SOL    HW1 9338   6.920   2.314   0.687
 2813SOL    HW2 9339   0.006   2.313   0.563
 2814SOL     OW 9340   2.707   4.169   6.424
 2814SOL    HW1 9341   2.801   4.174   6.392
 2814SOL    HW2 9342   2.645   4.183   6.346
 2815SOL     OW 9343   0.068   5.386   4.716
 2815SOL    HW1 9344   7.018   5.345   4.658
 2815SOL    HW2 9345   0.125   5.314   4.755
 2816SOL     OW 9346   1.203   5.083   5.079
 2816SOL    HW1 9347   1.162   5.091   4.988
 2816SOL    HW2 9348   1.302   5.073   5.070
 2817SOL     OW 9349   2.899   0.804   2.370
 2817SOL    HW1 9350   2.913   0.902   2.382
 2817SOL    HW2 9351   2.801   0.785   2.365
 2818SOL     OW 9352   1.106   1.080   0.339
 2818SOL    HW1 9353   1.079   1.034   0.254
 2818SOL    HW2 9354   1.122   1.177   0.321
 2819SOL     OW 9355   0.361   0.213   6.514
 2819SOL    HW1 9356   0.444   0.257   6.478
 2819SOL    HW2 9357   0.283   0.273   6.499
 2820SOL     OW 9358   2.304   1.758   7.001
 2820SOL    HW1 9359   2.341   1.849   7.018
 2820SOL    HW2 9360   2.223   1.765   6.942
 2821SOL     OW 9361   3.450   2.398   5.933
 2821SOL    HW1 9362   3.445   2.491   5.969
 2821SOL    HW2 9363   3.394   2.390   5.850
 2822SOL     OW 9364   4.314   3.075   0.685
 2822SOL    HW1 9365   4.374   3.115   0.616
 2822SOL    HW2 9366   4.334   2.977   0.696
 2823SOL     OW 9367   5.714   3.960   1.924
 2823SOL    HW1 9368   5.708   3.900   2.004
 2823SOL    HW2 9369   5.664   3.919   1.848
 2824SOL     OW 9370   0.812   4.578   5.338
 2824SOL    HW1 9371   0.838   4.503   5.398
 2824SOL    HW2 9372   0.894   4.615   5.293
 2825SOL     OW 9373   5.217   2.318   5.868
 2825SOL    HW1 9374   5.213   2.335   5.770
 2825SOL    HW2 9375   5.257   2.227   5.884
 2826SOL     OW 9376   2.575   3.549   6.944
 2826SOL    HW1 9377   2.621   3.638   6.936
 2826SOL    HW2 9378   2.548   3.534   0.019
 2827SOL     OW 9379   6.331   1.596   6.537
 2827SOL    HW1 9380   6.378   1.615   6.450
 2827SOL    HW2 9381   6.388   1.535   6.593
 2828SOL     OW 9382   1.626   3.975   0.808
 2828SOL    HW1 9383   1.675   3.902   0.855
 2828SOL    HW2 9384   1.529   3.972   0.833
 2829SOL     OW 9385   3.496   3.872   1.882
 2829SOL    HW1 9386   3.514   3.779   1.915
 2829SOL    HW2 9387   3.419   3.870   1.818
 2830SOL     OW 9388   3.563   5.994   4.529
 2830SOL    HW1 9389   3.512   5.990   4.443
 2830SOL    HW2 9390   3.649   5.945   4.519
 2831SOL     OW 9391   6.553   1.512   2.011
 2831SOL    HW1 9392   6.554   1.561   1.924
 2831SOL    HW2 9393   6.468   1.460   2.019
 2832SOL     OW 9394   1.273   3.639   2.001
 2832SOL    HW1 9395   1.325   3.719   1.973
 2832SOL    HW2 9396   1.177   3.665   2.018
 2833SOL     OW 9397   6.516   2.995   3.308
 2833SOL    HW1 9398   6.507   3.087   3.270
 2833SOL    HW2 9399   6.608   2.984   3.347
 2834SOL     OW 9400   3.781   0.782   4.492
 2834SOL    HW1 9401   3.723   0.860   4.515
 2834SOL    HW2 9402   3.877   0.808   4.500
 2835SOL     OW 9403   6.731   1.153   6.984
 2835SOL    HW1 9404   6.702   1.085   0.031
 2835SOL    HW2 9405   6.826   1.134   6.958
 2836SOL     OW 9406   2.854   5.824   1.975
 2836SOL    HW1 9407   2.924   5.880   2.020
 2836SOL    HW2 9408   2.889   5.790   1.888
 2837SOL     OW 9409   5.540   3.775   1.759
 2837SOL    HW1 9410   5.484   3.851   1.794
 2837SOL    HW2 9411   5.485   3.692   1.757
 2838SOL     OW 9412   6.479   3.784   5.868
 2838SOL    HW1 9413   6.520   3.743   5.786
 2838SOL    HW2 9414   6.518   3.741   5.949
 2839SOL     OW 9415   6.020   2.794   6.038
 2839SOL    HW1 9416   6.024   2.695   6.048
 2839SOL    HW2 9417   6.110   2.828   6.010
 2840SOL     OW 9418   5.452   6.294   5.009
 2840SOL    HW1 9419   5.512   6.345   5.070
 2840SOL    HW2 9420   5.367   6.271   5.057
 2841SOL     OW 9421   5.475   3.770   2.759
 2841SOL    HW1 9422   5.436   3.792   2.670
 2841SOL    HW2 9423   5.491   3.672   2.765
 2842SOL     OW 9424   0.534   6.994   3.614
 2842SOL    HW1 9425   0.547   0.052   3.676
 2842SOL    HW2 9426   0.562   7.019   3.522
 2843SOL     OW 9427   1.964   2.650   4.667
 2843SOL    HW1 9428   1.931   2.673   4.758
 2843SOL    HW2 9429   1.896   2.678   4.599
 2844SOL     OW 9430   5.065   3.648   0.476
 2844SOL    HW1 9431   5.097   3.645   0.570
 2844SOL    HW2 9432   5.043   3.743   0.451
 2845SOL     OW 9433   3.414   1.534   1.515
 2845SOL    HW1 9434   3.445   1.443   1.486
 2845SOL    HW2 9435   3.438   1.548   1.611
 2846SOL     OW 9436   4.935   6.707   6.617
 2846SOL    HW1 9437   4.877   6.708   6.698
 2846SOL    HW2 9438   4.926   6.620   6.569
 2847SOL     OW 9439   5.056   4.951   1.564
 2847SOL    HW1 9440   5.110   4.874   1.531
 2847SOL    HW2 9441   5.107   5.036   1.550
 2848SOL     OW 9442   0.455   4.040   6.820
 2848SOL    HW1 9443   0.425   4.023   6.726
 2848SOL    HW2 9444   0.502   4.128   6.825
 2849SOL     OW 9445   5.307   0.326   1.695
 2849SOL    HW1 9446   5.380   0.291   1.635
 2849SOL    HW2 9447   5.330   0.307   1.790
 2850SOL     OW 9448   0.593   1.197   1.471
 2850SOL    HW1 9449   0.569   1.157   1.559
 2850SOL    HW2 9450   0.692   1.196   1.459
 2851SOL     OW 9451   3.594   3.519   1.704
 2851SOL    HW1 9452   3.530   3.540   1.630
 2851SOL    HW2 9453   3.681   3.487   1.666
 2852SOL     OW 9454   0.300   5.425   5.171
 2852SOL    HW1 9455   0.325   5.502   5.112
 2852SOL    HW2 9456   0.201   5.428   5.188
 2853SOL     OW 9457   0.415   4.268   4.887
 2853SOL    HW1 9458   0.457   4.266   4.977
 2853SOL    HW2 9459   0.431   4.357   4.844
 2854SOL     OW 9460   3.098   0.303   6.600
 2854SOL    HW1 9461   3.163   0.353   6.657
 2854SOL    HW2 9462   3.052   0.233   6.655
 2855SOL     OW 9463   2.188   1.726   4.352
 2855SOL    HW1 9464   2.259   1.796   4.342
 2855SOL    HW2 9465   2.116   1.743   4.285
 2856SOL     OW 9466   1.506   5.911   4.584
 2856SOL    HW1 9467   1.581   5.965   4.622
 2856SOL    HW2 9468   1.463   5.858   4.657
 2857SOL     OW 9469   7.011   4.183   0.683
 2857SOL    HW1 9470   6.993   4.280   0.665
 2857SOL    HW2 9471   0.029   4.173   0.774
 2858SOL     OW 9472   5.630   4.630   3.486
 2858SOL    HW1 9473   5.693   4.599   3.415
 2858SOL    HW2 9474   5.570   4.701   3.449
 2859SOL     OW 9475   5.950   5.071   1.398
 2859SOL    HW1 9476   5.877   5.014   1.362
 2859SOL    HW2 9477   6.012   5.015   1.454
 2860SOL     OW 9478   1.379   6.835   3.623
 2860SOL    HW1 9479   1.381   6.742   3.659
 2860SOL    HW2 9480   1.303   6.844   3.558
 2861SOL     OW 9481   5.383   4.032   5.385
 2861SOL    HW1 9482   5.286   4.011   5.400
 2861SOL    HW2 9483   5.422   3.967   5.319
 2862SOL     OW 9484   4.388   1.047   0.307
 2862SOL    HW1 9485   4.440   0.991   0.372
 2862SOL    HW2 9486   4.310   1.089   0.353
 2863SOL     OW 9487   5.448   2.124   5.983
 2863SOL    HW1 9488   5.472   2.051   6.047
 2863SOL    HW2 9489   5.479   2.098   5.891
 2864SOL     OW 9490   4.224   4.066   1.262
 2864SOL    HW1 9491   4.234   4.038   1.166
 2864SOL    HW2 9492   4.232   3.986   1.321
 2865SOL     OW 9493   5.794   4.785   6.041
 2865SOL    HW1 9494   5.851   4.817   6.117
 2865SOL    HW2 9495   5.715   4.845   6.031
 2866SOL     OW 9496   3.819   5.110   0.821
 2866SOL    HW1 9497   3.832   5.014   0.795
 2866SOL    HW2 9498   3.880   5.132   0.898
 2867SOL     OW 9499   6.902   6.001   2.645
 2867SOL    HW1 9500   6.982   5.940   2.643
 2867SOL    HW2 9501   6.924   6.083   2.698
 2868SOL     OW 9502   0.008   6.972   5.485
 2868SOL    HW1 9503   6.952   6.917   5.450
 2868SOL    HW2 9504   0.060   6.919   5.552
 2869SOL     OW 9505   5.896   4.763   5.226
 2869SOL    HW1 9506   5.827   4.698   5.256
 2869SOL    HW2 9507   5.878   4.790   5.131
 2870SOL     OW 9508   0.843   1.437   1.570
 2870SOL    HW1 9509   0.754   1.395   1.552
 2870SOL    HW2 9510   0.872   1.414   1.664
 2871SOL     OW 9511   4.787   1.427   3.119
 2871SOL    HW1 9512   4.870   1.380   3.087
 2871SOL    HW2 9513   4.773   1.510   3.065
 2872SOL     OW 9514   3.117   1.852   2.586
 2872SOL    HW1 9515   3.061   1.916   2.533
 2872SOL    HW2 9516   3.107   1.760   2.547
 2873SOL     OW 9517   0.918   6.757   2.768
 2873SOL    HW1 9518   0.966   6.843   2.786
 2873SOL    HW2 9519   0.820   6.774   2.759
 2874SOL     OW 9520   2.164   1.289   3.367
 2874SOL    HW1 9521   2.140   1.386   3.376
 2874SOL    HW2 9522   2.113   1.248   3.291
 2875SOL     OW 9523   2.401   0.156   3.028
 2875SOL    HW1 9524   2.327   0.093   3.007
 2875SOL    HW2 9525   2.364   0.249   3.036
 2876SOL     OW 9526   0.798   6.839   0.854
 2876SOL    HW1 9527   0.745   6.766   0.812
 2876SOL    HW2 9528   0.740   6.921   0.862
 2877SOL     OW 9529   1.672   2.995   5.449
 2877SOL    HW1 9530   1.672   2.915   5.508
 2877SOL    HW2 9531   1.747   2.988   5.383
 2878SOL     OW 9532   3.104   3.050   4.843
 2878SOL    HW1 9533   3.022   3.000   4.873
 2878SOL    HW2 9534   3.165   2.988   4.795
 2879SOL     OW 9535   5.074   5.539   0.281
 2879SOL    HW1 9536   5.060   5.454   0.232
 2879SOL    HW2 9537   5.115   5.607   0.220
 2880SOL     OW 9538   0.974   2.029   3.204
 2880SOL    HW1 9539   0.880   1.998   3.188
 2880SOL    HW2 9540   0.993   2.108   3.145
 2881SOL     OW 9541   5.192   5.033   0.706
 2881SOL    HW1 9542   5.248   4.994   0.779
 2881SOL    HW2 9543   5.218   5.128   0.692
 2882SOL     OW 9544   4.138   6.716   6.867
 2882SOL    HW1 9545   4.152   6.766   6.782
 2882SOL    HW2 9546   4.040   6.698   6.879
 2883SOL     OW 9547   5.478   6.068   3.425
 2883SOL    HW1 9548   5.448   6.141   3.364
 2883SOL    HW2 9549   5.399   6.028   3.471
 2884SOL     OW 9550   6.242   5.391   3.646
 2884SOL    HW1 9551   6.207   5.467   3.700
 2884SOL    HW2 9552   6.206   5.397   3.553
 2885SOL     OW 9553   0.177   3.223   3.538
 2885SOL    HW1 9554   0.162   3.158   3.463
 2885SOL    HW2 9555   0.255   3.193   3.593
 2886SOL     OW 9556   2.364   4.465   5.026
 2886SOL    HW1 9557   2.388   4.399   4.955
 2886SOL    HW2 9558   2.341   4.416   5.110
 2887SOL     OW 9559   7.019   5.536   2.627
 2887SOL    HW1 9560   6.986   5.493   2.712
 2887SOL    HW2 9561   6.947   5.531   2.558
 2888SOL     OW 9562   4.636   6.341   6.868
 2888SOL    HW1 9563   4.649   6.242   6.856
 2888SOL    HW2 9564   4.614   6.360   6.964
 2889SOL     OW 9565   4.285   6.110   4.555
 2889SOL    HW1 9566   4.231   6.137   4.476
 2889SOL    HW2 9567   4.302   6.190   4.612
 2890SOL     OW 9568   1.613   2.351   0.068
 2890SOL    HW1 9569   1.542   2.300   0.019
 2890SOL    HW2 9570   1.585   2.363   0.164
 2891SOL     OW 9571   1.220   1.267   5.237
 2891SOL    HW1 9572   1.168   1.339   5.190
 2891SOL    HW2 9573   1.235   1.293   5.332
 2892SOL     OW 9574   5.524   4.475   2.341
 2892SOL    HW1 9575   5.569   4.471   2.430
 2892SOL    HW2 9576   5.593   4.482   2.269
 2893SOL     OW 9577   6.777   5.094   4.901
 2893SOL    HW1 9578   6.678   5.091   4.912
 2893SOL    HW2 9579   6.800   5.122   4.808
 2894SOL     OW 9580   1.349   5.459   1.087
 2894SOL    HW1 9581   1.324   5.382   1.145
 2894SOL    HW2 9582   1.332   5.545   1.136
 2895SOL     OW 9583   4.844   6.608   6.054
 2895SOL    HW1 9584   4.850   6.665   6.136
 2895SOL    HW2 9585   4.764   6.637   6.000
 2896SOL     OW 9586   6.417   0.457   4.942
 2896SOL    HW1 9587   6.372   0.536   4.985
 2896SOL    HW2 9588   6.486   0.420   5.005
 2897SOL     OW 9589   3.582   5.743   3.230
 2897SOL    HW1 9590   3.645   5.675   3.194
 2897SOL    HW2 9591   3.510   5.762   3.163
 2898SOL     OW 9592   5.396   3.000   3.498
 2898SOL    HW1 9593   5.469   3.037   3.441
 2898SOL    HW2 9594   5.350   2.926   3.448
 2899SOL     OW 9595   6.591   2.680   0.855
 2899SOL    HW1 9596   6.654   2.626   0.800
 2899SOL    HW2 9597   6.614   2.777   0.847
 2900SOL     OW 9598   2.524   2.730   5.567
 2900SOL    HW1 9599   2.502   2.795   5.495
 2900SOL    HW2 9600   2.577   2.654   5.529
 2901SOL     OW 9601   1.486   4.098   1.925
 2901SOL    HW1 9602   1.393   4.071   1.951
 2901SOL    HW2 9603   1.515   4.043   1.846
 2902SOL     OW 9604   5.729   6.039   3.518
 2902SOL    HW1 9605   5.633   6.040   3.490
 2902SOL    HW2 9606   5.788   6.044   3.437
 2903SOL     OW 9607   0.300   5.026   0.716
 2903SOL    HW1 9608   0.227   5.016   0.784
 2903SOL    HW2 9609   0.264   5.073   0.635
 2904SOL     OW 9610   2.757   4.930   4.998
 2904SOL    HW1 9611   2.750   4.936   4.899
 2904SOL    HW2 9612   2.797   4.842   5.024
 2905SOL     OW 9613   0.804   5.154   1.615
 2905SOL    HW1 9614   0.862   5.127   1.538
 2905SOL    HW2 9615   0.835   5.109   1.698
 2906SOL     OW 9616   0.081   6.165   5.893
 2906SOL    HW1 9617   0.076   6.065   5.883
 2906SOL    HW2 9618   0.123   6.187   5.980
 2907SOL     OW 9619   0.140   0.753   5.243
 2907SOL    HW1 9620   0.201   0.816   5.290
 2907SOL    HW2 9621   0.189   0.707   5.169
 2908SOL     OW 9622   4.300   6.775   3.865
 2908SOL    HW1 9623   4.369   6.704   3.851
 2908SOL    HW2 9624   4.283   6.786   3.963
 2909SOL     OW 9625   7.018   0.241   1.675
 2909SOL    HW1 9626   6.958   0.218   1.598
 2909SOL    HW2 9627   0.022   0.157   1.724
 2910SOL     OW 9628   1.234   0.931   4.216
 2910SOL    HW1 9629   1.200   1.012   4.264
 2910SOL    HW2 9630   1.234   0.853   4.279
 2911SOL     OW 9631   6.978   3.849   4.775
 2911SOL    HW1 9632   6.885   3.843   4.738
 2911SOL    HW2 9633   0.002   3.930   4.739
 2912SOL     OW 9634   0.512   1.716   2.021
 2912SOL    HW1 9635   0.546   1.658   2.094
 2912SOL    HW2 9636   0.587   1.744   1.961
 2913SOL     OW 9637   0.860   6.873   3.363
 2913SOL    HW1 9638   0.783   6.934   3.343
 2913SOL    HW2 9639   0.937   6.897   3.303
 2914SOL     OW 9640   3.880   4.711   1.135
 2914SOL    HW1 9641   3.900   4.614   1.146
 2914SOL    HW2 9642   3.809   4.723   1.067
 2915SOL     OW 9643   2.105   0.808   3.987
 2915SOL    HW1 9644   2.084   0.744   4.061
 2915SOL    HW2 9645   2.038   0.798   3.914
 2916SOL     OW 9646   0.772   5.119   6.273
 2916SOL    HW1 9647   0.797   5.212   6.300
 2916SOL    HW2 9648   0.779   5.058   6.352
 2917SOL     OW 9649   2.070   0.508   3.296
 2917SOL    HW1 9650   2.157   0.553   3.318
 2917SOL    HW2 9651   2.018   0.565   3.233
 2918SOL     OW 9652   5.186   2.032   1.351
 2918SOL    HW1 9653   5.147   2.003   1.438
 2918SOL    HW2 9654   5.285   2.039   1.360
 2919SOL     OW 9655   0.718   6.249   4.780
 2919SOL    HW1 9656   0.724   6.320   4.850
 2919SOL    HW2 9657   0.796   6.256   4.718
 2920SOL     OW 9658   2.807   2.604   1.706
 2920SOL    HW1 9659   2.822   2.696   1.741
 2920SOL    HW2 9660   2.837   2.537   1.774
 2921SOL     OW 9661   0.785   6.330   3.316
 2921SOL    HW1 9662   0.780   6.256   3.383
 2921SOL    HW2 9663   0.870   6.321   3.263
 2922SOL     OW 9664   3.568   5.299   3.554
 2922SOL    HW1 9665   3.569   5.383   3.609
 2922SOL    HW2 9666   3.506   5.233   3.596
 2923SOL     OW 9667   1.454   5.691   4.396
 2923SOL    HW1 9668   1.499   5.758   4.454
 2923SOL    HW2 9669   1.476   5.711   4.300
 2924SOL     OW 9670   5.376   1.163   6.565
 2924SOL    HW1 9671   5.298   1.226   6.557
 2924SOL    HW2 9672   5.408   1.162   6.660
 2925SOL     OW 9673   5.636   6.419   4.625
 2925SOL    HW1 9674   5.551   6.449   4.669
 2925SOL    HW2 9675   5.632   6.442   4.527
 2926SOL     OW 9676   6.446   2.885   4.599
 2926SOL    HW1 9677   6.496   2.958   4.553
 2926SOL    HW2 9678   6.497   2.853   4.678
 2927SOL     OW 9679   1.382   1.827   2.384
 2927SOL    HW1 9680   1.334   1.907   2.421
 2927SOL    HW2 9681   1.335   1.744   2.411
 2928SOL     OW 9682   5.146   3.932   0.528
 2928SOL    HW1 9683   5.063   3.901   0.575
 2928SOL    HW2 9684   5.142   4.031   0.516
 2929SOL     OW 9685   2.189   1.560   3.431
 2929SOL    HW1 9686   2.280   1.550   3.472
 2929SOL    HW2 9687   2.193   1.631   3.360
 2930SOL     OW 9688   0.534   3.560   4.202
 2930SOL    HW1 9689   0.554   3.619   4.124
 2930SOL    HW2 9690   0.452   3.505   4.183
 2931SOL     OW 9691   6.184   4.313   5.866
 2931SOL    HW1 9692   6.101   4.367   5.857
 2931SOL    HW2 9693   6.194   4.254   5.786
 2932SOL     OW 9694   6.252   5.724   1.109
 2932SOL    HW1 9695   6.190   5.795   1.077
 2932SOL    HW2 9696   6.333   5.765   1.151
 2933SOL     OW 9697   0.822   0.196   6.921
 2933SOL    HW1 9698   0.882   0.144   6.859
 2933SOL    HW2 9699   0.826   0.155   7.012
 2934SOL     OW 9700   5.594   5.270   1.433
 2934SOL    HW1 9701   5.684   5.264   1.478
 2934SOL    HW2 9702   5.532   5.205   1.475
 2935SOL     OW 9703   0.949   3.452   5.663
 2935SOL    HW1 9704   0.916   3.546   5.668
 2935SOL    HW2 9705   0.875   3.389   5.688
 2936SOL     OW 9706   4.172   6.514   2.122
 2936SOL    HW1 9707   4.121   6.556   2.048
 2936SOL    HW2 9708   4.113   6.448   2.169
 2937SOL     OW 9709   5.877   3.752   3.378
 2937SOL    HW1 9710   5.831   3.840   3.364
 2937SOL    HW2 9711   5.879   3.702   3.292
 2938SOL     OW 9712   0.596   5.058   0.141
 2938SOL    HW1 9713   0.615   5.018   0.231
 2938SOL    HW2 9714   0.501   5.042   0.116
 2939SOL     OW 9715   6.757   6.411   1.807
 2939SOL    HW1 9716   6.713   6.395   1.895
 2939SOL    HW2 9717   6.696   6.380   1.734
 2940SOL     OW 9718   4.284   6.730   4.136
 2940SOL    HW1 9719   4.250   6.793   4.206
 2940SOL    HW2 9720   4.382   6.714   4.151
 2941SOL     OW 9721   2.784   4.789   3.043
 2941SOL    HW1 9722   2.721   4.850   3.090
 2941SOL    HW2 9723   2.876   4.828   3.045
 2942SOL     OW 9724   3.410   2.189   1.805
 2942SOL    HW1 9725   3.390   2.282   1.773
 2942SOL    HW2 9726   3.482   2.192   1.875
 2943SOL     OW 9727   0.123   3.808   3.495
 2943SOL    HW1 9728   0.196   3.742   3.513
 2943SOL    HW2 9729   0.047   3.762   3.449
 2944SOL     OW 9730   1.539   6.122   3.030
 2944SOL    HW1 9731   1.580   6.055   2.968
 2944SOL    HW2 9732   1.609   6.158   3.091
 2945SOL     OW 9733   6.029   3.514   1.138
 2945SOL    HW1 9734   5.936   3.508   1.101
 2945SOL    HW2 9735   6.091   3.544   1.066
 2946SOL     OW 9736   3.504   3.136   4.202
 2946SOL    HW1 9737   3.585   3.171   4.154
 2946SOL    HW2 9738   3.477   3.201   4.273
 2947SOL     OW 9739   6.538   5.488   0.299
 2947SOL    HW1 9740   6.457   5.512   0.352
 2947SOL    HW2 9741   6.590   5.571   0.278
 2948SOL     OW 9742   6.671   4.204   1.120
 2948SOL    HW1 9743   6.580   4.194   1.160
 2948SOL    HW2 9744   6.740   4.172   1.185
 2949SOL     OW 9745   1.380   6.429   0.706
 2949SOL    HW1 9746   1.423   6.487   0.637
 2949SOL    HW2 9747   1.327   6.357   0.661
 2950SOL     OW 9748   5.976   5.395   2.718
 2950SOL    HW1 9749   5.965   5.327   2.645
 2950SOL    HW2 9750   5.899   5.458   2.717
 2951SOL     OW 9751   0.776   2.626   1.086
 2951SOL    HW1 9752   0.716   2.679   1.144
 2951SOL    HW2 9753   0.871   2.653   1.102
 2952SOL     OW 9754   6.745   1.425   3.908
 2952SOL    HW1 9755   6.817   1.490   3.933
 2952SOL    HW2 9756   6.757   1.341   3.960
 2953SOL     OW 9757   1.810   6.265   3.012
 2953SOL    HW1 9758   1.812   6.327   2.934
 2953SOL    HW2 9759   1.876   6.296   3.081
 2954SOL     OW 9760   0.690   4.016   6.198
 2954SOL    HW1 9761   0.713   4.100   6.247
 2954SOL    HW2 9762   0.773   3.975   6.161
 2955SOL     OW 9763   1.853   4.715   6.716
 2955SOL    HW1 9764   1.891   4.632   6.675
 2955SOL    HW2 9765   1.754   4.711   6.714
 2956SOL     OW 9766   5.379   3.886   4.697
 2956SOL    HW1 9767   5.344   3.798   4.729
 2956SOL    HW2 9768   5.430   3.873   4.612
 2957SOL     OW 9769   1.846   5.653   2.271
 2957SOL    HW1 9770   1.916   5.721   2.250
 2957SOL    HW2 9771   1.852   5.627   2.367
 2958SOL     OW 9772   1.462   4.782   2.109
 2958SOL    HW1 9773   1.510   4.846   2.049
 2958SOL    HW2 9774   1.448   4.695   2.061
 2959SOL     OW 9775   6.887   4.265   3.829
 2959SOL    HW1 9776   6.793   4.277   3.860
 2959SOL    HW2 9777   6.889   4.197   3.755
 2960SOL     OW 9778   4.580   6.606   1.278
 2960SOL    HW1 9779   4.504   6.542   1.291
 2960SOL    HW2 9780   4.655   6.581   1.339
 2961SOL     OW 9781   5.693   2.443   1.697
 2961SOL    HW1 9782   5.622   2.399   1.642
 2961SOL    HW2 9783   5.688   2.410   1.791
 2962SOL     OW 9784   0.188   0.285   3.801
 2962SOL    HW1 9785   0.257   0.285   3.729
 2962SOL    HW2 9786   0.233   0.270   3.890
 2963SOL     OW 9787   2.008   0.784   5.607
 2963SOL    HW1 9788   1.913   0.783   5.576
 2963SOL    HW2 9789   2.045   0.691   5.602
 2964SOL     OW 9790   1.544   0.031   6.484
 2964SOL    HW1 9791   1.636   0.065   6.466
 2964SOL    HW2 9792   1.524   0.038   6.582
 2965SOL     OW 9793   5.987   0.455   6.273
 2965SOL    HW1 9794   5.946   0.531   6.324
 2965SOL    HW2 9795   5.941   0.370   6.298
 2966SOL     OW 9796   3.809   5.280   2.760
 2966SOL    HW1 9797   3.777   5.363   2.807
 2966SOL    HW2 9798   3.753   5.265   2.679
 2967SOL     OW 9799   5.393   6.766   4.739
 2967SOL    HW1 9800   5.383   6.667   4.729
 2967SOL    HW2 9801   5.314   6.803   4.788
 2968SOL     OW 9802   1.511   4.256   1.448
 2968SOL    HW1 9803   1.531   4.331   1.385
 2968SOL    HW2 9804   1.592   4.198   1.457
 2969SOL     OW 9805   4.833   2.832   4.495
 2969SOL    HW1 9806   4.768   2.779   4.439
 2969SOL    HW2 9807   4.849   2.921   4.453
 2970SOL     OW 9808   2.528   2.882   5.787
 2970SOL    HW1 9809   2.520   2.811   5.717
 2970SOL    HW2 9810   2.490   2.968   5.752
 2971SOL     OW 9811   4.791   3.934   6.504
 2971SOL    HW1 9812   4.692   3.934   6.487
 2971SOL    HW2 9813   4.811   3.995   6.580
 2972SOL     OW 9814   6.949   5.564   6.585
 2972SOL    HW1 9815   0.013   5.575   6.532
 2972SOL    HW2 9816   6.879   5.627   6.551
 2973SOL     OW 9817   5.500   0.777   4.055
 2973SOL    HW1 9818   5.421   0.766   4.116
 2973SOL    HW2 9819   5.480   0.847   3.987
 2974SOL     OW 9820   5.725   6.152   2.028
 2974SOL    HW1 9821   5.717   6.242   1.984
 2974SOL    HW2 9822   5.818   6.141   2.066
 2975SOL     OW 9823   6.717   3.149   5.074
 2975SOL    HW1 9824   6.664   3.219   5.122
 2975SOL    HW2 9825   6.744   3.078   5.140
 2976SOL     OW 9826   3.591   0.745   1.607
 2976SOL    HW1 9827   3.534   0.707   1.680
 2976SOL    HW2 9828   3.536   0.762   1.526
 2977SOL     OW 9829   1.646   1.356   1.830
 2977SOL    HW1 9830   1.611   1.275   1.876
 2977SOL    HW2 9831   1.569   1.411   1.797
 2978SOL     OW 9832   3.476   6.039   0.489
 2978SOL    HW1 9833   3.512   6.046   0.582
 2978SOL    HW2 9834   3.546   5.998   0.430
 2979SOL     OW 9835   2.785   0.866   5.546
 2979SOL    HW1 9836   2.767   0.931   5.472
 2979SOL    HW2 9837   2.839   0.911   5.617
 2980SOL     OW 9838   3.350   2.923   4.126
 2980SOL    HW1 9839   3.367   3.014   4.164
 2980SOL    HW2 9840   3.431   2.892   4.075
 2981SOL     OW 9841   3.165   2.086   1.767
 2981SOL    HW1 9842   3.176   1.997   1.723
 2981SOL    HW2 9843   3.255   2.122   1.792
 2982SOL     OW 9844   1.590   0.763   0.770
 2982SOL    HW1 9845   1.541   0.812   0.698
 2982SOL    HW2 9846   1.612   0.671   0.738
 2983SOL     OW 9847   6.431   2.617   6.524
 2983SOL    HW1 9848   6.458   2.628   6.429
 2983SOL    HW2 9849   6.503   2.569   6.574
 2984SOL     OW 9850   0.549   6.128   1.306
 2984SOL    HW1 9851   0.627   6.126   1.369
 2984SOL    HW2 9852   0.513   6.036   1.294
 2985SOL     OW 9853   6.545   0.819   5.478
 2985SOL    HW1 9854   6.581   0.761   5.551
 2985SOL    HW2 9855   6.482   0.887   5.517
 2986SOL     OW 9856   3.160   3.424   2.153
 2986SOL    HW1 9857   3.208   3.417   2.065
 2986SOL    HW2 9858   3.098   3.346   2.163
 2987SOL     OW 9859   2.502   5.817   4.654
 2987SOL    HW1 9860   2.476   5.769   4.571
 2987SOL    HW2 9861   2.435   5.890   4.673
 2988SOL     OW 9862   6.890   2.181   6.207
 2988SOL    HW1 9863   6.959   2.173   6.279
 2988SOL    HW2 9864   6.844   2.269   6.215
 2989SOL     OW 9865   5.912   3.339   5.529
 2989SOL    HW1 9866   5.949   3.426   5.562
 2989SOL    HW2 9867   5.943   3.265   5.589
 2990SOL     OW 9868   5.652   0.961   5.577
 2990SOL    HW1 9869   5.654   1.004   5.667
 2990SOL    HW2 9870   5.583   0.889   5.576
 2991SOL     OW 9871   6.924   3.387   6.768
 2991SOL    HW1 9872   6.932   3.361   6.864
 2991SOL    HW2 9873   6.945   3.309   6.710
 2992SOL     OW 9874   0.819   3.722   5.582
 2992SOL    HW1 9875   0.754   3.647   5.576
 2992SOL    HW2 9876   0.861   3.737   5.492
 2993SOL     OW 9877   3.303   5.235   0.575
 2993SOL    HW1 9878   3.352   5.154   0.609
 2993SOL    HW2 9879   3.368   5.305   0.547
 2994SOL     OW 9880   2.524   4.994   5.128
 2994SOL    HW1 9881   2.533   5.093   5.116
 2994SOL    HW2 9882   2.614   4.951   5.121
 2995SOL     OW 9883   4.938   0.498   1.831
 2995SOL    HW1 9884   4.859   0.442   1.806
 2995SOL    HW2 9885   4.908   0.571   1.893
 2996SOL     OW 9886   6.616   1.033   3.974
 2996SOL    HW1 9887   6.681   1.028   3.898
 2996SOL    HW2 9888   6.535   0.979   3.953
 2997SOL     OW 9889   4.716   5.581   4.351
 2997SOL    HW1 9890   4.645   5.520   4.385
 2997SOL    HW2 9891   4.803   5.532   4.346
 2998SOL     OW 9892   2.609   0.676   2.006
 2998SOL    HW1 9893   2.682   0.744   1.996
 2998SOL    HW2 9894   2.643   0.599   2.060
 2999SOL     OW 9895   1.017   4.517   0.519
 2999SOL    HW1 9896   1.012   4.598   0.578
 2999SOL    HW2 9897   0.971   4.440   0.565
 3000SOL     OW 9898   2.353   3.715   5.302
 3000SOL    HW1 9899   2.278   3.683   5.245
 3000SOL    HW2 9900   2.378   3.808   5.275
 3001SOL     OW 9901   4.483   0.665   6.392
 3001SOL    HW1 9902   4.397   0.615   6.407
 3001SOL    HW2 9903   4.491   0.739   6.458
 3002SOL     OW 9904   1.132   2.011   2.500
 3002SOL    HW1 9905   1.179   1.988   2.585
 3002SOL    HW2 9906   1.101   2.106   2.502
 3003SOL     OW 9907   1.002   5.724   0.550
 3003SOL    HW1 9908   0.966   5.632   0.531
 3003SOL    HW2 9909   0.951   5.791   0.497
 3004SOL     OW 9910   3.302   6.953   3.878
 3004SOL    HW1 9911   3.370   6.944   3.805
 3004SOL    HW2 9912   3.319   0.016   3.930
 3005SOL     OW 9913   2.987   2.080   0.932
 3005SOL    HW1 9914   2.991   2.144   1.008
 3005SOL    HW2 9915   2.993   2.130   0.845
 3006SOL     OW 9916   5.799   1.189   5.446
 3006SOL    HW1 9917   5.773   1.115   5.508
 3006SOL    HW2 9918   5.750   1.179   5.359
 3007SOL     OW 9919   6.071   5.702   5.702
 3007SOL    HW1 9920   6.002   5.631   5.718
 3007SOL    HW2 9921   6.162   5.663   5.717
 3008SOL     OW 9922   4.860   4.066   5.649
 3008SOL    HW1 9923   4.875   4.073   5.550
 3008SOL    HW2 9924   4.762   4.076   5.668
 3009SOL     OW 9925   5.530   3.008   2.085
 3009SOL    HW1 9926   5.629   3.002   2.102
 3009SOL    HW2 9927   5.513   3.005   1.986
 3010SOL     OW 9928   4.919   5.204   1.802
 3010SOL    HW1 9929   4.891   5.299   1.788
 3010SOL    HW2 9930   4.865   5.144   1.744
 3011SOL     OW 9931   5.703   6.776   0.140
 3011SOL    HW1 9932   5.704   6.802   0.044
 3011SOL    HW2 9933   5.609   6.776   0.174
 3012SOL     OW 9934   2.207   1.080   4.779
 3012SOL    HW1 9935   2.288   1.086   4.720
 3012SOL    HW2 9936   2.170   0.987   4.774
 3013SOL     OW 9937   1.161   4.994   5.317
 3013SOL    HW1 9938   1.199   5.065   5.376
 3013SOL    HW2 9939   1.181   5.015   5.221
 3014SOL     OW 9940   3.912   0.421   7.007
 3014SOL    HW1 9941   3.953   0.510   0.007
 3014SOL    HW2 9942   3.971   0.372   6.943
 3015SOL     OW 9943   2.332   6.961   5.723
 3015SOL    HW1 9944   2.275   0.022   5.729
 3015SOL    HW2 9945   2.382   6.961   5.636
 3016SOL     OW 9946   2.964   0.853   3.849
 3016SOL    HW1 9947   2.991   0.945   3.877
 3016SOL    HW2 9948   2.907   0.858   3.767
 3017SOL     OW 9949   0.703   6.004   0.005
 3017SOL    HW1 9950   0.621   6.054   6.997
 3017SOL    HW2 9951   0.750   5.969   6.944
 3018SOL     OW 9952   3.242   2.447   1.456
 3018SOL    HW1 9953   3.191   2.441   1.542
 3018SOL    HW2 9954   3.330   2.491   1.472
 3019SOL     OW 9955   1.326   0.683   5.242
 3019SOL    HW1 9956   1.415   0.650   5.273
 3019SOL    HW2 9957   1.272   0.606   5.207
 3020SOL     OW 9958   4.762   4.895   0.304
 3020SOL    HW1 9959   4.780   4.859   0.213
 3020SOL    HW2 9960   4.849   4.913   0.351
 3021SOL     OW 9961   4.714   6.462   4.442
 3021SOL    HW1 9962   4.759   6.540   4.400
 3021SOL    HW2 9963   4.662   6.412   4.373
 3022SOL     OW 9964   4.670   6.989   4.115
 3022SOL    HW1 9965   4.674   0.057   4.066
 3022SOL    HW2 9966   4.731   6.924   4.070
 3023SOL     OW 9967   5.433   4.577   5.200
 3023SOL    HW1 9968   5.451   4.482   5.175
 3023SOL    HW2 9969   5.345   4.605   5.163
 3024SOL     OW 9970   6.676   1.159   0.466
 3024SOL    HW1 9971   6.704   1.176   0.560
 3024SOL    HW2 9972   6.583   1.121   0.465
 3025SOL     OW 9973   4.048   5.446   0.730
 3025SOL    HW1 9974   4.005   5.487   0.810
 3025SOL    HW2 9975   4.148   5.451   0.740
 3026SOL     OW 9976   0.277   0.382   2.167
 3026SOL    HW1 9977   0.293   0.332   2.252
 3026SOL    HW2 9978   0.213   0.331   2.109
 3027SOL     OW 9979   3.967   6.788   1.251
 3027SOL    HW1 9980   4.027   6.842   1.192
 3027SOL    HW2 9981   3.966   6.693   1.220
 3028SOL     OW 9982   3.746   3.187   4.515
 3028SOL    HW1 9983   3.836   3.207   4.477
 3028SOL    HW2 9984   3.748   3.098   4.560
 3029SOL     OW 9985   0.503   2.652   5.082
 3029SOL    HW1 9986   0.543   2.582   5.024
 3029SOL    HW2 9987   0.442   2.609   5.149
 3030SOL     OW 9988   1.124   2.874   6.157
 3030SOL    HW1 9989   1.189   2.816   6.108
 3030SOL    HW2 9990   1.056   2.909   6.092
 3031SOL     OW 9991   0.817   4.978   6.989
 3031SOL    HW1 9992   0.790   4.901   6.931
 3031SOL    HW2 9993   0.740   5.004   0.027
 3032SOL     OW 9994   3.464   6.850   3.670
 3032SOL    HW1 9995   3.556   6.870   3.635
 3032SOL    HW2 9996   3.411   6.803   3.599
 3033SOL     OW 9997   1.965   1.280   6.584
 3033SOL    HW1 9998   1.938   1.252   6.492
 3033SOL    HW2 9999   1.955   1.380   6.592
 3034SOL     OW10000   5.503   3.521   3.514
 3034SOL    HW110001   5.569   3.593   3.533
 3034SOL    HW210002   5.511   3.449   3.583
 3035SOL     OW10003   0.073   3.741   0.023
 3035SOL    HW110004   0.168   3.724   0.050
 3035SOL    HW210005   0.070   3.762   6.946
 3036SOL     OW10006   3.513   2.200   6.116
 3036SOL    HW110007   3.501   2.114   6.067
 3036SOL    HW210008   3.477   2.275   6.061
 3037SOL     OW10009   0.515   4.867   6.438
 3037SOL    HW110010   0.559   4.779   6.455
 3037SOL    HW210011   0.530   4.894   6.343
 3038SOL     OW10012   6.247   4.708   5.323
 3038SOL    HW110013   6.288   4.632   5.374
 3038SOL    HW210014   6.230   4.784   5.385
 3039SOL     OW10015   5.475   3.210   6.395
 3039SOL    HW110016   5.504   3.162   6.313
 3039SOL    HW210017   5.464   3.144   6.470
 3040SOL     OW10018   3.724   6.685   6.549
 3040SOL    HW110019   3.667   6.664   6.629
 3040SOL    HW210020   3.671   6.672   6.466
 3041SOL     OW10021   2.219   5.434   6.863
 3041SOL    HW110022   2.125   5.460   6.840
 3041SOL    HW210023   2.258   5.502   6.925
 3042SOL     OW10024   6.857   5.069   4.231
 3042SOL    HW110025   6.865   4.971   4.214
 3042SOL    HW210026   6.912   5.119   4.164
 3043SOL     OW10027   3.320   4.023   1.379
 3043SOL    HW110028   3.306   4.028   1.280
 3043SOL    HW210029   3.382   4.096   1.407
 3044SOL     OW10030   3.851   3.434   4.847
 3044SOL    HW110031   3.917   3.510   4.842
 3044SOL    HW210032   3.900   3.348   4.833
 3045SOL     OW10033   5.357   0.624   2.832
 3045SOL    HW110034   5.412   0.707   2.845
 3045SOL    HW210035   5.343   0.579   2.920
 3046SOL     OW10036   5.920   5.609   0.904
 3046SOL    HW110037   5.851   5.537   0.905
 3046SOL    HW210038   5.875   5.698   0.897
 3047SOL     OW10039   6.023   1.874   4.022
 3047SOL    HW110040   5.990   1.958   4.066
 3047SOL    HW210041   5.966   1.797   4.049
 3048SOL     OW10042   4.187   4.715   1.603
 3048SOL    HW110043   4.190   4.709   1.504
 3048SOL    HW210044   4.101   4.676   1.636
 3049SOL     OW10045   0.119   1.412   2.244
 3049SOL    HW110046   0.063   1.392   2.163
 3049SOL    HW210047   0.067   1.471   2.306
 3050SOL     OW10048   3.496   2.267   6.385
 3050SOL    HW110049   3.514   2.365   6.393
 3050SOL    HW210050   3.528   2.234   6.296
 3051SOL     OW10051   2.506   5.456   6.073
 3051SOL    HW110052   2.521   5.527   6.004
 3051SOL    HW210053   2.442   5.490   6.142
 3052SOL     OW10054   5.922   6.293   3.563
 3052SOL    HW110055   6.016   6.311   3.532
 3052SOL    HW210056   5.898   6.198   3.542
 3053SOL     OW10057   0.674   4.636   6.506
 3053SOL    HW110058   0.630   4.550   6.478
 3053SOL    HW210059   0.770   4.634   6.481
 3054SOL     OW10060   5.981   6.998   3.050
 3054SOL    HW110061   5.953   0.007   3.141
 3054SOL    HW210062   5.960   0.050   2.984
 3055SOL     OW10063   4.949   6.729   0.331
 3055SOL    HW110064   4.975   6.803   0.269
 3055SOL    HW210065   4.849   6.722   0.333
 3056SOL     OW10066   4.739   1.865   1.048
 3056SOL    HW110067   4.774   1.896   0.959
 3056SOL    HW210068   4.795   1.790   1.082
 3057SOL     OW10069   6.622   3.557   3.646
 3057SOL    HW110070   6.605   3.558   3.745
 3057SOL    HW210071   6.704   3.612   3.626
 3058SOL     OW10072   0.019   4.732   5.906
 3058SOL    HW110073   0.053   4.795   5.977
 3058SOL    HW210074   6.967   4.675   5.945
 3059SOL     OW10075   1.195   2.541   3.180
 3059SOL    HW110076   1.260   2.594   3.234
 3059SOL    HW210077   1.239   2.456   3.151
 3060SOL     OW10078   5.490   3.781   3.349
 3060SOL    HW110079   5.570   3.773   3.409
 3060SOL    HW210080   5.509   3.733   3.263
 3061SOL     OW10081   5.958   6.402   2.640
 3061SOL    HW110082   6.041   6.457   2.632
 3061SOL    HW210083   5.899   6.442   2.711
 3062SOL     OW10084   3.943   5.172   1.039
 3062SOL    HW110085   3.904   5.131   1.121
 3062SOL    HW210086   3.955   5.270   1.054
 3063SOL     OW10087   6.724   4.750   0.347
 3063SOL    HW110088   6.816   4.783   0.327
 3063SOL    HW210089   6.713   4.657   0.312
 3064SOL     OW10090   4.595   1.698   6.448
 3064SOL    HW110091   4.657   1.642   6.393
 3064SOL    HW210092   4.587   1.789   6.408
 3065SOL     OW10093   5.325   0.932   6.344
 3065SOL    HW110094   5.314   0.983   6.430
 3065SOL    HW210095   5.384   0.984   6.282
 3066SOL     OW10096   5.202   0.128   5.964
 3066SOL    HW110097   5.215   0.089   6.056
 3066SOL    HW210098   5.105   0.126   5.941
 3067SOL     OW10099   1.652   1.634   4.666
 3067SOL    HW110100   1.674   1.710   4.605
 3067SOL    HW210101   1.558   1.604   4.649
 3068SOL     OW10102   5.979   0.055   0.978
 3068SOL    HW110103   6.010   0.148   0.997
 3068SOL    HW210104   6.057   7.012   0.984
 3069SOL     OW10105   5.678   5.993   4.008
 3069SOL    HW110106   5.730   5.980   4.093
 3069SOL    HW210107   5.733   6.046   3.944
 3070SOL     OW10108   2.763   1.256   0.837
 3070SOL    HW110109   2.782   1.162   0.808
 3070SOL    HW210110   2.801   1.270   0.929
 3071SOL     OW10111   5.683   4.611   5.256
 3071SOL    HW110112   5.707   4.517   5.280
 3071SOL    HW210113   5.585   4.618   5.240
 3072SOL     OW10114   1.348   6.857   5.110
 3072SOL    HW110115   1.446   6.843   5.096
 3072SOL    HW210116   1.297   6.810   5.038
 3073SOL     OW10117   6.793   5.542   2.482
 3073SOL    HW110118   6.700   5.546   2.519
 3073SOL    HW210119   6.806   5.617   2.417
 3074SOL     OW10120   3.221   2.836   1.840
 3074SOL    HW110121   3.167   2.915   1.814
 3074SOL    HW210122   3.223   2.829   1.940
 3075SOL     OW10123   3.882   4.902   1.557
 3075SOL    HW110124   3.806   4.967   1.563
 3075SOL    HW210125   3.864   4.825   1.618
 3076SOL     OW10126   1.961   1.782   4.222
 3076SOL    HW110127   1.892   1.767   4.152
 3076SOL    HW210128   1.919   1.822   4.303
 3077SOL     OW10129   0.182   3.516   1.819
 3077SOL    HW110130   0.196   3.566   1.734
 3077SOL    HW210131   0.219   3.423   1.809
 3078SOL     OW10132   6.900   3.938   1.596
 3078SOL    HW110133   6.962   3.874   1.551
 3078SOL    HW210134   6.816   3.891   1.623
 3079SOL     OW10135   1.429   3.981   3.753
 3079SOL    HW110136   1.470   3.984   3.844
 3079SOL    HW210137   1.374   4.063   3.738
 3080SOL     OW10138   3.714   4.629   1.599
 3080SOL    HW110139   3.658   4.674   1.530
 3080SOL    HW210140   3.662   4.621   1.684
 3081SOL     OW10141   2.382   2.855   6.022
 3081SOL    HW110142   2.440   2.885   5.946
 3081SOL    HW210143   2.288   2.845   5.990
 3082SOL     OW10144   5.458   3.861   5.194
 3082SOL    HW110145   5.427   3.766   5.196
 3082SOL    HW210146   5.468   3.891   5.100
 3083SOL     OW10147   4.065   5.865   1.178
 3083SOL    HW110148   4.127   5.942   1.194
 3083SOL    HW210149   4.109   5.800   1.115
 3084SOL     OW10150   6.608   5.190   4.185
 3084SOL    HW110151   6.569   5.213   4.095
 3084SOL    HW210152   6.702   5.159   4.173
 3085SOL     OW10153   6.306   5.997   6.984
 3085SOL    HW110154   6.297   6.095   7.001
 3085SOL    HW210155   6.290   5.979   6.887
 3086SOL     OW10156   6.248   6.659   6.499
 3086SOL    HW110157   6.188   6.616   6.567
 3086SOL    HW210158   6.306   6.727   6.544
 3087SOL     OW10159   3.060   0.099   2.118
 3087SOL    HW110160   3.102   0.165   2.179
 3087SOL    HW210161   2.962   0.117   2.111
 3088SOL     OW10162   2.487   3.471   5.318
 3088SOL    HW110163   2.434   3.554   5.335
 3088SOL    HW210164   2.583   3.494   5.304
 3089SOL     OW10165   4.052   6.467   6.576
 3089SOL    HW110166   3.980   6.398   6.569
 3089SOL    HW210167   4.014   6.557   6.554
 3090SOL     OW10168   1.510   2.591   2.491
 3090SOL    HW110169   1.549   2.531   2.421
 3090SOL    HW210170   1.572   2.667   2.508
 3091SOL     OW10171   1.350   2.503   6.992
 3091SOL    HW110172   1.331   2.578   6.929
 3091SOL    HW210173   1.441   2.515   0.011
 3092SOL     OW10174   5.447   0.975   2.884
 3092SOL    HW110175   5.499   1.056   2.909
 3092SOL    HW210176   5.490   0.894   2.925
 3093SOL     OW10177   6.525   5.065   6.439
 3093SOL    HW110178   6.566   5.152   6.413
 3093SOL    HW210179   6.540   5.048   6.536
 3094SOL     OW10180   2.164   1.668   6.180
 3094SOL    HW110181   2.201   1.610   6.252
 3094SOL    HW210182   2.070   1.642   6.161
 3095SOL     OW10183   1.604   3.805   5.192
 3095SOL    HW110184   1.681   3.755   5.233
 3095SOL    HW210185   1.632   3.842   5.103
 3096SOL     OW10186   1.519   2.843   4.005
 3096SOL    HW110187   1.458   2.921   4.016
 3096SOL    HW210188   1.569   2.826   4.090
 3097SOL     OW10189   5.371   2.756   5.798
 3097SOL    HW110190   5.272   2.766   5.791
 3097SOL    HW210191   5.401   2.674   5.749
 3098SOL     OW10192   1.625   3.285   2.346
 3098SOL    HW110193   1.629   3.193   2.384
 3098SOL    HW210194   1.578   3.346   2.410
 3099SOL     OW10195   0.992   6.646   5.414
 3099SOL    HW110196   1.059   6.641   5.340
 3099SOL    HW210197   0.949   6.736   5.414
 3100SOL     OW10198   6.220   4.594   2.353
 3100SOL    HW110199   6.199   4.641   2.439
 3100SOL    HW210200   6.205   4.657   2.277
 3101SOL     OW10201   4.723   0.062   4.673
 3101SOL    HW110202   4.627   0.091   4.680
 3101SOL    HW210203   4.776   0.106   4.746
 3102SOL     OW10204   5.663   4.549   2.560
 3102SOL    HW110205   5.627   4.642   2.571
 3102SOL    HW210206   5.691   4.513   2.649
 3103SOL     OW10207   1.386   2.308   2.200
 3103SOL    HW110208   1.396   2.212   2.175
 3103SOL    HW210209   1.294   2.324   2.235
 3104SOL     OW10210   5.608   2.065   5.771
 3104SOL    HW110211   5.595   2.060   5.672
 3104SOL    HW210212   5.644   1.978   5.804
 3105SOL     OW10213   5.474   4.157   0.615
 3105SOL    HW110214   5.412   4.228   0.648
 3105SOL    HW210215   5.422   4.088   0.565
 3106SOL     OW10216   5.165   2.044   6.186
 3106SOL    HW110217   5.220   2.066   6.267
 3106SOL    HW210218   5.119   2.126   6.153
 3107SOL     OW10219   4.116   2.137   4.577
 3107SOL    HW110220   4.043   2.069   4.584
 3107SOL    HW210221   4.125   2.185   4.665
 3108SOL     OW10222   1.918   4.418   3.544
 3108SOL    HW110223   2.017   4.421   3.557
 3108SOL    HW210224   1.883   4.511   3.533
 3109SOL     OW10225   6.816   5.869   3.136
 3109SOL    HW110226   6.725   5.873   3.094
 3109SOL    HW210227   6.857   5.780   3.118
 3110SOL     OW10228   0.936   6.012   4.537
 3110SOL    HW110229   0.912   6.109   4.535
 3110SOL    HW210230   0.994   5.990   4.458
 3111SOL     OW10231   6.345   4.107   3.646
 3111SOL    HW110232   6.394   4.193   3.634
 3111SOL    HW210233   6.351   4.078   3.742
 3112SOL     OW10234   4.346   0.606   0.103
 3112SOL    HW110235   4.249   0.629   0.106
 3112SOL    HW210236   4.357   0.507   0.115
 3113SOL     OW10237   1.503   0.223   3.331
 3113SOL    HW110238   1.480   0.153   3.263
 3113SOL    HW210239   1.545   0.179   3.411
 3114SOL     OW10240   4.616   5.946   5.226
 3114SOL    HW110241   4.542   6.012   5.237
 3114SOL    HW210242   4.702   5.988   5.252
 3115SOL     OW10243   4.509   5.392   4.396
 3115SOL    HW110244   4.540   5.304   4.362
 3115SOL    HW210245   4.409   5.393   4.401
 3116SOL     OW10246   1.154   1.803   6.069
 3116SOL    HW110247   1.068   1.756   6.050
 3116SOL    HW210248   1.145   1.900   6.049
 3117SOL     OW10249   3.783   6.990   1.229
 3117SOL    HW110250   3.827   6.904   1.253
 3117SOL    HW210251   3.780   0.030   1.310
 3118SOL     OW10252   0.469   2.149   3.514
 3118SOL    HW110253   0.540   2.086   3.483
 3118SOL    HW210254   0.496   2.243   3.492
 3119SOL     OW10255   4.609   6.198   3.611
 3119SOL    HW110256   4.595   6.138   3.532
 3119SOL    HW210257   4.545   6.173   3.684
 3120SOL     OW10258   3.025   5.953   0.249
 3120SOL    HW110259   3.066   5.961   0.159
 3120SOL    HW210260   3.050   5.865   0.290
 3121SOL     OW10261   4.128   2.005   3.560
 3121SOL    HW110262   4.226   1.984   3.561
 3121SOL    HW210263   4.077   1.926   3.593
 3122SOL     OW10264   5.960   4.015   6.194
 3122SOL    HW110265   5.934   3.922   6.222
 3122SOL    HW210266   5.878   4.071   6.184
 3123SOL     OW10267   1.990   2.415   2.667
 3123SOL    HW110268   2.032   2.494   2.712
 3123SOL    HW210269   1.972   2.437   2.571
 3124SOL     OW10270   4.975   6.747   5.259
 3124SOL    HW110271   5.046   6.756   5.328
 3124SOL    HW210272   4.969   6.832   5.206
 3125SOL     OW10273   1.677   1.284   5.372
 3125SOL    HW110274   1.664   1.187   5.396
 3125SOL    HW210275   1.592   1.334   5.390
 3126SOL     OW10276   4.729   4.464   5.866
 3126SOL    HW110277   4.653   4.508   5.913
 3126SOL    HW210278   4.708   4.458   5.768
 3127SOL     OW10279   6.591   2.007   5.678
 3127SOL    HW110280   6.679   1.960   5.679
 3127SOL    HW210281   6.526   1.957   5.736
 3128SOL     OW10282   3.615   0.820   0.952
 3128SOL    HW110283   3.715   0.823   0.951
 3128SOL    HW210284   3.581   0.812   0.858
 3129SOL     OW10285   4.180   4.291   0.330
 3129SOL    HW110286   4.255   4.266   0.268
 3129SOL    HW210287   4.219   4.320   0.418
 3130SOL     OW10288   0.326   5.912   1.659
 3130SOL    HW110289   0.297   5.997   1.702
 3130SOL    HW210290   0.421   5.893   1.684
 3131SOL     OW10291   6.965   2.912   2.861
 3131SOL    HW110292   6.888   2.969   2.891
 3131SOL    HW210293   7.017   2.961   2.791
 3132SOL     OW10294   4.892   4.532   6.880
 3132SOL    HW110295   4.945   4.487   6.952
 3132SOL    HW210296   4.796   4.503   6.885
 3133SOL     OW10297   5.335   6.251   3.289
 3133SOL    HW110298   5.287   6.172   3.251
 3133SOL    HW210299   5.271   6.327   3.300
 3134SOL     OW10300   5.414   4.443   3.070
 3134SOL    HW110301   5.318   4.447   3.041
 3134SOL    HW210302   5.453   4.355   3.045
 3135SOL     OW10303   3.493   0.371   6.576
 3135SOL    HW110304   3.417   0.402   6.633
 3135SOL    HW210305   3.577   0.371   6.629
 3136SOL     OW10306   6.610   6.843   2.683
 3136SOL    HW110307   6.684   6.906   2.706
 3136SOL    HW210308   6.530   6.895   2.652
 3137SOL     OW10309   4.250   5.543   6.966
 3137SOL    HW110310   4.208   5.477   0.008
 3137SOL    HW210311   4.181   5.579   6.903
 3138SOL     OW10312   6.918   6.717   4.854
 3138SOL    HW110313   6.873   6.731   4.942
 3138SOL    HW210314   6.955   6.804   4.821
 3139SOL     OW10315   1.601   5.297   1.759
 3139SOL    HW110316   1.652   5.380   1.781
 3139SOL    HW210317   1.660   5.217   1.772
 3140SOL     OW10318   5.553   6.157   6.994
 3140SOL    HW110319   5.651   6.146   6.978
 3140SOL    HW210320   5.512   6.207   6.917
 3141SOL     OW10321   5.812   1.367   6.538
 3141SOL    HW110322   5.911   1.374   6.543
 3141SOL    HW210323   5.773   1.373   6.630
 3142SOL     OW10324   4.821   0.979   3.918
 3142SOL    HW110325   4.749   0.968   3.986
 3142SOL    HW210326   4.804   0.917   3.841
 3143SOL     OW10327   0.124   1.350   0.923
 3143SOL    HW110328   0.219   1.363   0.952
 3143SOL    HW210329   0.079   1.439   0.916
 3144SOL     OW10330   3.860   4.846   0.037
 3144SOL    HW110331   3.928   4.898   0.088
 3144SOL    HW210332   3.905   4.775   7.004
 3145SOL     OW10333   1.084   5.367   6.355
 3145SOL    HW110334   0.986   5.360   6.338
 3145SOL    HW210335   1.133   5.370   6.268
 3146SOL     OW10336   6.291   2.327   4.732
 3146SOL    HW110337   6.316   2.231   4.720
 3146SOL    HW210338   6.329   2.381   4.656
 3147SOL     OW10339   4.460   0.107   0.788
 3147SOL    HW110340   4.518   0.066   0.858
 3147SOL    HW210341   4.472   0.206   0.789
 3148SOL     OW10342   6.585   4.862   0.550
 3148SOL    HW110343   6.566   4.955   0.518
 3148SOL    HW210344   6.633   4.812   0.478
 3149SOL     OW10345   4.067   3.028   0.299
 3149SOL    HW110346   3.971   3.036   0.272
 3149SOL    HW210347   4.103   3.118   0.323
 3150SOL     OW10348   0.116   0.146   5.317
 3150SOL    HW110349   0.056   0.226   5.313
 3150SOL    HW210350   0.079   0.078   5.379
 3151SOL     OW10351   6.918   0.682   5.642
 3151SOL    HW110352   7.004   0.705   5.598
 3151SOL    HW210353   6.873   0.766   5.675
 3152SOL     OW10354   2.358   2.067   5.691
 3152SOL    HW110355   2.322   1.992   5.635
 3152SOL    HW210356   2.381   2.032   5.782
 3153SOL     OW10357   5.743   5.718   2.007
 3153SOL    HW110358   5.670   5.687   2.067
 3153SOL    HW210359   5.705   5.782   1.939
 3154SOL     OW10360   3.754   2.045   0.963
 3154SOL    HW110361   3.663   2.083   0.978
 3154SOL    HW210362   3.748   1.968   0.899
 3155SOL     OW10363   0.031   5.178   6.778
 3155SOL    HW110364   6.988   5.113   6.734
 3155SOL    HW210365   0.077   5.132   6.854
 3156SOL     OW10366   3.613   4.429   0.831
 3156SOL    HW110367   3.588   4.414   0.926
 3156SOL    HW210368   3.635   4.341   0.788
 3157SOL     OW10369   1.451   1.053   4.011
 3157SOL    HW110370   1.423   0.975   4.067
 3157SOL    HW210371   1.437   1.138   4.063
 3158SOL     OW10372   2.639   0.400   6.041
 3158SOL    HW110373   2.682   0.353   5.964
 3158SOL    HW210374   2.631   0.337   6.118
 3159SOL     OW10375   5.105   0.066   1.559
 3159SOL    HW110376   5.014   0.028   1.546
 3159SOL    HW210377   5.098   0.166   1.567
 3160SOL     OW10378   1.990   0.846   4.891
 3160SOL    HW110379   1.987   0.804   4.800
 3160SOL    HW210380   1.952   0.938   4.887
 3161SOL     OW10381   1.694   2.694   2.203
 3161SOL    HW110382   1.712   2.622   2.137
 3161SOL    HW210383   1.599   2.687   2.234
 3162SOL     OW10384   1.106   5.844   1.530
 3162SOL    HW110385   1.100   5.797   1.441
 3162SOL    HW210386   1.111   5.776   1.603
 3163SOL     OW10387   4.827   4.187   1.029
 3163SOL    HW110388   4.789   4.276   1.053
 3163SOL    HW210389   4.851   4.137   1.113
 3164SOL     OW10390   2.378   6.680   4.237
 3164SOL    HW110391   2.382   6.677   4.337
 3164SOL    HW210392   2.349   6.771   4.207
 3165SOL     OW10393   0.769   6.439   6.437
 3165SOL    HW110394   0.794   6.525   6.391
 3165SOL    HW210395   0.826   6.365   6.402
 3166SOL     OW10396   4.355   2.002   4.481
 3166SOL    HW110397   4.384   1.954   4.564
 3166SOL    HW210398   4.276   2.060   4.502
 3167SOL     OW10399   6.086   2.854   1.509
 3167SOL    HW110400   6.012   2.913   1.540
 3167SOL    HW210401   6.048   2.770   1.472
 3168SOL     OW10402   5.716   1.374   0.864
 3168SOL    HW110403   5.653   1.303   0.892
 3168SOL    HW210404   5.689   1.409   0.774
 3169SOL     OW10405   1.229   4.083   2.052
 3169SOL    HW110406   1.140   4.097   2.011
 3169SOL    HW210407   1.222   4.015   2.126
 3170SOL     OW10408   2.292   4.156   3.504
 3170SOL    HW110409   2.259   4.192   3.417
 3170SOL    HW210410   2.392   4.153   3.503
 3171SOL     OW10411   5.457   1.096   4.821
 3171SOL    HW110412   5.477   1.184   4.778
 3171SOL    HW210413   5.389   1.110   4.893
 3172SOL     OW10414   5.784   4.117   1.334
 3172SOL    HW110415   5.780   4.076   1.424
 3172SOL    HW210416   5.797   4.216   1.342
 3173SOL     OW10417   5.710   3.041   0.266
 3173SOL    HW110418   5.640   2.974   0.239
 3173SOL    HW210419   5.698   3.066   0.362
 3174SOL     OW10420   3.768   2.507   6.521
 3174SOL    HW110421   3.849   2.565   6.517
 3174SOL    HW210422   3.795   2.411   6.519
 3175SOL     OW10423   6.085   6.489   5.205
 3175SOL    HW110424   6.146   6.418   5.242
 3175SOL    HW210425   5.993   6.451   5.195
 3176SOL     OW10426   0.361   5.159   4.082
 3176SOL    HW110427   0.433   5.100   4.119
 3176SOL    HW210428   0.357   5.148   3.982
 3177SOL     OW10429   4.820   3.048   3.194
 3177SOL    HW110430   4.835   3.121   3.260
 3177SOL    HW210431   4.751   2.985   3.228
 3178SOL     OW10432   0.917   0.263   2.792
 3178SOL    HW110433   0.994   0.297   2.739
 3178SOL    HW210434   0.835   0.261   2.735
 3179SOL     OW10435   0.729   3.171   2.429
 3179SOL    HW110436   0.740   3.146   2.333
 3179SOL    HW210437   0.634   3.198   2.446
 3180SOL     OW10438   6.513   6.849   6.808
 3180SOL    HW110439   6.587   6.847   6.741
 3180SOL    HW210440   6.514   6.938   6.855
 3181SOL     OW10441   0.612   5.995   4.879
 3181SOL    HW110442   0.685   5.945   4.925
 3181SOL    HW210443   0.643   6.088   4.858
 3182SOL     OW10444   1.268   6.981   1.128
 3182SOL    HW110445   1.193   6.925   1.093
 3182SOL    HW210446   1.232   0.045   1.166
 3183SOL     OW10447   4.086   3.191   0.972
 3183SOL    HW110448   4.069   3.220   1.066
 3183SOL    HW210449   4.165   3.239   0.935
 3184SOL     OW10450   6.261   1.472   4.336
 3184SOL    HW110451   6.354   1.439   4.357
 3184SOL    HW210452   6.257   1.501   4.241
 3185SOL     OW10453   0.717   6.286   5.982
 3185SOL    HW110454   0.782   6.359   5.960
 3185SOL    HW210455   0.762   6.216   6.037
 3186SOL     OW10456   0.579   2.837   5.808
 3186SOL    HW110457   0.661   2.882   5.773
 3186SOL    HW210458   0.498   2.880   5.769
 3187SOL     OW10459   5.140   7.012   2.938
 3187SOL    HW110460   5.166   0.020   3.031
 3187SOL    HW210461   5.186   6.925   2.916
 3188SOL     OW10462   1.767   6.605   0.744
 3188SOL    HW110463   1.828   6.651   0.808
 3188SOL    HW210464   1.675   6.599   0.783
 3189SOL     OW10465   2.759   1.496   6.227
 3189SOL    HW110466   2.703   1.567   6.269
 3189SOL    HW210467   2.793   1.529   6.139
 3190SOL     OW10468   5.819   6.178   3.822
 3190SOL    HW110469   5.894   6.148   3.882
 3190SOL    HW210470   5.853   6.185   3.728
 3191SOL     OW10471   3.706   5.105   1.538
 3191SOL    HW110472   3.631   5.059   1.585
 3191SOL    HW210473   3.695   5.204   1.547
 3192SOL     OW10474   5.099   0.779   2.635
 3192SOL    HW110475   5.128   0.826   2.718
 3192SOL    HW210476   5.114   0.839   2.556
 3193SOL     OW10477   3.298   5.609   5.106
 3193SOL    HW110478   3.394   5.588   5.124
 3193SOL    HW210479   3.278   5.702   5.137
 3194SOL     OW10480   1.781   6.727   5.396
 3194SOL    HW110481   1.691   6.761   5.425
 3194SOL    HW210482   1.827   6.798   5.343
 3195SOL     OW10483   0.711   0.045   0.621
 3195SOL    HW110484   0.746   0.137   0.600
 3195SOL    HW210485   0.707   0.033   0.720
 3196SOL     OW10486   6.198   6.880   2.738
 3196SOL    HW110487   6.173   6.797   2.689
 3196SOL    HW210488   6.270   6.859   2.805
 3197SOL     OW10489   2.697   0.328   7.003
 3197SOL    HW110490   2.716   0.389   0.059
 3197SOL    HW210491   2.741   0.363   6.920
 3198SOL     OW10492   5.205   2.860   3.927
 3198SOL    HW110493   5.279   2.926   3.938
 3198SOL    HW210494   5.230   2.792   3.857
 3199SOL     OW10495   5.007   4.006   3.180
 3199SOL    HW110496   5.006   3.912   3.145
 3199SOL    HW210497   4.922   4.052   3.155
 3200SOL     OW10498   5.813   3.998   4.896
 3200SOL    HW110499   5.887   4.059   4.868
 3200SOL    HW210500   5.848   3.905   4.903
 3201SOL     OW10501   6.435   4.164   2.063
 3201SOL    HW110502   6.417   4.085   2.122
 3201SOL    HW210503   6.402   4.247   2.106
 3202SOL     OW10504   2.697   2.859   6.338
 3202SOL    HW110505   2.629   2.799   6.297
 3202SOL    HW210506   2.754   2.806   6.402
 3203SOL     OW10507   3.183   6.876   1.595
 3203SOL    HW110508   3.263   6.886   1.654
 3203SOL    HW210509   3.103   6.852   1.650
 3204SOL     OW10510   4.178   0.625   3.872
 3204SOL    HW110511   4.119   0.696   3.909
 3204SOL    HW210512   4.149   0.535   3.907
 3205SOL     OW10513   4.453   2.942   6.039
 3205SOL    HW110514   4.411   3.019   6.088
 3205SOL    HW210515   4.383   2.873   6.020
 3206SOL     OW10516   2.942   4.361   0.982
 3206SOL    HW110517   2.846   4.373   1.007
 3206SOL    HW210518   2.951   4.283   0.921
 3207SOL     OW10519   2.481   6.149   4.034
 3207SOL    HW110520   2.536   6.230   4.011
 3207SOL    HW210521   2.538   6.082   4.082
 3208SOL     OW10522   6.759   4.700   6.047
 3208SOL    HW110523   6.801   4.609   6.048
 3208SOL    HW210524   6.725   4.722   6.139
 3209SOL     OW10525   5.240   6.970   6.220
 3209SOL    HW110526   5.192   7.005   6.300
 3209SOL    HW210527   5.224   6.872   6.211
 3210SOL     OW10528   4.747   5.466   1.490
 3210SOL    HW110529   4.659   5.470   1.538
 3210SOL    HW210530   4.766   5.372   1.463
 3211SOL     OW10531   2.071   6.589   6.430
 3211SOL    HW110532   2.075   6.654   6.355
 3211SOL    HW210533   2.000   6.617   6.495
 3212SOL     OW10534   3.674   6.817   3.858
 3212SOL    HW110535   3.743   6.769   3.804
 3212SOL    HW210536   3.614   6.869   3.797
 3213SOL     OW10537   1.332   0.441   5.698
 3213SOL    HW110538   1.321   0.538   5.673
 3213SOL    HW210539   1.358   0.389   5.617
 3214SOL     OW10540   3.674   0.586   2.888
 3214SOL    HW110541   3.760   0.549   2.922
 3214SOL    HW210542   3.663   0.680   2.920
 3215SOL     OW10543   2.054   3.028   1.860
 3215SOL    HW110544   2.040   3.116   1.906
 3215SOL    HW210545   2.059   2.956   1.928
 3216SOL     OW10546   6.291   5.605   0.552
 3216SOL    HW110547   6.210   5.664   0.545
 3216SOL    HW210548   6.271   5.528   0.613
 3217SOL     OW10549   6.669   5.248   3.836
 3217SOL    HW110550   6.578   5.289   3.829
 3217SOL    HW210551   6.706   5.233   3.744
 3218SOL     OW10552   5.830   1.287   2.812
 3218SOL    HW110553   5.832   1.283   2.912
 3218SOL    HW210554   5.915   1.250   2.775
 3219SOL     OW10555   5.812   1.715   5.274
 3219SOL    HW110556   5.837   1.784   5.206
 3219SOL    HW210557   5.732   1.664   5.242
 3220SOL     OW10558   0.430   3.807   5.731
 3220SOL    HW110559   0.515   3.832   5.779
 3220SOL    HW210560   0.443   3.819   5.632
 3221SOL     OW10561   3.929   1.556   2.235
 3221SOL    HW110562   3.859   1.485   2.226
 3221SOL    HW210563   4.015   1.514   2.263
 3222SOL     OW10564   3.543   1.367   3.358
 3222SOL    HW110565   3.503   1.436   3.297
 3222SOL    HW210566   3.629   1.402   3.396
 3223SOL     OW10567   1.570   5.745   0.840
 3223SOL    HW110568   1.568   5.794   0.927
 3223SOL    HW210569   1.490   5.770   0.785
 3224SOL     OW10570   4.574   2.684   4.780
 3224SOL    HW110571   4.611   2.667   4.689
 3224SOL    HW210572   4.477   2.706   4.773
 3225SOL     OW10573   4.875   1.041   5.021
 3225SOL    HW110574   4.928   1.108   5.072
 3225SOL    HW210575   4.835   1.083   4.940
 3226SOL     OW10576   6.615   0.925   0.776
 3226SOL    HW110577   6.552   0.886   0.843
 3226SOL    HW210578   6.589   1.020   0.757
 3227SOL     OW10579   6.207   4.005   5.592
 3227SOL    HW110580   6.240   4.057   5.512
 3227SOL    HW210581   6.283   3.993   5.656
 3228SOL     OW10582   2.268   4.255   0.253
 3228SOL    HW110583   2.311   4.178   0.205
 3228SOL    HW210584   2.190   4.222   0.306
 3229SOL     OW10585   1.657   1.582   0.573
 3229SOL    HW110586   1.727   1.512   0.559
 3229SOL    HW210587   1.701   1.671   0.589
 3230SOL     OW10588   2.896   6.150   5.257
 3230SOL    HW110589   2.883   6.154   5.158
 3230SOL    HW210590   2.858   6.232   5.300
 3231SOL     OW10591   1.771   3.101   2.516
 3231SOL    HW110592   1.835   3.041   2.564
 3231SOL    HW210593   1.777   3.193   2.554
 3232SOL     OW10594   2.619   4.965   3.204
 3232SOL    HW110595   2.537   5.000   3.159
 3232SOL    HW210596   2.592   4.906   3.280
 3233SOL     OW10597   2.159   0.093   0.043
 3233SOL    HW110598   2.084   0.098   6.998
 3233SOL    HW210599   2.137   0.024   0.113
 3234SOL     OW10600   3.120   3.420   0.779
 3234SOL    HW110601   3.075   3.336   0.748
 3234SOL    HW210602   3.186   3.398   0.851
 3235SOL     OW10603   6.921   1.369   2.778
 3235SOL    HW110604   6.983   1.338   2.850
 3235SOL    HW210605   6.827   1.368   2.813
 3236SOL     OW10606   4.862   0.210   0.801
 3236SOL    HW110607   4.892   0.295   0.844
 3236SOL    HW210608   4.810   0.232   0.718
 3237SOL     OW10609   5.873   1.229   5.008
 3237SOL    HW110610   5.959   1.201   5.050
 3237SOL    HW210611   5.883   1.320   4.967
 3238SOL     OW10612   5.918   4.652   1.598
 3238SOL    HW110613   5.987   4.723   1.585
 3238SOL    HW210614   5.883   4.623   1.509
 3239SOL     OW10615   5.719   0.790   4.711
 3239SOL    HW110616   5.658   0.720   4.750
 3239SOL    HW210617   5.738   0.859   4.780
 3240SOL     OW10618   0.525   1.579   0.418
 3240SOL    HW110619   0.621   1.559   0.438
 3240SOL    HW210620   0.518   1.672   0.381
 3241SOL     OW10621   6.871   3.091   5.338
 3241SOL    HW110622   6.877   3.030   5.258
 3241SOL    HW210623   6.929   3.055   5.411
 3242SOL     OW10624   6.843   4.081   5.007
 3242SOL    HW110625   6.854   4.114   4.914
 3242SOL    HW210626   6.892   3.994   5.018
 3243SOL     OW10627   5.777   5.344   3.949
 3243SOL    HW110628   5.845   5.283   3.907
 3243SOL    HW210629   5.761   5.423   3.890
 3244SOL     OW10630   4.653   6.964   0.234
 3244SOL    HW110631   4.681   7.006   0.148
 3244SOL    HW210632   4.734   6.945   0.289
 3245SOL     OW10633   3.536   6.663   4.054
 3245SOL    HW110634   3.627   6.702   4.069
 3245SOL    HW210635   3.499   6.697   3.968
 3246SOL     OW10636   6.523   5.825   3.099
 3246SOL    HW110637   6.485   5.868   3.180
 3246SOL    HW210638   6.474   5.858   3.018
 3247SOL     OW10639   1.869   4.727   3.915
 3247SOL    HW110640   1.967   4.747   3.910
 3247SOL    HW210641   1.853   4.654   3.981
 3248SOL     OW10642   5.532   2.862   3.099
 3248SOL    HW110643   5.602   2.794   3.121
 3248SOL    HW210644   5.575   2.952   3.092
 3249SOL     OW10645   3.105   4.050   3.519
 3249SOL    HW110646   3.096   3.958   3.559
 3249SOL    HW210647   3.019   4.100   3.533
 3250SOL     OW10648   4.832   5.668   3.488
 3250SOL    HW110649   4.814   5.711   3.399
 3250SOL    HW210650   4.785   5.718   3.560
 3251SOL     OW10651   2.808   2.282   2.499
 3251SOL    HW110652   2.736   2.315   2.560
 3251SOL    HW210653   2.884   2.247   2.553
 3252SOL     OW10654   2.042   1.971   3.309
 3252SOL    HW110655   2.029   1.924   3.396
 3252SOL    HW210656   2.001   1.916   3.235
 3253SOL     OW10657   6.406   3.860   0.083
 3253SOL    HW110658   6.494   3.882   0.127
 3253SOL    HW210659   6.376   3.939   0.029
 3254SOL     OW10660   5.957   6.742   0.792
 3254SOL    HW110661   5.881   6.806   0.777
 3254SOL    HW210662   6.011   6.773   0.870
 3255SOL     OW10663   3.722   5.886   2.053
 3255SOL    HW110664   3.717   5.817   1.980
 3255SOL    HW210665   3.714   5.841   2.141
 3256SOL     OW10666   5.638   2.675   1.101
 3256SOL    HW110667   5.584   2.596   1.127
 3256SOL    HW210668   5.654   2.733   1.181
 3257SOL     OW10669   3.747   1.219   3.096
 3257SOL    HW110670   3.794   1.131   3.103
 3257SOL    HW210671   3.725   1.252   3.188
 3258SOL     OW10672   1.849   5.655   3.611
 3258SOL    HW110673   1.920   5.654   3.682
 3258SOL    HW210674   1.785   5.580   3.627
 3259SOL     OW10675   5.507   4.289   4.660
 3259SOL    HW110676   5.417   4.245   4.655
 3259SOL    HW210677   5.557   4.271   4.575
 3260SOL     OW10678   1.641   4.964   2.896
 3260SOL    HW110679   1.588   5.028   2.841
 3260SOL    HW210680   1.726   4.942   2.849
 3261SOL     OW10681   6.092   0.010   4.292
 3261SOL    HW110682   6.062   6.962   4.225
 3261SOL    HW210683   6.015   0.068   4.318
 3262SOL     OW10684   3.061   1.569   3.557
 3262SOL    HW110685   2.964   1.590   3.570
 3262SOL    HW210686   3.114   1.613   3.629
 3263SOL     OW10687   6.913   0.938   0.908
 3263SOL    HW110688   6.822   0.905   0.882
 3263SOL    HW210689   6.957   0.983   0.830
 3264SOL     OW10690   1.631   4.467   6.815
 3264SOL    HW110691   1.583   4.553   6.836
 3264SOL    HW210692   1.620   4.404   6.891
 3265SOL     OW10693   0.153   5.567   6.438
 3265SOL    HW110694   0.198   5.478   6.438
 3265SOL    HW210695   0.216   5.636   6.404
 3266SOL     OW10696   3.766   4.846   6.116
 3266SOL    HW110697   3.814   4.930   6.143
 3266SOL    HW210698   3.773   4.834   6.017
 3267SOL     OW10699   3.435   6.805   0.967
 3267SOL    HW110700   3.416   6.782   1.062
 3267SOL    HW210701   3.499   6.738   0.929
 3268SOL     OW10702   5.624   5.335   1.777
 3268SOL    HW110703   5.694   5.285   1.726
 3268SOL    HW210704   5.556   5.269   1.811
 3269SOL     OW10705   2.125   5.071   1.511
 3269SOL    HW110706   2.134   4.985   1.460
 3269SOL    HW210707   2.088   5.051   1.602
 3270SOL     OW10708   1.502   2.825   6.077
 3270SOL    HW110709   1.544   2.759   6.140
 3270SOL    HW210710   1.508   2.917   6.115
 3271SOL     OW10711   1.185   3.885   1.276
 3271SOL    HW110712   1.222   3.973   1.306
 3271SOL    HW210713   1.171   3.887   1.177
 3272SOL     OW10714   4.056   6.380   1.588
 3272SOL    HW110715   4.069   6.454   1.523
 3272SOL    HW210716   4.106   6.299   1.558
 3273SOL     OW10717   3.536   3.963   6.596
 3273SOL    HW110718   3.513   4.008   6.683
 3273SOL    HW210719   3.632   3.938   6.596
 3274SOL     OW10720   4.993   6.726   2.059
 3274SOL    HW110721   5.016   6.823   2.047
 3274SOL    HW210722   5.049   6.688   2.133
 3275SOL     OW10723   4.947   0.662   1.348
 3275SOL    HW110724   4.958   0.681   1.446
 3275SOL    HW210725   5.036   0.664   1.303
 3276SOL     OW10726   6.024   5.943   0.161
 3276SOL    HW110727   6.101   5.966   0.220
 3276SOL    HW210728   5.939   5.969   0.207
 3277SOL     OW10729   2.971   2.007   2.388
 3277SOL    HW110730   2.936   2.098   2.366
 3277SOL    HW210731   2.945   1.943   2.315
 3278SOL     OW10732   4.986   1.011   6.449
 3278SOL    HW110733   5.015   1.092   6.499
 3278SOL    HW210734   5.027   1.012   6.358
 3279SOL     OW10735   3.685   0.131   2.459
 3279SOL    HW110736   3.594   0.144   2.498
 3279SOL    HW210737   3.727   0.049   2.499
 3280SOL     OW10738   0.059   3.029   3.748
 3280SOL    HW110739   0.031   3.056   3.840
 3280SOL    HW210740   0.158   3.013   3.747
 3281SOL     OW10741   5.593   1.721   1.892
 3281SOL    HW110742   5.544   1.728   1.979
 3281SOL    HW210743   5.581   1.629   1.854
 3282SOL     OW10744   0.180   4.617   5.290
 3282SOL    HW110745   0.135   4.679   5.226
 3282SOL    HW210746   0.130   4.616   5.376
 3283SOL     OW10747   2.895   1.711   0.094
 3283SOL    HW110748   2.894   1.798   0.143
 3283SOL    HW210749   2.978   1.705   0.038
 3284SOL     OW10750   2.163   0.094   4.729
 3284SOL    HW110751   2.216   0.009   4.731
 3284SOL    HW210752   2.224   0.170   4.706
 3285SOL     OW10753   4.143   2.181   4.273
 3285SOL    HW110754   4.145   2.226   4.362
 3285SOL    HW210755   4.109   2.087   4.283
 3286SOL     OW10756   1.639   3.399   3.161
 3286SOL    HW110757   1.544   3.400   3.193
 3286SOL    HW210758   1.660   3.308   3.125
 3287SOL     OW10759   2.547   0.878   1.047
 3287SOL    HW110760   2.514   0.967   1.015
 3287SOL    HW210761   2.634   0.857   1.001
 3288SOL     OW10762   2.649   6.003   2.105
 3288SOL    HW110763   2.618   5.983   2.198
 3288SOL    HW210764   2.697   5.924   2.068
 3289SOL     OW10765   4.143   0.681   6.824
 3289SOL    HW110766   4.112   0.641   6.910
 3289SOL    HW210767   4.124   0.779   6.823
 3290SOL     OW10768   0.707   5.286   7.006
 3290SOL    HW110769   0.668   5.213   0.041
 3290SOL    HW210770   0.633   5.339   6.963
 3291SOL     OW10771   4.905   6.585   4.844
 3291SOL    HW110772   4.914   6.685   4.846
 3291SOL    HW210773   4.938   6.548   4.931
 3292SOL     OW10774   0.156   2.494   0.190
 3292SOL    HW110775   0.063   2.474   0.157
 3292SOL    HW210776   0.193   2.572   0.139
 3293SOL     OW10777   6.831   5.001   3.239
 3293SOL    HW110778   6.772   5.033   3.313
 3293SOL    HW210779   6.927   5.006   3.268
 3294SOL     OW10780   3.817   3.043   5.633
 3294SOL    HW110781   3.803   3.045   5.534
 3294SOL    HW210782   3.889   3.108   5.658
 3295SOL     OW10783   1.394   2.685   3.339
 3295SOL    HW110784   1.459   2.614   3.310
 3295SOL    HW210785   1.404   2.702   3.437
 3296SOL     OW10786   2.336   0.793   6.555
 3296SOL    HW110787   2.286   0.751   6.631
 3296SOL    HW210788   2.280   0.863   6.513
 3297SOL     OW10789   4.285   1.334   5.141
 3297SOL    HW110790   4.232   1.371   5.218
 3297SOL    HW210791   4.303   1.237   5.157
 3298SOL     OW10792   3.282   4.601   5.601
 3298SOL    HW110793   3.287   4.517   5.654
 3298SOL    HW210794   3.293   4.581   5.504
 3299SOL     OW10795   2.739   6.589   3.857
 3299SOL    HW110796   2.696   6.652   3.792
 3299SOL    HW210797   2.816   6.543   3.814
 3300SOL     OW10798   1.708   1.019   3.572
 3300SOL    HW110799   1.730   0.942   3.513
 3300SOL    HW210800   1.676   0.985   3.660
 3301SOL     OW10801   1.023   1.299   3.046
 3301SOL    HW110802   1.102   1.325   3.102
 3301SOL    HW210803   0.960   1.243   3.100
 3302SOL     OW10804   1.253   5.210   5.449
 3302SOL    HW110805   1.351   5.215   5.427
 3302SOL    HW210806   1.239   5.240   5.544
 3303SOL     OW10807   3.785   3.766   0.006
 3303SOL    HW110808   3.874   3.805   7.001
 3303SOL    HW210809   3.726   3.766   6.945
 3304SOL     OW10810   2.046   4.130   0.392
 3304SOL    HW110811   1.978   4.131   0.320
 3304SOL    HW210812   2.003   4.150   0.480
 3305SOL     OW10813   2.899   2.794   0.174
 3305SOL    HW110814   2.869   2.714   0.123
 3305SOL    HW210815   2.907   2.873   0.112
 3306SOL     OW10816   2.626   0.144   0.186
 3306SOL    HW110817   2.620   0.195   0.100
 3306SOL    HW210818   2.555   0.074   0.189
 3307SOL     OW10819   1.782   5.672   4.370
 3307SOL    HW110820   1.822   5.598   4.423
 3307SOL    HW210821   1.806   5.662   4.273
 3308SOL     OW10822   4.144   5.209   1.494
 3308SOL    HW110823   4.107   5.148   1.565
 3308SOL    HW210824   4.177   5.154   1.417
 3309SOL     OW10825   5.271   3.604   3.043
 3309SOL    HW110826   5.361   3.610   3.087
 3309SOL    HW210827   5.209   3.553   3.102
 3310SOL     OW10828   6.349   4.162   6.139
 3310SOL    HW110829   6.289   4.148   6.060
 3310SOL    HW210830   6.434   4.111   6.125
 3311SOL     OW10831   2.134   3.220   0.447
 3311SOL    HW110832   2.216   3.193   0.396
 3311SOL    HW210833   2.137   3.179   0.538
 3312SOL     OW10834   4.830   2.736   6.929
 3312SOL    HW110835   4.846   2.650   6.879
 3312SOL    HW210836   4.822   2.811   6.864
 3313SOL     OW10837   0.397   6.895   4.510
 3313SOL    HW110838   0.320   6.959   4.518
 3313SOL    HW210839   0.379   6.816   4.569
 3314SOL     OW10840   3.685   5.763   2.312
 3314SOL    HW110841   3.737   5.750   2.397
 3314SOL    HW210842   3.642   5.677   2.287
 3315SOL     OW10843   1.777   6.171   3.965
 3315SOL    HW110844   1.761   6.218   3.878
 3315SOL    HW210845   1.744   6.077   3.959
 3316SOL     OW10846   3.836   2.992   0.181
 3316SOL    HW110847   3.821   2.894   0.169
 3316SOL    HW210848   3.752   3.035   0.214
 3317SOL     OW10849   5.489   2.329   1.572
 3317SOL    HW110850   5.415   2.263   1.563
 3317SOL    HW210851   5.468   2.410   1.516
 3318SOL     OW10852   3.303   3.038   0.809
 3318SOL    HW110853   3.347   3.097   0.742
 3318SOL    HW210854   3.312   3.080   0.900
 3319SOL     OW10855   6.457   6.228   4.409
 3319SOL    HW110856   6.391   6.153   4.404
 3319SOL    HW210857   6.440   6.293   4.335
 3320SOL     OW10858   6.450   0.367   2.071
 3320SOL    HW110859   6.355   0.378   2.099
 3320SOL    HW210860   6.483   0.451   2.029
 3321SOL     OW10861   4.980   1.766   0.184
 3321SOL    HW110862   5.037   1.765   0.102
 3321SOL    HW210863   4.966   1.860   0.214
 3322SOL     OW10864   6.331   2.819   0.725
 3322SOL    HW110865   6.254   2.822   0.661
 3322SOL    HW210866   6.381   2.733   0.714
 3323SOL     OW10867   1.576   1.696   1.616
 3323SOL    HW110868   1.546   1.679   1.522
 3323SOL    HW210869   1.542   1.624   1.675
 3324SOL     OW10870   5.784   5.361   5.923
 3324SOL    HW110871   5.776   5.271   5.882
 3324SOL    HW210872   5.694   5.405   5.927
 3325SOL     OW10873   2.863   5.159   5.155
 3325SOL    HW110874   2.809   5.085   5.115
 3325SOL    HW210875   2.814   5.197   5.233
 3326SOL     OW10876   3.482   2.043   2.193
 3326SOL    HW110877   3.389   2.031   2.159
 3326SOL    HW210878   3.535   2.097   2.128
 3327SOL     OW10879   1.439   5.762   5.931
 3327SOL    HW110880   1.428   5.854   5.968
 3327SOL    HW210881   1.511   5.714   5.982
 3328SOL     OW10882   4.801   2.680   5.232
 3328SOL    HW110883   4.831   2.768   5.270
 3328SOL    HW210884   4.832   2.673   5.137
 3329SOL     OW10885   6.694   6.069   5.497
 3329SOL    HW110886   6.760   6.142   5.483
 3329SOL    HW210887   6.640   6.057   5.414
 3330SOL     OW10888   6.723   3.680   3.298
 3330SOL    HW110889   6.752   3.591   3.332
 3330SOL    HW210890   6.715   3.676   3.198
 3331SOL     OW10891   2.142   3.168   0.724
 3331SOL    HW110892   2.155   3.265   0.747
 3331SOL    HW210893   2.137   3.115   0.809
 3332SOL     OW10894   6.854   4.106   1.335
 3332SOL    HW110895   6.925   4.059   1.282
 3332SOL    HW210896   6.873   4.096   1.432
 3333SOL     OW10897   2.814   5.621   5.904
 3333SOL    HW110898   2.864   5.635   5.819
 3333SOL    HW210899   2.719   5.648   5.891
 3334SOL     OW10900   1.596   3.634   1.539
 3334SOL    HW110901   1.540   3.694   1.482
 3334SOL    HW210902   1.679   3.681   1.567
 3335SOL     OW10903   5.790   4.336   4.858
 3335SOL    HW110904   5.758   4.330   4.764
 3335SOL    HW210905   5.727   4.286   4.918
 3336SOL     OW10906   3.060   6.248   5.875
 3336SOL    HW110907   3.029   6.215   5.964
 3336SOL    HW210908   3.140   6.196   5.846
 3337SOL     OW10909   3.424   1.718   0.815
 3337SOL    HW110910   3.406   1.808   0.855
 3337SOL    HW210911   3.392   1.647   0.878
 3338SOL     OW10912   0.046   4.477   0.291
 3338SOL    HW110913   0.051   4.471   0.391
 3338SOL    HW210914   0.138   4.492   0.254
 3339SOL     OW10915   1.192   5.462   6.099
 3339SOL    HW110916   1.154   5.379   6.061
 3339SOL    HW210917   1.289   5.469   6.075
 3340SOL     OW10918   3.952   0.381   2.352
 3340SOL    HW110919   4.039   0.402   2.307
 3340SOL    HW210920   3.888   0.343   2.285
 3341SOL     OW10921   0.217   6.778   1.087
 3341SOL    HW110922   0.195   6.854   1.027
 3341SOL    HW210923   0.270   6.709   1.037
 3342SOL     OW10924   3.054   0.295   5.078
 3342SOL    HW110925   3.135   0.299   5.137
 3342SOL    HW210926   3.016   0.202   5.081
 3343SOL     OW10927   0.519   2.459   1.265
 3343SOL    HW110928   0.581   2.532   1.294
 3343SOL    HW210929   0.540   2.433   1.170
 3344SOL     OW10930   0.280   2.378   5.896
 3344SOL    HW110931   0.229   2.464   5.907
 3344SOL    HW210932   0.369   2.397   5.855
 3345SOL     OW10933   1.813   3.361   5.488
 3345SOL    HW110934   1.814   3.459   5.507
 3345SOL    HW210935   1.845   3.311   5.569
 3346SOL     OW10936   1.680   5.979   2.317
 3346SOL    HW110937   1.601   6.025   2.359
 3346SOL    HW210938   1.740   5.944   2.389
 3347SOL     OW10939   5.910   3.777   4.163
 3347SOL    HW110940   5.949   3.688   4.189
 3347SOL    HW210941   5.984   3.845   4.156
 3348SOL     OW10942   3.819   3.429   3.196
 3348SOL    HW110943   3.838   3.483   3.114
 3348SOL    HW210944   3.873   3.345   3.194
 3349SOL     OW10945   5.770   3.371   6.588
 3349SOL    HW110946   5.682   3.378   6.636
 3349SOL    HW210947   5.766   3.426   6.504
 3350SOL     OW10948   1.426   2.124   0.995
 3350SOL    HW110949   1.505   2.107   1.055
 3350SOL    HW210950   1.412   2.223   0.987
 3351SOL     OW10951   5.223   2.712   0.475
 3351SOL    HW110952   5.286   2.663   0.536
 3351SOL    HW210953   5.194   2.653   0.401
 3352SOL     OW10954   0.540   3.500   0.063
 3352SOL    HW110955   0.545   3.438   7.004
 3352SOL    HW210956   0.458   3.556   0.056
 3353SOL     OW10957   1.747   6.526   5.936
 3353SOL    HW110958   1.734   6.550   6.032
 3353SOL    HW210959   1.662   6.539   5.886
 3354SOL     OW10960   1.207   1.103   1.812
 3354SOL    HW110961   1.123   1.077   1.764
 3354SOL    HW210962   1.280   1.116   1.745
 3355SOL     OW10963   6.262   0.763   2.800
 3355SOL    HW110964   6.336   0.702   2.770
 3355SOL    HW210965   6.215   0.722   2.878
 3356SOL     OW10966   1.504   3.548   5.404
 3356SOL    HW110967   1.496   3.467   5.463
 3356SOL    HW210968   1.594   3.549   5.362
 3357SOL     OW10969   2.714   5.260   2.276
 3357SOL    HW110970   2.626   5.264   2.325
 3357SOL    HW210971   2.782   5.216   2.334
 3358SOL     OW10972   0.007   4.834   3.496
 3358SOL    HW110973   0.047   4.922   3.469
 3358SOL    HW210974   6.948   4.850   3.555
 3359SOL     OW10975   1.919   1.411   1.886
 3359SOL    HW110976   1.839   1.395   1.829
 3359SOL    HW210977   1.955   1.502   1.868
 3360SOL     OW10978   2.397   0.582   6.362
 3360SOL    HW110979   2.381   0.660   6.423
 3360SOL    HW210980   2.386   0.497   6.413
 3361SOL     OW10981   3.754   0.657   3.168
 3361SOL    HW110982   3.850   0.680   3.153
 3361SOL    HW210983   3.709   0.730   3.218
 3362SOL     OW10984   2.712   1.709   4.520
 3362SOL    HW110985   2.793   1.766   4.534
 3362SOL    HW210986   2.630   1.760   4.545
 3363SOL     OW10987   6.841   0.832   6.363
 3363SOL    HW110988   6.777   0.760   6.338
 3363SOL    HW210989   6.810   0.920   6.326
 3364SOL     OW10990   2.152   4.726   6.303
 3364SOL    HW110991   2.187   4.660   6.369
 3364SOL    HW210992   2.224   4.750   6.238
 3365SOL     OW10993   6.271   2.112   6.081
 3365SOL    HW110994   6.263   2.210   6.101
 3365SOL    HW210995   6.245   2.095   5.986
 3366SOL     OW10996   5.250   0.905   6.803
 3366SOL    HW110997   5.173   0.858   6.761
 3366SOL    HW210998   5.219   0.992   6.842
 3367SOL     OW10999   1.788   0.210   2.185
 3367SOL    HW111000   1.741   0.173   2.105
 3367SOL    HW211001   1.783   0.310   2.183
 3368SOL     OW11002   6.723   1.482   5.640
 3368SOL    HW111003   6.683   1.460   5.729
 3368SOL    HW211004   6.692   1.416   5.572
 3369SOL     OW11005   3.497   6.314   6.528
 3369SOL    HW111006   3.565   6.359   6.470
 3369SOL    HW211007   3.405   6.335   6.493
 3370SOL     OW11008   5.446   6.843   5.600
 3370SOL    HW111009   5.458   6.754   5.555
 3370SOL    HW211010   5.354   6.847   5.639
 3371SOL     OW11011   6.604   4.856   1.093
 3371SOL    HW111012   6.547   4.849   1.011
 3371SOL    HW211013   6.659   4.939   1.089
 3372SOL     OW11014   0.352   2.197   2.687
 3372SOL    HW111015   0.364   2.257   2.608
 3372SOL    HW211016   0.255   2.174   2.696
 3373SOL     OW11017   0.685   2.370   6.578
 3373SOL    HW111018   0.648   2.277   6.574
 3373SOL    HW211019   0.751   2.383   6.504
 3374SOL     OW11020   3.888   5.992   5.341
 3374SOL    HW111021   3.935   5.938   5.411
 3374SOL    HW211022   3.886   6.088   5.368
 3375SOL     OW11023   3.940   3.835   4.862
 3375SOL    HW111024   3.914   3.916   4.915
 3375SOL    HW211025   3.992   3.863   4.782
 3376SOL     OW11026   2.694   3.265   1.758
 3376SOL    HW111027   2.665   3.349   1.714
 3376SOL    HW211028   2.617   3.201   1.762
 3377SOL     OW11029   2.723   5.235   5.378
 3377SOL    HW111030   2.624   5.250   5.372
 3377SOL    HW211031   2.744   5.189   5.464
 3378SOL     OW11032   0.188   1.100   0.589
 3378SOL    HW111033   0.196   1.200   0.595
 3378SOL    HW211034   0.130   1.077   0.510
 3379SOL     OW11035   6.473   5.063   5.704
 3379SOL    HW111036   6.451   5.145   5.758
 3379SOL    HW211037   6.441   5.075   5.611
 3380SOL     OW11038   0.946   3.670   5.311
 3380SOL    HW111039   0.953   3.572   5.293
 3380SOL    HW211040   0.933   3.719   5.225
 3381SOL     OW11041   3.440   2.797   1.668
 3381SOL    HW111042   3.506   2.724   1.688
 3381SOL    HW211043   3.371   2.800   1.740
 3382SOL     OW11044   6.816   6.281   6.753
 3382SOL    HW111045   6.823   6.375   6.718
 3382SOL    HW211046   6.887   6.265   6.821
 3383SOL     OW11047   0.449   4.015   2.260
 3383SOL    HW111048   0.427   4.110   2.282
 3383SOL    HW211049   0.371   3.973   2.214
 3384SOL     OW11050   3.132   3.152   4.379
 3384SOL    HW111051   3.043   3.176   4.418
 3384SOL    HW211052   3.128   3.163   4.279
 3385SOL     OW11053   6.968   4.429   3.616
 3385SOL    HW111054   6.982   4.358   3.685
 3385SOL    HW211055   6.921   4.389   3.537
 3386SOL     OW11056   5.980   3.747   5.302
 3386SOL    HW111057   5.947   3.703   5.386
 3386SOL    HW211058   5.948   3.696   5.223
 3387SOL     OW11059   3.409   2.129   2.758
 3387SOL    HW111060   3.374   2.200   2.696
 3387SOL    HW211061   3.333   2.088   2.807
 3388SOL     OW11062   5.427   2.605   1.800
 3388SOL    HW111063   5.452   2.581   1.706
 3388SOL    HW211064   5.510   2.623   1.853
 3389SOL     OW11065   4.091   4.813   3.064
 3389SOL    HW111066   4.172   4.872   3.062
 3389SOL    HW211067   4.093   4.756   3.146
 3390SOL     OW11068   4.760   2.846   5.776
 3390SOL    HW111069   4.727   2.779   5.709
 3390SOL    HW211070   4.700   2.926   5.776
 3391SOL     OW11071   3.801   2.104   4.199
 3391SOL    HW111072   3.819   2.145   4.110
 3391SOL    HW211073   3.724   2.041   4.193
 3392SOL     OW11074   5.017   6.059   3.059
 3392SOL    HW111075   4.960   6.056   2.977
 3392SOL    HW211076   4.959   6.067   3.140
 3393SOL     OW11077   6.899   0.725   6.791
 3393SOL    HW111078   6.969   0.745   6.860
 3393SOL    HW211079   6.876   0.808   6.741
 3394SOL     OW11080   5.477   1.630   2.372
 3394SOL    HW111081   5.516   1.539   2.361
 3394SOL    HW211082   5.413   1.630   2.449
 3395SOL     OW11083   1.342   3.768   5.072
 3395SOL    HW111084   1.432   3.787   5.112
 3395SOL    HW211085   1.285   3.723   5.140
 3396SOL     OW11086   6.598   3.382   4.434
 3396SOL    HW111087   6.546   3.399   4.518
 3396SOL    HW211088   6.577   3.454   4.367
 3397SOL     OW11089   2.946   6.197   6.179
 3397SOL    HW111090   3.015   6.155   6.237
 3397SOL    HW211091   2.866   6.220   6.234
 3398SOL     OW11092   0.873   0.651   3.543
 3398SOL    HW111093   0.866   0.597   3.459
 3398SOL    HW211094   0.798   0.628   3.604
 3399SOL     OW11095   4.221   5.435   4.840
 3399SOL    HW111096   4.252   5.516   4.791
 3399SOL    HW211097   4.121   5.434   4.843
 3400SOL     OW11098   5.047   2.361   0.066
 3400SOL    HW111099   5.014   2.455   0.057
 3400SOL    HW211100   5.138   2.354   0.026
 3401SOL     OW11101   6.783   4.667   6.957
 3401SOL    HW111102   6.832   4.602   7.015
 3401SOL    HW211103   6.754   4.746   7.012
 3402SOL     OW11104   5.464   5.090   2.193
 3402SOL    HW111105   5.397   5.048   2.132
 3402SOL    HW211106   5.429   5.179   2.225
 3403SOL     OW11107   3.141   2.011   4.987
 3403SOL    HW111108   3.117   2.107   4.995
 3403SOL    HW211109   3.074   1.963   4.931
 3404SOL     OW11110   4.294   0.379   1.476
 3404SOL    HW111111   4.350   0.449   1.431
 3404SOL    HW211112   4.198   0.409   1.476
 3405SOL     OW11113   6.015   3.570   0.520
 3405SOL    HW111114   6.059   3.645   0.472
 3405SOL    HW211115   6.006   3.491   0.459
 3406SOL     OW11116   0.914   4.425   1.649
 3406SOL    HW111117   0.847   4.498   1.636
 3406SOL    HW211118   0.907   4.360   1.573
 3407SOL     OW11119   1.360   5.392   2.794
 3407SOL    HW111120   1.388   5.487   2.782
 3407SOL    HW211121   1.260   5.386   2.795
 3408SOL     OW11122   5.206   3.936   2.672
 3408SOL    HW111123   5.206   3.852   2.726
 3408SOL    HW211124   5.228   4.014   2.731
 3409SOL     OW11125   2.956   0.658   5.457
 3409SOL    HW111126   3.007   0.698   5.381
 3409SOL    HW211127   2.888   0.724   5.490
 3410SOL     OW11128   0.083   1.057   0.293
 3410SOL    HW111129   0.126   1.114   0.223
 3410SOL    HW211130   0.049   0.973   0.251
 3411SOL     OW11131   4.553   2.546   2.448
 3411SOL    HW111132   4.524   2.617   2.384
 3411SOL    HW211133   4.495   2.465   2.436
 3412SOL     OW11134   4.111   5.569   6.738
 3412SOL    HW111135   4.060   5.655   6.736
 3412SOL    HW211136   4.188   5.575   6.673
 3413SOL     OW11137   4.324   1.656   2.325
 3413SOL    HW111138   4.259   1.729   2.348
 3413SOL    HW211139   4.404   1.663   2.386
 3414SOL     OW11140   3.368   1.263   5.128
 3414SOL    HW111141   3.400   1.211   5.049
 3414SOL    HW211142   3.387   1.211   5.212
 3415SOL     OW11143   0.979   5.621   4.425
 3415SOL    HW111144   0.954   5.682   4.350
 3415SOL    HW211145   1.068   5.580   4.408
 3416SOL     OW11146   2.395   4.748   6.083
 3416SOL    HW111147   2.451   4.671   6.113
 3416SOL    HW211148   2.315   4.714   6.034
 3417SOL     OW11149   5.862   0.780   1.447
 3417SOL    HW111150   5.936   0.808   1.387
 3417SOL    HW211151   5.791   0.735   1.393
 3418SOL     OW11152   3.282   2.087   6.354
 3418SOL    HW111153   3.353   2.157   6.351
 3418SOL    HW211154   3.192   2.130   6.345
 3419SOL     OW11155   4.446   3.691   0.454
 3419SOL    HW111156   4.444   3.788   0.429
 3419SOL    HW211157   4.450   3.635   0.372
 3420SOL     OW11158   4.170   1.567   3.780
 3420SOL    HW111159   4.211   1.550   3.869
 3420SOL    HW211160   4.160   1.480   3.731
 3421SOL     OW11161   0.265   6.888   3.661
 3421SOL    HW111162   0.363   6.906   3.657
 3421SOL    HW211163   0.218   6.945   3.594
 3422SOL     OW11164   3.045   2.202   2.637
 3422SOL    HW111165   3.083   2.136   2.702
 3422SOL    HW211166   3.100   2.204   2.554
 3423SOL     OW11167   2.842   0.821   2.073
 3423SOL    HW111168   2.869   0.836   1.978
 3423SOL    HW211169   2.921   0.839   2.133
 3424SOL     OW11170   4.180   0.695   2.141
 3424SOL    HW111171   4.219   0.738   2.060
 3424SOL    HW211172   4.120   0.620   2.114
 3425SOL     OW11173   4.846   4.135   1.915
 3425SOL    HW111174   4.831   4.234   1.908
 3425SOL    HW211175   4.795   4.099   1.993
 3426SOL     OW11176   4.344   3.446   0.695
 3426SOL    HW111177   4.292   3.493   0.624
 3426SOL    HW211178   4.441   3.448   0.671
 3427SOL     OW11179   0.976   1.449   0.622
 3427SOL    HW111180   0.970   1.479   0.718
 3427SOL    HW211181   0.906   1.496   0.568
 3428SOL     OW11182   4.397   4.601   3.344
 3428SOL    HW111183   4.367   4.549   3.424
 3428SOL    HW211184   4.486   4.567   3.314
 3429SOL     OW11185   0.297   3.101   0.075
 3429SOL    HW111186   0.238   3.025   0.046
 3429SOL    HW211187   0.263   3.186   0.034
 3430SOL     OW11188   1.289   5.744   6.640
 3430SOL    HW111189   1.377   5.699   6.648
 3430SOL    HW211190   1.227   5.710   6.711
 3431SOL     OW11191   1.430   6.112   6.845
 3431SOL    HW111192   1.424   6.138   6.748
 3431SOL    HW211193   1.337   6.098   6.880
 3432SOL     OW11194   2.517   2.166   0.010
 3432SOL    HW111195   2.462   2.170   6.946
 3432SOL    HW211196   2.478   2.228   0.078
 3433SOL     OW11197   4.739   0.700   4.272
 3433SOL    HW111198   4.807   0.628   4.286
 3433SOL    HW211199   4.651   0.669   4.307
 3434SOL     OW11200   4.558   1.897   3.818
 3434SOL    HW111201   4.651   1.893   3.782
 3434SOL    HW211202   4.533   1.808   3.855
 3435SOL     OW11203   0.394   1.180   6.875
 3435SOL    HW111204   0.452   1.103   6.900
 3435SOL    HW211205   0.440   1.265   6.899
 3436SOL     OW11206   4.763   6.835   3.268
 3436SOL    HW111207   4.665   6.817   3.263
 3436SOL    HW211208   4.788   6.901   3.197
 3437SOL     OW11209   4.887   0.494   6.569
 3437SOL    HW111210   4.909   0.589   6.592
 3437SOL    HW211211   4.913   0.476   6.475
 3438SOL     OW11212   1.317   4.622   6.595
 3438SOL    HW111213   1.374   4.557   6.544
 3438SOL    HW211214   1.288   4.581   6.681
 3439SOL     OW11215   2.559   6.785   3.357
 3439SOL    HW111216   2.622   6.855   3.323
 3439SOL    HW211217   2.578   6.698   3.312
 3440SOL     OW11218   3.424   1.952   0.604
 3440SOL    HW111219   3.508   1.979   0.557
 3440SOL    HW211220   3.409   1.854   0.592
 3441SOL     OW11221   4.242   0.779   4.808
 3441SOL    HW111222   4.260   0.860   4.864
 3441SOL    HW211223   4.197   0.709   4.864
 3442SOL     OW11224   0.895   4.819   3.140
 3442SOL    HW111225   0.882   4.730   3.183
 3442SOL    HW211226   0.989   4.827   3.107
 3443SOL     OW11227   5.961   6.931   4.056
 3443SOL    HW111228   5.885   6.994   4.071
 3443SOL    HW211229   6.014   6.961   3.976
 3444SOL     OW11230   4.364   5.338   0.309
 3444SOL    HW111231   4.446   5.334   0.251
 3444SOL    HW211232   4.365   5.260   0.372
 3445SOL     OW11233   5.725   5.171   5.075
 3445SOL    HW111234   5.763   5.199   5.163
 3445SOL    HW211235   5.695   5.076   5.080
 3446SOL     OW11236   3.038   6.371   3.020
 3446SOL    HW111237   3.093   6.442   3.064
 3446SOL    HW211238   3.079   6.347   2.932
 3447SOL     OW11239   6.510   4.932   5.949
 3447SOL    HW111240   6.592   4.876   5.938
 3447SOL    HW211241   6.479   4.964   5.859
 3448SOL     OW11242   3.430   2.260   1.015
 3448SOL    HW111243   3.367   2.224   0.946
 3448SOL    HW211244   3.441   2.358   1.004
 3449SOL     OW11245   5.872   6.037   2.780
 3449SOL    HW111246   5.951   6.090   2.752
 3449SOL    HW211247   5.873   5.948   2.734
 3450SOL     OW11248   0.838   2.327   1.466
 3450SOL    HW111249   0.907   2.393   1.495
 3450SOL    HW211250   0.883   2.243   1.436
 3451SOL     OW11251   1.472   5.483   4.159
 3451SOL    HW111252   1.538   5.558   4.150
 3451SOL    HW211253   1.521   5.396   4.160
 3452SOL     OW11254   6.678   2.338   0.226
 3452SOL    HW111255   6.757   2.376   0.274
 3452SOL    HW211256   6.644   2.258   0.275
 3453SOL     OW11257   5.985   6.459   5.826
 3453SOL    HW111258   5.897   6.506   5.835
 3453SOL    HW211259   6.003   6.440   5.730
 3454SOL     OW11260   1.071   1.038   0.063
 3454SOL    HW111261   1.070   1.135   0.038
 3454SOL    HW211262   0.977   1.004   0.069
 3455SOL     OW11263   2.253   2.728   4.167
 3455SOL    HW111264   2.306   2.650   4.201
 3455SOL    HW211265   2.246   2.797   4.239
 3456SOL     OW11266   6.334   0.059   1.182
 3456SOL    HW111267   6.276   0.017   1.112
 3456SOL    HW211268   6.381   7.007   1.233
 3457SOL     OW11269   2.535   6.121   3.558
 3457SOL    HW111270   2.478   6.189   3.514
 3457SOL    HW211271   2.589   6.072   3.489
 3458SOL     OW11272   4.981   5.266   0.847
 3458SOL    HW111273   5.068   5.270   0.799
 3458SOL    HW211274   4.911   5.228   0.787
 3459SOL     OW11275   0.012   6.408   3.421
 3459SOL    HW111276   0.055   6.326   3.460
 3459SOL    HW211277   0.039   6.418   3.325
 3460SOL     OW11278   3.669   2.963   5.847
 3460SOL    HW111279   3.694   3.016   5.766
 3460SOL    HW211280   3.583   2.915   5.831
 3461SOL     OW11281   2.727   6.015   2.805
 3461SOL    HW111282   2.809   6.030   2.861
 3461SOL    HW211283   2.672   6.098   2.802
 3462SOL     OW11284   4.978   3.278   2.803
 3462SOL    HW111285   4.992   3.206   2.871
 3462SOL    HW211286   4.951   3.362   2.849
 3463SOL     OW11287   2.146   2.863   1.141
 3463SOL    HW111288   2.110   2.770   1.145
 3463SOL    HW211289   2.231   2.869   1.193
 3464SOL     OW11290   4.746   2.031   5.825
 3464SOL    HW111291   4.702   2.113   5.862
 3464SOL    HW211292   4.810   1.994   5.892
 3465SOL     OW11293   1.853   4.565   1.610
 3465SOL    HW111294   1.872   4.483   1.664
 3465SOL    HW211295   1.812   4.636   1.668
 3466SOL     OW11296   6.550   4.569   4.193
 3466SOL    HW111297   6.588   4.543   4.282
 3466SOL    HW211298   6.615   4.546   4.121
 3467SOL     OW11299   3.088   2.881   1.127
 3467SOL    HW111300   3.058   2.939   1.051
 3467SOL    HW211301   3.019   2.810   1.144
 3468SOL     OW11302   3.646   1.670   0.490
 3468SOL    HW111303   3.660   1.663   0.391
 3468SOL    HW211304   3.622   1.580   0.526
 3469SOL     OW11305   3.923   6.034   5.793
 3469SOL    HW111306   3.901   5.944   5.831
 3469SOL    HW211307   3.910   6.103   5.864
 3470SOL     OW11308   1.346   3.068   1.713
 3470SOL    HW111309   1.405   3.020   1.779
 3470SOL    HW211310   1.258   3.090   1.756
 3471SOL     OW11311   4.842   3.137   4.977
 3471SOL    HW111312   4.870   3.223   5.019
 3471SOL    HW211313   4.810   3.154   4.884
 3472SOL     OW11314   4.411   1.891   3.225
 3472SOL    HW111315   4.421   1.900   3.324
 3472SOL    HW211316   4.316   1.908   3.199
 3473SOL     OW11317   6.229   4.969   1.769
 3473SOL    HW111318   6.189   4.914   1.842
 3473SOL    HW211319   6.199   5.064   1.777
 3474SOL     OW11320   5.284   4.729   4.376
 3474SOL    HW111321   5.248   4.779   4.297
 3474SOL    HW211322   5.358   4.781   4.418
 3475SOL     OW11323   6.804   4.769   4.197
 3475SOL    HW111324   6.714   4.765   4.241
 3475SOL    HW211325   6.865   4.701   4.239
 3476SOL     OW11326   1.344   1.512   3.498
 3476SOL    HW111327   1.286   1.526   3.418
 3476SOL    HW211328   1.329   1.585   3.564
 3477SOL     OW11329   0.986   4.118   1.959
 3477SOL    HW111330   0.927   4.064   2.019
 3477SOL    HW211331   0.948   4.210   1.949
 3478SOL     OW11332   2.176   1.014   1.543
 3478SOL    HW111333   2.158   1.112   1.549
 3478SOL    HW211334   2.243   0.997   1.470
 3479SOL     OW11335   1.372   4.968   4.709
 3479SOL    HW111336   1.456   5.014   4.679
 3479SOL    HW211337   1.326   4.928   4.630
 3480SOL     OW11338   1.144   4.727   6.801
 3480SOL    HW111339   1.206   4.743   6.878
 3480SOL    HW211340   1.169   4.786   6.725
 3481SOL     OW11341   6.010   0.977   4.830
 3481SOL    HW111342   6.063   0.894   4.845
 3481SOL    HW211343   5.917   0.965   4.864
 3482SOL     OW11344   5.898   3.192   6.331
 3482SOL    HW111345   5.812   3.196   6.382
 3482SOL    HW211346   5.961   3.130   6.377
 3483SOL     OW11347   5.456   3.016   5.695
 3483SOL    HW111348   5.430   3.109   5.721
 3483SOL    HW211349   5.382   2.953   5.718
 3484SOL     OW11350   1.207   4.007   4.966
 3484SOL    HW111351   1.245   4.087   5.013
 3484SOL    HW211352   1.266   3.928   4.982
 3485SOL     OW11353   6.757   2.953   6.590
 3485SOL    HW111354   6.813   2.922   6.514
 3485SOL    HW211355   6.803   3.029   6.636
 3486SOL     OW11356   2.308   6.124   5.263
 3486SOL    HW111357   2.267   6.192   5.202
 3486SOL    HW211358   2.407   6.133   5.260
 3487SOL     OW11359   4.473   1.366   6.725
 3487SOL    HW111360   4.494   1.459   6.755
 3487SOL    HW211361   4.543   1.335   6.661
 3488SOL     OW11362   5.574   0.143   4.942
 3488SOL    HW111363   5.668   0.174   4.933
 3488SOL    HW211364   5.517   0.218   4.976
 3489SOL     OW11365   2.769   6.378   1.097
 3489SOL    HW111366   2.780   6.304   1.163
 3489SOL    HW211367   2.674   6.383   1.067
 3490SOL     OW11368   3.573   6.867   0.588
 3490SOL    HW111369   3.607   6.783   0.548
 3490SOL    HW211370   3.474   6.860   0.602
 3491SOL     OW11371   4.074   5.026   5.910
 3491SOL    HW111372   4.152   5.033   5.847
 3491SOL    HW211373   4.090   4.950   5.973
 3492SOL     OW11374   6.135   4.022   2.769
 3492SOL    HW111375   6.090   3.968   2.840
 3492SOL    HW211376   6.082   4.015   2.684
 3493SOL     OW11377   6.885   2.852   5.685
 3493SOL    HW111378   6.811   2.798   5.644
 3493SOL    HW211379   6.935   2.900   5.613
 3494SOL     OW11380   3.949   1.745   2.870
 3494SOL    HW111381   3.943   1.728   2.772
 3494SOL    HW211382   3.881   1.814   2.896
 3495SOL     OW11383   0.956   3.173   2.844
 3495SOL    HW111384   0.955   3.073   2.843
 3495SOL    HW211385   1.012   3.207   2.769
 3496SOL     OW11386   5.587   5.183   0.693
 3496SOL    HW111387   5.503   5.237   0.687
 3496SOL    HW211388   5.569   5.100   0.748
 3497SOL     OW11389   3.114   0.019   2.529
 3497SOL    HW111390   3.106   7.014   2.432
 3497SOL    HW211391   3.036   7.002   2.579
 3498SOL     OW11392   2.326   2.447   1.551
 3498SOL    HW111393   2.377   2.484   1.629
 3498SOL    HW211394   2.239   2.495   1.542
 3499SOL     OW11395   6.455   6.178   4.722
 3499SOL    HW111396   6.410   6.228   4.796
 3499SOL    HW211397   6.433   6.221   4.634
 3500SOL     OW11398   2.178   2.167   4.595
 3500SOL    HW111399   2.130   2.099   4.650
 3500SOL    HW211400   2.117   2.245   4.578
 3501SOL     OW11401   1.407   0.218   4.959
 3501SOL    HW111402   1.425   0.161   5.039
 3501SOL    HW211403   1.470   0.296   4.957
 3502SOL     OW11404   4.730   2.697   2.250
 3502SOL    HW111405   4.745   2.792   2.224
 3502SOL    HW211406   4.786   2.676   2.330
 3503SOL     OW11407   6.471   6.576   6.793
 3503SOL    HW111408   6.490   6.498   6.853
 3503SOL    HW211409   6.482   6.661   6.843
 3504SOL     OW11410   1.439   0.374   0.148
 3504SOL    HW111411   1.520   0.335   0.192
 3504SOL    HW211412   1.360   0.365   0.208
 3505SOL     OW11413   4.965   4.401   6.321
 3505SOL    HW111414   5.049   4.361   6.357
 3505SOL    HW211415   4.974   4.416   6.223
 3506SOL     OW11416   4.564   5.080   4.732
 3506SOL    HW111417   4.529   5.151   4.793
 3506SOL    HW211418   4.658   5.104   4.704
 3507SOL     OW11419   2.938   0.708   1.065
 3507SOL    HW111420   2.970   0.614   1.050
 3507SOL    HW211421   3.010   0.772   1.038
 3508SOL     OW11422   3.252   1.714   5.283
 3508SOL    HW111423   3.223   1.806   5.255
 3508SOL    HW211424   3.350   1.714   5.301
 3509SOL     OW11425   3.348   5.611   6.388
 3509SOL    HW111426   3.401   5.612   6.473
 3509SOL    HW211427   3.269   5.672   6.398
 3510SOL     OW11428   2.520   1.378   0.439
 3510SOL    HW111429   2.613   1.398   0.468
 3510SOL    HW211430   2.462   1.363   0.519
 3511SOL     OW11431   3.044   4.553   1.662
 3511SOL    HW111432   2.976   4.555   1.736
 3511SOL    HW211433   3.127   4.599   1.692
 3512SOL     OW11434   0.281   5.460   5.575
 3512SOL    HW111435   0.340   5.445   5.495
 3512SOL    HW211436   0.185   5.463   5.545
 3513SOL     OW11437   6.288   1.876   0.418
 3513SOL    HW111438   6.296   1.962   0.469
 3513SOL    HW211439   6.208   1.879   0.358
 3514SOL     OW11440   3.565   1.480   1.967
 3514SOL    HW111441   3.625   1.454   2.042
 3514SOL    HW211442   3.471   1.490   2.001
 3515SOL     OW11443   0.419   5.349   4.438
 3515SOL    HW111444   0.493   5.296   4.479
 3515SOL    HW211445   0.376   5.295   4.365
 3516SOL     OW11446   4.740   0.282   1.496
 3516SOL    HW111447   4.784   0.254   1.582
 3516SOL    HW211448   4.810   0.319   1.435
 3517SOL     OW11449   5.828   0.437   1.489
 3517SOL    HW111450   5.824   0.414   1.587
 3517SOL    HW211451   5.738   0.422   1.448
 3518SOL     OW11452   5.135   0.608   5.086
 3518SOL    HW111453   5.234   0.597   5.096
 3518SOL    HW211454   5.116   0.690   5.033
 3519SOL     OW11455   3.209   0.655   1.267
 3519SOL    HW111456   3.249   0.701   1.187
 3519SOL    HW211457   3.141   0.716   1.309
 3520SOL     OW11458   2.809   6.169   4.987
 3520SOL    HW111459   2.862   6.210   4.913
 3520SOL    HW211460   2.818   6.069   4.984
 3521SOL     OW11461   2.463   2.976   6.527
 3521SOL    HW111462   2.461   3.071   6.559
 3521SOL    HW211463   2.557   2.945   6.519
 3522SOL     OW11464   0.606   5.524   6.253
 3522SOL    HW111465   0.525   5.507   6.197
 3522SOL    HW211466   0.656   5.603   6.216
 3523SOL     OW11467   2.032   5.684   0.067
 3523SOL    HW111468   2.104   5.616   0.076
 3523SOL    HW211469   2.040   5.729   6.998
 3524SOL     OW11470   5.064   1.396   3.618
 3524SOL    HW111471   5.082   1.440   3.706
 3524SOL    HW211472   5.148   1.394   3.564
 3525SOL     OW11473   0.005   3.346   2.982
 3525SOL    HW111474   6.944   3.294   3.008
 3525SOL    HW211475   0.086   3.288   2.988
 3526SOL     OW11476   0.243   6.563   2.618
 3526SOL    HW111477   0.167   6.499   2.630
 3526SOL    HW211478   0.321   6.515   2.579
 3527SOL     OW11479   0.350   2.501   6.164
 3527SOL    HW111480   0.374   2.569   6.095
 3527SOL    HW211481   0.394   2.414   6.140
 3528SOL     OW11482   2.310   5.927   4.797
 3528SOL    HW111483   2.357   6.005   4.836
 3528SOL    HW211484   2.285   5.863   4.870
 3529SOL     OW11485   4.191   5.684   1.011
 3529SOL    HW111486   4.166   5.589   0.990
 3529SOL    HW211487   4.285   5.701   0.980
 3530SOL     OW11488   6.324   6.720   1.159
 3530SOL    HW111489   6.348   6.627   1.129
 3530SOL    HW211490   6.238   6.747   1.116
 3531SOL     OW11491   4.957   2.124   0.508
 3531SOL    HW111492   4.986   2.066   0.584
 3531SOL    HW211493   4.953   2.219   0.538
 3532SOL     OW11494   1.699   1.283   2.137
 3532SOL    HW111495   1.696   1.183   2.138
 3532SOL    HW211496   1.704   1.316   2.042
 3533SOL     OW11497   1.065   1.778   2.987
 3533SOL    HW111498   1.013   1.731   3.058
 3533SOL    HW211499   1.155   1.804   3.022
 3534SOL     OW11500   0.481   1.223   1.040
 3534SOL    HW111501   0.494   1.299   1.104
 3534SOL    HW211502   0.411   1.161   1.076
 3535SOL     OW11503   2.719   5.667   4.286
 3535SOL    HW111504   2.794   5.706   4.231
 3535SOL    HW211505   2.725   5.702   4.379
 3536SOL     OW11506   3.821   2.108   2.651
 3536SOL    HW111507   3.786   2.014   2.655
 3536SOL    HW211508   3.809   2.144   2.559
 3537SOL     OW11509   2.153   0.038   2.962
 3537SOL    HW111510   2.103   7.011   3.034
 3537SOL    HW211511   2.111   0.021   2.874
 3538SOL     OW11512   3.277   5.510   3.365
 3538SOL    HW111513   3.215   5.437   3.395
 3538SOL    HW211514   3.285   5.508   3.265
 3539SOL     OW11515   3.826   3.531   4.487
 3539SOL    HW111516   3.766   3.533   4.566
 3539SOL    HW211517   3.778   3.567   4.407
 3540SOL     OW11518   1.725   2.319   3.496
 3540SOL    HW111519   1.696   2.226   3.475
 3540SOL    HW211520   1.791   2.317   3.572
 3541SOL     OW11521   3.674   4.121   4.081
 3541SOL    HW111522   3.720   4.205   4.051
 3541SOL    HW211523   3.592   4.107   4.026
 3542SOL     OW11524   0.041   5.062   1.632
 3542SOL    HW111525   0.077   5.155   1.634
 3542SOL    HW211526   0.068   5.017   1.547
 3543SOL     OW11527   5.949   2.812   5.305
 3543SOL    HW111528   5.872   2.768   5.259
 3543SOL    HW211529   5.955   2.779   5.399
 3544SOL     OW11530   1.848   5.975   0.198
 3544SOL    HW111531   1.795   6.034   0.258
 3544SOL    HW211532   1.818   5.881   0.207
 3545SOL     OW11533   3.065   5.116   0.523
 3545SOL    HW111534   3.092   5.023   0.496
 3545SOL    HW211535   3.146   5.170   0.542
 3546SOL     OW11536   6.500   4.784   2.935
 3546SOL    HW111537   6.512   4.869   2.884
 3546SOL    HW211538   6.542   4.708   2.885
 3547SOL     OW11539   5.097   4.547   4.389
 3547SOL    HW111540   5.174   4.610   4.388
 3547SOL    HW211541   5.130   4.453   4.399
 3548SOL     OW11542   4.795   3.140   5.550
 3548SOL    HW111543   4.825   3.172   5.640
 3548SOL    HW211544   4.789   3.040   5.550
 3549SOL     OW11545   5.836   3.685   2.381
 3549SOL    HW111546   5.870   3.777   2.399
 3549SOL    HW211547   5.741   3.678   2.411
 3550SOL     OW11548   6.003   1.842   2.722
 3550SOL    HW111549   5.965   1.782   2.652
 3550SOL    HW211550   5.949   1.833   2.806
 3551SOL     OW11551   2.520   6.913   2.586
 3551SOL    HW111552   2.528   6.957   2.497
 3551SOL    HW211553   2.467   6.972   2.647
 3552SOL     OW11554   0.043   4.604   3.312
 3552SOL    HW111555   6.973   4.567   3.290
 3552SOL    HW211556   0.033   4.685   3.370
 3553SOL     OW11557   5.686   2.146   3.292
 3553SOL    HW111558   5.662   2.098   3.207
 3553SOL    HW211559   5.765   2.205   3.275
 3554SOL     OW11560   3.946   5.842   6.779
 3554SOL    HW111561   3.935   5.937   6.809
 3554SOL    HW211562   3.868   5.788   6.809
 3555SOL     OW11563   0.295   2.742   3.686
 3555SOL    HW111564   0.393   2.724   3.692
 3555SOL    HW211565   0.276   2.795   3.604
 3556SOL     OW11566   4.388   1.041   6.610
 3556SOL    HW111567   4.363   1.061   6.516
 3556SOL    HW211568   4.415   0.945   6.618
 3557SOL     OW11569   0.725   0.655   4.309
 3557SOL    HW111570   0.636   0.615   4.328
 3557SOL    HW211571   0.713   0.745   4.266
 3558SOL     OW11572   6.996   5.399   1.803
 3558SOL    HW111573   6.945   5.316   1.782
 3558SOL    HW211574   6.956   5.476   1.753
 3559SOL     OW11575   1.063   0.605   5.591
 3559SOL    HW111576   0.989   0.603   5.658
 3559SOL    HW211577   1.034   0.558   5.508
 3560SOL     OW11578   6.605   6.349   2.060
 3560SOL    HW111579   6.655   6.383   2.139
 3560SOL    HW211580   6.555   6.266   2.085
 3561SOL     OW11581   4.592   4.403   3.979
 3561SOL    HW111582   4.670   4.356   3.938
 3561SOL    HW211583   4.598   4.396   4.079
 3562SOL     OW11584   4.291   2.349   3.436
 3562SOL    HW111585   4.256   2.309   3.351
 3562SOL    HW211586   4.386   2.378   3.423
 3563SOL     OW11587   4.564   0.461   1.523
 3563SOL    HW111588   4.601   0.368   1.518
 3563SOL    HW211589   4.622   0.516   1.582
 3564SOL     OW11590   0.126   4.356   2.865
 3564SOL    HW111591   0.168   4.422   2.803
 3564SOL    HW211592   0.166   4.364   2.956
 3565SOL     OW11593   1.595   0.418   5.018
 3565SOL    HW111594   1.682   0.405   4.970
 3565SOL    HW211595   1.544   0.492   4.974
 3566SOL     OW11596   0.812   4.233   6.359
 3566SOL    HW111597   0.722   4.276   6.372
 3566SOL    HW211598   0.884   4.296   6.388
 3567SOL     OW11599   0.263   2.648   1.019
 3567SOL    HW111600   0.171   2.649   1.060
 3567SOL    HW211601   0.322   2.712   1.069
 3568SOL     OW11602   5.471   3.733   3.774
 3568SOL    HW111603   5.466   3.774   3.866
 3568SOL    HW211604   5.460   3.805   3.705
 3569SOL     OW11605   3.581   2.916   3.979
 3569SOL    HW111606   3.526   2.969   3.915
 3569SOL    HW211607   3.672   2.958   3.987
 3570SOL     OW11608   0.783   1.893   5.373
 3570SOL    HW111609   0.768   1.928   5.466
 3570SOL    HW211610   0.875   1.854   5.368
 3571SOL     OW11611   2.376   6.701   4.501
 3571SOL    HW111612   2.457   6.678   4.556
 3571SOL    HW211613   2.296   6.705   4.561
 3572SOL     OW11614   4.987   4.480   1.901
 3572SOL    HW111615   4.893   4.448   1.908
 3572SOL    HW211616   5.034   4.430   1.828
 3573SOL     OW11617   0.389   4.835   3.698
 3573SOL    HW111618   0.440   4.859   3.616
 3573SOL    HW211619   0.293   4.818   3.674
 3574SOL     OW11620   2.078   1.938   5.816
 3574SOL    HW111621   1.992   1.943   5.766
 3574SOL    HW211622   2.151   1.907   5.754
 3575SOL     OW11623   4.962   0.177   0.148
 3575SOL    HW111624   5.040   0.237   0.131
 3575SOL    HW211625   4.886   0.230   0.186
 3576SOL     OW11626   1.565   2.485   0.760
 3576SOL    HW111627   1.629   2.485   0.683
 3576SOL    HW211628   1.575   2.569   0.812
 3577SOL     OW11629   1.702   2.877   5.087
 3577SOL    HW111630   1.781   2.859   5.146
 3577SOL    HW211631   1.704   2.814   5.009
 3578SOL     OW11632   3.672   2.612   6.112
 3578SOL    HW111633   3.586   2.631   6.064
 3578SOL    HW211634   3.724   2.543   6.061
 3579SOL     OW11635   0.937   3.653   1.733
 3579SOL    HW111636   0.887   3.734   1.703
 3579SOL    HW211637   1.005   3.629   1.664
 3580SOL     OW11638   6.735   4.385   1.806
 3580SOL    HW111639   6.761   4.444   1.882
 3580SOL    HW211640   6.806   4.315   1.792
 3581SOL     OW11641   1.585   0.601   2.488
 3581SOL    HW111642   1.585   0.695   2.455
 3581SOL    HW211643   1.513   0.590   2.557
 3582SOL     OW11644   4.296   5.637   6.173
 3582SOL    HW111645   4.394   5.624   6.183
 3582SOL    HW211646   4.255   5.655   6.263
 3583SOL     OW11647   1.270   5.021   1.404
 3583SOL    HW111648   1.347   4.987   1.349
 3583SOL    HW211649   1.234   4.946   1.459
 3584SOL     OW11650   5.999   5.020   4.915
 3584SOL    HW111651   5.966   4.936   4.959
 3584SOL    HW211652   6.070   5.061   4.973
 3585SOL     OW11653   3.326   1.820   3.974
 3585SOL    HW111654   3.357   1.912   3.949
 3585SOL    HW211655   3.293   1.820   4.069
 3586SOL     OW11656   0.253   1.800   4.847
 3586SOL    HW111657   0.268   1.730   4.917
 3586SOL    HW211658   0.164   1.786   4.804
 3587SOL     OW11659   3.191   0.394   6.184
 3587SOL    HW111660   3.244   0.471   6.147
 3587SOL    HW211661   3.249   0.340   6.244
 3588SOL     OW11662   5.696   4.733   4.690
 3588SOL    HW111663   5.731   4.821   4.719
 3588SOL    HW211664   5.770   4.678   4.650
 3589SOL     OW11665   0.771   6.975   6.059
 3589SOL    HW111666   0.834   6.931   6.123
 3589SOL    HW211667   0.747   6.911   5.987
 3590SOL     OW11668   0.135   5.056   5.665
 3590SOL    HW111669   0.100   5.106   5.585
 3590SOL    HW211670   0.094   5.093   5.748
 3591SOL     OW11671   5.814   1.446   0.182
 3591SOL    HW111672   5.829   1.478   0.275
 3591SOL    HW211673   5.719   1.414   0.173
 3592SOL     OW11674   1.638   6.471   1.181
 3592SOL    HW111675   1.547   6.507   1.201
 3592SOL    HW211676   1.668   6.411   1.255
 3593SOL     OW11677   3.988   3.093   5.323
 3593SOL    HW111678   3.918   3.088   5.253
 3593SOL    HW211679   4.076   3.114   5.281
 3594SOL     OW11680   4.734   4.829   5.328
 3594SOL    HW111681   4.826   4.824   5.365
 3594SOL    HW211682   4.668   4.802   5.399
 3595SOL     OW11683   5.709   5.985   4.482
 3595SOL    HW111684   5.647   6.011   4.556
 3595SOL    HW211685   5.794   5.949   4.520
 3596SOL     OW11686   4.194   1.710   3.436
 3596SOL    HW111687   4.192   1.755   3.347
 3596SOL    HW211688   4.284   1.670   3.452
 3597SOL     OW11689   3.308   3.848   5.425
 3597SOL    HW111690   3.253   3.780   5.376
 3597SOL    HW211691   3.247   3.911   5.474
 3598SOL     OW11692   0.504   5.217   4.850
 3598SOL    HW111693   0.497   5.316   4.858
 3598SOL    HW211694   0.536   5.179   4.936
 3599SOL     OW11695   2.682   1.062   5.379
 3599SOL    HW111696   2.747   1.074   5.304
 3599SOL    HW211697   2.677   1.146   5.433
 3600SOL     OW11698   2.921   3.742   6.578
 3600SOL    HW111699   2.920   3.662   6.517
 3600SOL    HW211700   2.924   3.826   6.523
 3601SOL     OW11701   4.912   1.119   5.466
 3601SOL    HW111702   4.911   1.023   5.494
 3601SOL    HW211703   4.921   1.177   5.547
 3602SOL     OW11704   1.570   2.095   1.240
 3602SOL    HW111705   1.598   2.172   1.298
 3602SOL    HW211706   1.472   2.079   1.251
 3603SOL     OW11707   2.285   0.454   5.402
 3603SOL    HW111708   2.229   0.520   5.351
 3603SOL    HW211709   2.355   0.504   5.454
 3604SOL     OW11710   6.951   0.718   3.388
 3604SOL    HW111711   6.885   0.736   3.461
 3604SOL    HW211712   6.988   0.626   3.398
 3605SOL     OW11713   1.050   6.884   5.038
 3605SOL    HW111714   1.059   6.934   5.123
 3605SOL    HW211715   0.961   6.903   4.997
 3606SOL     OW11716   1.944   0.424   2.218
 3606SOL    HW111717   2.032   0.378   2.218
 3606SOL    HW211718   1.941   0.492   2.145
 3607SOL     OW11719   6.046   1.562   3.334
 3607SOL    HW111720   5.956   1.549   3.375
 3607SOL    HW211721   6.117   1.542   3.402
 3608SOL     OW11722   3.078   1.684   5.825
 3608SOL    HW111723   3.140   1.742   5.772
 3608SOL    HW211724   2.998   1.661   5.770
 3609SOL     OW11725   3.727   0.579   5.611
 3609SOL    HW111726   3.794   0.638   5.655
 3609SOL    HW211727   3.774   0.516   5.549
 3610SOL     OW11728   1.643   0.716   5.602
 3610SOL    HW111729   1.675   0.795   5.655
 3610SOL    HW211730   1.658   0.633   5.654
 3611SOL     OW11731   5.597   4.216   2.769
 3611SOL    HW111732   5.643   4.158   2.701
 3611SOL    HW211733   5.498   4.204   2.762
 3612SOL     OW11734   5.194   1.640   0.499
 3612SOL    HW111735   5.186   1.565   0.566
 3612SOL    HW211736   5.108   1.692   0.498
 3613SOL     OW11737   3.619   6.680   2.892
 3613SOL    HW111738   3.674   6.625   2.829
 3613SOL    HW211739   3.605   6.771   2.853
 3614SOL     OW11740   3.490   5.717   6.857
 3614SOL    HW111741   3.406   5.751   6.900
 3614SOL    HW211742   3.558   5.698   6.927
 3615SOL     OW11743   5.105   2.969   5.594
 3615SOL    HW111744   5.053   3.052   5.571
 3615SOL    HW211745   5.190   2.968   5.543
 3616SOL     OW11746   1.791   2.522   0.569
 3616SOL    HW111747   1.870   2.477   0.528
 3616SOL    HW211748   1.749   2.583   0.502
 3617SOL     OW11749   4.183   5.729   5.697
 3617SOL    HW111750   4.160   5.746   5.793
 3617SOL    HW211751   4.272   5.683   5.692
 3618SOL     OW11752   1.222   5.538   4.371
 3618SOL    HW111753   1.311   5.584   4.366
 3618SOL    HW211754   1.194   5.510   4.279
 3619SOL     OW11755   5.851   2.485   2.115
 3619SOL    HW111756   5.913   2.553   2.154
 3619SOL    HW211757   5.793   2.448   2.188
 3620SOL     OW11758   5.510   5.929   5.045
 3620SOL    HW111759   5.420   5.969   5.028
 3620SOL    HW211760   5.568   5.941   4.964
 3621SOL     OW11761   3.270   2.910   3.723
 3621SOL    HW111762   3.349   2.919   3.784
 3621SOL    HW211763   3.186   2.932   3.774
 3622SOL     OW11764   1.673   5.445   6.381
 3622SOL    HW111765   1.590   5.463   6.434
 3622SOL    HW211766   1.737   5.522   6.392
 3623SOL     OW11767   1.393   5.989   6.101
 3623SOL    HW111768   1.440   5.919   6.154
 3623SOL    HW211769   1.300   6.000   6.135
 3624SOL     OW11770   2.260   2.398   2.317
 3624SOL    HW111771   2.169   2.371   2.351
 3624SOL    HW211772   2.269   2.498   2.323
 3625SOL     OW11773   6.447   2.382   1.080
 3625SOL    HW111774   6.371   2.395   1.144
 3625SOL    HW211775   6.522   2.444   1.105
 3626SOL     OW11776   1.771   2.984   5.843
 3626SOL    HW111777   1.715   2.904   5.821
 3626SOL    HW211778   1.760   3.007   5.940
 3627SOL     OW11779   3.484   1.800   2.319
 3627SOL    HW111780   3.435   1.832   2.400
 3627SOL    HW211781   3.472   1.865   2.245
 3628SOL     OW11782   6.471   1.667   1.736
 3628SOL    HW111783   6.489   1.764   1.754
 3628SOL    HW211784   6.378   1.657   1.700
 3629SOL     OW11785   1.820   1.314   4.341
 3629SOL    HW111786   1.833   1.410   4.366
 3629SOL    HW211787   1.885   1.257   4.392
 3630SOL     OW11788   6.370   2.055   2.323
 3630SOL    HW111789   6.290   2.016   2.369
 3630SOL    HW211790   6.451   2.044   2.382
 3631SOL     OW11791   1.974   6.329   2.272
 3631SOL    HW111792   2.019   6.241   2.252
 3631SOL    HW211793   1.935   6.326   2.364
 3632SOL     OW11794   4.859   3.131   2.348
 3632SOL    HW111795   4.889   3.079   2.428
 3632SOL    HW211796   4.866   3.229   2.368
 3633SOL     OW11797   3.871   4.288   0.064
 3633SOL    HW111798   3.830   4.198   0.077
 3633SOL    HW211799   3.803   4.358   0.084
 3634SOL     OW11800   3.004   5.322   6.309
 3634SOL    HW111801   3.090   5.373   6.317
 3634SOL    HW211802   2.956   5.351   6.226
 3635SOL     OW11803   1.083   6.510   2.205
 3635SOL    HW111804   1.171   6.558   2.213
 3635SOL    HW211805   1.049   6.519   2.112
 3636SOL     OW11806   0.339   5.620   5.822
 3636SOL    HW111807   0.301   5.563   5.749
 3636SOL    HW211808   0.433   5.646   5.798
 3637SOL     OW11809   6.141   3.394   0.016
 3637SOL    HW111810   6.159   3.486   7.002
 3637SOL    HW211811   6.045   3.371   7.020
 3638SOL     OW11812   0.631   3.401   3.250
 3638SOL    HW111813   0.635   3.349   3.335
 3638SOL    HW211814   0.578   3.485   3.264
 3639SOL     OW11815   4.036   3.357   4.499
 3639SOL    HW111816   4.053   3.303   4.416
 3639SOL    HW211817   3.953   3.411   4.487
 3640SOL     OW11818   4.381   2.066   2.278
 3640SOL    HW111819   4.320   2.109   2.211
 3640SOL    HW211820   4.464   2.033   2.232
 3641SOL     OW11821   6.159   3.706   2.260
 3641SOL    HW111822   6.192   3.654   2.339
 3641SOL    HW211823   6.154   3.645   2.180
 3642SOL     OW11824   4.991   4.059   6.742
 3642SOL    HW111825   5.016   4.155   6.753
 3642SOL    HW211826   5.070   4.008   6.705
 3643SOL     OW11827   3.885   5.788   4.961
 3643SOL    HW111828   3.985   5.789   4.956
 3643SOL    HW211829   3.848   5.754   4.874
 3644SOL     OW11830   2.955   1.035   1.822
 3644SOL    HW111831   3.037   0.999   1.778
 3644SOL    HW211832   2.889   1.065   1.753
 3645SOL     OW11833   1.514   4.500   3.590
 3645SOL    HW111834   1.535   4.570   3.521
 3645SOL    HW211835   1.592   4.491   3.653
 3646SOL     OW11836   1.913   5.217   5.889
 3646SOL    HW111837   2.006   5.203   5.856
 3646SOL    HW211838   1.851   5.155   5.841
 3647SOL     OW11839   3.639   6.697   0.113
 3647SOL    HW111840   3.603   6.787   0.088
 3647SOL    HW211841   3.570   6.627   0.095
 3648SOL     OW11842   5.025   4.695   3.127
 3648SOL    HW111843   4.975   4.769   3.172
 3648SOL    HW211844   5.102   4.667   3.185
 3649SOL     OW11845   5.417   2.201   0.252
 3649SOL    HW111846   5.321   2.216   0.276
 3649SOL    HW211847   5.456   2.286   0.217
 3650SOL     OW11848   5.339   5.957   6.175
 3650SOL    HW111849   5.256   5.908   6.202
 3650SOL    HW211850   5.382   5.999   6.255
 3651SOL     OW11851   0.552   1.921   5.880
 3651SOL    HW111852   0.558   1.822   5.888
 3651SOL    HW211853   0.547   1.962   5.971
 3652SOL     OW11854   4.818   2.604   2.518
 3652SOL    HW111855   4.800   2.660   2.600
 3652SOL    HW211856   4.730   2.577   2.478
 3653SOL     OW11857   2.065   1.227   0.656
 3653SOL    HW111858   1.996   1.197   0.722
 3653SOL    HW211859   2.078   1.326   0.664
 3654SOL     OW11860   4.146   6.919   1.995
 3654SOL    HW111861   4.069   6.974   2.028
 3654SOL    HW211862   4.113   6.829   1.966
 3655SOL     OW11863   1.351   0.659   3.713
 3655SOL    HW111864   1.385   0.618   3.798
 3655SOL    HW211865   1.300   0.591   3.662
 3656SOL     OW11866   0.134   0.165   1.046
 3656SOL    HW111867   0.214   0.143   1.101
 3656SOL    HW211868   0.076   0.229   1.095
 3657SOL     OW11869   5.734   5.058   6.269
 3657SOL    HW111870   5.652   5.029   6.219
 3657SOL    HW211871   5.815   5.020   6.224
 3658SOL     OW11872   2.081   4.703   5.545
 3658SOL    HW111873   2.037   4.779   5.496
 3658SOL    HW211874   2.106   4.631   5.479
 3659SOL     OW11875   0.577   2.817   6.653
 3659SOL    HW111876   0.609   2.857   6.567
 3659SOL    HW211877   0.654   2.774   6.701
 3660SOL     OW11878   4.245   5.229   5.555
 3660SOL    HW111879   4.269   5.313   5.506
 3660SOL    HW211880   4.210   5.252   5.646
 3661SOL     OW11881   0.246   1.176   4.257
 3661SOL    HW111882   0.206   1.205   4.344
 3661SOL    HW211883   0.298   1.251   4.217
 3662SOL     OW11884   3.201   1.442   5.770
 3662SOL    HW111885   3.152   1.446   5.683
 3662SOL    HW211886   3.152   1.495   5.839
 3663SOL     OW11887   2.190   2.410   6.366
 3663SOL    HW111888   2.223   2.502   6.343
 3663SOL    HW211889   2.258   2.343   6.336
 3664SOL     OW11890   3.474   1.747   1.366
 3664SOL    HW111891   3.522   1.714   1.285
 3664SOL    HW211892   3.472   1.675   1.436
 3665SOL     OW11893   0.083   5.179   5.388
 3665SOL    HW111894   0.036   5.240   5.323
 3665SOL    HW211895   0.172   5.154   5.351
 3666SOL     OW11896   2.183   3.757   4.223
 3666SOL    HW111897   2.179   3.695   4.301
 3666SOL    HW211898   2.188   3.852   4.255
 3667SOL     OW11899   1.720   6.763   0.521
 3667SOL    HW111900   1.689   6.857   0.535
 3667SOL    HW211901   1.744   6.723   0.610
 3668SOL     OW11902   6.085   1.235   0.747
 3668SOL    HW111903   6.043   1.182   0.673
 3668SOL    HW211904   6.134   1.173   0.808
 3669SOL     OW11905   0.085   1.085   1.805
 3669SOL    HW111906   7.009   1.079   1.831
 3669SOL    HW211907   0.143   1.072   1.886
 3670SOL     OW11908   1.881   0.004   1.954
 3670SOL    HW111909   1.915   7.007   1.862
 3670SOL    HW211910   1.922   6.959   2.018
 3671SOL     OW11911   0.209   0.771   4.573
 3671SOL    HW111912   0.279   0.837   4.546
 3671SOL    HW211913   0.254   0.687   4.606
 3672SOL     OW11914   4.031   6.973   3.574
 3672SOL    HW111915   3.983   6.985   3.486
 3672SOL    HW211916   4.031   0.040   3.623
 3673SOL     OW11917   3.240   0.933   1.496
 3673SOL    HW111918   3.229   1.003   1.567
 3673SOL    HW211919   3.234   0.842   1.538
 3674SOL     OW11920   0.471   4.228   5.836
 3674SOL    HW111921   0.371   4.230   5.833
 3674SOL    HW211922   0.507   4.318   5.810
 3675SOL     OW11923   6.983   0.794   4.481
 3675SOL    HW111924   0.055   0.773   4.514
 3675SOL    HW211925   6.989   0.849   4.398
 3676SOL     OW11926   3.282   0.920   5.616
 3676SOL    HW111927   3.355   0.851   5.614
 3676SOL    HW211928   3.239   0.920   5.706
 3677SOL     OW11929   1.449   1.048   4.411
 3677SOL    HW111930   1.503   1.120   4.455
 3677SOL    HW211931   1.352   1.062   4.431
 3678SOL     OW11932   2.303   1.101   3.480
 3678SOL    HW111933   2.346   1.127   3.566
 3678SOL    HW211934   2.264   1.182   3.437
 3679SOL     OW11935   3.209   0.635   2.827
 3679SOL    HW111936   3.232   0.555   2.772
 3679SOL    HW211937   3.136   0.686   2.782
 3680SOL     OW11938   3.193   2.095   4.419
 3680SOL    HW111939   3.152   2.133   4.501
 3680SOL    HW211940   3.143   2.128   4.338
 3681SOL     OW11941   1.119   6.881   3.800
 3681SOL    HW111942   1.050   6.918   3.862
 3681SOL    HW211943   1.198   6.942   3.797
 3682SOL     OW11944   5.502   2.437   1.188
 3682SOL    HW111945   5.452   2.382   1.121
 3682SOL    HW211946   5.537   2.377   1.260
 3683SOL     OW11947   6.674   1.635   0.753
 3683SOL    HW111948   6.700   1.563   0.689
 3683SOL    HW211949   6.670   1.722   0.705
 3684SOL     OW11950   2.579   6.096   5.993
 3684SOL    HW111951   2.603   6.192   6.008
 3684SOL    HW211952   2.646   6.037   6.039
 3685SOL     OW11953   2.355   6.153   3.781
 3685SOL    HW111954   2.434   6.124   3.727
 3685SOL    HW211955   2.381   6.160   3.877
 3686SOL     OW11956   6.992   4.220   0.095
 3686SOL    HW111957   0.033   4.209   0.173
 3686SOL    HW211958   6.948   4.132   0.075
 3687SOL     OW11959   5.871   4.454   4.318
 3687SOL    HW111960   5.879   4.494   4.410
 3687SOL    HW211961   5.953   4.478   4.265
 3688SOL     OW11962   6.964   2.834   1.232
 3688SOL    HW111963   6.986   2.789   1.318
 3688SOL    HW211964   6.938   2.929   1.249
 3689SOL     OW11965   1.271   1.190   5.881
 3689SOL    HW111966   1.366   1.157   5.882
 3689SOL    HW211967   1.209   1.113   5.892
 3690SOL     OW11968   5.757   4.893   1.683
 3690SOL    HW111969   5.803   4.877   1.595
 3690SOL    HW211970   5.726   4.805   1.720
 3691SOL     OW11971   1.445   2.428   1.001
 3691SOL    HW111972   1.477   2.448   0.908
 3691SOL    HW211973   1.524   2.429   1.063
 3692SOL     OW11974   1.230   2.875   5.362
 3692SOL    HW111975   1.322   2.887   5.325
 3692SOL    HW211976   1.164   2.869   5.287
 3693SOL     OW11977   6.997   1.595   2.379
 3693SOL    HW111978   6.962   1.522   2.438
 3693SOL    HW211979   6.992   1.683   2.427
 3694SOL     OW11980   6.938   6.488   2.334
 3694SOL    HW111981   6.849   6.449   2.311
 3694SOL    HW211982   6.925   6.570   2.390
 3695SOL     OW11983   6.038   3.987   3.578
 3695SOL    HW111984   6.071   4.053   3.510
 3695SOL    HW211985   5.939   3.995   3.586
 3696SOL     OW11986   4.654   0.327   3.691
 3696SOL    HW111987   4.575   0.380   3.722
 3696SOL    HW211988   4.650   0.316   3.591
 3697SOL     OW11989   6.331   5.421   2.794
 3697SOL    HW111990   6.379   5.427   2.707
 3697SOL    HW211991   6.304   5.326   2.810
 3698SOL     OW11992   1.804   0.047   4.062
 3698SOL    HW111993   1.738   0.121   4.054
 3698SOL    HW211994   1.894   0.085   4.082
 3699SOL     OW11995   2.677   2.236   3.148
 3699SOL    HW111996   2.667   2.293   3.067
 3699SOL    HW211997   2.755   2.174   3.136
 3700SOL     OW11998   1.009   4.950   4.713
 3700SOL    HW111999   1.067   4.872   4.737
 3700SOL    HW212000   1.006   5.014   4.789
 3701SOL     OW12001   0.482   1.126   2.056
 3701SOL    HW112002   0.388   1.117   2.022
 3701SOL    HW212003   0.529   1.038   2.046
 3702SOL     OW12004   6.560   4.677   3.549
 3702SOL    HW112005   6.523   4.761   3.508
 3702SOL    HW212006   6.647   4.698   3.593
 3703SOL     OW12007   1.395   2.035   3.030
 3703SOL    HW112008   1.483   2.082   3.022
 3703SOL    HW212009   1.406   1.954   3.088
 3704SOL     OW12010   6.243   6.986   0.946
 3704SOL    HW112011   6.273   0.035   0.880
 3704SOL    HW212012   6.249   6.895   0.905
 3705SOL     OW12013   6.057   4.194   3.917
 3705SOL    HW112014   6.033   4.186   3.820
 3705SOL    HW212015   6.153   4.219   3.926
 3706SOL     OW12016   1.130   5.002   6.353
 3706SOL    HW112017   1.115   5.051   6.267
 3706SOL    HW212018   1.079   5.046   6.426
 3707SOL     OW12019   0.785   4.838   3.757
 3707SOL    HW112020   0.808   4.875   3.847
 3707SOL    HW212021   0.736   4.907   3.704
 3708SOL     OW12022   1.558   6.052   0.261
 3708SOL    HW112023   1.577   6.003   0.346
 3708SOL    HW212024   1.461   6.076   0.258
 3709SOL     OW12025   0.597   1.545   2.254
 3709SOL    HW112026   0.633   1.612   2.319
 3709SOL    HW212027   0.501   1.526   2.276
 3710SOL     OW12028   1.882   3.866   5.299
 3710SOL    HW112029   1.870   3.782   5.246
 3710SOL    HW212030   1.943   3.928   5.249
 3711SOL     OW12031   2.225   5.461   4.804
 3711SOL    HW112032   2.253   5.523   4.731
 3711SOL    HW212033   2.229   5.367   4.771
 3712SOL     OW12034   3.096   5.393   4.248
 3712SOL    HW112035   3.160   5.415   4.321
 3712SOL    HW212036   3.052   5.305   4.268
 3713SOL     OW12037   6.012   0.268   5.179
 3713SOL    HW112038   5.964   0.326   5.245
 3713SOL    HW212039   6.109   0.291   5.179
 3714SOL     OW12040   0.097   4.693   6.646
 3714SOL    HW112041   0.174   4.743   6.606
 3714SOL    HW212042   0.117   4.595   6.644
 3715SOL     OW12043   6.225   4.540   3.510
 3715SOL    HW112044   6.240   4.615   3.445
 3715SOL    HW212045   6.296   4.471   3.498
 3716SOL     OW12046   5.804   5.875   5.649
 3716SOL    HW112047   5.815   5.931   5.567
 3716SOL    HW212048   5.761   5.788   5.625
 3717SOL     OW12049   4.811   0.658   1.094
 3717SOL    HW112050   4.854   0.661   1.184
 3717SOL    HW212051   4.739   0.588   1.094
 3718SOL     OW12052   5.739   6.959   6.373
 3718SOL    HW112053   5.696   6.983   6.286
 3718SOL    HW212054   5.721   6.862   6.393
 3719SOL     OW12055   2.692   4.547   0.203
 3719SOL    HW112056   2.636   4.474   0.163
 3719SOL    HW212057   2.636   4.629   0.215
 3720SOL     OW12058   6.993   2.633   1.058
 3720SOL    HW112059   6.920   2.573   1.090
 3720SOL    HW212060   6.989   2.720   1.108
 3721SOL     OW12061   6.104   0.342   5.744
 3721SOL    HW112062   6.165   0.405   5.695
 3721SOL    HW212063   6.142   0.323   5.835
 3722SOL     OW12064   6.065   6.507   1.324
 3722SOL    HW112065   6.049   6.437   1.393
 3722SOL    HW212066   5.997   6.580   1.334
 3723SOL     OW12067   4.580   4.469   6.501
 3723SOL    HW112068   4.627   4.404   6.560
 3723SOL    HW212069   4.620   4.560   6.512
 3724SOL     OW12070   6.733   4.493   4.788
 3724SOL    HW112071   6.747   4.404   4.746
 3724SOL    HW212072   6.821   4.538   4.801
 3725SOL     OW12073   0.870   5.912   0.416
 3725SOL    HW112074   0.781   5.900   0.461
 3725SOL    HW212075   0.864   5.988   0.351
 3726SOL     OW12076   6.538   3.304   5.182
 3726SOL    HW112077   6.467   3.322   5.250
 3726SOL    HW212078   6.496   3.264   5.100
 3727SOL     OW12079   6.601   2.155   4.036
 3727SOL    HW112080   6.552   2.131   3.952
 3727SOL    HW212081   6.603   2.255   4.046
 3728SOL     OW12082   1.946   4.237   0.627
 3728SOL    HW112083   2.006   4.292   0.684
 3728SOL    HW212084   1.851   4.259   0.647
 3729SOL     OW12085   0.436   0.003   6.045
 3729SOL    HW112086   0.525   7.002   6.003
 3729SOL    HW212087   0.396   6.939   6.082
 3730SOL     OW12088   5.002   4.968   4.801
 3730SOL    HW112089   5.021   4.888   4.745
 3730SOL    HW212090   5.083   4.990   4.855
 3731SOL     OW12091   0.138   1.972   0.767
 3731SOL    HW112092   0.225   1.935   0.734
 3731SOL    HW212093   0.146   2.070   0.781
 3732SOL     OW12094   3.636   3.165   6.774
 3732SOL    HW112095   3.717   3.223   6.776
 3732SOL    HW212096   3.581   3.186   6.694
 3733SOL     OW12097   1.501   1.276   3.580
 3733SOL    HW112098   1.466   1.369   3.569
 3733SOL    HW212099   1.601   1.279   3.591
 3734SOL     OW12100   3.507   0.227   2.137
 3734SOL    HW112101   3.476   0.138   2.104
 3734SOL    HW212102   3.474   0.241   2.230
 3735SOL     OW12103   4.522   0.928   2.790
 3735SOL    HW112104   4.469   0.847   2.763
 3735SOL    HW212105   4.490   1.007   2.738
 3736SOL     OW12106   0.742   1.699   0.162
 3736SOL    HW112107   0.792   1.783   0.144
 3736SOL    HW212108   0.645   1.720   0.174
 3737SOL     OW12109   5.902   2.358   3.237
 3737SOL    HW112110   5.976   2.311   3.286
 3737SOL    HW212111   5.854   2.419   3.301
 3738SOL     OW12112   0.672   0.890   1.212
 3738SOL    HW112113   0.578   0.918   1.233
 3738SOL    HW212114   0.725   0.970   1.184
 3739SOL     OW12115   2.825   4.373   6.875
 3739SOL    HW112116   2.798   4.469   6.887
 3739SOL    HW212117   2.803   4.344   6.782
 3740SOL     OW12118   5.324   5.947   6.693
 3740SOL    HW112119   5.224   5.953   6.685
 3740SOL    HW212120   5.364   5.948   6.601
 3741SOL     OW12121   5.527   4.091   0.276
 3741SOL    HW112122   5.612   4.144   0.272
 3741SOL    HW212123   5.546   3.999   0.310
 3742SOL     OW12124   4.463   5.383   1.337
 3742SOL    HW112125   4.402   5.360   1.262
 3742SOL    HW212126   4.483   5.481   1.337
 3743SOL     OW12127   2.896   4.289   0.599
 3743SOL    HW112128   2.947   4.206   0.579
 3743SOL    HW212129   2.833   4.273   0.675
 3744SOL     OW12130   6.493   5.542   2.595
 3744SOL    HW112131   6.432   5.587   2.529
 3744SOL    HW212132   6.504   5.601   2.676
 3745SOL     OW12133   4.835   2.581   2.876
 3745SOL    HW112134   4.822   2.505   2.813
 3745SOL    HW212135   4.821   2.667   2.827
 3746SOL     OW12136   5.161   6.809   4.548
 3746SOL    HW112137   5.095   6.884   4.540
 3746SOL    HW212138   5.158   6.772   4.641
 3747SOL     OW12139   2.698   5.530   5.418
 3747SOL    HW112140   2.616   5.552   5.364
 3747SOL    HW212141   2.746   5.454   5.375
 3748SOL     OW12142   5.190   2.571   3.259
 3748SOL    HW112143   5.128   2.595   3.184
 3748SOL    HW212144   5.154   2.491   3.307
 3749SOL     OW12145   6.394   6.504   1.961
 3749SOL    HW112146   6.434   6.594   1.944
 3749SOL    HW212147   6.467   6.440   1.988
 3750SOL     OW12148   5.738   4.073   1.090
 3750SOL    HW112149   5.769   4.055   1.184
 3750SOL    HW212150   5.805   4.131   1.044
 3751SOL     OW12151   1.268   4.177   1.327
 3751SOL    HW112152   1.225   4.231   1.254
 3751SOL    HW212153   1.345   4.227   1.365
 3752SOL     OW12154   1.310   6.311   5.793
 3752SOL    HW112155   1.272   6.220   5.804
 3752SOL    HW212156   1.372   6.312   5.714
 3753SOL     OW12157   0.289   0.631   5.039
 3753SOL    HW112158   0.338   0.564   5.094
 3753SOL    HW212159   0.254   0.586   4.956
 3754SOL     OW12160   6.649   6.029   1.565
 3754SOL    HW112161   6.687   6.096   1.502
 3754SOL    HW212162   6.681   6.048   1.657
 3755SOL     OW12163   4.632   2.586   3.043
 3755SOL    HW112164   4.542   2.544   3.026
 3755SOL    HW212165   4.691   2.570   2.964
 3756SOL     OW12166   3.474   6.943   0.294
 3756SOL    HW112167   3.421   0.007   0.282
 3756SOL    HW212168   3.441   6.893   0.374
 3757SOL     OW12169   3.901   4.878   6.738
 3757SOL    HW112170   3.941   4.800   6.786
 3757SOL    HW212171   3.815   4.851   6.696
 3758SOL     OW12172   6.574   0.747   2.553
 3758SOL    HW112173   6.530   0.718   2.468
 3758SOL    HW212174   6.574   0.671   2.618
 3759SOL     OW12175   4.739   4.719   1.138
 3759SOL    HW112176   4.689   4.703   1.223
 3759SOL    HW212177   4.740   4.817   1.118
 3760SOL     OW12178   1.861   1.798   6.330
 3760SOL    HW112179   1.898   1.721   6.278
 3760SOL    HW212180   1.781   1.767   6.382
 3761SOL     OW12181   6.702   6.123   4.172
 3761SOL    HW112182   6.720   6.151   4.266
 3761SOL    HW212183   6.775   6.062   4.140
 3762SOL     OW12184   0.303   2.938   0.316
 3762SOL    HW112185   0.305   2.970   0.221
 3762SOL    HW212186   0.339   3.009   0.376
 3763SOL     OW12187   0.147   3.505   5.542
 3763SOL    HW112188   0.116   3.422   5.494
 3763SOL    HW212189   0.123   3.585   5.487
 3764SOL     OW12190   2.619   6.990   4.304
 3764SOL    HW112191   2.697   0.026   4.275
 3764SOL    HW212192   2.605   6.999   4.402
 3765SOL     OW12193   5.633   1.618   3.291
 3765SOL    HW112194   5.721   1.650   3.327
 3765SOL    HW212195   5.603   1.679   3.218
 3766SOL     OW12196   1.761   0.858   5.347
 3766SOL    HW112197   1.665   0.872   5.367
 3766SOL    HW212198   1.777   0.761   5.327
 3767SOL     OW12199   0.378   4.776   0.267
 3767SOL    HW112200   0.455   4.743   0.213
 3767SOL    HW212201   0.292   4.754   0.221
 3768SOL     OW12202   4.386   6.424   1.354
 3768SOL    HW112203   4.293   6.446   1.384
 3768SOL    HW212204   4.424   6.353   1.414
 3769SOL     OW12205   4.511   6.760   5.108
 3769SOL    HW112206   4.550   6.761   5.016
 3769SOL    HW212207   4.576   6.718   5.171
 3770SOL     OW12208   2.328   2.564   0.688
 3770SOL    HW112209   2.321   2.653   0.734
 3770SOL    HW212210   2.423   2.536   0.685
 3771SOL     OW12211   4.380   1.741   5.148
 3771SOL    HW112212   4.406   1.667   5.210
 3771SOL    HW212213   4.438   1.739   5.067
 3772SOL     OW12214   4.781   0.442   2.570
 3772SOL    HW112215   4.707   0.386   2.533
 3772SOL    HW212216   4.774   0.443   2.670
 3773SOL     OW12217   6.557   2.337   0.808
 3773SOL    HW112218   6.523   2.411   0.751
 3773SOL    HW212219   6.525   2.350   0.902
 3774SOL     OW12220   0.930   1.933   1.984
 3774SOL    HW112221   0.866   1.993   1.937
 3774SOL    HW212222   0.995   1.988   2.036
 3775SOL     OW12223   5.563   3.127   3.324
 3775SOL    HW112224   5.505   3.208   3.335
 3775SOL    HW212225   5.632   3.125   3.396
 3776SOL     OW12226   3.216   2.437   6.546
 3776SOL    HW112227   3.207   2.483   6.634
 3776SOL    HW212228   3.247   2.502   6.477
 3777SOL     OW12229   0.898   4.287   3.246
 3777SOL    HW112230   0.985   4.316   3.208
 3777SOL    HW212231   0.851   4.228   3.181
 3778SOL     OW12232   2.369   6.827   1.829
 3778SOL    HW112233   2.330   6.765   1.897
 3778SOL    HW212234   2.303   6.900   1.809
 3779SOL     OW12235   1.961   4.514   0.001
 3779SOL    HW112236   2.019   4.511   0.083
 3779SOL    HW212237   1.882   4.572   0.018
 3780SOL     OW12238   2.374   0.491   3.852
 3780SOL    HW112239   2.321   0.410   3.828
 3780SOL    HW212240   2.471   0.466   3.857
 3781SOL     OW12241   2.784   5.472   4.940
 3781SOL    HW112242   2.735   5.559   4.949
 3781SOL    HW212243   2.862   5.471   5.002
 3782SOL     OW12244   2.983   1.121   2.738
 3782SOL    HW112245   2.972   1.128   2.837
 3782SOL    HW212246   3.059   1.178   2.709
 3783SOL     OW12247   5.235   5.445   5.076
 3783SOL    HW112248   5.147   5.426   5.117
 3783SOL    HW212249   5.245   5.544   5.062
 3784SOL     OW12250   5.197   2.012   4.420
 3784SOL    HW112251   5.101   2.029   4.440
 3784SOL    HW212252   5.240   2.096   4.387
 3785SOL     OW12253   1.421   1.235   2.157
 3785SOL    HW112254   1.439   1.332   2.140
 3785SOL    HW212255   1.453   1.181   2.080
 3786SOL     OW12256   3.201   6.271   2.791
 3786SOL    HW112257   3.292   6.309   2.778
 3786SOL    HW212258   3.163   6.244   2.702
 3787SOL     OW12259   4.442   0.939   4.015
 3787SOL    HW112260   4.518   0.897   4.066
 3787SOL    HW212261   4.420   1.028   4.055
 3788SOL     OW12262   6.426   3.432   2.233
 3788SOL    HW112263   6.418   3.332   2.235
 3788SOL    HW212264   6.440   3.463   2.140
 3789SOL     OW12265   1.063   5.321   2.165
 3789SOL    HW112266   0.976   5.339   2.119
 3789SOL    HW212267   1.092   5.227   2.145
 3790SOL     OW12268   2.139   3.108   3.125
 3790SOL    HW112269   2.107   3.155   3.207
 3790SOL    HW212270   2.170   3.176   3.058
 3791SOL     OW12271   6.051   0.575   2.590
 3791SOL    HW112272   6.132   0.587   2.648
 3791SOL    HW212273   6.012   0.665   2.570
 3792SOL     OW12274   0.447   6.537   6.274
 3792SOL    HW112275   0.382   6.502   6.343
 3792SOL    HW212276   0.465   6.465   6.207
 3793SOL     OW12277   0.791   6.085   2.845
 3793SOL    HW112278   0.810   6.043   2.934
 3793SOL    HW212279   0.767   6.013   2.779
 3794SOL     OW12280   4.232   6.470   3.751
 3794SOL    HW112281   4.162   6.429   3.808
 3794SOL    HW212282   4.206   6.564   3.728
 3795SOL     OW12283   5.573   0.289   0.609
 3795SOL    HW112284   5.592   0.192   0.625
 3795SOL    HW212285   5.626   0.321   0.531
 3796SOL     OW12286   1.188   3.246   0.541
 3796SOL    HW112287   1.125   3.263   0.618
 3796SOL    HW212288   1.194   3.328   0.485
 3797SOL     OW12289   6.867   5.233   2.545
 3797SOL    HW112290   6.961   5.215   2.515
 3797SOL    HW212291   6.868   5.263   2.641
 3798SOL     OW12292   0.772   4.188   0.995
 3798SOL    HW112293   0.790   4.124   1.069
 3798SOL    HW212294   0.823   4.273   1.011
 3799SOL     OW12295   1.234   0.548   4.834
 3799SOL    HW112296   1.327   0.557   4.798
 3799SOL    HW212297   1.217   0.453   4.860
 3800SOL     OW12298   5.124   2.555   5.280
 3800SOL    HW112299   5.049   2.488   5.271
 3800SOL    HW212300   5.088   2.647   5.270
 3801SOL     OW12301   6.739   0.011   6.642
 3801SOL    HW112302   6.696   0.021   6.731
 3801SOL    HW212303   6.831   0.050   6.645
 3802SOL     OW12304   1.782   2.611   5.344
 3802SOL    HW112305   1.794   2.557   5.260
 3802SOL    HW212306   1.850   2.582   5.412
 3803SOL     OW12307   4.296   0.961   1.253
 3803SOL    HW112308   4.360   0.963   1.329
 3803SOL    HW212309   4.226   0.892   1.270
 3804SOL     OW12310   5.194   2.867   5.147
 3804SOL    HW112311   5.271   2.808   5.124
 3804SOL    HW212312   5.178   2.932   5.073
 3805SOL     OW12313   2.053   3.816   1.760
 3805SOL    HW112314   2.017   3.734   1.805
 3805SOL    HW212315   2.153   3.814   1.762
 3806SOL     OW12316   3.731   1.425   0.701
 3806SOL    HW112317   3.643   1.398   0.662
 3806SOL    HW212318   3.766   1.506   0.653
 3807SOL     OW12319   1.328   6.904   2.900
 3807SOL    HW112320   1.414   6.879   2.857
 3807SOL    HW212321   1.315   7.003   2.894
 3808SOL     OW12322   3.052   0.477   1.035
 3808SOL    HW112323   3.017   0.416   1.105
 3808SOL    HW212324   3.129   0.434   0.988
 3809SOL     OW12325   4.093   0.204   6.926
 3809SOL    HW112326   4.119   0.285   6.874
 3809SOL    HW212327   4.175   0.162   6.965
 3810SOL     OW12328   2.264   3.511   6.101
 3810SOL    HW112329   2.224   3.442   6.161
 3810SOL    HW212330   2.363   3.503   6.102
 3811SOL     OW12331   0.750   0.133   6.482
 3811SOL    HW112332   0.844   0.101   6.489
 3811SOL    HW212333   0.748   0.232   6.473
 3812SOL     OW12334   5.278   0.762   5.907
 3812SOL    HW112335   5.231   0.704   5.841
 3812SOL    HW212336   5.258   0.858   5.887
 3813SOL     OW12337   3.876   4.788   1.822
 3813SOL    HW112338   3.791   4.772   1.871
 3813SOL    HW212339   3.906   4.704   1.777
 3814SOL     OW12340   1.964   0.928   2.065
 3814SOL    HW112341   1.952   0.912   1.967
 3814SOL    HW212342   2.030   0.863   2.102
 3815SOL     OW12343   5.325   2.102   1.998
 3815SOL    HW112344   5.349   2.108   2.095
 3815SOL    HW212345   5.401   2.060   1.947
 3816SOL     OW12346   0.210   6.498   0.950
 3816SOL    HW112347   0.293   6.446   0.968
 3816SOL    HW212348   0.181   6.484   0.856
 3817SOL     OW12349   4.945   1.534   5.529
 3817SOL    HW112350   4.932   1.597   5.452
 3817SOL    HW212351   5.033   1.487   5.520
 3818SOL     OW12352   4.750   5.297   3.166
 3818SOL    HW112353   4.830   5.318   3.110
 3818SOL    HW212354   4.776   5.236   3.241
 3819SOL     OW12355   6.156   4.012   5.980
 3819SOL    HW112356   6.105   3.956   5.914
 3819SOL    HW212357   6.096   4.035   6.057
 3820SOL     OW12358   4.920   6.065   3.324
 3820SOL    HW112359   4.845   6.130   3.313
 3820SOL    HW212360   4.914   6.021   3.414
 3821SOL     OW12361   0.101   4.439   1.350
 3821SOL    HW112362   0.072   4.437   1.445
 3821SOL    HW212363   0.023   4.458   1.291
 3822SOL     OW12364   0.545   4.376   1.613
 3822SOL    HW112365   0.605   4.397   1.536
 3822SOL    HW212366   0.477   4.309   1.584
 3823SOL     OW12367   2.694   3.222   5.613
 3823SOL    HW112368   2.696   3.243   5.711
 3823SOL    HW212369   2.783   3.187   5.584
 3824SOL     OW12370   6.626   2.173   6.444
 3824SOL    HW112371   6.670   2.261   6.462
 3824SOL    HW212372   6.538   2.188   6.400
 3825SOL     OW12373   6.304   6.578   5.688
 3825SOL    HW112374   6.391   6.602   5.731
 3825SOL    HW212375   6.290   6.636   5.607
 3826SOL     OW12376   7.010   1.964   1.238
 3826SOL    HW112377   0.010   1.888   1.176
 3826SOL    HW212378   0.074   2.011   1.263
 3827SOL     OW12379   5.718   2.200   1.318
 3827SOL    HW112380   5.766   2.113   1.306
 3827SOL    HW212381   5.774   2.261   1.374
 3828SOL     OW12382   4.325   0.954   1.535
 3828SOL    HW112383   4.390   1.028   1.553
 3828SOL    HW212384   4.361   0.869   1.572
 3829SOL     OW12385   0.826   4.930   3.416
 3829SOL    HW112386   0.917   4.913   3.455
 3829SOL    HW212387   0.831   4.923   3.316
 3830SOL     OW12388   3.077   0.489   5.613
 3830SOL    HW112389   3.071   0.567   5.552
 3830SOL    HW212390   3.115   0.518   5.701
 3831SOL     OW12391   4.675   1.520   2.442
 3831SOL    HW112392   4.639   1.614   2.446
 3831SOL    HW212393   4.679   1.491   2.346
 3832SOL     OW12394   5.408   6.778   2.513
 3832SOL    HW112395   5.426   6.815   2.422
 3832SOL    HW212396   5.340   6.705   2.507
 3833SOL     OW12397   1.683   6.382   1.654
 3833SOL    HW112398   1.610   6.426   1.601
 3833SOL    HW212399   1.653   6.366   1.747
 3834SOL     OW12400   2.838   2.619   0.942
 3834SOL    HW112401   2.912   2.579   0.888
 3834SOL    HW212402   2.862   2.614   1.039
 3835SOL     OW12403   3.727   5.604   3.440
 3835SOL    HW112404   3.694   5.684   3.390
 3835SOL    HW212405   3.798   5.557   3.386
 3836SOL     OW12406   1.906   3.019   5.286
 3836SOL    HW112407   1.891   3.076   5.206
 3836SOL    HW212408   1.966   3.067   5.350
 3837SOL     OW12409   3.122   3.700   0.008
 3837SOL    HW112410   3.110   3.680   6.931
 3837SOL    HW212411   3.212   3.668   0.038
 3838SOL     OW12412   5.651   3.044   5.329
 3838SOL    HW112413   5.610   3.131   5.353
 3838SOL    HW212414   5.750   3.050   5.339
 3839SOL     OW12415   0.480   6.368   6.073
 3839SOL    HW112416   0.439   6.423   6.000
 3839SOL    HW212417   0.567   6.331   6.042
 3840SOL     OW12418   2.446   1.192   3.702
 3840SOL    HW112419   2.406   1.211   3.792
 3840SOL    HW212420   2.482   1.276   3.663
 3841SOL     OW12421   0.935   3.967   3.983
 3841SOL    HW112422   1.009   3.900   3.992
 3841SOL    HW212423   0.866   3.950   4.054
 3842SOL     OW12424   1.725   5.319   0.112
 3842SOL    HW112425   1.755   5.226   0.134
 3842SOL    HW212426   1.763   5.347   0.024
 3843SOL     OW12427   5.893   4.243   0.372
 3843SOL    HW112428   5.857   4.237   0.278
 3843SOL    HW212429   5.838   4.308   0.424
 3844SOL     OW12430   2.569   4.429   5.750
 3844SOL    HW112431   2.663   4.463   5.745
 3844SOL    HW212432   2.509   4.494   5.704
 3845SOL     OW12433   3.224   3.563   3.748
 3845SOL    HW112434   3.314   3.533   3.715
 3845SOL    HW212435   3.163   3.484   3.752
 3846SOL     OW12436   6.696   4.412   4.376
 3846SOL    HW112437   6.780   4.436   4.423
 3846SOL    HW212438   6.714   4.341   4.309
 3847SOL     OW12439   1.000   0.068   0.976
 3847SOL    HW112440   0.996   0.039   1.072
 3847SOL    HW212441   0.907   0.072   0.939
 3848SOL     OW12442   2.980   6.056   1.456
 3848SOL    HW112443   2.941   6.013   1.537
 3848SOL    HW212444   3.016   5.986   1.395
 3849SOL     OW12445   2.469   1.285   5.992
 3849SOL    HW112446   2.371   1.301   5.976
 3849SOL    HW212447   2.490   1.310   6.087
 3850SOL     OW12448   2.186   3.735   1.349
 3850SOL    HW112449   2.171   3.820   1.399
 3850SOL    HW212450   2.260   3.747   1.283
 3851SOL     OW12451   2.758   2.488   1.172
 3851SOL    HW112452   2.808   2.556   1.225
 3851SOL    HW212453   2.731   2.412   1.232
 3852SOL     OW12454   4.332   1.128   5.618
 3852SOL    HW112455   4.431   1.123   5.629
 3852SOL    HW212456   4.309   1.143   5.522
 3853SOL     OW12457   0.935   3.348   1.814
 3853SOL    HW112458   0.946   3.445   1.792
 3853SOL    HW212459   0.866   3.338   1.886
 3854SOL     OW12460   1.809   3.228   4.084
 3854SOL    HW112461   1.768   3.145   4.123
 3854SOL    HW212462   1.795   3.228   3.985
 3855SOL     OW12463   6.745   1.825   4.890
 3855SOL    HW112464   6.791   1.857   4.807
 3855SOL    HW212465   6.675   1.757   4.865
 3856SOL     OW12466   1.569   6.268   6.065
 3856SOL    HW112467   1.641   6.218   6.016
 3856SOL    HW212468   1.487   6.212   6.070
 3857SOL     OW12469   0.740   0.273   6.153
 3857SOL    HW112470   0.744   0.177   6.123
 3857SOL    HW212471   0.661   0.318   6.110
 3858SOL     OW12472   2.802   4.887   7.016
 3858SOL    HW112473   2.805   4.976   6.971
 3858SOL    HW212474   2.870   4.885   0.069
 3859SOL     OW12475   5.999   2.703   2.216
 3859SOL    HW112476   6.017   2.796   2.247
 3859SOL    HW212477   6.086   2.656   2.200
 3860SOL     OW12478   2.321   5.893   5.095
 3860SOL    HW112479   2.296   5.945   5.176
 3860SOL    HW212480   2.241   5.841   5.063
 3861SOL     OW12481   3.600   4.349   0.161
 3861SOL    HW112482   3.625   4.398   0.244
 3861SOL    HW212483   3.582   4.253   0.182
 3862SOL     OW12484   0.770   5.836   5.407
 3862SOL    HW112485   0.737   5.899   5.477
 3862SOL    HW212486   0.868   5.851   5.392
 3863SOL     OW12487   2.905   3.594   0.749
 3863SOL    HW112488   2.977   3.541   0.794
 3863SOL    HW212489   2.934   3.690   0.744
 3864SOL     OW12490   3.413   1.502   0.998
 3864SOL    HW112491   3.508   1.480   0.978
 3864SOL    HW212492   3.354   1.463   0.926
 3865SOL     OW12493   4.258   0.665   2.387
 3865SOL    HW112494   4.233   0.754   2.423
 3865SOL    HW212495   4.235   0.661   2.289
 3866SOL     OW12496   3.494   6.180   6.765
 3866SOL    HW112497   3.517   6.230   6.682
 3866SOL    HW212498   3.547   6.215   6.842
 3867SOL     OW12499   1.642   5.128   3.383
 3867SOL    HW112500   1.679   5.063   3.316
 3867SOL    HW212501   1.710   5.143   3.455
 3868SOL     OW12502   2.241   5.915   2.497
 3868SOL    HW112503   2.335   5.900   2.465
 3868SOL    HW212504   2.229   6.012   2.518
 3869SOL     OW12505   0.682   1.731   3.575
 3869SOL    HW112506   0.741   1.655   3.548
 3869SOL    HW212507   0.602   1.696   3.623
 3870SOL     OW12508   3.464   3.839   0.482
 3870SOL    HW112509   3.550   3.799   0.514
 3870SOL    HW212510   3.437   3.912   0.545
 3871SOL     OW12511   3.075   1.235   5.369
 3871SOL    HW112512   3.115   1.312   5.319
 3871SOL    HW212513   3.003   1.193   5.314
 3872SOL     OW12514   4.284   3.671   1.081
 3872SOL    HW112515   4.222   3.717   1.017
 3872SOL    HW212516   4.234   3.647   1.164
 3873SOL     OW12517   5.672   4.501   2.123
 3873SOL    HW112518   5.604   4.488   2.051
 3873SOL    HW212519   5.759   4.462   2.094
 3874SOL     OW12520   4.625   5.974   6.073
 3874SOL    HW112521   4.615   5.943   6.168
 3874SOL    HW212522   4.709   5.935   6.035
 3875SOL     OW12523   2.383   4.011   0.138
 3875SOL    HW112524   2.482   4.024   0.141
 3875SOL    HW212525   2.354   3.959   0.219
 3876SOL     OW12526   5.678   3.744   2.113
 3876SOL    HW112527   5.739   3.737   2.191
 3876SOL    HW212528   5.592   3.786   2.141
 3877SOL     OW12529   4.612   1.961   2.152
 3877SOL    HW112530   4.572   1.892   2.091
 3877SOL    HW212531   4.615   2.049   2.104
 3878SOL     OW12532   4.783   5.822   4.482
 3878SOL    HW112533   4.871   5.785   4.511
 3878SOL    HW212534   4.743   5.762   4.413
 3879SOL     OW12535   2.862   5.777   1.016
 3879SOL    HW112536   2.861   5.857   0.957
 3879SOL    HW212537   2.809   5.794   1.099
 3880SOL     OW12538   6.292   1.937   4.170
 3880SOL    HW112539   6.223   2.009   4.174
 3880SOL    HW212540   6.331   1.923   4.261
 3881SOL     OW12541   0.466   5.449   6.912
 3881SOL    HW112542   0.461   5.547   6.929
 3881SOL    HW212543   0.390   5.403   6.957
 3882SOL     OW12544   0.184   6.529   6.715
 3882SOL    HW112545   0.117   6.602   6.724
 3882SOL    HW212546   0.276   6.566   6.727
 3883SOL     OW12547   3.516   1.962   0.027
 3883SOL    HW112548   3.457   2.040   0.008
 3883SOL    HW212549   3.505   1.893   6.976
 3884SOL     OW12550   2.072   5.082   5.718
 3884SOL    HW112551   2.013   5.001   5.728
 3884SOL    HW212552   2.164   5.053   5.690
 3885SOL     OW12553   6.691   0.724   4.117
 3885SOL    HW112554   6.647   0.681   4.196
 3885SOL    HW212555   6.709   0.820   4.137
 3886SOL     OW12556   0.124   5.853   5.003
 3886SOL    HW112557   0.067   5.855   4.920
 3886SOL    HW212558   0.072   5.811   5.077
 3887SOL     OW12559   5.409   2.707   5.049
 3887SOL    HW112560   5.427   2.613   5.021
 3887SOL    HW212561   5.485   2.740   5.105
 3888SOL     OW12562   5.382   1.171   2.613
 3888SOL    HW112563   5.474   1.196   2.584
 3888SOL    HW212564   5.378   1.169   2.713
 3889SOL     OW12565   6.456   5.926   6.656
 3889SOL    HW112566   6.530   5.993   6.645
 3889SOL    HW212567   6.492   5.834   6.644
 3890SOL     OW12568   6.276   3.168   3.059
 3890SOL    HW112569   6.296   3.105   2.984
 3890SOL    HW212570   6.361   3.208   3.093
 3891SOL     OW12571   4.541   4.555   6.029
 3891SOL    HW112572   4.548   4.654   6.037
 3891SOL    HW212573   4.558   4.513   6.118
 3892SOL     OW12574   5.785   5.515   3.694
 3892SOL    HW112575   5.692   5.551   3.679
 3892SOL    HW212576   5.835   5.577   3.753
 3893SOL     OW12577   2.860   6.339   4.385
 3893SOL    HW112578   2.837   6.298   4.297
 3893SOL    HW212579   2.940   6.293   4.424
 3894SOL     OW12580   5.790   5.023   6.807
 3894SOL    HW112581   5.876   5.072   6.823
 3894SOL    HW212582   5.768   5.026   6.710
 3895SOL     OW12583   1.713   2.023   6.247
 3895SOL    HW112584   1.786   1.955   6.245
 3895SOL    HW212585   1.693   2.049   6.341
 3896SOL     OW12586   6.618   3.132   0.715
 3896SOL    HW112587   6.668   3.075   0.779
 3896SOL    HW212588   6.632   3.099   0.622
 3897SOL     OW12589   2.957   6.679   3.620
 3897SOL    HW112590   2.864   6.694   3.652
 3897SOL    HW212591   3.019   6.745   3.663
 3898SOL     OW12592   3.355   3.224   3.928
 3898SOL    HW112593   3.272   3.280   3.936
 3898SOL    HW212594   3.419   3.248   4.001
 3899SOL     OW12595   4.843   1.700   6.626
 3899SOL    HW112596   4.917   1.764   6.646
 3899SOL    HW212597   4.787   1.736   6.551
 3900SOL     OW12598   0.779   2.581   3.830
 3900SOL    HW112599   0.794   2.510   3.761
 3900SOL    HW212600   0.689   2.568   3.873
 3901SOL     OW12601   3.554   5.869   5.314
 3901SOL    HW112602   3.644   5.841   5.280
 3901SOL    HW212603   3.565   5.914   5.403
 3902SOL     OW12604   3.678   5.549   2.852
 3902SOL    HW112605   3.613   5.592   2.790
 3902SOL    HW212606   3.755   5.611   2.868
 3903SOL     OW12607   3.861   3.406   6.160
 3903SOL    HW112608   3.927   3.384   6.232
 3903SOL    HW212609   3.833   3.502   6.169
 3904SOL     OW12610   2.233   6.304   6.926
 3904SOL    HW112611   2.236   6.207   6.951
 3904SOL    HW212612   2.315   6.349   6.961
 3905SOL     OW12613   4.632   0.356   5.754
 3905SOL    HW112614   4.563   0.290   5.783
 3905SOL    HW212615   4.625   0.438   5.812
 3906SOL     OW12616   6.741   5.908   4.438
 3906SOL    HW112617   6.721   6.004   4.420
 3906SOL    HW212618   6.704   5.852   4.364
 3907SOL     OW12619   0.685   1.661   4.221
 3907SOL    HW112620   0.607   1.680   4.280
 3907SOL    HW212621   0.759   1.725   4.244
 3908SOL     OW12622   2.162   0.849   4.628
 3908SOL    HW112623   2.211   0.761   4.629
 3908SOL    HW212624   2.132   0.869   4.535
 3909SOL     OW12625   5.648   3.528   1.942
 3909SOL    HW112626   5.653   3.604   2.007
 3909SOL    HW212627   5.683   3.445   1.986
 3910SOL     OW12628   2.382   2.862   1.283
 3910SOL    HW112629   2.437   2.788   1.246
 3910SOL    HW212630   2.438   2.944   1.294
 3911SOL     OW12631   6.829   1.506   1.261
 3911SOL    HW112632   6.808   1.556   1.177
 3911SOL    HW212633   6.914   1.455   1.249
 3912SOL     OW12634   4.535   4.035   0.269
 3912SOL    HW112635   4.629   4.069   0.276
 3912SOL    HW212636   4.504   4.005   0.359
 3913SOL     OW12637   3.940   4.949   1.287
 3913SOL    HW112638   3.922   4.945   1.385
 3913SOL    HW212639   3.916   4.861   1.246
 3914SOL     OW12640   0.517   1.164   0.760
 3914SOL    HW112641   0.445   1.161   0.692
 3914SOL    HW212642   0.483   1.208   0.843
 3915SOL     OW12643   5.634   0.280   5.211
 3915SOL    HW112644   5.665   0.268   5.305
 3915SOL    HW212645   5.698   0.341   5.162
 3916SOL     OW12646   1.976   2.417   2.381
 3916SOL    HW112647   1.910   2.480   2.339
 3916SOL    HW212648   1.955   2.324   2.353
 3917SOL     OW12649   4.489   5.345   2.609
 3917SOL    HW112650   4.468   5.374   2.515
 3917SOL    HW212651   4.543   5.261   2.606
 3918SOL     OW12652   4.071   6.563   1.397
 3918SOL    HW112653   4.135   6.636   1.374
 3918SOL    HW212654   4.020   6.536   1.316
 3919SOL     OW12655   5.422   5.543   3.173
 3919SOL    HW112656   5.499   5.488   3.140
 3919SOL    HW212657   5.376   5.585   3.095
 3920SOL     OW12658   4.053   1.487   5.802
 3920SOL    HW112659   4.110   1.569   5.797
 3920SOL    HW212660   3.991   1.494   5.881
 3921SOL     OW12661   1.553   3.028   6.246
 3921SOL    HW112662   1.598   3.115   6.267
 3921SOL    HW212663   1.473   3.016   6.305
 3922SOL     OW12664   5.316   2.350   4.027
 3922SOL    HW112665   5.317   2.439   3.983
 3922SOL    HW212666   5.383   2.290   3.984
 3923SOL     OW12667   6.154   0.708   1.302
 3923SOL    HW112668   6.168   0.796   1.256
 3923SOL    HW212669   6.215   0.703   1.381
 3924SOL     OW12670   5.160   4.762   4.086
 3924SOL    HW112671   5.213   4.833   4.131
 3924SOL    HW212672   5.068   4.797   4.065
 3925SOL     OW12673   3.309   4.957   1.418
 3925SOL    HW112674   3.355   4.945   1.506
 3925SOL    HW212675   3.259   5.043   1.417
 3926SOL     OW12676   1.446   5.901   5.480
 3926SOL    HW112677   1.503   5.875   5.402
 3926SOL    HW212678   1.404   5.820   5.520
 3927SOL     OW12679   6.120   6.771   5.276
 3927SOL    HW112680   6.055   6.717   5.222
 3927SOL    HW212681   6.124   6.864   5.240
 3928SOL     OW12682   4.784   5.501   2.674
 3928SOL    HW112683   4.722   5.501   2.596
 3928SOL    HW212684   4.797   5.594   2.707
 3929SOL     OW12685   1.475   0.954   5.371
 3929SOL    HW112686   1.409   1.018   5.332
 3929SOL    HW212687   1.428   0.869   5.396
 3930SOL     OW12688   2.488   6.064   4.400
 3930SOL    HW112689   2.427   5.998   4.357
 3930SOL    HW212690   2.582   6.046   4.371
 3931SOL     OW12691   0.455   2.612   0.133
 3931SOL    HW112692   0.488   2.655   0.218
 3931SOL    HW212693   0.365   2.650   0.110
 3932SOL     OW12694   2.032   3.864   2.899
 3932SOL    HW112695   2.075   3.798   2.960
 3932SOL    HW212696   2.102   3.910   2.844
 3933SOL     OW12697   1.840   6.719   1.677
 3933SOL    HW112698   1.776   6.727   1.602
 3933SOL    HW212699   1.792   6.692   1.760
 3934SOL     OW12700   1.656   6.851   1.997
 3934SOL    HW112701   1.722   6.921   1.967
 3934SOL    HW212702   1.572   6.896   2.029
 3935SOL     OW12703   0.509   1.590   4.744
 3935SOL    HW112704   0.574   1.650   4.696
 3935SOL    HW212705   0.550   1.499   4.755
 3936SOL     OW12706   6.600   4.284   3.863
 3936SOL    HW112707   6.508   4.250   3.883
 3936SOL    HW212708   6.613   4.374   3.905
 3937SOL     OW12709   0.870   6.716   0.212
 3937SOL    HW112710   0.967   6.740   0.214
 3937SOL    HW212711   0.817   6.786   0.261
 3938SOL     OW12712   0.877   4.097   6.593
 3938SOL    HW112713   0.866   4.147   6.507
 3938SOL    HW212714   0.829   4.010   6.587
 3939SOL     OW12715   2.014   6.357   3.824
 3939SOL    HW112716   2.020   6.300   3.742
 3939SOL    HW212717   2.053   6.309   3.902
 3940SOL     OW12718   2.222   6.287   6.597
 3940SOL    HW112719   2.155   6.278   6.524
 3940SOL    HW212720   2.175   6.290   6.685
 3941SOL     OW12721   5.499   5.430   2.694
 3941SOL    HW112722   5.487   5.331   2.701
 3941SOL    HW212723   5.411   5.476   2.710
 3942SOL     OW12724   6.883   6.421   6.484
 3942SOL    HW112725   6.922   6.330   6.503
 3942SOL    HW212726   6.860   6.465   6.571
 3943SOL     OW12727   1.387   4.261   0.352
 3943SOL    HW112728   1.345   4.180   0.311
 3943SOL    HW212729   1.318   4.334   0.360
 3944SOL     OW12730   4.724   3.447   6.867
 3944SOL    HW112731   4.652   3.429   6.800
 3944SOL    HW212732   4.682   3.466   6.956
 3945SOL     OW12733   6.908   0.626   2.968
 3945SOL    HW112734   6.860   0.667   3.045
 3945SOL    HW212735   6.862   0.542   2.941
 3946SOL     OW12736   6.088   2.019   1.313
 3946SOL    HW112737   6.076   1.920   1.318
 3946SOL    HW212738   6.039   2.055   1.233
 3947SOL     OW12739   5.448   6.615   2.121
 3947SOL    HW112740   5.477   6.574   2.035
 3947SOL    HW212741   5.508   6.584   2.195
 3948SOL     OW12742   2.232   1.146   5.043
 3948SOL    HW112743   2.214   1.058   5.087
 3948SOL    HW212744   2.239   1.133   4.944
 3949SOL     OW12745   6.391   6.938   2.538
 3949SOL    HW112746   6.311   6.937   2.599
 3949SOL    HW212747   6.362   6.914   2.445
 3950SOL     OW12748   2.562   4.881   1.208
 3950SOL    HW112749   2.470   4.917   1.219
 3950SOL    HW212750   2.627   4.957   1.198
 3951SOL     OW12751   6.609   2.679   3.541
 3951SOL    HW112752   6.688   2.635   3.497
 3951SOL    HW212753   6.615   2.666   3.640
 3952SOL     OW12754   6.050   4.366   0.106
 3952SOL    HW112755   6.052   4.285   0.164
 3952SOL    HW212756   6.128   4.425   0.128
 3953SOL     OW12757   3.653   3.463   5.799
 3953SOL    HW112758   3.707   3.381   5.819
 3953SOL    HW212759   3.609   3.452   5.710
 3954SOL     OW12760   1.251   3.616   5.313
 3954SOL    HW112761   1.207   3.529   5.335
 3954SOL    HW212762   1.347   3.613   5.341
 3955SOL     OW12763   5.818   3.513   0.197
 3955SOL    HW112764   5.735   3.464   0.171
 3955SOL    HW212765   5.879   3.451   0.246
 3956SOL     OW12766   6.580   2.424   4.951
 3956SOL    HW112767   6.634   2.388   5.028
 3956SOL    HW212768   6.484   2.397   4.963
 3957SOL     OW12769   1.392   2.641   2.130
 3957SOL    HW112770   1.460   2.664   2.060
 3957SOL    HW212771   1.375   2.542   2.128
 3958SOL     OW12772   5.471   5.737   1.304
 3958SOL    HW112773   5.408   5.744   1.382
 3958SOL    HW212774   5.534   5.662   1.319
 3959SOL     OW12775   2.529   4.988   1.757
 3959SOL    HW112776   2.491   4.927   1.688
 3959SOL    HW212777   2.586   5.057   1.713
 3960SOL     OW12778   6.245   2.437   0.809
 3960SOL    HW112779   6.212   2.419   0.716
 3960SOL    HW212780   6.341   2.465   0.805
 3961SOL     OW12781   6.966   1.246   1.162
 3961SOL    HW112782   6.955   1.148   1.181
 3961SOL    HW212783   0.042   1.264   1.139
 3962SOL     OW12784   6.914   0.191   6.200
 3962SOL    HW112785   6.951   0.250   6.128
 3962SOL    HW212786   6.986   0.169   6.265
 3963SOL     OW12787   5.288   3.971   4.333
 3963SOL    HW112788   5.220   3.897   4.336
 3963SOL    HW212789   5.376   3.937   4.367
 3964SOL     OW12790   6.137   4.908   0.437
 3964SOL    HW112791   6.087   4.882   0.354
 3964SOL    HW212792   6.074   4.944   0.505
 3965SOL     OW12793   2.861   4.050   1.263
 3965SOL    HW112794   2.932   4.115   1.237
 3965SOL    HW212795   2.902   3.965   1.295
 3966SOL     OW12796   0.019   3.227   5.727
 3966SOL    HW112797   6.996   3.316   5.746
 3966SOL    HW212798   0.053   3.188   5.812
 3967SOL     OW12799   2.507   6.311   0.181
 3967SOL    HW112800   2.511   6.368   0.098
 3967SOL    HW212801   2.415   6.271   0.190
 3968SOL     OW12802   4.549   2.439   0.733
 3968SOL    HW112803   4.539   2.357   0.790
 3968SOL    HW212804   4.458   2.473   0.708
 3969SOL     OW12805   6.262   6.729   0.859
 3969SOL    HW112806   6.299   6.641   0.890
 3969SOL    HW212807   6.270   6.734   0.759
 3970SOL     OW12808   5.621   4.464   4.209
 3970SOL    HW112809   5.599   4.556   4.176
 3970SOL    HW212810   5.716   4.463   4.242
 3971SOL     OW12811   0.553   5.946   4.153
 3971SOL    HW112812   0.601   5.989   4.076
 3971SOL    HW212813   0.508   6.017   4.207
 3972SOL     OW12814   1.066   0.263   5.816
 3972SOL    HW112815   0.992   0.251   5.750
 3972SOL    HW212816   1.089   0.360   5.823
 3973SOL     OW12817   3.870   2.913   2.467
 3973SOL    HW112818   3.915   2.825   2.456
 3973SOL    HW212819   3.816   2.934   2.385
 3974SOL     OW12820   5.068   0.755   6.610
 3974SOL    HW112821   5.106   0.757   6.518
 3974SOL    HW212822   5.001   0.829   6.620
 3975SOL     OW12823   0.412   6.522   4.479
 3975SOL    HW112824   0.348   6.575   4.535
 3975SOL    HW212825   0.362   6.452   4.429
 3976SOL     OW12826   1.025   2.919   5.547
 3976SOL    HW112827   1.093   2.900   5.476
 3976SOL    HW212828   1.071   2.947   5.631
 3977SOL     OW12829   3.075   4.807   5.627
 3977SOL    HW112830   3.132   4.725   5.626
 3977SOL    HW212831   3.135   4.888   5.628
 3978SOL     OW12832   5.326   2.951   6.633
 3978SOL    HW112833   5.360   3.014   6.702
 3978SOL    HW212834   5.289   3.002   6.556
 3979SOL     OW12835   1.361   6.082   3.234
 3979SOL    HW112836   1.410   6.058   3.150
 3979SOL    HW212837   1.426   6.089   3.310
 3980SOL     OW12838   5.165   3.702   4.334
 3980SOL    HW112839   5.125   3.670   4.420
 3980SOL    HW212840   5.094   3.745   4.278
 3981SOL     OW12841   0.208   1.164   6.317
 3981SOL    HW112842   0.155   1.247   6.334
 3981SOL    HW212843   0.238   1.163   6.222
 3982SOL     OW12844   2.106   3.345   4.313
 3982SOL    HW112845   2.150   3.283   4.377
 3982SOL    HW212846   2.151   3.435   4.317
 3983SOL     OW12847   2.867   0.435   3.503
 3983SOL    HW112848   2.846   0.437   3.600
 3983SOL    HW212849   2.886   0.527   3.470
 3984SOL     OW12850   1.649   5.674   2.491
 3984SOL    HW112851   1.702   5.754   2.520
 3984SOL    HW212852   1.631   5.679   2.393
 3985SOL     OW12853   1.775   2.880   1.391
 3985SOL    HW112854   1.718   2.829   1.326
 3985SOL    HW212855   1.717   2.927   1.457
 3986SOL     OW12856   6.665   2.427   2.699
 3986SOL    HW112857   6.724   2.470   2.768
 3986SOL    HW212858   6.722   2.378   2.633
 3987SOL     OW12859   0.924   4.223   5.256
 3987SOL    HW112860   0.836   4.185   5.230
 3987SOL    HW212861   0.957   4.283   5.184
 3988SOL     OW12862   5.029   6.994   2.060
 3988SOL    HW112863   4.934   0.004   2.067
 3988SOL    HW212864   5.075   0.023   1.986
 3989SOL     OW12865   4.694   1.112   5.763
 3989SOL    HW112866   4.702   1.036   5.699
 3989SOL    HW212867   4.744   1.191   5.727
 3990SOL     OW12868   6.008   0.410   4.075
 3990SOL    HW112869   6.035   0.500   4.107
 3990SOL    HW212870   5.979   0.415   3.980
 3991SOL     OW12871   6.593   2.179   3.379
 3991SOL    HW112872   6.622   2.191   3.474
 3991SOL    HW212873   6.494   2.188   3.373
 3992SOL     OW12874   5.361   3.692   5.999
 3992SOL    HW112875   5.320   3.720   5.913
 3992SOL    HW212876   5.459   3.712   5.998
 3993SOL     OW12877   1.665   0.682   3.753
 3993SOL    HW112878   1.590   0.655   3.813
 3993SOL    HW212879   1.701   0.771   3.782
 3994SOL     OW12880   2.775   1.759   3.585
 3994SOL    HW112881   2.773   1.773   3.684
 3994SOL    HW212882   2.858   1.799   3.547
 3995SOL     OW12883   1.433   3.228   2.119
 3995SOL    HW112884   1.438   3.273   2.030
 3995SOL    HW212885   1.489   3.278   2.185
 3996SOL     OW12886   6.696   6.452   5.029
 3996SOL    HW112887   6.605   6.417   5.050
 3996SOL    HW212888   6.756   6.439   5.108
 3997SOL     OW12889   5.733   3.937   4.647
 3997SOL    HW112890   5.745   3.939   4.746
 3997SOL    HW212891   5.786   3.861   4.609
 3998SOL     OW12892   4.862   1.757   4.113
 3998SOL    HW112893   4.769   1.793   4.103
 3998SOL    HW212894   4.912   1.771   4.028
 3999SOL     OW12895   5.144   2.852   0.708
 3999SOL    HW112896   5.090   2.770   0.727
 3999SOL    HW212897   5.201   2.837   0.628
 4000SOL     OW12898   2.110   4.841   2.870
 4000SOL    HW112899   2.179   4.768   2.875
 4000SOL    HW212900   2.152   4.924   2.832
 4001SOL     OW12901   0.663   5.974   4.594
 4001SOL    HW112902   0.762   5.983   4.585
 4001SOL    HW212903   0.637   5.978   4.690
 4002SOL     OW12904   3.619   3.525   4.719
 4002SOL    HW112905   3.583   3.589   4.788
 4002SOL    HW212906   3.704   3.485   4.753
 4003SOL     OW12907   2.580   1.005   4.674
 4003SOL    HW112908   2.611   0.923   4.722
 4003SOL    HW212909   2.621   1.086   4.716
 4004SOL     OW12910   2.016   4.317   4.835
 4004SOL    HW112911   1.942   4.364   4.787
 4004SOL    HW212912   2.006   4.218   4.822
 4005SOL     OW12913   5.169   3.106   0.757
 4005SOL    HW112914   5.167   3.007   0.743
 4005SOL    HW212915   5.093   3.147   0.707
 4006SOL     OW12916   6.915   5.766   2.038
 4006SOL    HW112917   7.014   5.749   2.031
 4006SOL    HW212918   6.866   5.681   2.019
 4007SOL     OW12919   0.837   1.451   1.974
 4007SOL    HW112920   0.791   1.537   1.954
 4007SOL    HW212921   0.836   1.434   2.072
 4008SOL     OW12922   3.840   0.952   1.627
 4008SOL    HW112923   3.879   0.920   1.714
 4008SOL    HW212924   3.750   0.910   1.614
 4009SOL     OW12925   3.919   2.262   1.339
 4009SOL    HW112926   4.008   2.291   1.302
 4009SOL    HW212927   3.919   2.163   1.351
 4010SOL     OW12928   1.983   4.749   0.987
 4010SOL    HW112929   1.938   4.839   0.991
 4010SOL    HW212930   2.078   4.760   0.960
 4011SOL     OW12931   6.314   0.060   5.839
 4011SOL    HW112932   6.349   0.024   5.753
 4011SOL    HW212933   6.285   7.004   5.897
 4012SOL     OW12934   5.550   5.571   2.168
 4012SOL    HW112935   5.583   5.477   2.163
 4012SOL    HW212936   5.508   5.587   2.257
 4013SOL     OW12937   0.098   1.892   0.059
 4013SOL    HW112938   0.025   1.958   0.078
 4013SOL    HW212939   0.185   1.928   0.093
 4014SOL     OW12940   3.255   5.755   2.798
 4014SOL    HW112941   3.277   5.810   2.879
 4014SOL    HW212942   3.198   5.677   2.824
 4015SOL     OW12943   4.269   5.905   5.408
 4015SOL    HW112944   4.261   5.926   5.311
 4015SOL    HW212945   4.196   5.951   5.459
 4016SOL     OW12946   5.100   5.273   4.455
 4016SOL    HW112947   5.122   5.220   4.537
 4016SOL    HW212948   5.128   5.223   4.374
 4017SOL     OW12949   2.173   5.640   6.056
 4017SOL    HW112950   2.092   5.624   6.112
 4017SOL    HW212951   2.184   5.563   5.992
 4018SOL     OW12952   4.121   5.528   1.238
 4018SOL    HW112953   4.134   5.590   1.161
 4018SOL    HW212954   4.169   5.442   1.220
 4019SOL     OW12955   6.843   2.875   2.487
 4019SOL    HW112956   6.828   2.810   2.562
 4019SOL    HW212957   6.876   2.962   2.524
 4020SOL     OW12958   6.986   5.727   4.360
 4020SOL    HW112959   6.907   5.721   4.421
 4020SOL    HW212960   7.015   5.635   4.334
 4021SOL     OW12961   4.644   5.261   6.212
 4021SOL    HW112962   4.557   5.292   6.251
 4021SOL    HW212963   4.669   5.173   6.253
 4022SOL     OW12964   3.471   0.015   1.303
 4022SOL    HW112965   3.462   6.947   1.348
 4022SOL    HW212966   3.551   0.014   1.243
 4023SOL     OW12967   0.485   1.993   4.229
 4023SOL    HW112968   0.401   2.042   4.251
 4023SOL    HW212969   0.467   1.924   4.159
 4024SOL     OW12970   0.134   6.357   6.109
 4024SOL    HW112971   0.038   6.356   6.139
 4024SOL    HW212972   0.193   6.347   6.189
 4025SOL     OW12973   6.743   4.822   3.933
 4025SOL    HW112974   6.649   4.853   3.920
 4025SOL    HW212975   6.757   4.799   4.029
 4026SOL     OW12976   0.619   0.090   3.834
 4026SOL    HW112977   0.695   0.132   3.784
 4026SOL    HW212978   0.652   0.011   3.886
 4027SOL     OW12979   3.197   5.406   5.340
 4027SOL    HW112980   3.134   5.447   5.405
 4027SOL    HW212981   3.218   5.472   5.267
 4028SOL     OW12982   5.456   1.587   4.483
 4028SOL    HW112983   5.509   1.521   4.538
 4028SOL    HW212984   5.406   1.648   4.545
 4029SOL     OW12985   1.022   6.666   0.763
 4029SOL    HW112986   1.097   6.720   0.724
 4029SOL    HW212987   0.953   6.728   0.799
 4030SOL     OW12988   0.517   2.014   1.820
 4030SOL    HW112989   0.599   2.070   1.835
 4030SOL    HW212990   0.457   2.020   1.899
 4031SOL     OW12991   5.815   5.828   0.558
 4031SOL    HW112992   5.768   5.742   0.578
 4031SOL    HW212993   5.792   5.896   0.628
 4032SOL     OW12994   5.233   1.267   2.840
 4032SOL    HW112995   5.193   1.219   2.762
 4032SOL    HW212996   5.264   1.358   2.811
 4033SOL     OW12997   1.851   3.254   2.909
 4033SOL    HW112998   1.847   3.286   2.814
 4033SOL    HW212999   1.944   3.268   2.945
 4034SOL     OW13000   1.557   2.565   4.418
 4034SOL    HW113001   1.461   2.539   4.411
 4034SOL    HW213002   1.570   2.620   4.500
 4035SOL     OW13003   4.140   2.322   1.681
 4035SOL    HW113004   4.073   2.277   1.739
 4035SOL    HW213005   4.092   2.375   1.610
 4036SOL     OW13006   3.914   6.066   3.318
 4036SOL    HW113007   3.858   6.058   3.400
 4036SOL    HW213008   3.997   6.117   3.338
 4037SOL     OW13009   1.944   2.344   6.409
 4037SOL    HW113010   2.039   2.348   6.377
 4037SOL    HW213011   1.915   2.435   6.438
 4038SOL     OW13012   3.118   4.846   6.077
 4038SOL    HW113013   3.191   4.778   6.082
 4038SOL    HW213014   3.104   4.887   6.167
 4039SOL     OW13015   5.817   4.426   1.726
 4039SOL    HW113016   5.885   4.472   1.669
 4039SOL    HW213017   5.859   4.395   1.811
 4040SOL     OW13018   3.617   0.712   5.370
 4040SOL    HW113019   3.703   0.761   5.389
 4040SOL    HW213020   3.593   0.724   5.274
 4041SOL     OW13021   1.434   5.625   1.914
 4041SOL    HW113022   1.494   5.619   1.993
 4041SOL    HW213023   1.341   5.598   1.940
 4042SOL     OW13024   6.934   1.865   3.118
 4042SOL    HW113025   6.896   1.943   3.067
 4042SOL    HW213026   7.016   1.895   3.166
 4043SOL     OW13027   4.581   2.249   6.063
 4043SOL    HW113028   4.545   2.296   6.143
 4043SOL    HW213029   4.508   2.237   5.995
 4044SOL     OW13030   4.541   4.407   3.193
 4044SOL    HW113031   4.569   4.397   3.098
 4044SOL    HW213032   4.610   4.367   3.253
 4045SOL     OW13033   4.746   1.336   5.182
 4045SOL    HW113034   4.829   1.281   5.185
 4045SOL    HW213035   4.769   1.432   5.197
 4046SOL     OW13036   5.233   1.576   4.085
 4046SOL    HW113037   5.234   1.476   4.088
 4046SOL    HW213038   5.174   1.611   4.159
 4047SOL     OW13039   3.523   2.712   6.615
 4047SOL    HW113040   3.616   2.750   6.613
 4047SOL    HW213041   3.513   2.644   6.542
 4048SOL     OW13042   5.009   2.060   3.363
 4048SOL    HW113043   4.961   1.974   3.346
 4048SOL    HW213044   4.956   2.116   3.427
 4049SOL     OW13045   4.210   3.842   1.416
 4049SOL    HW113046   4.165   3.752   1.419
 4049SOL    HW213047   4.300   3.832   1.372
 4050SOL     OW13048   6.885   4.824   2.560
 4050SOL    HW113049   6.932   4.742   2.528
 4050SOL    HW213050   6.818   4.800   2.630
 4051SOL     OW13051   5.364   0.357   5.025
 4051SOL    HW113052   5.274   0.318   5.044
 4051SOL    HW213053   5.394   0.413   5.103
 4052SOL     OW13054   5.086   1.688   4.317
 4052SOL    HW113055   4.990   1.703   4.294
 4052SOL    HW213056   5.135   1.775   4.315
 4053SOL     OW13057   0.901   5.074   3.919
 4053SOL    HW113058   0.921   5.171   3.911
 4053SOL    HW213059   0.806   5.062   3.947
 4054SOL     OW13060   4.477   3.813   1.355
 4054SOL    HW113061   4.535   3.732   1.343
 4054SOL    HW213062   4.531   3.895   1.337
 4055SOL     OW13063   6.897   4.472   0.106
 4055SOL    HW113064   6.909   4.378   0.074
 4055SOL    HW213065   6.966   4.492   0.177
 4056SOL     OW13066   5.109   3.175   6.944
 4056SOL    HW113067   5.153   3.227   7.018
 4056SOL    HW213068   5.047   3.236   6.894
 4057SOL     OW13069   0.057   3.793   6.767
 4057SOL    HW113070   0.019   3.730   6.699
 4057SOL    HW213071   0.028   3.886   6.745
 4058SOL     OW13072   3.484   0.051   4.461
 4058SOL    HW113073   3.558   0.084   4.403
 4058SOL    HW213074   3.465   0.119   4.533
 4059SOL     OW13075   0.732   1.376   3.818
 4059SOL    HW113076   0.632   1.385   3.823
 4059SOL    HW213077   0.763   1.403   3.727
 4060SOL     OW13078   0.242   6.215   4.527
 4060SOL    HW113079   0.248   6.264   4.440
 4060SOL    HW213080   0.291   6.267   4.597
 4061SOL     OW13081   0.508   4.800   1.965
 4061SOL    HW113082   0.494   4.727   2.032
 4061SOL    HW213083   0.486   4.766   1.874
 4062SOL     OW13084   1.857   3.554   0.446
 4062SOL    HW113085   1.822   3.648   0.455
 4062SOL    HW213086   1.841   3.522   0.353
 4063SOL     OW13087   3.944   0.398   0.914
 4063SOL    HW113088   3.937   0.318   0.854
 4063SOL    HW213089   3.959   0.367   1.008
 4064SOL     OW13090   2.031   1.206   5.826
 4064SOL    HW113091   1.960   1.241   5.765
 4064SOL    HW213092   2.050   1.110   5.803
 4065SOL     OW13093   2.586   1.258   1.567
 4065SOL    HW113094   2.605   1.340   1.513
 4065SOL    HW213095   2.507   1.274   1.626
 4066SOL     OW13096   0.554   4.022   3.981
 4066SOL    HW113097   0.640   4.040   3.933
 4066SOL    HW213098   0.481   4.076   3.940
 4067SOL     OW13099   6.354   4.985   0.765
 4067SOL    HW113100   6.389   5.072   0.799
 4067SOL    HW213101   6.417   4.947   0.697
 4068SOL     OW13102   2.334   2.715   4.928
 4068SOL    HW113103   2.379   2.678   4.846
 4068SOL    HW213104   2.380   2.800   4.955
 4069SOL     OW13105   4.958   6.464   5.821
 4069SOL    HW113106   5.029   6.397   5.848
 4069SOL    HW213107   4.929   6.516   5.901
 4070SOL     OW13108   1.559   3.559   4.115
 4070SOL    HW113109   1.601   3.530   4.029
 4070SOL    HW213110   1.622   3.619   4.165
 4071SOL     OW13111   1.797   1.074   4.851
 4071SOL    HW113112   1.772   1.064   4.948
 4071SOL    HW213113   1.741   1.145   4.809
 4072SOL     OW13114   3.086   6.240   2.542
 4072SOL    HW113115   3.078   6.183   2.461
 4072SOL    HW213116   2.995   6.260   2.578
 4073SOL     OW13117   3.897   5.112   6.882
 4073SOL    HW113118   3.879   5.187   6.818
 4073SOL    HW213119   3.891   5.025   6.833
 4074SOL     OW13120   1.739   5.304   2.439
 4074SOL    HW113121   1.800   5.285   2.515
 4074SOL    HW213122   1.651   5.337   2.473
 4075SOL     OW13123   6.221   1.145   0.044
 4075SOL    HW113124   6.233   1.228   7.010
 4075SOL    HW213125   6.286   1.144   0.120
 4076SOL     OW13126   2.451   5.595   3.912
 4076SOL    HW113127   2.373   5.639   3.868
 4076SOL    HW213128   2.479   5.649   3.992
 4077SOL     OW13129   3.201   1.156   1.632
 4077SOL    HW113130   3.127   1.221   1.617
 4077SOL    HW213131   3.222   1.152   1.730
 4078SOL     OW13132   3.665   4.849   2.244
 4078SOL    HW113133   3.569   4.863   2.268
 4078SOL    HW213134   3.672   4.806   2.154
 4079SOL     OW13135   0.043   2.254   3.909
 4079SOL    HW113136   0.101   2.317   3.858
 4079SOL    HW213137   0.022   2.175   3.852
 4080SOL     OW13138   6.959   2.231   5.111
 4080SOL    HW113139   6.939   2.178   5.029
 4080SOL    HW213140   6.946   2.173   5.192
 4081SOL     OW13141   1.073   3.689   3.276
 4081SOL    HW113142   1.054   3.785   3.254
 4081SOL    HW213143   1.163   3.682   3.320
 4082SOL     OW13144   0.705   3.587   0.294
 4082SOL    HW113145   0.763   3.517   0.336
 4082SOL    HW213146   0.658   3.547   0.215
 4083SOL     OW13147   6.591   2.603   5.325
 4083SOL    HW113148   6.606   2.670   5.253
 4083SOL    HW213149   6.562   2.516   5.284
 4084SOL     OW13150   6.226   1.135   4.300
 4084SOL    HW113151   6.143   1.160   4.250
 4084SOL    HW213152   6.211   1.144   4.398
 4085SOL     OW13153   2.791   6.041   0.456
 4085SOL    HW113154   2.883   6.010   0.481
 4085SOL    HW213155   2.765   6.120   0.512
 4086SOL     OW13156   1.550   4.138   1.139
 4086SOL    HW113157   1.604   4.096   1.211
 4086SOL    HW213158   1.520   4.229   1.169
 4087SOL     OW13159   2.421   1.749   2.535
 4087SOL    HW113160   2.465   1.837   2.519
 4087SOL    HW213161   2.489   1.684   2.571
 4088SOL     OW13162   6.691   1.832   0.345
 4088SOL    HW113163   6.668   1.838   0.442
 4088SOL    HW213164   6.776   1.779   0.334
 4089SOL     OW13165   1.289   1.667   5.265
 4089SOL    HW113166   1.341   1.752   5.251
 4089SOL    HW213167   1.274   1.621   5.178
 4090SOL     OW13168   2.642   4.547   6.260
 4090SOL    HW113169   2.656   4.481   6.186
 4090SOL    HW213170   2.725   4.601   6.272
 4091SOL     OW13171   4.182   0.060   1.353
 4091SOL    HW113172   4.209   0.144   1.401
 4091SOL    HW213173   4.159   0.082   1.259
 4092SOL     OW13174   6.687   1.659   4.177
 4092SOL    HW113175   6.644   1.670   4.087
 4092SOL    HW213176   6.779   1.699   4.175
 4093SOL     OW13177   5.637   6.564   4.368
 4093SOL    HW113178   5.552   6.602   4.331
 4093SOL    HW213179   5.696   6.638   4.398
 4094SOL     OW13180   3.244   4.283   5.317
 4094SOL    HW113181   3.235   4.381   5.332
 4094SOL    HW213182   3.159   4.237   5.346
 4095SOL     OW13183   1.957   3.487   5.819
 4095SOL    HW113184   1.921   3.509   5.728
 4095SOL    HW213185   2.055   3.507   5.822
 4096SOL     OW13186   4.502   4.694   2.137
 4096SOL    HW113187   4.455   4.781   2.125
 4096SOL    HW213188   4.595   4.700   2.101
 4097SOL     OW13189   3.849   3.898   3.568
 4097SOL    HW113190   3.914   3.822   3.560
 4097SOL    HW213191   3.832   3.936   3.477
 4098SOL     OW13192   0.806   3.451   2.385
 4098SOL    HW113193   0.820   3.446   2.484
 4098SOL    HW213194   0.809   3.359   2.347
 4099SOL     OW13195   2.317   6.000   1.879
 4099SOL    HW113196   2.226   6.027   1.911
 4099SOL    HW213197   2.327   6.024   1.783
 4100SOL     OW13198   3.704   6.405   3.057
 4100SOL    HW113199   3.627   6.469   3.058
 4100SOL    HW213200   3.672   6.313   3.077
 4101SOL     OW13201   4.338   1.391   0.307
 4101SOL    HW113202   4.358   1.465   0.372
 4101SOL    HW213203   4.417   1.379   0.247
 4102SOL     OW13204   5.345   1.370   0.494
 4102SOL    HW113205   5.337   1.279   0.454
 4102SOL    HW213206   5.287   1.376   0.575
 4103SOL     OW13207   0.323   0.147   2.332
 4103SOL    HW113208   0.305   0.049   2.321
 4103SOL    HW213209   0.417   0.167   2.306
 4104SOL     OW13210   1.918   5.033   2.550
 4104SOL    HW113211   2.017   5.038   2.537
 4104SOL    HW213212   1.875   4.994   2.469
 4105SOL     OW13213   6.217   5.143   0.307
 4105SOL    HW113214   6.315   5.162   0.304
 4105SOL    HW213215   6.203   5.049   0.340
 4106SOL     OW13216   0.060   3.645   4.589
 4106SOL    HW113217   0.042   3.732   4.635
 4106SOL    HW213218   7.017   3.575   4.622
 4107SOL     OW13219   6.559   0.311   0.403
 4107SOL    HW113220   6.539   0.216   0.428
 4107SOL    HW213221   6.482   0.368   0.430
 4108SOL     OW13222   6.408   2.688   5.050
 4108SOL    HW113223   6.335   2.733   5.101
 4108SOL    HW213224   6.374   2.604   5.009
 4109SOL     OW13225   3.103   6.478   3.704
 4109SOL    HW113226   3.049   6.420   3.765
 4109SOL    HW213227   3.053   6.563   3.686
 4110SOL     OW13228   4.624   3.320   5.897
 4110SOL    HW113229   4.600   3.239   5.842
 4110SOL    HW213230   4.624   3.400   5.838
 4111SOL     OW13231   4.098   3.425   6.284
 4111SOL    HW113232   4.170   3.488   6.255
 4111SOL    HW213233   4.098   3.344   6.225
 4112SOL     OW13234   4.166   0.559   4.988
 4112SOL    HW113235   4.188   0.465   4.963
 4112SOL    HW213236   4.067   0.570   4.997
 4113SOL     OW13237   4.000   5.090   4.951
 4113SOL    HW113238   3.990   5.189   4.964
 4113SOL    HW213239   3.913   5.051   4.922
 4114SOL     OW13240   3.693   2.064   2.398
 4114SOL    HW113241   3.778   2.017   2.375
 4114SOL    HW213242   3.624   2.045   2.328
 4115SOL     OW13243   5.569   4.742   2.135
 4115SOL    HW113244   5.615   4.654   2.144
 4115SOL    HW213245   5.486   4.742   2.191
 4116SOL     OW13246   3.180   0.959   2.433
 4116SOL    HW113247   3.160   0.921   2.523
 4116SOL    HW213248   3.108   1.024   2.407
 4117SOL     OW13249   0.568   5.731   1.669
 4117SOL    HW113250   0.647   5.780   1.632
 4117SOL    HW213251   0.600   5.648   1.716
 4118SOL     OW13252   2.496   6.941   0.301
 4118SOL    HW113253   2.403   6.941   0.339
 4118SOL    HW213254   2.554   6.884   0.358
 4119SOL     OW13255   4.392   1.126   3.179
 4119SOL    HW113256   4.368   1.212   3.223
 4119SOL    HW213257   4.414   1.057   3.248
 4120SOL     OW13258   4.573   1.031   2.249
 4120SOL    HW113259   4.658   1.019   2.301
 4120SOL    HW213260   4.539   0.941   2.219
 4121SOL     OW13261   6.736   2.267   4.791
 4121SOL    HW113262   6.756   2.308   4.702
 4121SOL    HW213263   6.690   2.335   4.848
 4122SOL     OW13264   1.790   5.695   0.185
 4122SOL    HW113265   1.732   5.631   0.236
 4122SOL    HW213266   1.852   5.644   0.127
 4123SOL     OW13267   4.233   4.456   5.889
 4123SOL    HW113268   4.296   4.379   5.876
 4123SOL    HW213269   4.141   4.428   5.863
 4124SOL     OW13270   4.391   6.357   3.415
 4124SOL    HW113271   4.386   6.382   3.511
 4124SOL    HW213272   4.436   6.430   3.363
 4125SOL     OW13273   5.386   1.028   1.458
 4125SOL    HW113274   5.323   1.072   1.394
 4125SOL    HW213275   5.378   1.070   1.548
 4126SOL     OW13276   2.220   5.188   4.293
 4126SOL    HW113277   2.316   5.197   4.268
 4126SOL    HW213278   2.186   5.099   4.263
 4127SOL     OW13279   6.399   4.007   5.016
 4127SOL    HW113280   6.351   4.080   4.969
 4127SOL    HW213281   6.334   3.952   5.069
 4128SOL     OW13282   0.792   2.136   1.836
 4128SOL    HW113283   0.767   2.230   1.858
 4128SOL    HW213284   0.883   2.134   1.794
 4129SOL     OW13285   6.162   2.279   6.429
 4129SOL    HW113286   6.076   2.230   6.441
 4129SOL    HW213287   6.167   2.354   6.494
 4130SOL     OW13288   6.739   3.068   1.128
 4130SOL    HW113289   6.754   3.133   1.054
 4130SOL    HW213290   6.798   3.091   1.205
 4131SOL     OW13291   0.083   4.006   3.300
 4131SOL    HW113292   0.125   3.963   3.380
 4131SOL    HW213293   0.105   4.103   3.299
 4132SOL     OW13294   4.949   2.184   4.766
 4132SOL    HW113295   4.878   2.251   4.789
 4132SOL    HW213296   4.994   2.211   4.680
 4133SOL     OW13297   2.203   2.390   0.862
 4133SOL    HW113298   2.243   2.408   0.952
 4133SOL    HW213299   2.229   2.463   0.798
 4134SOL     OW13300   1.821   1.712   0.269
 4134SOL    HW113301   1.887   1.638   0.283
 4134SOL    HW213302   1.732   1.686   0.307
 4135SOL     OW13303   1.859   0.688   1.034
 4135SOL    HW113304   1.774   0.737   1.016
 4135SOL    HW213305   1.851   0.593   1.002
 4136SOL     OW13306   0.924   1.669   3.220
 4136SOL    HW113307   0.880   1.584   3.249
 4136SOL    HW213308   0.964   1.715   3.299
 4137SOL     OW13309   3.927   3.628   5.431
 4137SOL    HW113310   3.861   3.555   5.448
 4137SOL    HW213311   3.884   3.699   5.374
 4138SOL     OW13312   4.083   5.543   2.496
 4138SOL    HW113313   4.131   5.621   2.536
 4138SOL    HW213314   4.042   5.571   2.409
 4139SOL     OW13315   2.509   0.912   0.480
 4139SOL    HW113316   2.477   0.964   0.400
 4139SOL    HW213317   2.544   0.823   0.450
 4140SOL     OW13318   4.345   1.954   5.330
 4140SOL    HW113319   4.416   2.014   5.293
 4140SOL    HW213320   4.340   1.871   5.276
 4141SOL     OW13321   5.291   5.174   0.417
 4141SOL    HW113322   5.371   5.167   0.477
 4141SOL    HW213323   5.257   5.268   0.417
 4142SOL     OW13324   6.224   2.424   1.253
 4142SOL    HW113325   6.228   2.394   1.348
 4142SOL    HW213326   6.245   2.521   1.248
 4143SOL     OW13327   0.701   2.686   1.867
 4143SOL    HW113328   0.801   2.683   1.858
 4143SOL    HW213329   0.660   2.705   1.778
 4144SOL     OW13330   4.564   0.823   1.964
 4144SOL    HW113331   4.468   0.844   1.942
 4144SOL    HW213332   4.569   0.733   2.007
 4145SOL     OW13333   3.298   7.000   2.925
 4145SOL    HW113334   3.367   6.994   2.997
 4145SOL    HW213335   3.212   0.012   2.963
 4146SOL     OW13336   4.606   5.227   0.798
 4146SOL    HW113337   4.607   5.159   0.724
 4146SOL    HW213338   4.615   5.318   0.759
 4147SOL     OW13339   2.723   2.339   6.112
 4147SOL    HW113340   2.783   2.361   6.035
 4147SOL    HW213341   2.639   2.298   6.078
 4148SOL     OW13342   6.639   0.101   3.051
 4148SOL    HW113343   6.594   0.032   3.109
 4148SOL    HW213344   6.735   0.076   3.038
 4149SOL     OW13345   5.225   4.068   1.714
 4149SOL    HW113346   5.249   4.068   1.811
 4149SOL    HW213347   5.202   3.975   1.686
 4150SOL     OW13348   4.852   0.570   6.037
 4150SOL    HW113349   4.891   0.618   5.958
 4150SOL    HW213350   4.776   0.624   6.074
 4151SOL     OW13351   0.095   5.339   0.539
 4151SOL    HW113352   0.121   5.300   0.451
 4151SOL    HW213353   0.050   5.270   0.595
 4152SOL     OW13354   3.582   4.121   1.260
 4152SOL    HW113355   3.648   4.047   1.272
 4152SOL    HW213356   3.615   4.203   1.307
 4153SOL     OW13357   5.952   5.728   6.172
 4153SOL    HW113358   5.982   5.780   6.092
 4153SOL    HW213359   6.020   5.658   6.193
 4154SOL     OW13360   4.292   2.550   5.817
 4154SOL    HW113361   4.301   2.631   5.760
 4154SOL    HW213362   4.199   2.513   5.809
 4155SOL     OW13363   1.416   3.565   0.631
 4155SOL    HW113364   1.485   3.497   0.606
 4155SOL    HW213365   1.350   3.524   0.694
 4156SOL     OW13366   6.001   0.018   5.427
 4156SOL    HW113367   6.021   6.984   5.345
 4156SOL    HW213368   6.079   0.077   5.447
 4157SOL     OW13369   3.500   0.456   4.002
 4157SOL    HW113370   3.411   0.463   3.956
 4157SOL    HW213371   3.551   0.541   3.990
 4158SOL     OW13372   1.145   0.524   3.568
 4158SOL    HW113373   1.074   0.568   3.623
 4158SOL    HW213374   1.156   0.574   3.482
 4159SOL     OW13375   0.641   3.379   5.107
 4159SOL    HW113376   0.689   3.454   5.151
 4159SOL    HW213377   0.682   3.292   5.133
 4160SOL     OW13378   1.285   0.697   0.909
 4160SOL    HW113379   1.357   0.697   0.840
 4160SOL    HW213380   1.280   0.606   0.951
 4161SOL     OW13381   6.512   2.083   0.658
 4161SOL    HW113382   6.543   2.165   0.707
 4161SOL    HW213383   6.417   2.094   0.631
 4162SOL     OW13384   0.521   6.538   4.993
 4162SOL    HW113385   0.478   6.448   5.002
 4162SOL    HW213386   0.593   6.547   5.062
 4163SOL     OW13387   6.396   0.968   5.178
 4163SOL    HW113388   6.387   0.979   5.079
 4163SOL    HW213389   6.452   0.887   5.197
 4164SOL     OW13390   2.820   6.733   6.095
 4164SOL    HW113391   2.828   6.824   6.055
 4164SOL    HW213392   2.724   6.716   6.119
 4165SOL     OW13393   2.592   6.014   2.423
 4165SOL    HW113394   2.529   5.958   2.369
 4165SOL    HW213395   2.656   5.955   2.471
 4166SOL     OW13396   6.033   2.170   1.526
 4166SOL    HW113397   6.050   2.103   1.454
 4166SOL    HW213398   6.026   2.124   1.614
 4167SOL     OW13399   1.973   3.297   1.268
 4167SOL    HW113400   1.934   3.209   1.241
 4167SOL    HW213401   1.900   3.359   1.298
 4168SOL     OW13402   1.628   4.735   1.308
 4168SOL    HW113403   1.727   4.753   1.307
 4168SOL    HW213404   1.609   4.659   1.370
 4169SOL     OW13405   6.025   3.561   5.085
 4169SOL    HW113406   6.032   3.507   5.169
 4169SOL    HW213407   6.105   3.546   5.028
 4170SOL     OW13408   4.035   1.442   5.004
 4170SOL    HW113409   3.984   1.465   5.087
 4170SOL    HW213410   4.126   1.411   5.029
 4171SOL     OW13411   5.724   3.344   1.276
 4171SOL    HW113412   5.798   3.281   1.255
 4171SOL    HW213413   5.693   3.389   1.192
 4172SOL     OW13414   2.367   1.022   0.245
 4172SOL    HW113415   2.454   1.055   0.210
 4172SOL    HW213416   2.292   1.068   0.196
 4173SOL     OW13417   4.834   3.235   6.316
 4173SOL    HW113418   4.816   3.157   6.256
 4173SOL    HW213419   4.873   3.310   6.263
 4174SOL     OW13420   5.237   0.747   4.213
 4174SOL    HW113421   5.175   0.825   4.220
 4174SOL    HW213422   5.303   0.750   4.288
 4175SOL     OW13423   2.871   1.564   2.970
 4175SOL    HW113424   2.881   1.538   3.066
 4175SOL    HW213425   2.794   1.627   2.960
 4176SOL     OW13426   5.896   4.847   2.370
 4176SOL    HW113427   5.913   4.906   2.449
 4176SOL    HW213428   5.810   4.873   2.327
 4177SOL     OW13429   6.512   4.940   3.378
 4177SOL    HW113430   6.465   4.977   3.298
 4177SOL    HW213431   6.484   4.991   3.460
 4178SOL     OW13432   3.697   3.003   5.381
 4178SOL    HW113433   3.620   2.943   5.359
 4178SOL    HW213434   3.779   2.969   5.335
 4179SOL     OW13435   6.590   2.637   6.949
 4179SOL    HW113436   6.509   2.666   6.999
 4179SOL    HW213437   6.629   2.715   6.900
 4180SOL     OW13438   4.499   3.560   1.697
 4180SOL    HW113439   4.501   3.659   1.679
 4180SOL    HW213440   4.409   3.535   1.733
 4181SOL     OW13441   6.697   0.677   0.311
 4181SOL    HW113442   6.764   0.603   0.306
 4181SOL    HW213443   6.607   0.643   0.285
 4182SOL     OW13444   5.388   0.914   3.837
 4182SOL    HW113445   5.307   0.905   3.895
 4182SOL    HW213446   5.371   0.872   3.748
 4183SOL     OW13447   2.132   1.285   1.599
 4183SOL    HW113448   2.036   1.268   1.575
 4183SOL    HW213449   2.167   1.362   1.547
 4184SOL     OW13450   4.419   5.071   6.988
 4184SOL    HW113451   4.327   5.097   6.957
 4184SOL    HW213452   4.462   5.149   0.012
 4185SOL     OW13453   0.178   6.942   4.138
 4185SOL    HW113454   0.178   6.881   4.058
 4185SOL    HW213455   0.169   6.887   4.221
 4186SOL     OW13456   3.799   4.266   1.699
 4186SOL    HW113457   3.707   4.305   1.695
 4186SOL    HW213458   3.808   4.211   1.782
 4187SOL     OW13459   4.179   5.187   6.654
 4187SOL    HW113460   4.213   5.194   6.748
 4187SOL    HW213461   4.164   5.278   6.617
 4188SOL     OW13462   5.174   5.993   4.230
 4188SOL    HW113463   5.269   5.976   4.205
 4188SOL    HW213464   5.148   6.086   4.205
 4189SOL     OW13465   1.605   3.758   3.460
 4189SOL    HW113466   1.664   3.677   3.460
 4189SOL    HW213467   1.661   3.840   3.475
 4190SOL     OW13468   2.584   0.281   1.254
 4190SOL    HW113469   2.496   0.235   1.239
 4190SOL    HW213470   2.585   0.368   1.205
 4191SOL     OW13471   0.683   2.370   2.375
 4191SOL    HW113472   0.661   2.405   2.466
 4191SOL    HW213473   0.700   2.272   2.381
 4192SOL     OW13474   5.554   0.609   3.203
 4192SOL    HW113475   5.488   0.584   3.274
 4192SOL    HW213476   5.647   0.594   3.237
 4193SOL     OW13477   1.935   6.838   2.471
 4193SOL    HW113478   1.902   6.762   2.415
 4193SOL    HW213479   1.998   6.894   2.418
 4194SOL     OW13480   5.820   0.684   3.558
 4194SOL    HW113481   5.740   0.741   3.582
 4194SOL    HW213482   5.898   0.712   3.614
 4195SOL     OW13483   5.304   1.014   3.233
 4195SOL    HW113484   5.392   1.029   3.188
 4195SOL    HW213485   5.244   1.093   3.216
 4196SOL     OW13486   4.485   2.478   3.665
 4196SOL    HW113487   4.391   2.503   3.690
 4196SOL    HW213488   4.528   2.430   3.741
 4197SOL     OW13489   5.154   3.985   4.997
 4197SOL    HW113490   5.116   3.996   4.905
 4197SOL    HW213491   5.110   3.908   5.042
 4198SOL     OW13492   6.011   3.639   6.083
 4198SOL    HW113493   6.004   3.655   6.182
 4198SOL    HW213494   6.091   3.582   6.064
 4199SOL     OW13495   2.986   3.780   5.610
 4199SOL    HW113496   3.000   3.743   5.702
 4199SOL    HW213497   3.054   3.852   5.592
 4200SOL     OW13498   2.673   0.452   6.505
 4200SOL    HW113499   2.711   0.385   6.569
 4200SOL    HW213500   2.614   0.516   6.555
 4201SOL     OW13501   5.999   6.806   4.628
 4201SOL    HW113502   5.967   6.877   4.691
 4201SOL    HW213503   6.073   6.843   4.572
 4202SOL     OW13504   5.267   3.609   5.471
 4202SOL    HW113505   5.243   3.625   5.376
 4202SOL    HW213506   5.319   3.687   5.506
 4203SOL     OW13507   4.491   5.128   4.284
 4203SOL    HW113508   4.461   5.066   4.356
 4203SOL    HW213509   4.568   5.088   4.235
 4204SOL     OW13510   1.855   3.976   0.666
 4204SOL    HW113511   1.888   4.066   0.638
 4204SOL    HW213512   1.770   3.987   0.717
 4205SOL     OW13513   2.613   6.235   2.955
 4205SOL    HW113514   2.587   6.323   2.914
 4205SOL    HW213515   2.695   6.247   3.011
 4206SOL     OW13516   4.918   6.279   4.245
 4206SOL    HW113517   4.853   6.269   4.321
 4206SOL    HW213518   4.871   6.263   4.159
 4207SOL     OW13519   0.743   0.087   0.161
 4207SOL    HW113520   0.729   7.010   0.140
 4207SOL    HW213521   0.676   0.116   0.230
 4208SOL     OW13522   1.056   2.854   0.798
 4208SOL    HW113523   1.014   2.764   0.800
 4208SOL    HW213524   1.009   2.912   0.732
 4209SOL     OW13525   3.358   0.576   5.404
 4209SOL    HW113526   3.290   0.637   5.364
 4209SOL    HW213527   3.446   0.623   5.409
 4210SOL     OW13528   4.162   2.809   0.477
 4210SOL    HW113529   4.238   2.756   0.438
 4210SOL    HW213530   4.142   2.887   0.419
 4211SOL     OW13531   5.541   3.631   4.548
 4211SOL    HW113532   5.486   3.548   4.542
 4211SOL    HW213533   5.617   3.616   4.612
 4212SOL     OW13534   6.427   6.473   2.339
 4212SOL    HW113535   6.444   6.561   2.293
 4212SOL    HW213536   6.400   6.405   2.271
 4213SOL     OW13537   0.649   6.924   1.296
 4213SOL    HW113538   0.558   6.888   1.317
 4213SOL    HW213539   0.687   6.872   1.219
 4214SOL     OW13540   3.166   5.636   4.854
 4214SOL    HW113541   3.202   5.657   4.945
 4214SOL    HW213542   3.215   5.556   4.817
 4215SOL     OW13543   1.209   6.014   5.804
 4215SOL    HW113544   1.159   5.965   5.734
 4215SOL    HW213545   1.164   6.002   5.893
 4216SOL     OW13546   2.726   3.102   5.306
 4216SOL    HW113547   2.642   3.053   5.283
 4216SOL    HW213548   2.763   3.145   5.223
 4217SOL     OW13549   6.794   1.067   3.773
 4217SOL    HW113550   6.867   1.132   3.796
 4217SOL    HW213551   6.738   1.105   3.699
 4218SOL     OW13552   3.305   5.914   2.518
 4218SOL    HW113553   3.293   5.861   2.602
 4218SOL    HW213554   3.326   5.852   2.442
 4219SOL     OW13555   5.464   6.985   3.014
 4219SOL    HW113556   5.431   6.909   3.070
 4219SOL    HW213557   5.505   6.949   2.930
 4220SOL     OW13558   0.120   4.195   3.612
 4220SOL    HW113559   0.197   4.183   3.549
 4220SOL    HW213560   0.121   4.120   3.679
 4221SOL     OW13561   5.575   6.150   5.665
 4221SOL    HW113562   5.621   6.138   5.577
 4221SOL    HW213563   5.611   6.084   5.731
 4222SOL     OW13564   3.097   3.331   0.345
 4222SOL    HW113565   3.033   3.348   0.419
 4222SOL    HW213566   3.047   3.321   0.259
 4223SOL     OW13567   3.115   4.005   2.311
 4223SOL    HW113568   3.130   4.070   2.237
 4223SOL    HW213569   3.187   3.936   2.311
 4224SOL     OW13570   3.829   1.736   6.086
 4224SOL    HW113571   3.853   1.642   6.062
 4224SOL    HW213572   3.912   1.788   6.107
 4225SOL     OW13573   4.560   0.650   3.976
 4225SOL    HW113574   4.627   0.624   3.907
 4225SOL    HW213575   4.562   0.584   4.051
 4226SOL     OW13576   1.676   1.698   3.042
 4226SOL    HW113577   1.694   1.600   3.054
 4226SOL    HW213578   1.644   1.716   2.949
 4227SOL     OW13579   5.141   4.259   6.506
 4227SOL    HW113580   5.100   4.284   6.594
 4227SOL    HW213581   5.230   4.218   6.522
 4228SOL     OW13582   5.210   5.059   3.161
 4228SOL    HW113583   5.174   5.093   3.248
 4228SOL    HW213584   5.272   4.983   3.178
 4229SOL     OW13585   4.528   5.005   5.093
 4229SOL    HW113586   4.450   4.960   5.051
 4229SOL    HW213587   4.496   5.074   5.158
 4230SOL     OW13588   3.264   0.822   5.931
 4230SOL    HW113589   3.355   0.788   5.955
 4230SOL    HW213590   3.216   0.849   6.015
 4231SOL     OW13591   3.551   6.512   6.326
 4231SOL    HW113592   3.464   6.560   6.316
 4231SOL    HW213593   3.592   6.501   6.235
 4232SOL     OW13594   2.320   4.095   1.246
 4232SOL    HW113595   2.278   4.181   1.217
 4232SOL    HW213596   2.420   4.106   1.249
 4233SOL     OW13597   5.388   6.019   1.030
 4233SOL    HW113598   5.472   6.045   1.079
 4233SOL    HW213599   5.382   6.071   0.945
 4234SOL     OW13600   3.600   3.396   5.522
 4234SOL    HW113601   3.527   3.412   5.457
 4234SOL    HW213602   3.687   3.382   5.474
 4235SOL     OW13603   0.459   3.983   4.894
 4235SOL    HW113604   0.467   4.082   4.890
 4235SOL    HW213605   0.407   3.950   4.816
 4236SOL     OW13606   0.753   3.599   4.854
 4236SOL    HW113607   0.839   3.555   4.880
 4236SOL    HW213608   0.701   3.622   4.936
 4237SOL     OW13609   6.638   3.889   5.390
 4237SOL    HW113610   6.623   3.933   5.479
 4237SOL    HW213611   6.646   3.960   5.320
 4238SOL     OW13612   4.837   4.682   4.426
 4238SOL    HW113613   4.907   4.612   4.412
 4238SOL    HW213614   4.804   4.678   4.520
 4239SOL     OW13615   5.107   5.885   5.297
 4239SOL    HW113616   5.039   5.816   5.323
 4239SOL    HW213617   5.181   5.886   5.364
 4240SOL     OW13618   2.681   5.058   6.618
 4240SOL    HW113619   2.765   5.087   6.573
 4240SOL    HW213620   2.621   5.013   6.552
 4241SOL     OW13621   4.176   2.330   0.957
 4241SOL    HW113622   4.122   2.255   0.996
 4241SOL    HW213623   4.209   2.304   0.866
 4242SOL     OW13624   1.942   0.590   1.984
 4242SOL    HW113625   1.974   0.580   1.889
 4242SOL    HW213626   1.844   0.606   1.984
 4243SOL     OW13627   1.435   2.942   3.329
 4243SOL    HW113628   1.418   2.844   3.339
 4243SOL    HW213629   1.532   2.960   3.344
 4244SOL     OW13630   3.289   0.498   0.905
 4244SOL    HW113631   3.313   0.582   0.954
 4244SOL    HW213632   3.360   0.429   0.922
 4245SOL     OW13633   0.098   1.818   1.000
 4245SOL    HW113634   0.164   1.879   0.956
 4245SOL    HW213635   0.036   1.780   0.932
 4246SOL     OW13636   4.663   2.819   3.717
 4246SOL    HW113637   4.632   2.746   3.778
 4246SOL    HW213638   4.657   2.788   3.623
 4247SOL     OW13639   2.120   5.299   0.223
 4247SOL    HW113640   2.085   5.207   0.242
 4247SOL    HW213641   2.217   5.293   0.199
 4248SOL     OW13642   1.922   0.920   3.172
 4248SOL    HW113643   1.913   1.009   3.217
 4248SOL    HW213644   2.002   0.921   3.112
 4249SOL     OW13645   5.687   0.631   5.883
 4249SOL    HW113646   5.624   0.663   5.954
 4249SOL    HW213647   5.775   0.609   5.925
 4250SOL     OW13648   0.645   5.504   5.115
 4250SOL    HW113649   0.682   5.596   5.100
 4250SOL    HW213650   0.586   5.479   5.038
 4251SOL     OW13651   4.551   2.447   5.672
 4251SOL    HW113652   4.614   2.478   5.744
 4251SOL    HW213653   4.457   2.459   5.702
 4252SOL     OW13654   6.989   0.146   6.635
 4252SOL    HW113655   0.006   0.166   6.726
 4252SOL    HW213656   0.033   0.176   6.565
 4253SOL     OW13657   4.380   6.402   2.892
 4253SOL    HW113658   4.331   6.456   2.961
 4253SOL    HW213659   4.370   6.444   2.802
 4254SOL     OW13660   1.540   2.317   5.676
 4254SOL    HW113661   1.462   2.306   5.615
 4254SOL    HW213662   1.593   2.233   5.680
 4255SOL     OW13663   0.948   3.114   3.191
 4255SOL    HW113664   1.016   3.171   3.146
 4255SOL    HW213665   0.993   3.056   3.259
 4256SOL     OW13666   5.750   5.942   0.770
 4256SOL    HW113667   5.730   5.861   0.825
 4256SOL    HW213668   5.823   5.995   0.814
 4257SOL     OW13669   6.631   0.841   2.952
 4257SOL    HW113670   6.673   0.926   2.919
 4257SOL    HW213671   6.666   0.820   3.043
 4258SOL     OW13672   2.990   5.991   0.838
 4258SOL    HW113673   3.031   5.938   0.763
 4258SOL    HW213674   2.923   6.054   0.801
 4259SOL     OW13675   0.572   6.678   0.552
 4259SOL    HW113676   0.648   6.614   0.542
 4259SOL    HW213677   0.506   6.663   0.478
 4260SOL     OW13678   5.878   0.209   4.907
 4260SOL    HW113679   5.946   0.227   4.978
 4260SOL    HW213680   5.884   0.279   4.836
 4261SOL     OW13681   2.645   6.324   3.341
 4261SOL    HW113682   2.702   6.278   3.273
 4261SOL    HW213683   2.692   6.324   3.429
 4262SOL     OW13684   1.960   4.696   4.824
 4262SOL    HW113685   2.041   4.637   4.827
 4262SOL    HW213686   1.950   4.744   4.912
 4263SOL     OW13687   3.098   1.447   2.891
 4263SOL    HW113688   3.142   1.497   2.816
 4263SOL    HW213689   3.018   1.499   2.923
 4264SOL     OW13690   5.031   1.884   6.716
 4264SOL    HW113691   5.105   1.950   6.728
 4264SOL    HW213692   4.946   1.920   6.755
 4265SOL     OW13693   3.258   6.106   6.575
 4265SOL    HW113694   3.277   6.194   6.617
 4265SOL    HW213695   3.332   6.042   6.597
 4266SOL     OW13696   0.783   4.807   1.899
 4266SOL    HW113697   0.834   4.814   1.985
 4266SOL    HW213698   0.685   4.808   1.918
 4267SOL     OW13699   1.212   4.178   3.718
 4267SOL    HW113700   1.147   4.208   3.649
 4267SOL    HW213701   1.166   4.175   3.807
 4268SOL     OW13702   1.356   4.235   6.229
 4268SOL    HW113703   1.302   4.249   6.146
 4268SOL    HW213704   1.453   4.226   6.204
 4269SOL     OW13705   2.750   1.410   3.877
 4269SOL    HW113706   2.729   1.319   3.911
 4269SOL    HW213707   2.847   1.417   3.857
 4270SOL     OW13708   4.296   3.996   1.005
 4270SOL    HW113709   4.385   3.962   1.035
 4270SOL    HW213710   4.260   3.936   0.934
 4271SOL     OW13711   6.758   0.564   0.850
 4271SOL    HW113712   6.778   0.571   0.753
 4271SOL    HW213713   6.681   0.503   0.864
 4272SOL     OW13714   0.002   1.865   5.376
 4272SOL    HW113715   0.005   1.776   5.422
 4272SOL    HW213716   6.999   1.851   5.280
 4273SOL     OW13717   3.361   6.026   3.800
 4273SOL    HW113718   3.388   6.095   3.867
 4273SOL    HW213719   3.386   5.935   3.833
 4274SOL     OW13720   0.452   1.052   1.278
 4274SOL    HW113721   0.364   1.011   1.298
 4274SOL    HW213722   0.484   1.104   1.357
 4275SOL     OW13723   6.800   2.404   3.791
 4275SOL    HW113724   6.885   2.367   3.829
 4275SOL    HW213725   6.798   2.503   3.805
 4276SOL     OW13726   1.346   6.556   2.590
 4276SOL    HW113727   1.271   6.491   2.605
 4276SOL    HW213728   1.432   6.513   2.615
 4277SOL     OW13729   6.352   5.504   3.088
 4277SOL    HW113730   6.335   5.469   2.995
 4277SOL    HW213731   6.289   5.578   3.107
 4278SOL     OW13732   6.992   6.949   1.071
 4278SOL    HW113733   0.016   6.883   1.131
 4278SOL    HW213734   0.029   0.010   1.063
 4279SOL     OW13735   0.836   2.497   2.912
 4279SOL    HW113736   0.752   2.455   2.948
 4279SOL    HW213737   0.858   2.457   2.824
 4280SOL     OW13738   2.461   6.449   6.972
 4280SOL    HW113739   2.509   6.468   6.886
 4280SOL    HW213740   2.486   6.517   0.020
 4281SOL     OW13741   6.555   6.044   2.919
 4281SOL    HW113742   6.567   6.001   2.830
 4281SOL    HW213743   6.464   6.086   2.923
 4282SOL     OW13744   5.515   4.971   1.754
 4282SOL    HW113745   5.467   4.904   1.810
 4282SOL    HW213746   5.604   4.935   1.727
 4283SOL     OW13747   5.893   1.440   4.598
 4283SOL    HW113748   5.899   1.451   4.698
 4283SOL    HW213749   5.978   1.402   4.563
 4284SOL     OW13750   4.791   6.093   6.699
 4284SOL    HW113751   4.712   6.036   6.722
 4284SOL    HW213752   4.786   6.121   6.603
 4285SOL     OW13753   3.078   1.492   6.537
 4285SOL    HW113754   3.096   1.588   6.514
 4285SOL    HW213755   3.059   1.440   6.454
 4286SOL     OW13756   5.059   6.612   6.961
 4286SOL    HW113757   4.995   6.542   6.930
 4286SOL    HW213758   5.030   6.702   6.927
 4287SOL     OW13759   3.745   0.918   1.193
 4287SOL    HW113760   3.690   0.968   1.260
 4287SOL    HW213761   3.685   0.862   1.136
 4288SOL     OW13762   6.754   5.745   2.287
 4288SOL    HW113763   6.785   5.732   2.193
 4288SOL    HW213764   6.657   5.770   2.287
 4289SOL     OW13765   0.358   4.107   5.304
 4289SOL    HW113766   0.319   4.195   5.280
 4289SOL    HW213767   0.431   4.120   5.372
 4290SOL     OW13768   6.724   1.515   3.401
 4290SOL    HW113769   6.689   1.540   3.492
 4290SOL    HW213770   6.717   1.416   3.388
 4291SOL     OW13771   4.225   4.885   6.747
 4291SOL    HW113772   4.235   4.787   6.731
 4291SOL    HW213773   4.238   4.905   6.844
 4292SOL     OW13774   6.855   0.843   1.380
 4292SOL    HW113775   6.907   0.858   1.464
 4292SOL    HW213776   6.785   0.914   1.372
 4293SOL     OW13777   3.697   2.930   6.607
 4293SOL    HW113778   3.793   2.900   6.608
 4293SOL    HW213779   3.684   3.004   6.673
 4294SOL     OW13780   2.763   1.875   6.788
 4294SOL    HW113781   2.727   1.886   6.880
 4294SOL    HW213782   2.857   1.909   6.784
 4295SOL     OW13783   4.415   6.580   2.661
 4295SOL    HW113784   4.418   6.541   2.569
 4295SOL    HW213785   4.323   6.614   2.680
 4296SOL     OW13786   2.072   5.832   2.315
 4296SOL    HW113787   2.130   5.791   2.244
 4296SOL    HW213788   2.126   5.849   2.397
 4297SOL     OW13789   4.685   5.143   0.535
 4297SOL    HW113790   4.662   5.057   0.489
 4297SOL    HW213791   4.764   5.128   0.595
 4298SOL     OW13792   1.646   0.075   0.408
 4298SOL    HW113793   1.672   0.022   0.488
 4298SOL    HW213794   1.600   0.016   0.342
 4299SOL     OW13795   0.178   2.931   6.097
 4299SOL    HW113796   0.175   2.909   6.194
 4299SOL    HW213797   0.088   2.915   6.056
 4300SOL     OW13798   3.041   0.469   2.055
 4300SOL    HW113799   3.101   0.549   2.062
 4300SOL    HW213800   3.050   0.413   2.138
 4301SOL     OW13801   2.024   6.322   5.280
 4301SOL    HW113802   1.943   6.340   5.336
 4301SOL    HW213803   2.092   6.393   5.296
 4302SOL     OW13804   3.864   5.194   0.143
 4302SOL    HW113805   3.896   5.121   0.203
 4302SOL    HW213806   3.864   5.161   0.048
 4303SOL     OW13807   4.197   5.533   3.801
 4303SOL    HW113808   4.232   5.623   3.828
 4303SOL    HW213809   4.273   5.474   3.774
 4304SOL     OW13810   3.113   4.287   1.717
 4304SOL    HW113811   3.080   4.373   1.677
 4304SOL    HW213812   3.042   4.218   1.710
 4305SOL     OW13813   0.349   6.624   5.577
 4305SOL    HW113814   0.356   6.670   5.488
 4305SOL    HW213815   0.385   6.531   5.570
 4306SOL     OW13816   5.562   3.348   5.167
 4306SOL    HW113817   5.608   3.308   5.088
 4306SOL    HW213818   5.466   3.367   5.144
 4307SOL     OW13819   6.954   1.621   5.543
 4307SOL    HW113820   6.990   1.586   5.457
 4307SOL    HW213821   6.891   1.554   5.583
 4308SOL     OW13822   4.141   5.786   5.981
 4308SOL    HW113823   4.158   5.883   5.993
 4308SOL    HW213824   4.199   5.734   6.043
 4309SOL     OW13825   2.997   1.634   0.952
 4309SOL    HW113826   3.068   1.566   0.969
 4309SOL    HW213827   3.015   1.716   1.007
 4310SOL     OW13828   6.212   2.220   3.771
 4310SOL    HW113829   6.118   2.192   3.756
 4310SOL    HW213830   6.215   2.313   3.807
 4311SOL     OW13831   0.532   6.620   1.217
 4311SOL    HW113832   0.513   6.648   1.123
 4311SOL    HW213833   0.469   6.667   1.279
 4312SOL     OW13834   0.114   3.754   2.335
 4312SOL    HW113835   0.108   3.843   2.381
 4312SOL    HW213836   0.079   3.682   2.396
 4313SOL     OW13837   0.884   3.422   0.414
 4313SOL    HW113838   0.982   3.435   0.398
 4313SOL    HW213839   0.859   3.328   0.392
 4314SOL     OW13840   1.904   1.730   5.918
 4314SOL    HW113841   1.990   1.736   5.868
 4314SOL    HW213842   1.875   1.822   5.944
 4315SOL     OW13843   2.716   2.431   4.849
 4315SOL    HW113844   2.663   2.502   4.893
 4315SOL    HW213845   2.662   2.347   4.843
 4316SOL     OW13846   4.691   5.196   2.113
 4316SOL    HW113847   4.619   5.236   2.056
 4316SOL    HW213848   4.748   5.268   2.151
 4317SOL     OW13849   4.782   0.317   4.212
 4317SOL    HW113850   4.827   0.395   4.255
 4317SOL    HW213851   4.819   0.232   4.251
 4318SOL     OW13852   1.675   6.111   3.706
 4318SOL    HW113853   1.674   6.211   3.714
 4318SOL    HW213854   1.662   6.085   3.611
 4319SOL     OW13855   1.180   4.753   2.203
 4319SOL    HW113856   1.277   4.750   2.179
 4319SOL    HW213857   1.170   4.752   2.302
 4320SOL     OW13858   3.240   0.361   1.315
 4320SOL    HW113859   3.239   0.461   1.307
 4320SOL    HW213860   3.147   0.326   1.303
 4321SOL     OW13861   6.507   5.697   2.841
 4321SOL    HW113862   6.408   5.695   2.824
 4321SOL    HW213863   6.525   5.671   2.936
 4322SOL     OW13864   2.708   2.337   3.820
 4322SOL    HW113865   2.807   2.341   3.803
 4322SOL    HW213866   2.668   2.264   3.765
 4323SOL     OW13867   5.194   4.458   1.510
 4323SOL    HW113868   5.099   4.478   1.532
 4323SOL    HW213869   5.243   4.544   1.496
 4324SOL     OW13870   0.028   4.267   5.649
 4324SOL    HW113871   0.041   4.174   5.613
 4324SOL    HW213872   0.055   4.333   5.579
 4325SOL     OW13873   1.425   0.414   1.249
 4325SOL    HW113874   1.374   0.473   1.187
 4325SOL    HW213875   1.451   0.465   1.331
 4326SOL     OW13876   4.527   2.439   3.306
 4326SOL    HW113877   4.506   2.489   3.222
 4326SOL    HW213878   4.608   2.480   3.350
 4327SOL     OW13879   3.074   6.868   3.769
 4327SOL    HW113880   3.161   6.881   3.818
 4327SOL    HW213881   2.999   6.876   3.834
 4328SOL     OW13882   6.254   0.051   3.087
 4328SOL    HW113883   6.179   7.013   3.057
 4328SOL    HW213884   6.312   0.000   3.151
 4329SOL     OW13885   6.216   4.152   0.586
 4329SOL    HW113886   6.243   4.111   0.674
 4329SOL    HW213887   6.137   4.103   0.550
 4330SOL     OW13888   2.387   5.303   4.505
 4330SOL    HW113889   2.320   5.260   4.445
 4330SOL    HW213890   2.480   5.284   4.472
 4331SOL     OW13891   5.692   1.633   2.626
 4331SOL    HW113892   5.776   1.644   2.573
 4331SOL    HW213893   5.622   1.587   2.571
 4332SOL     OW13894   6.902   5.554   1.406
 4332SOL    HW113895   6.813   5.566   1.362
 4332SOL    HW213896   6.961   5.632   1.385
 4333SOL     OW13897   3.579   2.872   6.367
 4333SOL    HW113898   3.619   2.919   6.446
 4333SOL    HW213899   3.650   2.859   6.297
 4334SOL     OW13900   0.143   2.677   4.102
 4334SOL    HW113901   0.198   2.598   4.078
 4334SOL    HW213902   0.061   2.679   4.045
 4335SOL     OW13903   2.374   3.986   1.732
 4335SOL    HW113904   2.392   3.888   1.721
 4335SOL    HW213905   2.458   4.038   1.713
 4336SOL     OW13906   3.210   5.713   5.607
 4336SOL    HW113907   3.197   5.719   5.706
 4336SOL    HW213908   3.307   5.725   5.586
 4337SOL     OW13909   6.785   4.946   3.664
 4337SOL    HW113910   6.777   4.923   3.761
 4337SOL    HW213911   6.695   4.967   3.628
 4338SOL     OW13912   3.125   2.333   5.836
 4338SOL    HW113913   3.160   2.262   5.775
 4338SOL    HW213914   3.152   2.312   5.930
 4339SOL     OW13915   4.367   4.549   5.399
 4339SOL    HW113916   4.308   4.531   5.321
 4339SOL    HW213917   4.351   4.480   5.470
 4340SOL     OW13918   0.071   4.002   0.360
 4340SOL    HW113919   6.991   3.999   0.366
 4340SOL    HW213920   0.111   3.979   0.449
 4341SOL     OW13921   6.139   5.456   0.979
 4341SOL    HW113922   6.066   5.487   0.918
 4341SOL    HW213923   6.167   5.531   1.039
 4342SOL     OW13924   5.292   3.281   2.681
 4342SOL    HW113925   5.199   3.304   2.708
 4342SOL    HW213926   5.291   3.238   2.591
 4343SOL     OW13927   4.148   0.406   6.773
 4343SOL    HW113928   4.130   0.502   6.793
 4343SOL    HW213929   4.231   0.398   6.718
 4344SOL     OW13930   1.287   4.308   2.209
 4344SOL    HW113931   1.223   4.383   2.188
 4344SOL    HW213932   1.296   4.250   2.128
 4345SOL     OW13933   3.581   3.501   2.808
 4345SOL    HW113934   3.489   3.521   2.774
 4345SOL    HW213935   3.600   3.403   2.797
 4346SOL     OW13936   0.606   3.635   2.428
 4346SOL    HW113937   0.632   3.725   2.392
 4346SOL    HW213938   0.680   3.570   2.411
 4347SOL     OW13939   6.545   5.770   0.521
 4347SOL    HW113940   6.460   5.723   0.545
 4347SOL    HW213941   6.574   5.829   0.596
 4348SOL     OW13942   6.402   4.051   5.831
 4348SOL    HW113943   6.314   4.081   5.865
 4348SOL    HW213944   6.428   3.965   5.875
 4349SOL     OW13945   1.307   4.145   4.127
 4349SOL    HW113946   1.377   4.104   4.068
 4349SOL    HW213947   1.231   4.177   4.071
 4350SOL     OW13948   4.970   0.759   3.833
 4350SOL    HW113949   4.979   0.831   3.764
 4350SOL    HW213950   4.899   0.694   3.806
 4351SOL     OW13951   0.049   5.599   1.030
 4351SOL    HW113952   0.111   5.552   1.093
 4351SOL    HW213953   0.070   5.572   0.936
 4352SOL     OW13954   3.317   4.668   1.726
 4352SOL    HW113955   3.328   4.683   1.628
 4352SOL    HW213956   3.407   4.661   1.769
 4353SOL     OW13957   2.423   4.284   0.638
 4353SOL    HW113958   2.452   4.194   0.604
 4353SOL    HW213959   2.480   4.355   0.597
 4354SOL     OW13960   5.304   5.314   2.284
 4354SOL    HW113961   5.240   5.332   2.358
 4354SOL    HW213962   5.254   5.281   2.204
 4355SOL     OW13963   2.493   5.211   3.001
 4355SOL    HW113964   2.462   5.128   3.048
 4355SOL    HW213965   2.437   5.288   3.031
 4356SOL     OW13966   5.822   1.870   5.872
 4356SOL    HW113967   5.858   1.893   5.963
 4356SOL    HW213968   5.769   1.785   5.878
 4357SOL     OW13969   5.490   5.980   2.361
 4357SOL    HW113970   5.471   6.048   2.290
 4357SOL    HW213971   5.587   5.980   2.382
 4358SOL     OW13972   2.678   0.583   0.711
 4358SOL    HW113973   2.733   0.520   0.766
 4358SOL    HW213974   2.583   0.553   0.712
 4359SOL     OW13975   2.564   2.275   1.756
 4359SOL    HW113976   2.662   2.277   1.773
 4359SOL    HW213977   2.532   2.368   1.734
 4360SOL     OW13978   2.704   6.014   4.097
 4360SOL    HW113979   2.757   5.976   4.021
 4360SOL    HW213980   2.729   5.967   4.182
 4361SOL     OW13981   1.324   1.750   0.035
 4361SOL    HW113982   1.324   1.782   0.130
 4361SOL    HW213983   1.231   1.728   0.007
 4362SOL     OW13984   0.532   5.382   2.590
 4362SOL    HW113985   0.538   5.306   2.654
 4362SOL    HW213986   0.457   5.442   2.616
 4363SOL     OW13987   3.375   0.603   2.221
 4363SOL    HW113988   3.470   0.618   2.248
 4363SOL    HW213989   3.318   0.598   2.302
 4364SOL     OW13990   3.303   4.075   2.889
 4364SOL    HW113991   3.204   4.071   2.875
 4364SOL    HW213992   3.346   4.118   2.810
 4365SOL     OW13993   1.903   1.279   1.008
 4365SOL    HW113994   1.988   1.248   1.052
 4365SOL    HW213995   1.886   1.375   1.032
 4366SOL     OW13996   5.644   5.944   4.777
 4366SOL    HW113997   5.567   5.893   4.737
 4366SOL    HW213998   5.620   6.041   4.784
 4367SOL     OW13999   2.935   6.637   1.965
 4367SOL    HW114000   2.870   6.575   1.921
 4367SOL    HW214001   2.918   6.639   2.063
 4368SOL     OW14002   4.930   3.782   4.164
 4368SOL    HW114003   4.881   3.697   4.142
 4368SOL    HW214004   4.881   3.860   4.126
 4369SOL     OW14005   5.761   4.317   3.552
 4369SOL    HW114006   5.853   4.335   3.586
 4369SOL    HW214007   5.715   4.405   3.535
 4370SOL     OW14008   4.305   4.984   0.812
 4370SOL    HW114009   4.265   4.962   0.723
 4370SOL    HW214010   4.278   5.076   0.839
 4371SOL     OW14011   3.582   1.546   2.765
 4371SOL    HW114012   3.588   1.645   2.769
 4371SOL    HW214013   3.664   1.505   2.805
 4372SOL     OW14014   1.814   4.432   5.062
 4372SOL    HW114015   1.784   4.527   5.052
 4372SOL    HW214016   1.914   4.428   5.063
 4373SOL     OW14017   4.149   0.303   0.388
 4373SOL    HW114018   4.115   0.211   0.365
 4373SOL    HW214019   4.172   0.306   0.485
 4374SOL     OW14020   2.882   6.208   0.696
 4374SOL    HW114021   2.804   6.151   0.723
 4374SOL    HW214022   2.855   6.304   0.698
 4375SOL     OW14023   3.969   1.407   5.561
 4375SOL    HW114024   3.877   1.444   5.551
 4375SOL    HW214025   3.999   1.419   5.656
 4376SOL     OW14026   2.428   5.751   0.255
 4376SOL    HW114027   2.524   5.776   0.240
 4376SOL    HW214028   2.387   5.813   0.322
 4377SOL     OW14029   5.096   5.689   6.726
 4377SOL    HW114030   5.119   5.696   6.629
 4377SOL    HW214031   5.087   5.781   6.765
 4378SOL     OW14032   3.037   5.339   2.341
 4378SOL    HW114033   2.974   5.395   2.394
 4378SOL    HW214034   3.012   5.344   2.244
 4379SOL     OW14035   0.173   6.754   0.790
 4379SOL    HW114036   0.202   6.719   0.880
 4379SOL    HW214037   0.081   6.722   0.770
 4380SOL     OW14038   2.015   5.837   4.006
 4380SOL    HW114039   1.981   5.892   4.083
 4380SOL    HW214040   2.108   5.866   3.983
 4381SOL     OW14041   3.842   6.078   4.985
 4381SOL    HW114042   3.902   6.010   4.945
 4381SOL    HW214043   3.748   6.045   4.984
 4382SOL     OW14044   5.442   4.848   2.881
 4382SOL    HW114045   5.343   4.835   2.888
 4382SOL    HW214046   5.488   4.786   2.945
 4383SOL     OW14047   0.930   1.158   0.595
 4383SOL    HW114048   0.939   1.256   0.613
 4383SOL    HW214049   1.003   1.109   0.642
 4384SOL     OW14050   3.762   0.361   2.158
 4384SOL    HW114051   3.725   0.442   2.112
 4384SOL    HW214052   3.692   0.290   2.162
 4385SOL     OW14053   6.238   2.544   3.107
 4385SOL    HW114054   6.293   2.621   3.074
 4385SOL    HW214055   6.298   2.472   3.140
 4386SOL     OW14056   1.668   4.316   0.023
 4386SOL    HW114057   1.656   4.319   0.122
 4386SOL    HW214058   1.745   4.375   7.017
 4387SOL     OW14059   6.286   1.919   1.563
 4387SOL    HW114060   6.216   1.871   1.616
 4387SOL    HW214061   6.345   1.853   1.517
 4388SOL     OW14062   3.682   1.478   5.569
 4388SOL    HW114063   3.650   1.384   5.580
 4388SOL    HW214064   3.665   1.530   5.652
 4389SOL     OW14065   6.377   2.633   2.530
 4389SOL    HW114066   6.352   2.556   2.472
 4389SOL    HW214067   6.461   2.611   2.580
 4390SOL     OW14068   4.092   2.926   1.019
 4390SOL    HW114069   4.074   3.021   0.995
 4390SOL    HW214070   4.157   2.887   0.954
 4391SOL     OW14071   0.641   6.370   0.172
 4391SOL    HW114072   0.675   6.359   0.079
 4391SOL    HW214073   0.555   6.321   0.182
 4392SOL     OW14074   5.195   4.638   5.056
 4392SOL    HW114075   5.171   4.731   5.029
 4392SOL    HW214076   5.197   4.579   4.975
 4393SOL     OW14077   4.939   6.487   2.884
 4393SOL    HW114078   4.844   6.459   2.866
 4393SOL    HW214079   4.951   6.583   2.857
 4394SOL     OW14080   4.605   0.542   2.045
 4394SOL    HW114081   4.562   0.452   2.050
 4394SOL    HW214082   4.599   0.587   2.133
 4395SOL     OW14083   4.707   1.922   1.462
 4395SOL    HW114084   4.758   1.836   1.461
 4395SOL    HW214085   4.615   1.906   1.424
 4396SOL     OW14086   1.566   1.479   3.281
 4396SOL    HW114087   1.504   1.499   3.356
 4396SOL    HW214088   1.520   1.423   3.212
 4397SOL     OW14089   4.929   0.225   6.327
 4397SOL    HW114090   4.842   0.176   6.334
 4397SOL    HW214091   4.918   0.305   6.269
 4398SOL     OW14092   0.232   5.181   4.831
 4398SOL    HW114093   0.331   5.175   4.819
 4398SOL    HW214094   0.207   5.144   4.921
 4399SOL     OW14095   3.197   1.252   2.602
 4399SOL    HW114096   3.247   1.236   2.517
 4399SOL    HW214097   3.261   1.251   2.679
 4400SOL     OW14098   3.775   5.233   3.207
 4400SOL    HW114099   3.781   5.154   3.145
 4400SOL    HW214100   3.717   5.303   3.165
 4401SOL     OW14101   5.828   5.834   5.016
 4401SOL    HW114102   5.860   5.826   4.922
 4401SOL    HW214103   5.740   5.882   5.017
 4402SOL     OW14104   6.682   6.346   2.306
 4402SOL    HW114105   6.716   6.264   2.351
 4402SOL    HW214106   6.602   6.381   2.356
 4403SOL     OW14107   6.727   1.354   2.312
 4403SOL    HW114108   6.799   1.381   2.377
 4403SOL    HW214109   6.640   1.392   2.341
 4404SOL     OW14110   2.300   4.755   2.392
 4404SOL    HW114111   2.376   4.695   2.416
 4404SOL    HW214112   2.334   4.847   2.374
 4405SOL     OW14113   2.754   3.550   5.810
 4405SOL    HW114114   2.752   3.541   5.711
 4405SOL    HW214115   2.676   3.604   5.841
 4406SOL     OW14116   5.754   3.288   1.961
 4406SOL    HW114117   5.761   3.205   2.016
 4406SOL    HW214118   5.835   3.296   1.903
 4407SOL     OW14119   0.730   1.183   6.884
 4407SOL    HW114120   0.668   1.223   6.952
 4407SOL    HW214121   0.761   1.094   6.917
 4408SOL     OW14122   4.041   6.308   1.244
 4408SOL    HW114123   4.129   6.282   1.282
 4408SOL    HW214124   3.982   6.228   1.238
 4409SOL     OW14125   2.577   2.033   2.635
 4409SOL    HW114126   2.634   1.951   2.636
 4409SOL    HW214127   2.633   2.113   2.615
 4410SOL     OW14128   1.618   5.800   1.498
 4410SOL    HW114129   1.535   5.855   1.492
 4410SOL    HW214130   1.630   5.768   1.592
 4411SOL     OW14131   4.013   3.154   2.487
 4411SOL    HW114132   4.024   3.184   2.582
 4411SOL    HW214133   3.982   3.059   2.485
 4412SOL     OW14134   3.660   1.605   5.783
 4412SOL    HW114135   3.730   1.576   5.848
 4412SOL    HW214136   3.571   1.609   5.829
 4413SOL     OW14137   4.404   5.367   3.723
 4413SOL    HW114138   4.367   5.289   3.673
 4413SOL    HW214139   4.471   5.335   3.790
 4414SOL     OW14140   3.519   5.023   2.024
 4414SOL    HW114141   3.576   4.942   2.008
 4414SOL    HW214142   3.432   4.994   2.063
 4415SOL     OW14143   4.655   1.616   1.289
 4415SOL    HW114144   4.716   1.552   1.241
 4415SOL    HW214145   4.570   1.626   1.237
 4416SOL     OW14146   2.639   2.159   4.793
 4416SOL    HW114147   2.546   2.155   4.759
 4416SOL    HW214148   2.643   2.120   4.885
 4417SOL     OW14149   6.282   6.648   1.427
 4417SOL    HW114150   6.227   6.567   1.406
 4417SOL    HW214151   6.299   6.699   1.342
 4418SOL     OW14152   4.930   1.072   3.255
 4418SOL    HW114153   4.912   0.985   3.208
 4418SOL    HW214154   5.008   1.117   3.211
 4419SOL     OW14155   6.153   5.581   6.468
 4419SOL    HW114156   6.205   5.603   6.386
 4419SOL    HW214157   6.100   5.497   6.453
 4420SOL     OW14158   4.562   0.781   0.148
 4420SOL    HW114159   4.557   0.870   0.102
 4420SOL    HW214160   4.474   0.735   0.140
 4421SOL     OW14161   0.395   1.206   3.328
 4421SOL    HW114162   0.371   1.159   3.412
 4421SOL    HW214163   0.388   1.143   3.251
 4422SOL     OW14164   1.637   4.185   6.145
 4422SOL    HW114165   1.622   4.114   6.075
 4422SOL    HW214166   1.651   4.273   6.100
 4423SOL     OW14167   0.142   1.551   5.954
 4423SOL    HW114168   0.046   1.575   5.937
 4423SOL    HW214169   0.154   1.453   5.940
 4424SOL     OW14170   1.084   5.645   3.671
 4424SOL    HW114171   1.107   5.590   3.752
 4424SOL    HW214172   1.000   5.696   3.689
 4425SOL     OW14173   5.211   4.393   0.966
 4425SOL    HW114174   5.153   4.408   1.046
 4425SOL    HW214175   5.294   4.343   0.993
 4426SOL     OW14176   0.622   0.242   6.732
 4426SOL    HW114177   0.685   0.239   6.810
 4426SOL    HW214178   0.665   0.198   6.653
 4427SOL     OW14179   1.212   5.820   3.463
 4427SOL    HW114180   1.205   5.897   3.525
 4427SOL    HW214181   1.151   5.747   3.494
 4428SOL     OW14182   1.874   6.915   2.988
 4428SOL    HW114183   1.921   6.929   3.075
 4428SOL    HW214184   1.881   6.818   2.962
 4429SOL     OW14185   3.306   0.804   3.336
 4429SOL    HW114186   3.264   0.826   3.248
 4429SOL    HW214187   3.235   0.788   3.404
 4430SOL     OW14188   1.353   0.865   2.296
 4430SOL    HW114189   1.365   0.824   2.205
 4430SOL    HW214190   1.297   0.948   2.288
 4431SOL     OW14191   2.308   2.183   3.640
 4431SOL    HW114192   2.296   2.163   3.543
 4431SOL    HW214193   2.267   2.272   3.662
 4432SOL     OW14194   3.112   3.784   3.598
 4432SOL    HW114195   3.140   3.728   3.676
 4432SOL    HW214196   3.186   3.786   3.531
 4433SOL     OW14197   6.331   0.520   2.674
 4433SOL    HW114198   6.413   0.516   2.732
 4433SOL    HW214199   6.357   0.500   2.579
 4434SOL     OW14200   5.282   2.354   5.335
 4434SOL    HW114201   5.229   2.433   5.303
 4434SOL    HW214202   5.379   2.368   5.312
 4435SOL     OW14203   3.884   3.040   1.924
 4435SOL    HW114204   3.820   3.071   1.994
 4435SOL    HW214205   3.951   3.112   1.906
 4436SOL     OW14206   5.302   0.131   0.555
 4436SOL    HW114207   5.364   0.094   0.624
 4436SOL    HW214208   5.318   0.229   0.544
 4437SOL     OW14209   3.353   0.339   5.603
 4437SOL    HW114210   3.290   0.415   5.591
 4437SOL    HW214211   3.302   0.253   5.608
 4438SOL     OW14212   3.936   3.131   6.418
 4438SOL    HW114213   3.947   3.036   6.449
 4438SOL    HW214214   4.002   3.150   6.345
 4439SOL     OW14215   1.994   4.311   2.797
 4439SOL    HW114216   2.092   4.297   2.810
 4439SOL    HW214217   1.968   4.401   2.832
 4440SOL     OW14218   6.355   1.633   0.535
 4440SOL    HW114219   6.285   1.594   0.595
 4440SOL    HW214220   6.324   1.722   0.501
 4441SOL     OW14221   6.026   0.459   3.779
 4441SOL    HW114222   6.033   0.555   3.753
 4441SOL    HW214223   5.968   0.411   3.714
 4442SOL     OW14224   1.808   6.008   2.064
 4442SOL    HW114225   1.853   6.095   2.046
 4442SOL    HW214226   1.747   6.018   2.142
 4443SOL     OW14227   2.466   1.624   0.284
 4443SOL    HW114228   2.460   1.553   0.355
 4443SOL    HW214229   2.456   1.582   0.194
 4444SOL     OW14230   4.443   1.346   2.806
 4444SOL    HW114231   4.364   1.297   2.843
 4444SOL    HW214232   4.468   1.306   2.718
 4445SOL     OW14233   0.742   1.040   6.139
 4445SOL    HW114234   0.787   1.001   6.059
 4445SOL    HW214235   0.680   1.113   6.110
 4446SOL     OW14236   5.113   4.287   3.878
 4446SOL    HW114237   5.171   4.274   3.797
 4446SOL    HW214238   5.161   4.344   3.944
 4447SOL     OW14239   4.922   3.233   5.797
 4447SOL    HW114240   4.931   3.328   5.767
 4447SOL    HW214241   5.012   3.198   5.823
 4448SOL     OW14242   2.200   3.088   6.438
 4448SOL    HW114243   2.104   3.077   6.464
 4448SOL    HW214244   2.258   3.056   6.513
 4449SOL     OW14245   0.348   1.017   5.695
 4449SOL    HW114246   0.395   0.981   5.776
 4449SOL    HW214247   0.307   1.106   5.718
 4450SOL     OW14248   3.493   3.487   2.448
 4450SOL    HW114249   3.405   3.521   2.412
 4450SOL    HW214250   3.541   3.561   2.494
 4451SOL     OW14251   0.075   4.178   0.942
 4451SOL    HW114252   0.065   4.275   0.965
 4451SOL    HW214253   0.083   4.125   1.027
 4452SOL     OW14254   6.465   3.171   6.159
 4452SOL    HW114255   6.432   3.077   6.144
 4452SOL    HW214256   6.415   3.212   6.235
 4453SOL     OW14257   5.208   0.930   1.032
 4453SOL    HW114258   5.285   0.980   0.994
 4453SOL    HW214259   5.153   0.891   0.958
 4454SOL     OW14260   4.998   2.945   1.784
 4454SOL    HW114261   4.975   2.949   1.686
 4454SOL    HW214262   4.920   2.909   1.835
 4455SOL     OW14263   4.551   2.442   2.738
 4455SOL    HW114264   4.543   2.463   2.641
 4455SOL    HW214265   4.504   2.356   2.757
 4456SOL     OW14266   0.786   5.563   2.520
 4456SOL    HW114267   0.700   5.514   2.538
 4456SOL    HW214268   0.783   5.602   2.428
 4457SOL     OW14269   4.569   1.934   6.899
 4457SOL    HW114270   4.492   1.928   6.962
 4457SOL    HW214271   4.538   1.919   6.805
 4458SOL     OW14272   4.408   1.581   1.133
 4458SOL    HW114273   4.361   1.497   1.104
 4458SOL    HW214274   4.343   1.639   1.182
 4459SOL     OW14275   5.599   6.409   5.201
 4459SOL    HW114276   5.539   6.350   5.255
 4459SOL    HW214277   5.566   6.503   5.207
 4460SOL     OW14278   1.163   1.366   6.905
 4460SOL    HW114279   1.077   1.328   6.871
 4460SOL    HW214280   1.234   1.354   6.836
 4461SOL     OW14281   2.003   0.177   2.371
 4461SOL    HW114282   1.927   0.209   2.315
 4461SOL    HW214283   2.063   0.254   2.392
 4462SOL     OW14284   6.826   4.132   0.459
 4462SOL    HW114285   6.882   4.104   0.537
 4462SOL    HW214286   6.809   4.230   0.464
 4463SOL     OW14287   1.108   4.716   6.451
 4463SOL    HW114288   1.194   4.696   6.498
 4463SOL    HW214289   1.101   4.814   6.433
 4464SOL     OW14290   6.348   2.795   0.021
 4464SOL    HW114291   6.267   2.854   0.019
 4464SOL    HW214292   6.429   2.848   7.013
 4465SOL     OW14293   0.103   5.603   0.468
 4465SOL    HW114294   0.106   5.507   0.494
 4465SOL    HW214295   0.015   5.642   0.495
 4466SOL     OW14296   6.789   2.853   3.173
 4466SOL    HW114297   6.733   2.793   3.116
 4466SOL    HW214298   6.759   2.846   3.268
 4467SOL     OW14299   1.288   0.368   3.268
 4467SOL    HW114300   1.216   0.300   3.278
 4467SOL    HW214301   1.374   0.332   3.305
 4468SOL     OW14302   1.741   2.004   0.776
 4468SOL    HW114303   1.668   2.051   0.726
 4468SOL    HW214304   1.764   2.055   0.858
 4469SOL     OW14305   4.427   6.931   0.618
 4469SOL    HW114306   4.387   6.963   0.532
 4469SOL    HW214307   4.455   7.009   0.673
 4470SOL     OW14308   4.600   4.653   1.391
 4470SOL    HW114309   4.600   4.554   1.408
 4470SOL    HW214310   4.507   4.683   1.371
 4471SOL     OW14311   6.328   2.651   1.206
 4471SOL    HW114312   6.273   2.705   1.143
 4471SOL    HW214313   6.425   2.669   1.190
 4472SOL     OW14314   2.041   4.764   1.474
 4472SOL    HW114315   1.959   4.710   1.488
 4472SOL    HW214316   2.079   4.744   1.383
 4473SOL     OW14317   6.800   0.970   6.662
 4473SOL    HW114318   6.818   1.027   6.742
 4473SOL    HW214319   6.850   1.006   6.584
 4474SOL     OW14320   6.308   0.717   4.306
 4474SOL    HW114321   6.271   0.792   4.250
 4474SOL    HW214322   6.334   0.641   4.247
 4475SOL     OW14323   1.738   3.813   0.472
 4475SOL    HW114324   1.638   3.811   0.468
 4475SOL    HW214325   1.767   3.864   0.553
 4476SOL     OW14326   4.965   6.216   2.736
 4476SOL    HW114327   4.906   6.154   2.787
 4476SOL    HW214328   4.935   6.310   2.751
 4477SOL     OW14329   1.530   2.194   0.726
 4477SOL    HW114330   1.564   2.286   0.744
 4477SOL    HW214331   1.464   2.168   0.796
 4478SOL     OW14332   1.209   4.804   1.908
 4478SOL    HW114333   1.291   4.816   1.852
 4478SOL    HW214334   1.234   4.767   1.998
 4479SOL     OW14335   1.423   0.296   6.145
 4479SOL    HW114336   1.474   0.218   6.112
 4479SOL    HW214337   1.437   0.306   6.244
 4480SOL     OW14338   6.538   4.293   3.586
 4480SOL    HW114339   6.602   4.333   3.652
 4480SOL    HW214340   6.555   4.332   3.495
 4481SOL     OW14341   0.430   0.871   3.915
 4481SOL    HW114342   0.342   0.831   3.890
 4481SOL    HW214343   0.429   0.895   4.012
 4482SOL     OW14344   1.498   4.343   3.148
 4482SOL    HW114345   1.533   4.258   3.188
 4482SOL    HW214346   1.421   4.376   3.202
 4483SOL     OW14347   6.082   3.611   0.871
 4483SOL    HW114348   6.155   3.555   0.831
 4483SOL    HW214349   6.026   3.651   0.798
 4484SOL     OW14350   3.415   3.500   6.358
 4484SOL    HW114351   3.480   3.428   6.383
 4484SOL    HW214352   3.460   3.567   6.299
 4485SOL     OW14353   4.531   0.134   6.806
 4485SOL    HW114354   4.609   0.105   6.750
 4485SOL    HW214355   4.477   0.201   6.755
 4486SOL     OW14356   6.126   3.464   3.821
 4486SOL    HW114357   6.154   3.504   3.908
 4486SOL    HW214358   6.195   3.398   3.791
 4487SOL     OW14359   2.967   2.882   5.678
 4487SOL    HW114360   2.954   2.955   5.611
 4487SOL    HW214361   3.021   2.809   5.637
 4488SOL     OW14362   6.912   1.792   6.620
 4488SOL    HW114363   6.894   1.841   6.535
 4488SOL    HW214364   6.828   1.746   6.650
 4489SOL     OW14365   0.923   1.331   2.470
 4489SOL    HW114366   0.979   1.252   2.446
 4489SOL    HW214367   0.876   1.365   2.388
 4490SOL     OW14368   6.591   2.425   4.001
 4490SOL    HW114369   6.624   2.441   3.908
 4490SOL    HW214370   6.491   2.415   3.999
 4491SOL     OW14371   1.905   4.052   2.360
 4491SOL    HW114372   1.920   4.127   2.425
 4491SOL    HW214373   1.993   4.024   2.321
 4492SOL     OW14374   4.688   4.721   6.523
 4492SOL    HW114375   4.767   4.708   6.583
 4492SOL    HW214376   4.720   4.746   6.431
 4493SOL     OW14377   5.922   4.751   3.831
 4493SOL    HW114378   5.918   4.797   3.919
 4493SOL    HW214379   5.839   4.696   3.818
 4494SOL     OW14380   5.380   2.712   2.919
 4494SOL    HW114381   5.412   2.769   2.995
 4494SOL    HW214382   5.458   2.674   2.870
 4495SOL     OW14383   4.767   6.074   2.131
 4495SOL    HW114384   4.716   6.117   2.056
 4495SOL    HW214385   4.831   6.007   2.094
 4496SOL     OW14386   5.899   3.707   5.843
 4496SOL    HW114387   5.924   3.796   5.807
 4496SOL    HW214388   5.943   3.694   5.932
 4497SOL     OW14389   6.629   5.955   0.732
 4497SOL    HW114390   6.587   5.983   0.819
 4497SOL    HW214391   6.716   5.910   0.750
 4498SOL     OW14392   1.098   3.986   0.010
 4498SOL    HW114393   1.076   3.889   0.001
 4498SOL    HW214394   1.126   4.023   6.941
 4499SOL     OW14395   5.014   3.528   0.038
 4499SOL    HW114396   5.076   3.455   0.068
 4499SOL    HW214397   4.924   3.489   0.017
 4500SOL     OW14398   4.016   3.850   2.805
 4500SOL    HW114399   4.006   3.869   2.902
 4500SOL    HW214400   4.060   3.761   2.793
 4501SOL     OW14401   1.578   4.687   4.539
 4501SOL    HW114402   1.621   4.664   4.626
 4501SOL    HW214403   1.483   4.657   4.540
 4502SOL     OW14404   5.658   2.682   6.874
 4502SOL    HW114405   5.696   2.774   6.876
 4502SOL    HW214406   5.728   2.616   6.848
 4503SOL     OW14407   1.420   3.660   2.641
 4503SOL    HW114408   1.468   3.697   2.720
 4503SOL    HW214409   1.349   3.724   2.611
 4504SOL     OW14410   4.620   2.706   4.316
 4504SOL    HW114411   4.570   2.686   4.232
 4504SOL    HW214412   4.579   2.657   4.392
 4505SOL     OW14413   2.070   5.015   0.055
 4505SOL    HW114414   2.140   5.068   0.008
 4505SOL    HW214415   2.051   4.931   0.003
 4506SOL     OW14416   3.817   6.888   5.177
 4506SOL    HW114417   3.769   6.841   5.103
 4506SOL    HW214418   3.837   6.982   5.149
 4507SOL     OW14419   6.351   3.181   2.053
 4507SOL    HW114420   6.371   3.264   2.002
 4507SOL    HW214421   6.291   3.122   1.999
 4508SOL     OW14422   1.998   3.798   0.189
 4508SOL    HW114423   2.045   3.743   0.120
 4508SOL    HW214424   1.997   3.748   0.276
 4509SOL     OW14425   0.121   1.876   3.339
 4509SOL    HW114426   0.146   1.953   3.397
 4509SOL    HW214427   0.204   1.840   3.295
 4510SOL     OW14428   3.163   6.375   6.132
 4510SOL    HW114429   3.140   6.465   6.168
 4510SOL    HW214430   3.091   6.310   6.154
 4511SOL     OW14431   6.881   2.037   0.163
 4511SOL    HW114432   6.796   1.989   0.143
 4511SOL    HW214433   6.888   2.052   0.262
 4512SOL     OW14434   2.439   4.201   6.684
 4512SOL    HW114435   2.421   4.200   6.586
 4512SOL    HW214436   2.491   4.119   6.709
 4513SOL     OW14437   6.096   1.170   2.406
 4513SOL    HW114438   6.182   1.217   2.389
 4513SOL    HW214439   6.050   1.151   2.320
 4514SOL     OW14440   3.218   0.549   5.828
 4514SOL    HW114441   3.316   0.530   5.823
 4514SOL    HW214442   3.204   0.645   5.849
 4515SOL     OW14443   6.477   4.868   0.269
 4515SOL    HW114444   6.574   4.847   0.260
 4515SOL    HW214445   6.437   4.813   0.342
 4516SOL     OW14446   0.854   0.214   3.681
 4516SOL    HW114447   0.904   0.276   3.742
 4516SOL    HW214448   0.905   0.203   3.596
 4517SOL     OW14449   3.632   0.468   6.994
 4517SOL    HW114450   3.731   0.460   6.982
 4517SOL    HW214451   3.604   0.561   6.972
 4518SOL     OW14452   1.791   0.320   3.587
 4518SOL    HW114453   1.737   0.240   3.561
 4518SOL    HW214454   1.888   0.296   3.585
 4519SOL     OW14455   6.254   2.469   5.437
 4519SOL    HW114456   6.344   2.447   5.400
 4519SOL    HW214457   6.184   2.425   5.381
 4520SOL     OW14458   0.049   4.099   2.861
 4520SOL    HW114459   0.091   4.052   2.938
 4520SOL    HW214460   0.048   4.197   2.877
 4521SOL     OW14461   5.085   1.791   6.314
 4521SOL    HW114462   4.987   1.810   6.320
 4521SOL    HW214463   5.132   1.866   6.268
 4522SOL     OW14464   5.595   0.089   3.232
 4522SOL    HW114465   5.614   0.019   3.301
 4522SOL    HW214466   5.569   0.045   3.146
 4523SOL     OW14467   4.881   2.511   6.159
 4523SOL    HW114468   4.859   2.547   6.250
 4523SOL    HW214469   4.878   2.585   6.092
 4524SOL     OW14470   5.951   0.555   4.910
 4524SOL    HW114471   5.943   0.475   4.850
 4524SOL    HW214472   6.017   0.620   4.870
 4525SOL     OW14473   6.312   1.757   5.069
 4525SOL    HW114474   6.297   1.662   5.097
 4525SOL    HW214475   6.226   1.796   5.034
 4526SOL     OW14476   3.235   1.096   1.877
 4526SOL    HW114477   3.267   1.002   1.890
 4526SOL    HW214478   3.308   1.160   1.901
 4527SOL     OW14479   4.381   6.235   3.795
 4527SOL    HW114480   4.412   6.236   3.890
 4527SOL    HW214481   4.304   6.298   3.784
 4528SOL     OW14482   4.953   6.994   5.691
 4528SOL    HW114483   4.895   0.009   5.618
 4528SOL    HW214484   4.951   0.036   5.769
 4529SOL     OW14485   3.761   0.078   3.824
 4529SOL    HW114486   3.775   0.151   3.892
 4529SOL    HW214487   3.805   7.015   3.856
 4530SOL     OW14488   0.520   2.908   4.982
 4530SOL    HW114489   0.530   2.814   5.013
 4530SOL    HW214490   0.604   2.937   4.936
 4531SOL     OW14491   0.497   3.853   3.660
 4531SOL    HW114492   0.531   3.946   3.649
 4531SOL    HW214493   0.422   3.853   3.726
 4532SOL     OW14494   0.224   2.186   0.334
 4532SOL    HW114495   0.295   2.142   0.280
 4532SOL    HW214496   0.175   2.252   0.277
 4533SOL     OW14497   3.037   5.975   2.088
 4533SOL    HW114498   3.029   5.975   2.187
 4533SOL    HW214499   3.050   6.069   2.056
 4534SOL     OW14500   0.322   4.584   5.552
 4534SOL    HW114501   0.223   4.598   5.541
 4534SOL    HW214502   0.341   4.553   5.645
 4535SOL     OW14503   4.965   2.617   3.109
 4535SOL    HW114504   4.910   2.637   3.028
 4535SOL    HW214505   4.907   2.617   3.190
 4536SOL     OW14506   6.679   0.310   4.285
 4536SOL    HW114507   6.659   0.353   4.196
 4536SOL    HW214508   6.712   0.380   4.349
 4537SOL     OW14509   4.965   3.575   6.588
 4537SOL    HW114510   4.886   3.630   6.563
 4537SOL    HW214511   5.012   3.545   6.505
 4538SOL     OW14512   3.627   2.168   1.532
 4538SOL    HW114513   3.703   2.204   1.587
 4538SOL    HW214514   3.547   2.156   1.590
 4539SOL     OW14515   2.488   2.536   2.543
 4539SOL    HW114516   2.443   2.500   2.624
 4539SOL    HW214517   2.578   2.492   2.532
 4540SOL     OW14518   3.387   3.207   5.104
 4540SOL    HW114519   3.470   3.242   5.062
 4540SOL    HW214520   3.312   3.212   5.039
 4541SOL     OW14521   5.729   0.802   1.797
 4541SOL    HW114522   5.793   0.873   1.769
 4541SOL    HW214523   5.637   0.826   1.765
 4542SOL     OW14524   5.069   6.722   3.237
 4542SOL    HW114525   5.012   6.782   3.293
 4542SOL    HW214526   5.073   6.631   3.278
 4543SOL     OW14527   5.642   1.978   2.201
 4543SOL    HW114528   5.561   2.035   2.216
 4543SOL    HW214529   5.614   1.886   2.175
 4544SOL     OW14530   4.679   5.478   6.503
 4544SOL    HW114531   4.701   5.543   6.576
 4544SOL    HW214532   4.737   5.397   6.511
 4545SOL     OW14533   4.032   4.169   5.995
 4545SOL    HW114534   4.073   4.104   5.931
 4545SOL    HW214535   3.933   4.159   5.993
 4546SOL     OW14536   0.423   6.034   0.507
 4546SOL    HW114537   0.421   6.065   0.412
 4546SOL    HW214538   0.336   5.991   0.530
 4547SOL     OW14539   4.486   1.616   2.119
 4547SOL    HW114540   4.420   1.612   2.194
 4547SOL    HW214541   4.452   1.560   2.043
 4548SOL     OW14542   1.120   3.740   4.039
 4548SOL    HW114543   1.184   3.695   4.101
 4548SOL    HW214544   1.127   3.698   3.948
 4549SOL     OW14545   4.977   1.691   2.605
 4549SOL    HW114546   5.040   1.724   2.675
 4549SOL    HW214547   4.952   1.596   2.624
 4550SOL     OW14548   1.850   5.614   4.652
 4550SOL    HW114549   1.859   5.623   4.751
 4550SOL    HW214550   1.777   5.673   4.619
 4551SOL     OW14551   6.351   3.215   0.074
 4551SOL    HW114552   6.292   3.292   0.051
 4551SOL    HW214553   6.427   3.247   0.131
 4552SOL     OW14554   6.991   3.329   4.638
 4552SOL    HW114555   0.036   3.329   4.714
 4552SOL    HW214556   6.997   3.242   4.588
 4553SOL     OW14557   5.046   5.004   0.308
 4553SOL    HW114558   5.089   4.919   0.276
 4553SOL    HW214559   5.116   5.065   0.343
 4554SOL     OW14560   6.191   6.726   3.838
 4554SOL    HW114561   6.127   6.686   3.904
 4554SOL    HW214562   6.155   6.714   3.745
 4555SOL     OW14563   4.045   3.317   6.586
 4555SOL    HW114564   3.988   3.252   6.537
 4555SOL    HW214565   4.104   3.366   6.522
 4556SOL     OW14566   4.713   0.445   5.167
 4556SOL    HW114567   4.688   0.349   5.157
 4556SOL    HW214568   4.697   0.493   5.081
 4557SOL     OW14569   5.045   0.211   4.584
 4557SOL    HW114570   5.063   0.194   4.681
 4557SOL    HW214571   5.006   0.129   4.542
 4558SOL     OW14572   6.149   2.812   5.750
 4558SOL    HW114573   6.064   2.823   5.800
 4558SOL    HW214574   6.130   2.801   5.653
 4559SOL     OW14575   1.197   6.170   1.312
 4559SOL    HW114576   1.296   6.181   1.318
 4559SOL    HW214577   1.176   6.093   1.251
 4560SOL     OW14578   5.704   2.406   2.608
 4560SOL    HW114579   5.730   2.433   2.515
 4560SOL    HW214580   5.604   2.408   2.617
 4561SOL     OW14581   3.392   0.017   6.713
 4561SOL    HW114582   3.327   6.965   6.690
 4561SOL    HW214583   3.360   0.066   6.795
 4562SOL     OW14584   2.398   4.325   5.937
 4562SOL    HW114585   2.425   4.366   5.851
 4562SOL    HW214586   2.384   4.227   5.924
 4563SOL     OW14587   5.698   2.267   6.465
 4563SOL    HW114588   5.772   2.250   6.531
 4563SOL    HW214589   5.670   2.363   6.470
 4564SOL     OW14590   0.889   5.300   6.797
 4564SOL    HW114591   0.848   5.303   6.888
 4564SOL    HW214592   0.818   5.292   6.728
 4565SOL     OW14593   2.628   1.146   3.985
 4565SOL    HW114594   2.638   1.167   4.082
 4565SOL    HW214595   2.579   1.059   3.974
 4566SOL     OW14596   1.441   0.926   0.613
 4566SOL    HW114597   1.475   0.920   0.519
 4566SOL    HW214598   1.346   0.954   0.612
 4567SOL     OW14599   5.967   1.433   0.973
 4567SOL    HW114600   6.038   1.419   0.905
 4567SOL    HW214601   5.883   1.386   0.945
 4568SOL     OW14602   4.139   4.800   3.881
 4568SOL    HW114603   4.206   4.725   3.880
 4568SOL    HW214604   4.105   4.813   3.974
 4569SOL     OW14605   0.327   2.169   3.149
 4569SOL    HW114606   0.417   2.194   3.115
 4569SOL    HW214607   0.263   2.244   3.133
 4570SOL     OW14608   5.447   5.829   4.625
 4570SOL    HW114609   5.486   5.741   4.598
 4570SOL    HW214610   5.377   5.856   4.559
 4571SOL     OW14611   3.667   2.895   4.239
 4571SOL    HW114612   3.655   2.875   4.141
 4571SOL    HW214613   3.601   2.964   4.267
 4572SOL     OW14614   1.848   5.072   1.753
 4572SOL    HW114615   1.790   5.036   1.679
 4572SOL    HW214616   1.872   4.998   1.815
 4573SOL     OW14617   4.870   0.470   0.891
 4573SOL    HW114618   4.782   0.517   0.880
 4573SOL    HW214619   4.903   0.483   0.984
 4574SOL     OW14620   0.040   4.496   1.611
 4574SOL    HW114621   7.008   4.579   1.590
 4574SOL    HW214622   0.004   4.454   1.694
 4575SOL     OW14623   6.593   6.003   2.024
 4575SOL    HW114624   6.540   6.084   2.048
 4575SOL    HW214625   6.681   6.005   2.072
 4576SOL     OW14626   3.866   6.272   4.202
 4576SOL    HW114627   3.937   6.231   4.144
 4576SOL    HW214628   3.882   6.370   4.209
 4577SOL     OW14629   1.313   3.243   4.157
 4577SOL    HW114630   1.376   3.288   4.092
 4577SOL    HW214631   1.228   3.296   4.162
 4578SOL     OW14632   0.342   5.425   4.000
 4578SOL    HW114633   0.283   5.491   4.045
 4578SOL    HW214634   0.327   5.334   4.038
 4579SOL     OW14635   5.431   1.836   4.910
 4579SOL    HW114636   5.430   1.755   4.969
 4579SOL    HW214637   5.351   1.834   4.849
 4580SOL     OW14638   0.291   5.300   0.026
 4580SOL    HW114639   0.340   5.214   0.040
 4580SOL    HW214640   0.225   5.313   0.099
 4581SOL     OW14641   3.420   6.307   4.280
 4581SOL    HW114642   3.453   6.246   4.208
 4581SOL    HW214643   3.381   6.252   4.355
 4582SOL     OW14644   4.809   6.579   3.142
 4582SOL    HW114645   4.872   6.576   3.064
 4582SOL    HW214646   4.829   6.659   3.198
 4583SOL     OW14647   3.777   1.136   5.382
 4583SOL    HW114648   3.750   1.148   5.286
 4583SOL    HW214649   3.703   1.168   5.442
 4584SOL     OW14650   1.171   4.816   5.719
 4584SOL    HW114651   1.121   4.841   5.636
 4584SOL    HW214652   1.111   4.764   5.779
 4585SOL     OW14653   3.320   6.211   2.136
 4585SOL    HW114654   3.363   6.120   2.143
 4585SOL    HW214655   3.225   6.201   2.107
 4586SOL     OW14656   2.615   6.137   1.686
 4586SOL    HW114657   2.644   6.192   1.608
 4586SOL    HW214658   2.568   6.196   1.752
 4587SOL     OW14659   3.266   4.707   0.667
 4587SOL    HW114660   3.257   4.779   0.597
 4587SOL    HW214661   3.299   4.747   0.752
 4588SOL     OW14662   3.324   3.908   5.073
 4588SOL    HW114663   3.277   3.993   5.046
 4588SOL    HW214664   3.423   3.922   5.068
 4589SOL     OW14665   0.724   1.901   3.158
 4589SOL    HW114666   0.801   1.837   3.156
 4589SOL    HW214667   0.645   1.860   3.111
 4590SOL     OW14668   4.188   6.541   3.055
 4590SOL    HW114669   4.239   6.618   3.094
 4590SOL    HW214670   4.102   6.574   3.015
 4591SOL     OW14671   6.021   6.652   5.016
 4591SOL    HW114672   5.923   6.669   5.020
 4591SOL    HW214673   6.045   6.580   5.082
 4592SOL     OW14674   3.121   1.481   6.108
 4592SOL    HW114675   3.192   1.415   6.083
 4592SOL    HW214676   3.042   1.433   6.146
 4593SOL     OW14677   5.110   6.456   1.686
 4593SOL    HW114678   5.068   6.374   1.726
 4593SOL    HW214679   5.075   6.537   1.732
 4594SOL     OW14680   3.792   1.774   2.341
 4594SOL    HW114681   3.836   1.702   2.288
 4594SOL    HW214682   3.699   1.790   2.306
 4595SOL     OW14683   4.851   3.387   6.059
 4595SOL    HW114684   4.935   3.409   6.009
 4595SOL    HW214685   4.778   3.364   5.995
 4596SOL     OW14686   5.199   0.268   2.251
 4596SOL    HW114687   5.243   0.181   2.271
 4596SOL    HW214688   5.116   0.277   2.306
 4597SOL     OW14689   6.599   4.329   5.602
 4597SOL    HW114690   6.650   4.376   5.674
 4597SOL    HW214691   6.507   4.367   5.596
 4598SOL     OW14692   3.211   4.034   0.316
 4598SOL    HW114693   3.260   3.975   0.251
 4598SOL    HW214694   3.154   3.978   0.375
 4599SOL     OW14695   2.718   5.450   0.456
 4599SOL    HW114696   2.759   5.445   0.365
 4599SOL    HW214697   2.693   5.358   0.486
 4600SOL     OW14698   3.688   4.378   1.365
 4600SOL    HW114699   3.780   4.390   1.329
 4600SOL    HW214700   3.676   4.436   1.445
 4601SOL     OW14701   1.565   5.817   4.179
 4601SOL    HW114702   1.627   5.876   4.232
 4601SOL    HW214703   1.508   5.873   4.120
 4602SOL     OW14704   1.684   0.887   0.987
 4602SOL    HW114705   1.620   0.874   1.063
 4602SOL    HW214706   1.638   0.868   0.901
 4603SOL     OW14707   3.023   1.522   2.002
 4603SOL    HW114708   3.097   1.537   1.936
 4603SOL    HW214709   2.968   1.444   1.972
 4604SOL     OW14710   1.648   0.871   2.388
 4604SOL    HW114711   1.700   0.946   2.429
 4604SOL    HW214712   1.550   0.889   2.398
 4605SOL     OW14713   5.320   6.073   5.581
 4605SOL    HW114714   5.396   6.100   5.641
 4605SOL    HW214715   5.283   6.154   5.535
 4606SOL     OW14716   0.027   5.569   4.900
 4606SOL    HW114717   7.016   5.656   4.861
 4606SOL    HW214718   0.054   5.507   4.827
 4607SOL     OW14719   2.520   2.662   1.119
 4607SOL    HW114720   2.595   2.618   1.169
 4607SOL    HW214721   2.553   2.696   1.031
 4608SOL     OW14722   1.485   3.509   4.996
 4608SOL    HW114723   1.438   3.569   5.061
 4608SOL    HW214724   1.514   3.426   5.043
 4609SOL     OW14725   3.063   6.854   0.375
 4609SOL    HW114726   2.994   6.881   0.308
 4609SOL    HW214727   3.096   6.935   0.424
 4610SOL     OW14728   7.016   3.171   6.591
 4610SOL    HW114729   6.990   3.144   6.498
 4610SOL    HW214730   0.092   3.149   6.606
 4611SOL     OW14731   1.235   4.345   6.633
 4611SOL    HW114732   1.266   4.270   6.575
 4611SOL    HW214733   1.259   4.325   6.728
 4612SOL     OW14734   2.287   0.109   6.328
 4612SOL    HW114735   2.378   0.148   6.332
 4612SOL    HW214736   2.291   0.017   6.287
 4613SOL     OW14737   3.251   4.958   1.718
 4613SOL    HW114738   3.166   4.979   1.670
 4613SOL    HW214739   3.234   4.885   1.785
 4614SOL     OW14740   2.425   4.989   0.063
 4614SOL    HW114741   2.447   4.900   0.023
 4614SOL    HW214742   2.482   5.004   0.144
 4615SOL     OW14743   6.671   3.328   6.969
 4615SOL    HW114744   6.631   3.237   6.977
 4615SOL    HW214745   6.633   3.374   6.889
 4616SOL     OW14746   5.924   0.660   0.297
 4616SOL    HW114747   5.963   0.751   0.311
 4616SOL    HW214748   5.975   0.592   0.349
 4617SOL     OW14749   7.006   3.889   1.940
 4617SOL    HW114750   6.946   3.948   1.886
 4617SOL    HW214751   6.950   3.826   1.994
 4618SOL     OW14752   0.526   2.719   6.305
 4618SOL    HW114753   0.478   2.637   6.335
 4618SOL    HW214754   0.502   2.741   6.211
 4619SOL     OW14755   3.768   0.553   3.502
 4619SOL    HW114756   3.703   0.519   3.570
 4619SOL    HW214757   3.805   0.476   3.450
 4620SOL     OW14758   2.249   5.751   6.548
 4620SOL    HW114759   2.272   5.849   6.547
 4620SOL    HW214760   2.332   5.697   6.540
 4621SOL     OW14761   0.363   0.486   6.241
 4621SOL    HW114762   0.403   0.454   6.327
 4621SOL    HW214763   0.427   0.472   6.166
 4622SOL     OW14764   2.098   3.610   0.543
 4622SOL    HW114765   2.099   3.554   0.626
 4622SOL    HW214766   2.012   3.594   0.494
 4623SOL     OW14767   5.328   4.167   2.738
 4623SOL    HW114768   5.247   4.226   2.739
 4623SOL    HW214769   5.363   4.159   2.645
 4624SOL     OW14770   4.663   6.883   5.607
 4624SOL    HW114771   4.728   6.838   5.669
 4624SOL    HW214772   4.713   6.927   5.532
 4625SOL     OW14773   1.359   3.893   6.369
 4625SOL    HW114774   1.419   3.865   6.294
 4625SOL    HW214775   1.289   3.823   6.384
 4626SOL     OW14776   5.629   5.293   2.094
 4626SOL    HW114777   5.580   5.208   2.114
 4626SOL    HW214778   5.606   5.325   2.002
 4627SOL     OW14779   1.543   0.087   5.577
 4627SOL    HW114780   1.452   0.127   5.591
 4627SOL    HW214781   1.592   0.084   5.664
 4628SOL     OW14782   6.408   2.758   2.279
 4628SOL    HW114783   6.358   2.682   2.237
 4628SOL    HW214784   6.391   2.759   2.377
 4629SOL     OW14785   4.516   4.640   4.267
 4629SOL    HW114786   4.592   4.704   4.257
 4629SOL    HW214787   4.547   4.559   4.316
 4630SOL     OW14788   1.940   6.633   2.239
 4630SOL    HW114789   1.974   6.547   2.277
 4630SOL    HW214790   1.846   6.621   2.208
 4631SOL     OW14791   1.758   0.322   3.086
 4631SOL    HW114792   1.856   0.325   3.101
 4631SOL    HW214793   1.730   0.399   3.029
 4632SOL     OW14794   6.063   5.583   4.153
 4632SOL    HW114795   5.974   5.547   4.183
 4632SOL    HW214796   6.125   5.507   4.134
 4633SOL     OW14797   5.408   2.517   5.682
 4633SOL    HW114798   5.495   2.475   5.658
 4633SOL    HW214799   5.334   2.451   5.669
 4634SOL     OW14800   3.049   4.515   0.629
 4634SOL    HW114801   3.145   4.489   0.637
 4634SOL    HW214802   2.994   4.434   0.604
 4635SOL     OW14803   5.515   3.040   1.779
 4635SOL    HW114804   5.424   3.000   1.767
 4635SOL    HW214805   5.584   2.968   1.778
 4636SOL     OW14806   0.795   5.849   1.526
 4636SOL    HW114807   0.816   5.872   1.431
 4636SOL    HW214808   0.845   5.766   1.552
 4637SOL     OW14809   1.558   0.816   4.305
 4637SOL    HW114810   1.634   0.847   4.247
 4637SOL    HW214811   1.510   0.895   4.342
 4638SOL     OW14812   4.348   4.645   5.727
 4638SOL    HW114813   4.368   4.601   5.814
 4638SOL    HW214814   4.249   4.650   5.713
 4639SOL     OW14815   0.397   2.175   4.611
 4639SOL    HW114816   0.411   2.259   4.663
 4639SOL    HW214817   0.377   2.198   4.515
 4640SOL     OW14818   6.230   4.737   2.907
 4640SOL    HW114819   6.329   4.749   2.916
 4640SOL    HW214820   6.205   4.644   2.937
 4641SOL     OW14821   3.259   3.381   5.532
 4641SOL    HW114822   3.166   3.386   5.497
 4641SOL    HW214823   3.318   3.335   5.465
 4642SOL     OW14824   6.509   6.236   3.708
 4642SOL    HW114825   6.584   6.176   3.681
 4642SOL    HW214826   6.542   6.330   3.719
 4643SOL     OW14827   4.056   3.170   0.610
 4643SOL    HW114828   4.072   3.156   0.513
 4643SOL    HW214829   4.136   3.139   0.662
 4644SOL     OW14830   3.759   4.536   5.384
 4644SOL    HW114831   3.692   4.609   5.381
 4644SOL    HW214832   3.713   4.447   5.387
 4645SOL     OW14833   1.983   6.062   5.138
 4645SOL    HW114834   2.073   6.078   5.098
 4645SOL    HW214835   1.981   6.097   5.231
 4646SOL     OW14836   3.784   0.395   1.367
 4646SOL    HW114837   3.788   0.442   1.456
 4646SOL    HW214838   3.813   0.457   1.295
 4647SOL     OW14839   6.992   0.445   4.904
 4647SOL    HW114840   6.945   0.533   4.914
 4647SOL    HW214841   7.008   0.405   4.994
 4648SOL     OW14842   1.738   5.502   2.817
 4648SOL    HW114843   1.754   5.409   2.783
 4648SOL    HW214844   1.740   5.503   2.917
 4649SOL     OW14845   5.753   6.634   5.882
 4649SOL    HW114846   5.692   6.604   5.956
 4649SOL    HW214847   5.727   6.726   5.853
 4650SOL     OW14848   6.582   4.682   1.486
 4650SOL    HW114849   6.544   4.764   1.530
 4650SOL    HW214850   6.512   4.611   1.484
 4651SOL     OW14851   6.236   2.565   2.204
 4651SOL    HW114852   6.253   2.492   2.271
 4651SOL    HW214853   6.224   2.524   2.113
 4652SOL     OW14854   0.182   5.872   5.380
 4652SOL    HW114855   0.259   5.808   5.383
 4652SOL    HW214856   0.105   5.830   5.333
 4653SOL     OW14857   0.674   5.240   6.636
 4653SOL    HW114858   0.580   5.260   6.663
 4653SOL    HW214859   0.680   5.145   6.605
 4654SOL     OW14860   1.165   1.679   6.613
 4654SOL    HW114861   1.181   1.588   6.574
 4654SOL    HW214862   1.250   1.730   6.614
 4655SOL     OW14863   0.167   5.535   3.501
 4655SOL    HW114864   0.201   5.484   3.580
 4655SOL    HW214865   0.206   5.627   3.501
 4656SOL     OW14866   2.467   6.648   2.722
 4656SOL    HW114867   2.407   6.714   2.768
 4656SOL    HW214868   2.511   6.692   2.644
 4657SOL     OW14869   6.368   0.626   6.081
 4657SOL    HW114870   6.330   0.708   6.124
 4657SOL    HW214871   6.321   0.545   6.117
 4658SOL     OW14872   5.121   0.937   3.971
 4658SOL    HW114873   5.048   0.877   3.938
 4658SOL    HW214874   5.108   1.029   3.935
 4659SOL     OW14875   1.861   2.883   4.488
 4659SOL    HW114876   1.817   2.972   4.478
 4659SOL    HW214877   1.959   2.891   4.471
 4660SOL     OW14878   6.723   1.610   5.341
 4660SOL    HW114879   6.715   1.652   5.432
 4660SOL    HW214880   6.754   1.679   5.275
 4661SOL     OW14881   3.809   2.942   3.202
 4661SOL    HW114882   3.789   2.861   3.147
 4661SOL    HW214883   3.727   2.967   3.254
 4662SOL     OW14884   5.779   0.084   3.566
 4662SOL    HW114885   5.875   0.112   3.569
 4662SOL    HW214886   5.770   7.018   3.517
 4663SOL     OW14887   0.967   2.637   1.896
 4663SOL    HW114888   0.977   2.640   1.995
 4663SOL    HW214889   1.008   2.554   1.860
 4664SOL     OW14890   3.442   3.895   0.170
 4664SOL    HW114891   3.451   3.881   0.269
 4664SOL    HW214892   3.406   3.812   0.128
 4665SOL     OW14893   5.490   0.187   6.818
 4665SOL    HW114894   5.404   0.222   6.854
 4665SOL    HW214895   5.477   0.156   6.724
 4666SOL     OW14896   2.329   2.163   0.440
 4666SOL    HW114897   2.353   2.182   0.535
 4666SOL    HW214898   2.252   2.099   0.436
 4667SOL     OW14899   0.930   5.262   4.578
 4667SOL    HW114900   0.903   5.166   4.584
 4667SOL    HW214901   0.875   5.308   4.507
 4668SOL     OW14902   5.063   0.852   5.487
 4668SOL    HW114903   5.047   0.806   5.399
 4668SOL    HW214904   5.051   0.786   5.561
 4669SOL     OW14905   2.397   1.336   1.761
 4669SOL    HW114906   2.447   1.344   1.847
 4669SOL    HW214907   2.312   1.285   1.777
 4670SOL     OW14908   2.798   1.511   4.702
 4670SOL    HW114909   2.871   1.533   4.767
 4670SOL    HW214910   2.791   1.585   4.634
 4671SOL     OW14911   5.737   2.214   1.889
 4671SOL    HW114912   5.679   2.136   1.868
 4671SOL    HW214913   5.752   2.219   1.988
 4672SOL     OW14914   2.803   2.826   5.362
 4672SOL    HW114915   2.895   2.815   5.323
 4672SOL    HW214916   2.783   2.923   5.372
 4673SOL     OW14917   4.525   0.728   2.279
 4673SOL    HW114918   4.594   0.725   2.352
 4673SOL    HW214919   4.438   0.693   2.314
 4674SOL     OW14920   4.969   6.506   5.112
 4674SOL    HW114921   4.957   6.589   5.167
 4674SOL    HW214922   4.951   6.426   5.169
 4675SOL     OW14923   1.017   4.457   6.464
 4675SOL    HW114924   1.073   4.405   6.527
 4675SOL    HW214925   1.045   4.553   6.465
 4676SOL     OW14926   0.641   4.983   4.014
 4676SOL    HW114927   0.645   4.885   4.028
 4676SOL    HW214928   0.664   5.030   4.099
 4677SOL     OW14929   1.644   3.101   0.275
 4677SOL    HW114930   1.717   3.142   0.330
 4677SOL    HW214931   1.574   3.062   0.334
 4678SOL     OW14932   1.092   4.489   2.070
 4678SOL    HW114933   1.046   4.577   2.087
 4678SOL    HW214934   1.030   4.429   2.020
 4679SOL     OW14935   4.183   0.257   1.909
 4679SOL    HW114936   4.094   0.295   1.884
 4679SOL    HW214937   4.190   0.163   1.875
 4680SOL     OW14938   2.063   0.379   6.563
 4680SOL    HW114939   2.162   0.367   6.568
 4680SOL    HW214940   2.040   0.473   6.590
 4681SOL     OW14941   5.105   5.707   2.381
 4681SOL    HW114942   5.110   5.801   2.347
 4681SOL    HW214943   5.196   5.667   2.384
 4682SOL     OW14944   3.456   3.922   5.854
 4682SOL    HW114945   3.520   3.858   5.811
 4682SOL    HW214946   3.450   4.005   5.798
 4683SOL     OW14947   6.159   4.841   3.688
 4683SOL    HW114948   6.163   4.940   3.680
 4683SOL    HW214949   6.096   4.815   3.762
 4684SOL     OW14950   5.725   6.698   6.430
 4684SOL    HW114951   5.636   6.664   6.458
 4684SOL    HW214952   5.762   6.639   6.357
 4685SOL     OW14953   3.293   4.131   4.340
 4685SOL    HW114954   3.240   4.060   4.386
 4685SOL    HW214955   3.390   4.106   4.344
 4686SOL     OW14956   1.557   0.011   6.785
 4686SOL    HW114957   1.576   6.935   6.801
 4686SOL    HW214958   1.584   0.064   6.865
 4687SOL     OW14959   2.162   0.812   2.786
 4687SOL    HW114960   2.215   0.825   2.702
 4687SOL    HW214961   2.187   0.725   2.828
 4688SOL     OW14962   5.141   2.629   6.170
 4688SOL    HW114963   5.047   2.602   6.192
 4688SOL    HW214964   5.180   2.562   6.107
 4689SOL     OW14965   6.978   1.222   0.752
 4689SOL    HW114966   0.014   1.253   0.829
 4689SOL    HW214967   6.893   1.273   0.749
 4690SOL     OW14968   3.107   2.515   0.873
 4690SOL    HW114969   3.192   2.467   0.851
 4690SOL    HW214970   3.067   2.476   0.956
 4691SOL     OW14971   6.370   3.700   1.897
 4691SOL    HW114972   6.405   3.649   1.819
 4691SOL    HW214973   6.270   3.703   1.893
 4692SOL     OW14974   5.210   2.911   2.845
 4692SOL    HW114975   5.276   2.976   2.883
 4692SOL    HW214976   5.237   2.818   2.870
 4693SOL     OW14977   0.770   0.447   2.482
 4693SOL    HW114978   0.829   0.370   2.456
 4693SOL    HW214979   0.826   0.525   2.508
 4694SOL     OW14980   1.855   0.133   6.519
 4694SOL    HW114981   1.848   0.220   6.569
 4694SOL    HW214982   1.949   0.100   6.523
 4695SOL     OW14983   2.418   5.003   2.338
 4695SOL    HW114984   2.505   4.977   2.381
 4695SOL    HW214985   2.436   5.045   2.249
 4696SOL     OW14986   1.472   6.505   5.964
 4696SOL    HW114987   1.432   6.478   5.876
 4696SOL    HW214988   1.520   6.427   6.004
 4697SOL     OW14989   4.367   5.709   1.648
 4697SOL    HW114990   4.380   5.632   1.585
 4697SOL    HW214991   4.448   5.767   1.648
 4698SOL     OW14992   5.757   1.097   4.561
 4698SOL    HW114993   5.739   1.038   4.639
 4698SOL    HW214994   5.745   1.045   4.476
 4699SOL     OW14995   1.293   1.181   2.742
 4699SOL    HW114996   1.314   1.222   2.653
 4699SOL    HW214997   1.341   1.231   2.814
 4700SOL     OW14998   6.231   1.621   3.142
 4700SOL    HW114999   6.187   1.609   3.053
 4700SOL    HW215000   6.161   1.612   3.214
 4701SOL     OW15001   3.144   2.612   1.713
 4701SOL    HW115002   3.067   2.575   1.765
 4701SOL    HW215003   3.177   2.695   1.757
 4702SOL     OW15004   6.050   5.306   0.098
 4702SOL    HW115005   6.095   5.390   0.127
 4702SOL    HW215006   6.085   5.229   0.152
 4703SOL     OW15007   0.742   5.724   3.568
 4703SOL    HW115008   0.789   5.780   3.636
 4703SOL    HW215009   0.717   5.636   3.608
 4704SOL     OW15010   1.279   5.176   4.123
 4704SOL    HW115011   1.244   5.270   4.124
 4704SOL    HW215012   1.334   5.160   4.205
 4705SOL     OW15013   3.700   2.007   1.818
 4705SOL    HW115014   3.678   2.085   1.875
 4705SOL    HW215015   3.782   2.027   1.764
 4706SOL     OW15016   2.394   0.658   1.027
 4706SOL    HW115017   2.443   0.744   1.039
 4706SOL    HW215018   2.306   0.662   1.074
 4707SOL     OW15019   1.439   5.430   2.196
 4707SOL    HW115020   1.388   5.437   2.282
 4707SOL    HW215021   1.417   5.344   2.151
 4708SOL     OW15022   1.499   2.828   5.303
 4708SOL    HW115023   1.570   2.852   5.236
 4708SOL    HW215024   1.540   2.822   5.394
 4709SOL     OW15025   5.971   3.967   5.731
 4709SOL    HW115026   6.060   3.972   5.687
 4709SOL    HW215027   5.902   4.011   5.674
 4710SOL     OW15028   6.367   5.964   5.115
 4710SOL    HW115029   6.341   5.893   5.180
 4710SOL    HW215030   6.285   6.012   5.083
 4711SOL     OW15031   4.786   4.608   2.412
 4711SOL    HW115032   4.735   4.523   2.398
 4711SOL    HW215033   4.874   4.602   2.366
 4712SOL     OW15034   4.373   4.379   5.630
 4712SOL    HW115035   4.341   4.469   5.659
 4712SOL    HW215036   4.472   4.379   5.623
 4713SOL     OW15037   5.376   3.828   1.009
 4713SOL    HW115038   5.421   3.871   0.931
 4713SOL    HW215039   5.424   3.853   1.093
 4714SOL     OW15040   4.499   2.322   6.831
 4714SOL    HW115041   4.462   2.232   6.806
 4714SOL    HW215042   4.546   2.315   6.919
 4715SOL     OW15043   6.671   1.330   1.794
 4715SOL    HW115044   6.714   1.330   1.884
 4715SOL    HW215045   6.722   1.270   1.732
 4716SOL     OW15046   3.729   4.471   5.730
 4716SOL    HW115047   3.788   4.549   5.749
 4716SOL    HW215048   3.659   4.498   5.664
 4717SOL     OW15049   1.920   4.840   5.714
 4717SOL    HW115050   1.963   4.763   5.668
 4717SOL    HW215051   1.903   4.817   5.810
 4718SOL     OW15052   4.932   4.480   1.520
 4718SOL    HW115053   4.865   4.416   1.483
 4718SOL    HW215054   4.887   4.544   1.582
 4719SOL     OW15055   6.606   4.555   3.912
 4719SOL    HW115056   6.506   4.558   3.914
 4719SOL    HW215057   6.642   4.643   3.881
 4720SOL     OW15058   2.595   3.184   6.888
 4720SOL    HW115059   2.509   3.226   6.858
 4720SOL    HW215060   2.590   3.085   6.876
 4721SOL     OW15061   0.713   2.972   3.505
 4721SOL    HW115062   0.647   3.047   3.496
 4721SOL    HW215063   0.793   3.004   3.556
 4722SOL     OW15064   1.166   5.549   6.817
 4722SOL    HW115065   1.124   5.513   6.733
 4722SOL    HW215066   1.146   5.488   6.893
 4723SOL     OW15067   3.101   5.127   6.860
 4723SOL    HW115068   3.022   5.162   6.810
 4723SOL    HW215069   3.136   5.198   6.921
 4724SOL     OW15070   1.046   0.287   4.064
 4724SOL    HW115071   1.008   0.340   4.139
 4724SOL    HW215072   1.031   0.335   3.978
 4725SOL     OW15073   5.597   4.993   0.918
 4725SOL    HW115074   5.497   4.982   0.922
 4725SOL    HW215075   5.632   5.012   1.010
 4726SOL     OW15076   2.000   2.795   5.162
 4726SOL    HW115077   2.095   2.767   5.178
 4726SOL    HW215078   1.972   2.859   5.234
 4727SOL     OW15079   6.237   4.525   1.380
 4727SOL    HW115080   6.190   4.450   1.333
 4727SOL    HW215081   6.307   4.487   1.442
 4728SOL     OW15082   5.652   1.817   4.251
 4728SOL    HW115083   5.562   1.801   4.210
 4728SOL    HW215084   5.645   1.892   4.317
 4729SOL     OW15085   5.583   1.234   2.019
 4729SOL    HW115086   5.679   1.263   2.017
 4729SOL    HW215087   5.525   1.311   1.992
 4730SOL     OW15088   3.929   0.773   3.484
 4730SOL    HW115089   4.023   0.758   3.453
 4730SOL    HW215090   3.880   0.686   3.484
 4731SOL     OW15091   3.128   6.888   1.211
 4731SOL    HW115092   3.139   6.976   1.257
 4731SOL    HW215093   3.103   6.904   1.115
 4732SOL     OW15094   0.084   4.991   4.650
 4732SOL    HW115095   0.107   5.087   4.662
 4732SOL    HW215096   0.156   4.934   4.690
 4733SOL     OW15097   1.632   4.304   2.580
 4733SOL    HW115098   1.629   4.224   2.639
 4733SOL    HW215099   1.546   4.311   2.529
 4734SOL     OW15100   4.542   4.201   6.774
 4734SOL    HW115101   4.604   4.123   6.783
 4734SOL    HW215102   4.582   4.281   6.817
 4735SOL     OW15103   0.183   0.453   4.738
 4735SOL    HW115104   0.098   0.439   4.788
 4735SOL    HW215105   0.213   0.366   4.699
 4736SOL     OW15106   5.840   1.388   3.986
 4736SOL    HW115107   5.745   1.409   4.010
 4736SOL    HW215108   5.895   1.472   3.988
 4737SOL     OW15109   2.151   5.042   0.357
 4737SOL    HW115110   2.227   4.982   0.382
 4737SOL    HW215111   2.069   4.988   0.342
 4738SOL     OW15112   0.599   5.688   4.214
 4738SOL    HW115113   0.572   5.783   4.196
 4738SOL    HW215114   0.557   5.657   4.299
 4739SOL     OW15115   5.909   3.587   3.165
 4739SOL    HW115116   5.831   3.561   3.109
 4739SOL    HW215117   5.993   3.551   3.123
 4740SOL     OW15118   1.225   6.702   0.502
 4740SOL    HW115119   1.176   6.617   0.484
 4740SOL    HW215120   1.320   6.682   0.526
 4741SOL     OW15121   5.723   4.613   1.157
 4741SOL    HW115122   5.691   4.526   1.120
 4741SOL    HW215123   5.816   4.603   1.192
 4742SOL     OW15124   2.550   5.565   2.402
 4742SOL    HW115125   2.619   5.578   2.331
 4742SOL    HW215126   2.512   5.473   2.396
 4743SOL     OW15127   2.650   3.514   0.808
 4743SOL    HW115128   2.606   3.584   0.753
 4743SOL    HW215129   2.750   3.526   0.803
 4744SOL     OW15130   2.598   1.831   5.653
 4744SOL    HW115131   2.602   1.800   5.558
 4744SOL    HW215132   2.589   1.930   5.656
 4745SOL     OW15133   4.473   5.486   4.655
 4745SOL    HW115134   4.534   5.561   4.679
 4745SOL    HW215135   4.478   5.469   4.556
 4746SOL     OW15136   5.737   1.033   1.462
 4746SOL    HW115137   5.767   0.938   1.465
 4746SOL    HW215138   5.746   1.074   1.552
 4747SOL     OW15139   0.634   2.797   2.137
 4747SOL    HW115140   0.540   2.804   2.105
 4747SOL    HW215141   0.684   2.735   2.077
 4748SOL     OW15142   2.153   0.320   0.771
 4748SOL    HW115143   2.066   0.369   0.773
 4748SOL    HW215144   2.162   0.271   0.684
 4749SOL     OW15145   2.953   0.252   0.078
 4749SOL    HW115146   2.952   0.229   0.175
 4749SOL    HW215147   2.861   0.239   0.040
 4750SOL     OW15148   0.759   1.786   4.606
 4750SOL    HW115149   0.718   1.875   4.626
 4750SOL    HW215150   0.789   1.783   4.511
 4751SOL     OW15151   0.945   3.566   6.097
 4751SOL    HW115152   0.873   3.543   6.163
 4751SOL    HW215153   1.028   3.517   6.120
 4752SOL     OW15154   2.099   5.765   1.389
 4752SOL    HW115155   2.019   5.705   1.377
 4752SOL    HW215156   2.081   5.831   1.461
 4753SOL     OW15157   0.498   6.810   5.724
 4753SOL    HW115158   0.467   6.718   5.701
 4753SOL    HW215159   0.464   6.875   5.655
 4754SOL     OW15160   0.841   0.600   6.123
 4754SOL    HW115161   0.810   0.505   6.120
 4754SOL    HW215162   0.774   0.655   6.172
 4755SOL     OW15163   3.009   0.403   1.594
 4755SOL    HW115164   3.087   0.350   1.629
 4755SOL    HW215165   2.963   0.448   1.670
 4756SOL     OW15166   5.421   2.583   1.464
 4756SOL    HW115167   5.342   2.637   1.492
 4756SOL    HW215168   5.480   2.638   1.404
 4757SOL     OW15169   2.738   1.623   1.129
 4757SOL    HW115170   2.647   1.616   1.089
 4757SOL    HW215171   2.807   1.613   1.057
 4758SOL     OW15172   5.500   3.496   5.831
 4758SOL    HW115173   5.557   3.509   5.912
 4758SOL    HW215174   5.556   3.461   5.756
 4759SOL     OW15175   6.198   4.037   6.342
 4759SOL    HW115176   6.109   4.013   6.302
 4759SOL    HW215177   6.254   4.083   6.273
 4760SOL     OW15178   2.130   2.888   0.679
 4760SOL    HW115179   2.115   2.987   0.687
 4760SOL    HW215180   2.215   2.863   0.726
 4761SOL     OW15181   1.870   5.653   6.092
 4761SOL    HW115182   1.906   5.612   6.008
 4761SOL    HW215183   1.868   5.753   6.082
 4762SOL     OW15184   3.688   6.803   2.064
 4762SOL    HW115185   3.591   6.785   2.076
 4762SOL    HW215186   3.716   6.879   2.123
 4763SOL     OW15187   5.885   5.732   5.252
 4763SOL    HW115188   5.866   5.795   5.176
 4763SOL    HW215189   5.838   5.645   5.236
 4764SOL     OW15190   3.892   3.434   4.154
 4764SOL    HW115191   3.974   3.402   4.202
 4764SOL    HW215192   3.908   3.526   4.118
 4765SOL     OW15193   6.282   5.640   6.239
 4765SOL    HW115194   6.296   5.573   6.166
 4765SOL    HW215195   6.300   5.732   6.203
 4766SOL     OW15196   3.356   0.573   3.623
 4766SOL    HW115197   3.285   0.601   3.558
 4766SOL    HW215198   3.318   0.571   3.715
 4767SOL     OW15199   3.862   6.622   6.874
 4767SOL    HW115200   3.838   6.543   6.817
 4767SOL    HW215201   3.804   6.699   6.850
 4768SOL     OW15202   1.211   0.953   4.659
 4768SOL    HW115203   1.255   0.876   4.613
 4768SOL    HW215204   1.161   0.920   4.739
 4769SOL     OW15205   4.303   0.902   1.920
 4769SOL    HW115206   4.215   0.894   1.872
 4769SOL    HW215207   4.334   0.997   1.917
 4770SOL     OW15208   1.974   0.796   3.757
 4770SOL    HW115209   1.893   0.852   3.739
 4770SOL    HW215210   1.995   0.741   3.677
 4771SOL     OW15211   4.202   4.216   5.332
 4771SOL    HW115212   4.210   4.299   5.277
 4771SOL    HW215213   4.161   4.143   5.277
 4772SOL     OW15214   2.339   3.137   6.777
 4772SOL    HW115215   2.291   3.221   6.802
 4772SOL    HW215216   2.281   3.058   6.798
 4773SOL     OW15217   0.229   5.237   4.289
 4773SOL    HW115218   0.257   5.185   4.208
 4773SOL    HW215219   0.129   5.243   4.292
 4774SOL     OW15220   1.744   4.159   6.786
 4774SOL    HW115221   1.670   4.150   6.853
 4774SOL    HW215222   1.706   4.149   6.693
 4775SOL     OW15223   2.038   1.828   2.299
 4775SOL    HW115224   2.101   1.867   2.232
 4775SOL    HW215225   2.059   1.732   2.313
 4776SOL     OW15226   4.097   4.822   2.295
 4776SOL    HW115227   4.045   4.748   2.253
 4776SOL    HW215228   4.078   4.824   2.393
 4777SOL     OW15229   2.893   3.878   1.638
 4777SOL    HW115230   2.921   3.842   1.727
 4777SOL    HW215231   2.974   3.895   1.582
 4778SOL     OW15232   5.146   3.712   2.824
 4778SOL    HW115233   5.219   3.682   2.886
 4778SOL    HW215234   5.154   3.663   2.737
 4779SOL     OW15235   4.757   1.215   2.894
 4779SOL    HW115236   4.683   1.154   2.865
 4779SOL    HW215237   4.718   1.302   2.924
 4780SOL     OW15238   1.737   0.337   5.443
 4780SOL    HW115239   1.711   0.259   5.386
 4780SOL    HW215240   1.789   0.402   5.389
 4781SOL     OW15241   2.228   5.742   2.707
 4781SOL    HW115242   2.255   5.811   2.774
 4781SOL    HW215243   2.236   5.779   2.615
 4782SOL     OW15244   6.010   5.682   0.248
 4782SOL    HW115245   6.104   5.652   0.234
 4782SOL    HW215246   5.996   5.771   0.205
 4783SOL     OW15247   6.210   3.879   2.527
 4783SOL    HW115248   6.159   3.835   2.601
 4783SOL    HW215249   6.270   3.812   2.483
 4784SOL     OW15250   5.442   4.376   5.439
 4784SOL    HW115251   5.404   4.373   5.531
 4784SOL    HW215252   5.388   4.318   5.378
 4785SOL     OW15253   5.857   6.968   0.282
 4785SOL    HW115254   5.823   6.951   0.374
 4785SOL    HW215255   5.803   6.914   0.217
 4786SOL     OW15256   1.159   3.198   2.166
 4786SOL    HW115257   1.104   3.280   2.180
 4786SOL    HW215258   1.253   3.215   2.195
 4787SOL     OW15259   4.611   2.084   3.012
 4787SOL    HW115260   4.535   2.026   3.041
 4787SOL    HW215261   4.583   2.139   2.934
 4788SOL     OW15262   2.333   6.545   5.060
 4788SOL    HW115263   2.325   6.592   5.148
 4788SOL    HW215264   2.405   6.476   5.065
 4789SOL     OW15265   5.271   6.581   0.637
 4789SOL    HW115266   5.241   6.496   0.595
 4789SOL    HW215267   5.229   6.659   0.589
 4790SOL     OW15268   5.355   6.910   6.694
 4790SOL    HW115269   5.390   6.818   6.710
 4790SOL    HW215270   5.293   6.936   6.769
 4791SOL     OW15271   4.821   1.846   3.725
 4791SOL    HW115272   4.913   1.863   3.761
 4791SOL    HW215273   4.829   1.804   3.634
 4792SOL     OW15274   3.203   2.311   1.240
 4792SOL    HW115275   3.289   2.262   1.227
 4792SOL    HW215276   3.200   2.352   1.331
 4793SOL     OW15277   0.638   6.833   6.752
 4793SOL    HW115278   0.724   6.820   6.702
 4793SOL    HW215279   0.657   6.840   6.850
 4794SOL     OW15280   5.191   1.251   1.870
 4794SOL    HW115281   5.192   1.165   1.921
 4794SOL    HW215282   5.097   1.276   1.849
 4795SOL     OW15283   6.192   3.231   4.164
 4795SOL    HW115284   6.289   3.212   4.183
 4795SOL    HW215285   6.144   3.145   4.149
 4796SOL     OW15286   5.736   3.746   1.003
 4796SOL    HW115287   5.799   3.818   0.974
 4796SOL    HW215288   5.703   3.766   1.095
 4797SOL     OW15289   0.833   5.022   4.543
 4797SOL    HW115290   0.827   4.962   4.463
 4797SOL    HW215291   0.895   4.982   4.611
 4798SOL     OW15292   6.745   5.214   5.862
 4798SOL    HW115293   6.747   5.301   5.813
 4798SOL    HW215294   6.741   5.231   5.960
 4799SOL     OW15295   4.818   0.783   5.056
 4799SOL    HW115296   4.721   0.786   5.080
 4799SOL    HW215297   4.854   0.877   5.054
 4800SOL     OW15298   2.114   2.977   4.045
 4800SOL    HW115299   2.093   3.073   4.059
 4800SOL    HW215300   2.152   2.938   4.130
 4801SOL     OW15301   0.695   2.747   0.586
 4801SOL    HW115302   0.715   2.754   0.684
 4801SOL    HW215303   0.733   2.826   0.539
 4802SOL     OW15304   1.926   0.390   1.650
 4802SOL    HW115305   1.980   0.471   1.674
 4802SOL    HW215306   1.866   0.365   1.726
 4803SOL     OW15307   1.053   0.824   0.832
 4803SOL    HW115308   1.009   0.790   0.915
 4803SOL    HW215309   1.146   0.789   0.827
 4804SOL     OW15310   4.222   5.917   6.767
 4804SOL    HW115311   4.249   5.984   6.836
 4804SOL    HW215312   4.142   5.867   6.799
 4805SOL     OW15313   0.133   0.395   1.326
 4805SOL    HW115314   0.069   0.471   1.332
 4805SOL    HW215315   0.222   0.429   1.294
 4806SOL     OW15316   6.947   2.685   3.939
 4806SOL    HW115317   6.880   2.760   3.945
 4806SOL    HW215318   6.984   2.682   3.846
 4807SOL     OW15319   0.921   6.790   2.104
 4807SOL    HW115320   0.950   6.821   2.194
 4807SOL    HW215321   0.967   6.704   2.082
 4808SOL     OW15322   5.533   3.166   0.910
 4808SOL    HW115323   5.582   3.086   0.943
 4808SOL    HW215324   5.479   3.142   0.830
 4809SOL     OW15325   4.210   6.678   0.460
 4809SOL    HW115326   4.134   6.669   0.525
 4809SOL    HW215327   4.216   6.773   0.429
 4810SOL     OW15328   1.745   6.884   0.958
 4810SOL    HW115329   1.805   6.807   0.977
 4810SOL    HW215330   1.793   6.970   0.978
 4811SOL     OW15331   5.554   4.697   3.079
 4811SOL    HW115332   5.645   4.677   3.043
 4811SOL    HW215333   5.509   4.612   3.106
 4812SOL     OW15334   6.170   5.019   4.373
 4812SOL    HW115335   6.109   4.957   4.423
 4812SOL    HW215336   6.164   5.111   4.411
 4813SOL     OW15337   5.862   3.310   2.812
 4813SOL    HW115338   5.839   3.220   2.850
 4813SOL    HW215339   5.936   3.301   2.747
 4814SOL     OW15340   6.406   3.277   1.384
 4814SOL    HW115341   6.387   3.189   1.341
 4814SOL    HW215342   6.339   3.344   1.354
 4815SOL     OW15343   4.498   0.765   3.071
 4815SOL    HW115344   4.468   0.752   2.977
 4815SOL    HW215345   4.441   0.835   3.114
 4816SOL     OW15346   5.497   4.255   3.428
 4816SOL    HW115347   5.490   4.225   3.333
 4816SOL    HW215348   5.592   4.249   3.458
 4817SOL     OW15349   6.929   1.696   0.051
 4817SOL    HW115350   7.002   1.764   0.041
 4817SOL    HW215351   6.842   1.735   0.020
 4818SOL     OW15352   0.382   6.197   3.578
 4818SOL    HW115353   0.476   6.204   3.611
 4818SOL    HW215354   0.320   6.232   3.648
 4819SOL     OW15355   2.603   2.775   0.852
 4819SOL    HW115356   2.692   2.739   0.881
 4819SOL    HW215357   2.590   2.756   0.755
 4820SOL     OW15358   0.313   3.114   2.723
 4820SOL    HW115359   0.333   3.016   2.731
 4820SOL    HW215360   0.388   3.159   2.674
 4821SOL     OW15361   0.423   5.958   3.724
 4821SOL    HW115362   0.390   6.009   3.803
 4821SOL    HW215363   0.507   6.000   3.690
 4822SOL     OW15364   2.521   4.551   4.252
 4822SOL    HW115365   2.522   4.639   4.205
 4822SOL    HW215366   2.454   4.554   4.326
 4823SOL     OW15367   2.327   2.803   0.866
 4823SOL    HW115368   2.293   2.801   0.960
 4823SOL    HW215369   2.427   2.803   0.867
 4824SOL     OW15370   6.439   1.790   0.233
 4824SOL    HW115371   6.529   1.795   0.277
 4824SOL    HW215372   6.373   1.840   0.289
 4825SOL     OW15373   1.472   6.770   4.208
 4825SOL    HW115374   1.419   6.763   4.292
 4825SOL    HW215375   1.566   6.796   4.230
 4826SOL     OW15376   3.931   6.531   1.153
 4826SOL    HW115377   3.963   6.555   1.061
 4826SOL    HW215378   3.954   6.435   1.171
 4827SOL     OW15379   6.574   1.263   1.151
 4827SOL    HW115380   6.667   1.270   1.114
 4827SOL    HW215381   6.541   1.354   1.177
 4828SOL     OW15382   5.279   1.035   5.881
 4828SOL    HW115383   5.189   1.074   5.861
 4828SOL    HW215384   5.337   1.042   5.799
 4829SOL     OW15385   4.119   6.151   5.549
 4829SOL    HW115386   4.175   6.210   5.491
 4829SOL    HW215387   4.041   6.204   5.584
 4830SOL     OW15388   1.846   6.584   3.594
 4830SOL    HW115389   1.832   6.683   3.602
 4830SOL    HW215390   1.930   6.558   3.641
 4831SOL     OW15391   3.565   4.664   5.610
 4831SOL    HW115392   3.594   4.741   5.554
 4831SOL    HW215393   3.469   4.643   5.590
 4832SOL     OW15394   4.140   3.672   4.949
 4832SOL    HW115395   4.071   3.741   4.927
 4832SOL    HW215396   4.149   3.608   4.872
 4833SOL     OW15397   6.207   2.088   5.826
 4833SOL    HW115398   6.250   2.140   5.752
 4833SOL    HW215399   6.110   2.076   5.806
 4834SOL     OW15400   0.261   5.895   1.388
 4834SOL    HW115401   0.310   5.810   1.367
 4834SOL    HW215402   0.274   5.918   1.485
 4835SOL     OW15403   0.339   3.478   6.653
 4835SOL    HW115404   0.348   3.457   6.556
 4835SOL    HW215405   0.344   3.577   6.667
 4836SOL     OW15406   4.364   2.147   5.668
 4836SOL    HW115407   4.432   2.077   5.646
 4836SOL    HW215408   4.387   2.189   5.756
 4837SOL     OW15409   1.412   3.941   4.319
 4837SOL    HW115410   1.329   3.995   4.308
 4837SOL    HW215411   1.436   3.937   4.416
 4838SOL     OW15412   1.585   4.001   5.947
 4838SOL    HW115413   1.516   3.969   5.882
 4838SOL    HW215414   1.670   4.019   5.898
 4839SOL     OW15415   2.851   1.623   1.488
 4839SOL    HW115416   2.773   1.577   1.445
 4839SOL    HW215417   2.819   1.680   1.564
 4840SOL     OW15418   4.989   2.833   5.337
 4840SOL    HW115419   5.044   2.890   5.277
 4840SOL    HW215420   5.024   2.841   5.431
 4841SOL     OW15421   2.486   6.479   2.945
 4841SOL    HW115422   2.476   6.543   2.869
 4841SOL    HW215423   2.521   6.528   3.025
 4842SOL     OW15424   4.078   5.801   3.599
 4842SOL    HW115425   4.135   5.819   3.518
 4842SOL    HW215426   4.137   5.771   3.674
 4843SOL     OW15427   6.328   1.558   1.026
 4843SOL    HW115428   6.333   1.650   0.989
 4843SOL    HW215429   6.366   1.493   0.960
 4844SOL     OW15430   1.595   5.007   6.864
 4844SOL    HW115431   1.497   5.027   6.865
 4844SOL    HW215432   1.641   5.067   6.799
 4845SOL     OW15433   4.896   3.854   4.826
 4845SOL    HW115434   4.885   3.839   4.728
 4845SOL    HW215435   4.855   3.778   4.876
 4846SOL     OW15436   6.745   3.727   4.728
 4846SOL    HW115437   6.673   3.787   4.764
 4846SOL    HW215438   6.783   3.672   4.802
 4847SOL     OW15439   3.196   6.658   0.150
 4847SOL    HW115440   3.183   6.703   0.238
 4847SOL    HW215441   3.249   6.717   0.089
 4848SOL     OW15442   5.045   1.837   3.923
 4848SOL    HW115443   5.101   1.804   3.847
 4848SOL    HW215444   5.088   1.917   3.964
 4849SOL     OW15445   2.268   6.085   1.612
 4849SOL    HW115446   2.247   6.180   1.635
 4849SOL    HW215447   2.185   6.039   1.580
 4850SOL     OW15448   3.078   6.483   1.779
 4850SOL    HW115449   3.020   6.519   1.705
 4850SOL    HW215450   3.039   6.510   1.867
 4851SOL     OW15451   4.529   4.820   0.011
 4851SOL    HW115452   4.534   4.790   6.936
 4851SOL    HW215453   4.483   4.909   0.016
 4852SOL     OW15454   4.992   4.409   6.019
 4852SOL    HW115455   4.919   4.415   5.951
 4852SOL    HW215456   5.080   4.402   5.973
 4853SOL     OW15457   4.131   0.361   2.992
 4853SOL    HW115458   4.211   0.335   3.046
 4853SOL    HW215459   4.161   0.414   2.912
 4854SOL     OW15460   4.240   6.705   2.336
 4854SOL    HW115461   4.246   6.625   2.276
 4854SOL    HW215462   4.161   6.760   2.308
 4855SOL     OW15463   4.854   5.011   5.680
 4855SOL    HW115464   4.950   4.985   5.691
 4855SOL    HW215465   4.840   5.052   5.590
 4856SOL     OW15466   0.478   2.509   3.043
 4856SOL    HW115467   0.510   2.450   2.969
 4856SOL    HW215468   0.516   2.600   3.033
 4857SOL     OW15469   1.766   2.219   4.989
 4857SOL    HW115470   1.738   2.126   5.014
 4857SOL    HW215471   1.685   2.271   4.959
 4858SOL     OW15472   1.602   5.267   4.917
 4858SOL    HW115473   1.529   5.334   4.929
 4858SOL    HW215474   1.600   5.231   4.824
 4859SOL     OW15475   6.545   5.882   3.476
 4859SOL    HW115476   6.582   5.806   3.422
 4859SOL    HW215477   6.460   5.853   3.519
 4860SOL     OW15478   3.790   5.436   1.759
 4860SOL    HW115479   3.804   5.360   1.823
 4860SOL    HW215480   3.713   5.415   1.699
 4861SOL     OW15481   6.757   4.987   5.732
 4861SOL    HW115482   6.715   4.988   5.641
 4861SOL    HW215483   6.737   5.072   5.779
 4862SOL     OW15484   2.121   6.038   4.440
 4862SOL    HW115485   2.183   5.986   4.380
 4862SOL    HW215486   2.039   6.063   4.389
 4863SOL     OW15487   5.822   1.339   2.003
 4863SOL    HW115488   5.883   1.348   1.924
 4863SOL    HW215489   5.824   1.424   2.056
 4864SOL     OW15490   2.067   2.550   1.500
 4864SOL    HW115491   2.016   2.621   1.548
 4864SOL    HW215492   2.065   2.569   1.402
 4865SOL     OW15493   4.070   6.418   5.229
 4865SOL    HW115494   3.989   6.370   5.263
 4865SOL    HW215495   4.117   6.462   5.306
 4866SOL     OW15496   0.409   5.417   1.641
 4866SOL    HW115497   0.504   5.394   1.622
 4866SOL    HW215498   0.405   5.504   1.690
 4867SOL     OW15499   5.561   4.935   4.992
 4867SOL    HW115500   5.588   4.980   4.907
 4867SOL    HW215501   5.600   4.844   4.996
 4868SOL     OW15502   1.615   5.799   1.766
 4868SOL    HW115503   1.570   5.728   1.820
 4868SOL    HW215504   1.711   5.804   1.792
 4869SOL     OW15505   6.519   1.140   2.087
 4869SOL    HW115506   6.598   1.190   2.051
 4869SOL    HW215507   6.540   1.106   2.178
 4870SOL     OW15508   6.409   0.848   0.955
 4870SOL    HW115509   6.332   0.890   0.907
 4870SOL    HW215510   6.440   0.909   1.029
 4871SOL     OW15511   1.586   3.645   4.566
 4871SOL    HW115512   1.619   3.723   4.618
 4871SOL    HW215513   1.558   3.675   4.474
 4872SOL     OW15514   1.289   2.049   3.714
 4872SOL    HW115515   1.215   1.990   3.746
 4872SOL    HW215516   1.336   2.006   3.637
 4873SOL     OW15517   1.192   6.648   5.233
 4873SOL    HW115518   1.202   6.734   5.184
 4873SOL    HW215519   1.282   6.614   5.261
 4874SOL     OW15520   5.879   2.537   3.427
 4874SOL    HW115521   5.962   2.512   3.478
 4874SOL    HW215522   5.805   2.557   3.492
 4875SOL     OW15523   0.347   2.868   6.874
 4875SOL    HW115524   0.428   2.833   6.826
 4875SOL    HW215525   0.307   2.943   6.821
 4876SOL     OW15526   0.063   1.441   0.009
 4876SOL    HW115527   0.035   1.532   0.040
 4876SOL    HW215528   0.123   1.450   6.950
 4877SOL     OW15529   5.137   1.840   1.842
 4877SOL    HW115530   5.135   1.906   1.766
 4877SOL    HW215531   5.048   1.839   1.887
 4878SOL     OW15532   1.173   3.069   1.503
 4878SOL    HW115533   1.240   3.059   1.577
 4878SOL    HW215534   1.124   2.983   1.491
 4879SOL     OW15535   4.483   5.776   3.512
 4879SOL    HW115536   4.493   5.679   3.489
 4879SOL    HW215537   4.405   5.814   3.464
 4880SOL     OW15538   5.997   1.686   5.705
 4880SOL    HW115539   5.986   1.785   5.695
 4880SOL    HW215540   5.907   1.644   5.716
 4881SOL     OW15541   2.542   5.692   5.882
 4881SOL    HW115542   2.505   5.634   5.809
 4881SOL    HW215543   2.489   5.777   5.886
 4882SOL     OW15544   5.326   5.885   6.966
 4882SOL    HW115545   5.372   5.950   0.007
 4882SOL    HW215546   5.358   5.900   6.872
 4883SOL     OW15547   6.192   5.154   6.369
 4883SOL    HW115548   6.140   5.230   6.406
 4883SOL    HW215549   6.290   5.174   6.375
 4884SOL     OW15550   3.696   6.392   1.907
 4884SOL    HW115551   3.606   6.390   1.951
 4884SOL    HW215552   3.704   6.475   1.852
 4885SOL     OW15553   1.441   0.340   1.975
 4885SOL    HW115554   1.506   0.360   2.048
 4885SOL    HW215555   1.434   0.420   1.914
 4886SOL     OW15556   6.041   0.490   5.413
 4886SOL    HW115557   5.972   0.456   5.477
 4886SOL    HW215558   6.129   0.496   5.459
 4887SOL     OW15559   1.048   1.825   5.242
 4887SOL    HW115560   1.048   1.853   5.146
 4887SOL    HW215561   1.137   1.787   5.266
 4888SOL     OW15562   3.580   5.882   1.654
 4888SOL    HW115563   3.525   5.827   1.717
 4888SOL    HW215564   3.676   5.857   1.664
 4889SOL     OW15565   1.235   3.494   6.739
 4889SOL    HW115566   1.255   3.589   6.762
 4889SOL    HW215567   1.179   3.491   6.656
 4890SOL     OW15568   0.337   0.542   4.149
 4890SOL    HW115569   0.272   0.604   4.193
 4890SOL    HW215570   0.368   0.474   4.215
 4891SOL     OW15571   0.873   4.304   0.614
 4891SOL    HW115572   0.932   4.224   0.630
 4891SOL    HW215573   0.788   4.294   0.665
 4892SOL     OW15574   2.101   5.484   2.079
 4892SOL    HW115575   2.062   5.536   2.003
 4892SOL    HW215576   2.149   5.403   2.044
 4893SOL     OW15577   0.134   3.848   6.465
 4893SOL    HW115578   0.131   3.758   6.509
 4893SOL    HW215579   0.121   3.837   6.367
 4894SOL     OW15580   0.642   6.897   3.060
 4894SOL    HW115581   0.698   6.977   3.039
 4894SOL    HW215582   0.694   6.814   3.043
 4895SOL     OW15583   6.337   3.906   6.742
 4895SOL    HW115584   6.433   3.922   6.720
 4895SOL    HW215585   6.310   3.814   6.713
 4896SOL     OW15586   4.425   0.059   4.267
 4896SOL    HW115587   4.501   0.006   4.230
 4896SOL    HW215588   4.427   0.152   4.228
 4897SOL     OW15589   2.782   6.189   6.542
 4897SOL    HW115590   2.739   6.123   6.603
 4897SOL    HW215591   2.732   6.191   6.455
 4898SOL     OW15592   5.812   2.105   4.760
 4898SOL    HW115593   5.780   2.014   4.733
 4898SOL    HW215594   5.822   2.162   4.679
 4899SOL     OW15595   5.560   4.254   4.367
 4899SOL    HW115596   5.643   4.199   4.357
 4899SOL    HW215597   5.559   4.327   4.298
 4900SOL     OW15598   1.093   6.542   4.702
 4900SOL    HW115599   1.024   6.586   4.644
 4900SOL    HW215600   1.115   6.602   4.779
 4901SOL     OW15601   0.041   6.385   3.138
 4901SOL    HW115602   0.107   6.395   3.064
 4901SOL    HW215603   7.002   6.306   3.120
 4902SOL     OW15604   3.883   4.827   0.793
 4902SOL    HW115605   3.982   4.820   0.805
 4902SOL    HW215606   3.839   4.744   0.826
 4903SOL     OW15607   6.048   5.436   6.056
 4903SOL    HW115608   6.061   5.354   6.112
 4903SOL    HW215609   5.950   5.456   6.049
 4904SOL     OW15610   2.350   0.495   3.119
 4904SOL    HW115611   2.442   0.476   3.085
 4904SOL    HW215612   2.356   0.553   3.201
 4905SOL     OW15613   6.503   3.496   3.375
 4905SOL    HW115614   6.477   3.557   3.301
 4905SOL    HW215615   6.505   3.548   3.461
 4906SOL     OW15616   5.331   0.365   1.250
 4906SOL    HW115617   5.260   0.393   1.185
 4906SOL    HW215618   5.399   0.308   1.203
 4907SOL     OW15619   2.821   2.002   1.663
 4907SOL    HW115620   2.822   2.068   1.738
 4907SOL    HW215621   2.882   2.034   1.590
 4908SOL     OW15622   4.091   6.044   0.366
 4908SOL    HW115623   4.101   6.138   0.400
 4908SOL    HW215624   3.994   6.024   0.351
 4909SOL     OW15625   6.120   0.014   5.175
 4909SOL    HW115626   6.218   0.024   5.160
 4909SOL    HW215627   6.079   0.104   5.189
 4910SOL     OW15628   5.525   6.334   6.015
 4910SOL    HW115629   5.503   6.239   6.038
 4910SOL    HW215630   5.607   6.337   5.960
 4911SOL     OW15631   0.700   3.916   6.707
 4911SOL    HW115632   0.697   3.977   6.786
 4911SOL    HW215633   0.612   3.919   6.659
 4912SOL     OW15634   2.531   2.494   1.378
 4912SOL    HW115635   2.590   2.413   1.376
 4912SOL    HW215636   2.454   2.478   1.439
 4913SOL     OW15637   2.629   2.981   1.641
 4913SOL    HW115638   2.598   3.073   1.617
 4913SOL    HW215639   2.637   2.926   1.559
 4914SOL     OW15640   1.658   6.894   2.525
 4914SOL    HW115641   1.638   6.933   2.435
 4914SOL    HW215642   1.756   6.893   2.541
 4915SOL     OW15643   3.311   6.421   3.483
 4915SOL    HW115644   3.316   6.327   3.450
 4915SOL    HW215645   3.237   6.430   3.550
 4916SOL     OW15646   1.532   1.983   1.963
 4916SOL    HW115647   1.625   1.963   1.993
 4916SOL    HW215648   1.494   1.904   1.914
 4917SOL     OW15649   1.916   3.583   6.319
 4917SOL    HW115650   1.913   3.607   6.222
 4917SOL    HW215651   1.838   3.625   6.366
 4918SOL     OW15652   2.328   0.155   3.525
 4918SOL    HW115653   2.391   0.219   3.481
 4918SOL    HW215654   2.326   0.070   3.473
 4919SOL     OW15655   2.435   3.215   1.690
 4919SOL    HW115656   2.418   3.300   1.739
 4919SOL    HW215657   2.355   3.155   1.696
 4920SOL     OW15658   3.334   0.814   0.227
 4920SOL    HW115659   3.401   0.864   0.171
 4920SOL    HW215660   3.374   0.727   0.256
 4921SOL     OW15661   6.469   4.878   1.672
 4921SOL    HW115662   6.511   4.965   1.645
 4921SOL    HW215663   6.377   4.895   1.706
 4922SOL     OW15664   0.940   2.903   5.960
 4922SOL    HW115665   1.018   2.940   5.910
 4922SOL    HW215666   0.857   2.911   5.904
 4923SOL     OW15667   2.688   2.175   6.435
 4923SOL    HW115668   2.643   2.091   6.465
 4923SOL    HW215669   2.787   2.164   6.443
 4924SOL     OW15670   0.287   3.447   4.196
 4924SOL    HW115671   0.282   3.492   4.285
 4924SOL    HW215672   0.243   3.504   4.127
 4925SOL     OW15673   4.942   5.373   5.825
 4925SOL    HW115674   4.932   5.363   5.726
 4925SOL    HW215675   5.038   5.388   5.848
 4926SOL     OW15676   4.409   3.179   0.445
 4926SOL    HW115677   4.477   3.249   0.423
 4926SOL    HW215678   4.455   3.091   0.457
 4927SOL     OW15679   3.326   4.004   2.066
 4927SOL    HW115680   3.399   3.969   2.008
 4927SOL    HW215681   3.298   3.933   2.132
 4928SOL     OW15682   0.521   0.603   0.512
 4928SOL    HW115683   0.442   0.662   0.529
 4928SOL    HW215684   0.536   0.544   0.591
 4929SOL     OW15685   1.253   4.830   4.455
 4929SOL    HW115686   1.188   4.906   4.467
 4929SOL    HW215687   1.294   4.835   4.364
 4930SOL     OW15688   0.274   3.360   0.608
 4930SOL    HW115689   0.192   3.372   0.554
 4930SOL    HW215690   0.313   3.269   0.592
 4931SOL     OW15691   5.665   6.828   1.447
 4931SOL    HW115692   5.638   6.923   1.463
 4931SOL    HW215693   5.601   6.767   1.492
 4932SOL     OW15694   3.605   1.697   1.147
 4932SOL    HW115695   3.569   1.744   1.065
 4932SOL    HW215696   3.649   1.612   1.119
 4933SOL     OW15697   3.187   6.873   4.788
 4933SOL    HW115698   3.270   6.860   4.733
 4933SOL    HW215699   3.177   6.970   4.809
 4934SOL     OW15700   2.166   5.553   5.325
 4934SOL    HW115701   2.133   5.475   5.378
 4934SOL    HW215702   2.109   5.633   5.345
 4935SOL     OW15703   2.095   2.577   0.540
 4935SOL    HW115704   2.026   2.621   0.597
 4935SOL    HW215705   2.175   2.554   0.596
 4936SOL     OW15706   5.593   4.675   1.480
 4936SOL    HW115707   5.568   4.594   1.427
 4936SOL    HW215708   5.620   4.648   1.572
 4937SOL     OW15709   0.645   3.608   4.434
 4937SOL    HW115710   0.593   3.644   4.511
 4937SOL    HW215711   0.586   3.603   4.354
 4938SOL     OW15712   3.563   4.408   1.694
 4938SOL    HW115713   3.491   4.339   1.702
 4938SOL    HW215714   3.539   4.489   1.747
 4939SOL     OW15715   1.119   1.412   1.096
 4939SOL    HW115716   1.159   1.503   1.099
 4939SOL    HW215717   1.189   1.346   1.067
 4940SOL     OW15718   1.257   2.035   5.501
 4940SOL    HW115719   1.293   1.967   5.564
 4940SOL    HW215720   1.312   2.118   5.506
 4941SOL     OW15721   4.189   2.374   5.545
 4941SOL    HW115722   4.165   2.420   5.631
 4941SOL    HW215723   4.244   2.293   5.565
 4942SOL     OW15724   6.497   0.937   3.302
 4942SOL    HW115725   6.488   0.841   3.330
 4942SOL    HW215726   6.579   0.948   3.247
 4943SOL     OW15727   4.705   2.247   6.449
 4943SOL    HW115728   4.634   2.258   6.380
 4943SOL    HW215729   4.683   2.303   6.529
 4944SOL     OW15730   1.280   4.869   0.710
 4944SOL    HW115731   1.327   4.839   0.793
 4944SOL    HW215732   1.195   4.916   0.736
 4945SOL     OW15733   2.926   0.488   5.228
 4945SOL    HW115734   2.986   0.422   5.182
 4945SOL    HW215735   2.948   0.490   5.326
 4946SOL     OW15736   3.041   5.915   0.566
 4946SOL    HW115737   3.015   5.819   0.575
 4946SOL    HW215738   3.122   5.923   0.508
 4947SOL     OW15739   0.745   0.238   1.264
 4947SOL    HW115740   0.729   0.215   1.360
 4947SOL    HW215741   0.752   0.154   1.210
 4948SOL     OW15742   1.718   2.502   2.003
 4948SOL    HW115743   1.786   2.433   2.027
 4948SOL    HW215744   1.632   2.457   1.979
 4949SOL     OW15745   6.576   4.644   5.586
 4949SOL    HW115746   6.589   4.626   5.683
 4949SOL    HW215747   6.645   4.709   5.554
 4950SOL     OW15748   3.869   4.246   5.254
 4950SOL    HW115749   3.939   4.234   5.324
 4950SOL    HW215750   3.836   4.340   5.255
 4951SOL     OW15751   4.837   4.924   3.442
 4951SOL    HW115752   4.836   5.022   3.460
 4951SOL    HW215753   4.931   4.891   3.441
 4952SOL     OW15754   0.553   0.904   7.005
 4952SOL    HW115755   0.620   0.941   0.050
 4952SOL    HW215756   0.602   0.860   6.930
 4953SOL     OW15757   1.533   2.370   4.901
 4953SOL    HW115758   1.566   2.386   4.808
 4953SOL    HW215759   1.435   2.390   4.905
 4954SOL     OW15760   3.065   4.030   4.762
 4954SOL    HW115761   3.079   4.100   4.833
 4954SOL    HW215762   3.020   4.071   4.683
 4955SOL     OW15763   3.974   5.990   0.040
 4955SOL    HW115764   4.041   5.926   0.076
 4955SOL    HW215765   3.925   6.034   0.116
 4956SOL     OW15766   2.583   0.253   4.775
 4956SOL    HW115767   2.499   0.268   4.722
 4956SOL    HW215768   2.658   0.233   4.713
 4957SOL     OW15769   5.777   5.382   0.116
 4957SOL    HW115770   5.868   5.344   0.129
 4957SOL    HW215771   5.710   5.307   0.113
 4958SOL     OW15772   3.537   5.471   0.021
 4958SOL    HW115773   3.505   5.545   0.079
 4958SOL    HW215774   3.466   5.448   6.975
 4959SOL     OW15775   6.938   2.550   2.666
 4959SOL    HW115776   0.006   2.590   2.641
 4959SOL    HW215777   6.952   2.459   2.704
 4960SOL     OW15778   5.250   4.433   4.097
 4960SOL    HW115779   5.227   4.515   4.150
 4960SOL    HW215780   5.299   4.368   4.155
 4961SOL     OW15781   3.417   3.004   2.067
 4961SOL    HW115782   3.441   3.087   2.017
 4961SOL    HW215783   3.472   2.927   2.033
 4962SOL     OW15784   1.725   2.699   0.070
 4962SOL    HW115785   1.737   2.624   0.005
 4962SOL    HW215786   1.806   2.758   0.069
 4963SOL     OW15787   0.448   4.148   6.399
 4963SOL    HW115788   0.447   4.067   6.458
 4963SOL    HW215789   0.374   4.141   6.332
 4964SOL     OW15790   1.793   5.010   4.252
 4964SOL    HW115791   1.724   4.967   4.192
 4964SOL    HW215792   1.877   5.025   4.200
 4965SOL     OW15793   2.348   0.048   2.720
 4965SOL    HW115794   2.253   0.021   2.706
 4965SOL    HW215795   2.356   0.147   2.716
 4966SOL     OW15796   4.054   0.238   5.221
 4966SOL    HW115797   4.067   0.139   5.221
 4966SOL    HW215798   4.000   0.265   5.141
 4967SOL     OW15799   4.413   4.594   3.910
 4967SOL    HW115800   4.374   4.638   3.991
 4967SOL    HW215801   4.477   4.522   3.939
 4968SOL     OW15802   6.774   3.058   4.113
 4968SOL    HW115803   6.854   3.101   4.155
 4968SOL    HW215804   6.733   2.993   4.177
 4969SOL     OW15805   0.456   5.756   4.457
 4969SOL    HW115806   0.360   5.783   4.461
 4969SOL    HW215807   0.513   5.828   4.499
 4970SOL     OW15808   1.856   1.658   1.749
 4970SOL    HW115809   1.773   1.676   1.697
 4970SOL    HW215810   1.932   1.643   1.685
 4971SOL     OW15811   0.227   5.526   1.232
 4971SOL    HW115812   0.182   5.463   1.295
 4971SOL    HW215813   0.278   5.594   1.284
 4972SOL     OW15814   0.097   4.227   6.857
 4972SOL    HW115815   0.032   4.224   6.933
 4972SOL    HW215816   0.182   4.182   6.884
 4973SOL     OW15817   5.609   1.834   6.820
 4973SOL    HW115818   5.540   1.907   6.824
 4973SOL    HW215819   5.562   1.745   6.814
 4974SOL     OW15820   3.578   0.053   5.466
 4974SOL    HW115821   3.591   0.152   5.459
 4974SOL    HW215822   3.562   0.015   5.375
 4975SOL     OW15823   5.390   4.507   1.191
 4975SOL    HW115824   5.448   4.429   1.167
 4975SOL    HW215825   5.362   4.499   1.287
 4976SOL     OW15826   0.634   0.297   3.559
 4976SOL    HW115827   0.712   0.269   3.616
 4976SOL    HW215828   0.613   0.393   3.576
 4977SOL     OW15829   1.496   3.770   5.540
 4977SOL    HW115830   1.510   3.690   5.482
 4977SOL    HW215831   1.409   3.814   5.517
 4978SOL     OW15832   6.405   4.286   4.920
 4978SOL    HW115833   6.380   4.346   4.844
 4978SOL    HW215834   6.482   4.326   4.970
 4979SOL     OW15835   2.456   6.773   6.554
 4979SOL    HW115836   2.464   6.827   6.470
 4979SOL    HW215837   2.502   6.685   6.541
 4980SOL     OW15838   5.914   2.937   4.346
 4980SOL    HW115839   5.940   2.999   4.421
 4980SOL    HW215840   5.840   2.978   4.293
 4981SOL     OW15841   3.564   5.859   3.497
 4981SOL    HW115842   3.464   5.856   3.501
 4981SOL    HW215843   3.593   5.852   3.401
 4982SOL     OW15844   3.922   2.068   4.879
 4982SOL    HW115845   3.830   2.076   4.839
 4982SOL    HW215846   3.915   2.045   4.976
 4983SOL     OW15847   6.107   3.716   2.716
 4983SOL    HW115848   6.120   3.705   2.815
 4983SOL    HW215849   6.081   3.629   2.675
 4984SOL     OW15850   5.019   3.551   4.841
 4984SOL    HW115851   5.012   3.573   4.744
 4984SOL    HW215852   4.950   3.604   4.892
 4985SOL     OW15853   5.909   0.300   1.991
 4985SOL    HW115854   5.939   0.223   2.047
 4985SOL    HW215855   5.848   0.358   2.044
 4986SOL     OW15856   0.925   4.946   1.382
 4986SOL    HW115857   0.908   4.870   1.445
 4986SOL    HW215858   0.997   4.920   1.318
 4987SOL     OW15859   1.553   2.560   2.937
 4987SOL    HW115860   1.644   2.603   2.934
 4987SOL    HW215861   1.490   2.619   2.987
 4988SOL     OW15862   6.251   5.393   4.130
 4988SOL    HW115863   6.300   5.359   4.050
 4988SOL    HW215864   6.275   5.338   4.210
 4989SOL     OW15865   6.290   0.029   3.652
 4989SOL    HW115866   6.320   0.064   3.741
 4989SOL    HW215867   6.370   7.020   3.599
 4990SOL     OW15868   4.482   1.839   6.658
 4990SOL    HW115869   4.539   1.783   6.597
 4990SOL    HW215870   4.388   1.804   6.657
 4991SOL     OW15871   1.828   5.995   6.345
 4991SOL    HW115872   1.885   5.961   6.421
 4991SOL    HW215873   1.793   6.085   6.368
 4992SOL     OW15874   1.599   4.182   4.355
 4992SOL    HW115875   1.559   4.094   4.329
 4992SOL    HW215876   1.552   4.255   4.305
 4993SOL     OW15877   2.154   6.198   3.623
 4993SOL    HW115878   2.098   6.116   3.632
 4993SOL    HW215879   2.240   6.186   3.674
 4994SOL     OW15880   3.605   5.221   5.129
 4994SOL    HW115881   3.581   5.125   5.144
 4994SOL    HW215882   3.534   5.279   5.168
 4995SOL     OW15883   0.449   0.766   6.300
 4995SOL    HW115884   0.417   0.674   6.324
 4995SOL    HW215885   0.548   0.772   6.311
 4996SOL     OW15886   6.767   0.872   3.545
 4996SOL    HW115887   6.742   0.969   3.545
 4996SOL    HW215888   6.684   0.817   3.558
 4997SOL     OW15889   4.137   1.581   0.742
 4997SOL    HW115890   4.237   1.590   0.742
 4997SOL    HW215891   4.099   1.634   0.818
 4998SOL     OW15892   1.043   3.969   3.493
 4998SOL    HW115893   1.036   4.069   3.497
 4998SOL    HW215894   0.956   3.931   3.461
 4999SOL     OW15895   1.079   3.301   3.786
 4999SOL    HW115896   1.160   3.327   3.837
 4999SOL    HW215897   1.018   3.380   3.776
 5000SOL     OW15898   2.815   6.681   3.117
 5000SOL    HW115899   2.865   6.648   3.037
 5000SOL    HW215900   2.834   6.779   3.130
 5001SOL     OW15901   0.583   5.644   3.111
 5001SOL    HW115902   0.600   5.729   3.160
 5001SOL    HW215903   0.593   5.660   3.013
 5002SOL     OW15904   1.533   4.673   4.005
 5002SOL    HW115905   1.590   4.755   4.013
 5002SOL    HW215906   1.446   4.696   3.962
 5003SOL     OW15907   3.617   0.669   2.339
 5003SOL    HW115908   3.582   0.718   2.419
 5003SOL    HW215909   3.646   0.577   2.367
 5004SOL     OW15910   3.796   6.098   0.511
 5004SOL    HW115911   3.829   6.004   0.517
 5004SOL    HW215912   3.861   6.159   0.557
 5005SOL     OW15913   3.267   2.578   1.144
 5005SOL    HW115914   3.273   2.637   1.225
 5005SOL    HW215915   3.265   2.482   1.171
 5006SOL     OW15916   5.475   0.707   2.206
 5006SOL    HW115917   5.453   0.763   2.285
 5006SOL    HW215918   5.500   0.767   2.129
 5007SOL     OW15919   6.124   5.617   2.256
 5007SOL    HW115920   6.202   5.602   2.196
 5007SOL    HW215921   6.116   5.539   2.319
 5008SOL     OW15922   5.021   0.270   3.479
 5008SOL    HW115923   5.109   0.280   3.432
 5008SOL    HW215924   5.038   0.252   3.576
 5009SOL     OW15925   0.539   1.941   0.557
 5009SOL    HW115926   0.522   1.928   0.655
 5009SOL    HW215927   0.586   2.028   0.542
 5010SOL     OW15928   4.691   3.646   1.234
 5010SOL    HW115929   4.735   3.558   1.253
 5010SOL    HW215930   4.754   3.703   1.179
 5011SOL     OW15931   1.804   2.542   6.157
 5011SOL    HW115932   1.845   2.459   6.121
 5011SOL    HW215933   1.838   2.621   6.107
 5012SOL     OW15934   6.369   1.184   5.843
 5012SOL    HW115935   6.464   1.159   5.826
 5012SOL    HW215936   6.342   1.258   5.780
 5013SOL     OW15937   5.242   6.923   5.792
 5013SOL    HW115938   5.161   6.944   5.737
 5013SOL    HW215939   5.261   6.999   5.854
 5014SOL     OW15940   5.922   3.336   1.736
 5014SOL    HW115941   5.993   3.346   1.666
 5014SOL    HW215942   5.862   3.416   1.734
 5015SOL     OW15943   6.090   5.245   4.522
 5015SOL    HW115944   6.157   5.318   4.536
 5015SOL    HW215945   6.091   5.184   4.601
 5016SOL     OW15946   1.716   3.240   6.313
 5016SOL    HW115947   1.805   3.224   6.355
 5016SOL    HW215948   1.657   3.287   6.378
 5017SOL     OW15949   0.122   2.776   1.927
 5017SOL    HW115950   0.091   2.824   1.844
 5017SOL    HW215951   0.047   2.771   1.992
 5018SOL     OW15952   1.229   0.760   6.748
 5018SOL    HW115953   1.207   0.851   6.712
 5018SOL    HW215954   1.188   0.690   6.689
 5019SOL     OW15955   1.746   4.510   4.098
 5019SOL    HW115956   1.659   4.559   4.103
 5019SOL    HW215957   1.790   4.512   4.188
 5020SOL     OW15958   1.901   0.365   4.304
 5020SOL    HW115959   1.882   0.456   4.342
 5020SOL    HW215960   1.820   0.307   4.317
 5021SOL     OW15961   2.798   0.990   1.340
 5021SOL    HW115962   2.742   0.926   1.287
 5021SOL    HW215963   2.895   0.972   1.323
 5022SOL     OW15964   6.596   2.630   1.103
 5022SOL    HW115965   6.613   2.720   1.142
 5022SOL    HW215966   6.584   2.638   1.004
 5023SOL     OW15967   0.560   4.035   2.699
 5023SOL    HW115968   0.602   3.975   2.767
 5023SOL    HW215969   0.518   3.979   2.627
 5024SOL     OW15970   4.813   3.910   0.457
 5024SOL    HW115971   4.815   3.928   0.556
 5024SOL    HW215972   4.847   3.990   0.408
 5025SOL     OW15973   4.934   2.024   4.484
 5025SOL    HW115974   4.910   2.030   4.581
 5025SOL    HW215975   4.850   2.015   4.430
 5026SOL     OW15976   5.306   6.185   4.593
 5026SOL    HW115977   5.355   6.151   4.673
 5026SOL    HW215978   5.223   6.233   4.623
 5027SOL     OW15979   5.496   6.723   0.993
 5027SOL    HW115980   5.540   6.687   0.910
 5027SOL    HW215981   5.404   6.754   0.971
 5028SOL     OW15982   6.191   1.719   2.188
 5028SOL    HW115983   6.242   1.767   2.117
 5028SOL    HW215984   6.243   1.722   2.274
 5029SOL     OW15985   4.863   1.831   2.392
 5029SOL    HW115986   4.925   1.763   2.429
 5029SOL    HW215987   4.770   1.794   2.389
 5030SOL     OW15988   0.201   3.651   0.321
 5030SOL    HW115989   0.231   3.734   0.275
 5030SOL    HW215990   0.104   3.634   0.301
 5031SOL     OW15991   6.535   0.225   5.848
 5031SOL    HW115992   6.586   0.198   5.930
 5031SOL    HW215993   6.451   0.172   5.842
 5032SOL     OW15994   2.603   3.699   6.013
 5032SOL    HW115995   2.574   3.642   6.090
 5032SOL    HW215996   2.674   3.762   6.044
 5033SOL     OW15997   2.419   0.004   5.984
 5033SOL    HW115998   2.508   7.002   6.025
 5033SOL    HW215999   2.414   6.986   5.892
 5034SOL     OW16000   4.350   6.364   4.671
 5034SOL    HW116001   4.382   6.404   4.586
 5034SOL    HW216002   4.280   6.423   4.712
 5035SOL     OW16003   2.058   3.774   4.005
 5035SOL    HW116004   2.106   3.768   4.093
 5035SOL    HW216005   2.095   3.705   3.942
 5036SOL     OW16006   1.324   2.694   4.746
 5036SOL    HW116007   1.381   2.719   4.668
 5036SOL    HW216008   1.340   2.758   4.822
 5037SOL     OW16009   4.618   4.270   0.831
 5037SOL    HW116010   4.537   4.303   0.879
 5037SOL    HW216011   4.681   4.229   0.897
 5038SOL     OW16012   3.209   3.588   3.400
 5038SOL    HW116013   3.200   3.521   3.475
 5038SOL    HW216014   3.297   3.576   3.355
 5039SOL     OW16015   1.087   3.943   0.394
 5039SOL    HW116016   0.992   3.951   0.365
 5039SOL    HW216017   1.145   4.000   0.336
 5040SOL     OW16018   0.315   1.677   5.311
 5040SOL    HW116019   0.292   1.667   5.408
 5040SOL    HW216020   0.384   1.748   5.300
 5041SOL     OW16021   6.977   2.098   1.504
 5041SOL    HW116022   6.991   2.161   1.580
 5041SOL    HW216023   0.046   2.063   1.472
 5042SOL     OW16024   1.267   2.325   5.848
 5042SOL    HW116025   1.361   2.322   5.884
 5042SOL    HW216026   1.243   2.419   5.826
 5043SOL     OW16027   3.275   6.666   1.920
 5043SOL    HW116028   3.180   6.653   1.892
 5043SOL    HW216029   3.335   6.614   1.859
 5044SOL     OW16030   0.111   5.633   0.005
 5044SOL    HW116031   0.099   5.711   6.963
 5044SOL    HW216032   0.097   5.548   6.975
 5045SOL     OW16033   5.737   2.382   0.228
 5045SOL    HW116034   5.640   2.402   0.210
 5045SOL    HW216035   5.747   2.285   0.251
 5046SOL     OW16036   3.739   3.240   2.344
 5046SOL    HW116037   3.721   3.219   2.440
 5046SOL    HW216038   3.837   3.257   2.332
 5047SOL     OW16039   1.995   3.797   3.671
 5047SOL    HW116040   1.941   3.859   3.728
 5047SOL    HW216041   1.990   3.704   3.708
 5048SOL     OW16042   2.526   0.137   6.635
 5048SOL    HW116043   2.550   0.040   6.633
 5048SOL    HW216044   2.514   0.167   6.730
 5049SOL     OW16045   4.349   1.941   0.107
 5049SOL    HW116046   4.298   1.858   0.085
 5049SOL    HW216047   4.353   1.953   0.206
 5050SOL     OW16048   1.658   0.481   0.760
 5050SOL    HW116049   1.637   0.442   0.850
 5050SOL    HW216050   1.632   0.417   0.688
 5051SOL     OW16051   4.741   5.181   1.450
 5051SOL    HW116052   4.663   5.123   1.427
 5051SOL    HW216053   4.783   5.148   1.534
 5052SOL     OW16054   1.871   2.702   4.932
 5052SOL    HW116055   1.816   2.637   4.985
 5052SOL    HW216056   1.921   2.762   4.995
 5053SOL     OW16057   0.180   0.977   1.343
 5053SOL    HW116058   0.173   1.054   1.406
 5053SOL    HW216059   0.107   0.983   1.275
 5054SOL     OW16060   4.025   5.355   3.456
 5054SOL    HW116061   3.998   5.417   3.530
 5054SOL    HW216062   3.971   5.271   3.461
 5055SOL     OW16063   0.317   3.520   5.748
 5055SOL    HW116064   0.253   3.505   5.673
 5055SOL    HW216065   0.351   3.614   5.745
 5056SOL     OW16066   6.170   3.871   3.824
 5056SOL    HW116067   6.119   3.792   3.789
 5056SOL    HW216068   6.162   3.947   3.760
 5057SOL     OW16069   0.448   5.536   2.327
 5057SOL    HW116070   0.479   5.446   2.355
 5057SOL    HW216071   0.360   5.529   2.280
 5058SOL     OW16072   2.935   5.320   5.700
 5058SOL    HW116073   2.983   5.314   5.788
 5058SOL    HW216074   2.922   5.416   5.676
 5059SOL     OW16075   6.829   0.368   2.610
 5059SOL    HW116076   6.767   0.325   2.544
 5059SOL    HW216077   6.916   0.390   2.566
 5060SOL     OW16078   7.000   2.656   6.199
 5060SOL    HW116079   7.014   2.654   6.100
 5060SOL    HW216080   0.051   2.603   6.244
 5061SOL     OW16081   5.239   3.791   1.296
 5061SOL    HW116082   5.283   3.877   1.267
 5061SOL    HW216083   5.144   3.810   1.321
 5062SOL     OW16084   6.566   0.304   0.849
 5062SOL    HW116085   6.485   0.314   0.792
 5062SOL    HW216086   6.540   0.299   0.946
 5063SOL     OW16087   1.490   6.150   2.402
 5063SOL    HW116088   1.421   6.080   2.381
 5063SOL    HW216089   1.504   6.155   2.500
 5064SOL     OW16090   4.966   3.768   0.173
 5064SOL    HW116091   4.975   3.672   0.147
 5064SOL    HW216092   4.871   3.796   0.165
 5065SOL     OW16093   2.611   6.392   6.025
 5065SOL    HW116094   2.562   6.457   5.966
 5065SOL    HW216095   2.708   6.414   6.026
 5066SOL     OW16096   4.848   5.106   1.195
 5066SOL    HW116097   4.760   5.096   1.149
 5066SOL    HW216098   4.833   5.129   1.291
 5067SOL     OW16099   5.118   1.093   6.966
 5067SOL    HW116100   5.106   1.188   6.997
 5067SOL    HW216101   5.209   1.060   6.993
 5068SOL     OW16102   3.631   4.679   1.341
 5068SOL    HW116103   3.617   4.770   1.302
 5068SOL    HW216104   3.614   4.610   1.271
 5069SOL     OW16105   6.653   5.454   2.910
 5069SOL    HW116106   6.593   5.517   2.861
 5069SOL    HW216107   6.606   5.368   2.927
 5070SOL     OW16108   4.879   3.372   3.778
 5070SOL    HW116109   4.855   3.313   3.701
 5070SOL    HW216110   4.843   3.333   3.862
 5071SOL     OW16111   4.140   0.958   6.937
 5071SOL    HW116112   4.175   0.945   0.010
 5071SOL    HW216113   4.215   0.982   6.877
 5072SOL     OW16114   1.056   3.925   1.003
 5072SOL    HW116115   1.110   3.851   0.963
 5072SOL    HW216116   1.084   4.012   0.962
 5073SOL     OW16117   4.412   2.039   4.219
 5073SOL    HW116118   4.392   2.027   4.316
 5073SOL    HW216119   4.335   2.084   4.175
 5074SOL     OW16120   4.143   4.898   4.887
 5074SOL    HW116121   4.177   4.866   4.975
 5074SOL    HW216122   4.093   4.983   4.899
 5075SOL     OW16123   6.423   6.723   3.936
 5075SOL    HW116124   6.480   6.804   3.920
 5075SOL    HW216125   6.329   6.741   3.908
 5076SOL     OW16126   4.110   0.753   1.306
 5076SOL    HW116127   4.041   0.704   1.254
 5076SOL    HW216128   4.091   0.745   1.404
 5077SOL     OW16129   6.683   2.838   2.227
 5077SOL    HW116130   6.710   2.813   2.320
 5077SOL    HW216131   6.583   2.840   2.221
 5078SOL     OW16132   6.751   1.225   4.096
 5078SOL    HW116133   6.716   1.244   4.188
 5078SOL    HW216134   6.705   1.144   4.059
 5079SOL     OW16135   4.600   4.819   4.862
 5079SOL    HW116136   4.600   4.912   4.825
 5079SOL    HW216137   4.505   4.787   4.870
 5080SOL     OW16138   5.869   0.434   5.628
 5080SOL    HW116139   5.867   0.533   5.614
 5080SOL    HW216140   5.947   0.410   5.686
 5081SOL     OW16141   3.314   3.545   2.745
 5081SOL    HW116142   3.229   3.503   2.715
 5081SOL    HW216143   3.293   3.630   2.794
 5082SOL     OW16144   0.183   0.121   5.988
 5082SOL    HW116145   0.268   0.085   6.025
 5082SOL    HW216146   0.110   0.054   6.001
 5083SOL     OW16147   1.405   5.928   1.957
 5083SOL    HW116148   1.414   5.840   1.911
 5083SOL    HW216149   1.468   5.994   1.915
 5084SOL     OW16150   1.324   5.750   2.203
 5084SOL    HW116151   1.378   5.666   2.202
 5084SOL    HW216152   1.370   5.822   2.151
 5085SOL     OW16153   6.634   3.401   6.626
 5085SOL    HW116154   6.733   3.409   6.631
 5085SOL    HW216155   6.592   3.452   6.701
 5086SOL     OW16156   6.897   5.318   4.549
 5086SOL    HW116157   6.891   5.218   4.546
 5086SOL    HW216158   6.907   5.354   4.456
 5087SOL     OW16159   6.675   5.392   5.157
 5087SOL    HW116160   6.709   5.302   5.184
 5087SOL    HW216161   6.718   5.420   5.071
 5088SOL     OW16162   6.080   0.884   0.328
 5088SOL    HW116163   6.055   0.949   0.400
 5088SOL    HW216164   6.180   0.882   0.320
 5089SOL     OW16165   5.782   2.702   4.406
 5089SOL    HW116166   5.823   2.616   4.435
 5089SOL    HW216167   5.853   2.771   4.395
 5090SOL     OW16168   0.684   5.380   0.613
 5090SOL    HW116169   0.647   5.328   0.690
 5090SOL    HW216170   0.633   5.359   0.530
 5091SOL     OW16171   1.446   6.566   3.729
 5091SOL    HW116172   1.470   6.624   3.807
 5091SOL    HW216173   1.394   6.487   3.760
 5092SOL     OW16174   3.335   2.958   1.200
 5092SOL    HW116175   3.242   2.952   1.165
 5092SOL    HW216176   3.340   2.914   1.289
 5093SOL     OW16177   1.007   2.090   1.112
 5093SOL    HW116178   0.972   2.121   1.024
 5093SOL    HW216179   1.094   2.135   1.131
 5094SOL     OW16180   6.982   0.255   0.089
 5094SOL    HW116181   0.036   0.306   0.134
 5094SOL    HW216182   6.913   0.229   0.157
 5095SOL     OW16183   3.256   0.058   5.306
 5095SOL    HW116184   3.346   0.018   5.322
 5095SOL    HW216185   3.185   7.009   5.324
 5096SOL     OW16186   3.543   6.046   2.984
 5096SOL    HW116187   3.515   6.138   2.956
 5096SOL    HW216188   3.632   6.051   3.030
 5097SOL     OW16189   0.989   1.530   6.109
 5097SOL    HW116190   1.026   1.448   6.066
 5097SOL    HW216191   1.055   1.566   6.175
 5098SOL     OW16192   6.778   2.742   2.746
 5098SOL    HW116193   6.819   2.653   2.725
 5098SOL    HW216194   6.845   2.798   2.794
 5099SOL     OW16195   1.010   0.608   4.030
 5099SOL    HW116196   1.016   0.703   4.000
 5099SOL    HW216197   1.071   0.594   4.108
 5100SOL     OW16198   4.834   5.205   6.005
 5100SOL    HW116199   4.883   5.266   5.943
 5100SOL    HW216200   4.785   5.260   6.073
 5101SOL     OW16201   4.701   6.263   0.599
 5101SOL    HW116202   4.658   6.190   0.652
 5101SOL    HW216203   4.768   6.311   0.656
 5102SOL     OW16204   3.718   5.482   4.092
 5102SOL    HW116205   3.652   5.473   4.166
 5102SOL    HW216206   3.670   5.506   4.007
 5103SOL     OW16207   1.379   1.261   4.178
 5103SOL    HW116208   1.420   1.213   4.256
 5103SOL    HW216209   1.440   1.336   4.150
 5104SOL     OW16210   1.070   0.419   1.247
 5104SOL    HW116211   1.044   0.515   1.257
 5104SOL    HW216212   0.988   0.362   1.253
 5105SOL     OW16213   1.901   2.825   6.111
 5105SOL    HW116214   1.987   2.804   6.064
 5105SOL    HW216215   1.885   2.924   6.107
 5106SOL     OW16216   2.785   0.048   2.329
 5106SOL    HW116217   2.791   0.080   2.424
 5106SOL    HW216218   2.805   0.124   2.267
 5107SOL     OW16219   1.968   6.803   6.812
 5107SOL    HW116220   1.953   6.894   6.850
 5107SOL    HW216221   2.054   6.766   6.848
 5108SOL     OW16222   3.394   3.943   3.952
 5108SOL    HW116223   3.330   4.012   3.986
 5108SOL    HW216224   3.454   3.984   3.883
 5109SOL     OW16225   6.720   1.965   2.406
 5109SOL    HW116226   6.723   2.034   2.334
 5109SOL    HW216227   6.665   1.998   2.482
 5110SOL     OW16228   2.128   5.966   5.421
 5110SOL    HW116229   2.178   6.029   5.362
 5110SOL    HW216230   2.193   5.907   5.470
 5111SOL     OW16231   1.512   0.795   0.083
 5111SOL    HW116232   1.462   0.843   0.011
 5111SOL    HW216233   1.526   0.700   0.056
 5112SOL     OW16234   0.377   6.929   3.217
 5112SOL    HW116235   0.296   6.880   3.183
 5112SOL    HW216236   0.459   6.893   3.173
 5113SOL     OW16237   0.532   0.470   6.477
 5113SOL    HW116238   0.487   0.547   6.523
 5113SOL    HW216239   0.631   0.483   6.483
 5114SOL     OW16240   3.988   5.754   6.502
 5114SOL    HW116241   3.906   5.780   6.553
 5114SOL    HW216242   4.056   5.827   6.511
 5115SOL     OW16243   2.167   3.828   4.975
 5115SOL    HW116244   2.178   3.776   5.059
 5115SOL    HW216245   2.228   3.907   4.977
 5116SOL     OW16246   6.705   3.382   0.784
 5116SOL    HW116247   6.659   3.302   0.745
 5116SOL    HW216248   6.717   3.451   0.713
 5117SOL     OW16249   2.742   5.128   2.883
 5117SOL    HW116250   2.765   5.140   2.979
 5117SOL    HW216251   2.654   5.082   2.875
 5118SOL     OW16252   3.788   6.696   1.838
 5118SOL    HW116253   3.771   6.746   1.923
 5118SOL    HW216254   3.704   6.651   1.808
 5119SOL     OW16255   6.172   0.132   2.633
 5119SOL    HW116256   6.132   0.058   2.687
 5119SOL    HW216257   6.212   0.200   2.694
 5120SOL     OW16258   3.316   1.196   2.371
 5120SOL    HW116259   3.271   1.246   2.296
 5120SOL    HW216260   3.289   1.100   2.367
 5121SOL     OW16261   0.719   3.606   3.852
 5121SOL    HW116262   0.774   3.553   3.787
 5121SOL    HW216263   0.760   3.598   3.943
 5122SOL     OW16264   2.684   5.448   3.542
 5122SOL    HW116265   2.737   5.422   3.623
 5122SOL    HW216266   2.597   5.486   3.571
 5123SOL     OW16267   6.398   3.455   1.969
 5123SOL    HW116268   6.438   3.540   1.934
 5123SOL    HW216269   6.318   3.477   2.026
 5124SOL     OW16270   2.647   6.078   0.761
 5124SOL    HW116271   2.643   6.064   0.860
 5124SOL    HW216272   2.619   5.995   0.714
 5125SOL     OW16273   7.005   2.071   5.802
 5125SOL    HW116274   0.002   2.154   5.856
 5125SOL    HW216275   0.025   2.081   5.712
 5126SOL     OW16276   4.231   2.358   0.166
 5126SOL    HW116277   4.295   2.318   0.232
 5126SOL    HW216278   4.224   2.456   0.183
 5127SOL     OW16279   5.445   3.557   6.637
 5127SOL    HW116280   5.372   3.553   6.569
 5127SOL    HW216281   5.406   3.564   6.729
 5128SOL     OW16282   6.818   6.998   6.344
 5128SOL    HW116283   6.786   0.028   6.424
 5128SOL    HW216284   6.854   0.042   6.276
 5129SOL     OW16285   4.968   2.828   3.409
 5129SOL    HW116286   4.957   2.918   3.451
 5129SOL    HW216287   4.885   2.804   3.358
 5130SOL     OW16288   1.755   6.522   5.164
 5130SOL    HW116289   1.805   6.438   5.145
 5130SOL    HW216290   1.801   6.573   5.237
 5131SOL     OW16291   3.569   4.901   3.495
 5131SOL    HW116292   3.604   4.881   3.403
 5131SOL    HW216293   3.646   4.920   3.556
 5132SOL     OW16294   4.063   2.082   6.773
 5132SOL    HW116295   4.119   2.102   6.693
 5132SOL    HW216296   4.116   2.102   6.856
 5133SOL     OW16297   4.909   4.739   6.686
 5133SOL    HW116298   4.894   4.684   6.768
 5133SOL    HW216299   5.004   4.730   6.656
 5134SOL     OW16300   5.661   5.853   0.067
 5134SOL    HW116301   5.712   5.897   7.013
 5134SOL    HW216302   5.687   5.894   0.154
 5135SOL     OW16303   6.440   3.085   2.294
 5135SOL    HW116304   6.426   2.986   2.285
 5135SOL    HW216305   6.390   3.131   2.221
 5136SOL     OW16306   0.524   0.855   4.565
 5136SOL    HW116307   0.528   0.786   4.493
 5136SOL    HW216308   0.605   0.913   4.561
 5137SOL     OW16309   5.286   0.325   3.376
 5137SOL    HW116310   5.345   0.283   3.445
 5137SOL    HW216311   5.298   0.277   3.289
 5138SOL     OW16312   2.972   3.216   2.181
 5138SOL    HW116313   2.992   3.135   2.126
 5138SOL    HW216314   2.922   3.283   2.126
 5139SOL     OW16315   4.393   0.372   4.863
 5139SOL    HW116316   4.459   0.421   4.806
 5139SOL    HW216317   4.401   0.404   4.958
 5140SOL     OW16318   3.315   3.861   6.342
 5140SOL    HW116319   3.302   3.953   6.380
 5140SOL    HW216320   3.340   3.799   6.416
 5141SOL     OW16321   1.481   3.034   1.279
 5141SOL    HW116322   1.421   3.114   1.288
 5141SOL    HW216323   1.498   2.995   1.369
 5142SOL     OW16324   0.745   0.030   2.584
 5142SOL    HW116325   0.723   0.116   2.630
 5142SOL    HW216326   0.700   6.975   2.631
 5143SOL     OW16327   6.858   5.983   1.851
 5143SOL    HW116328   6.882   6.064   1.905
 5143SOL    HW216329   6.882   5.901   1.902
 5144SOL     OW16330   2.123   3.432   4.959
 5144SOL    HW116331   2.151   3.338   4.975
 5144SOL    HW216332   2.023   3.438   4.966
 5145SOL     OW16333   2.327   5.782   5.525
 5145SOL    HW116334   2.340   5.741   5.435
 5145SOL    HW216335   2.398   5.750   5.587
 5146SOL     OW16336   6.109   5.846   6.467
 5146SOL    HW116337   6.133   5.888   6.554
 5146SOL    HW216338   6.125   5.747   6.472
 5147SOL     OW16339   5.847   2.378   3.879
 5147SOL    HW116340   5.808   2.323   3.953
 5147SOL    HW216341   5.899   2.318   3.817
 5148SOL     OW16342   6.495   1.405   0.213
 5148SOL    HW116343   6.409   1.452   0.235
 5148SOL    HW216344   6.537   1.448   0.134
 5149SOL     OW16345   4.384   5.784   4.240
 5149SOL    HW116346   4.329   5.751   4.317
 5149SOL    HW216347   4.401   5.708   4.177
 5150SOL     OW16348   6.578   0.538   3.516
 5150SOL    HW116349   6.662   0.518   3.566
 5150SOL    HW216350   6.529   0.613   3.562
 5151SOL     OW16351   5.417   5.092   1.518
 5151SOL    HW116352   5.401   5.023   1.447
 5151SOL    HW216353   5.449   5.047   1.602
 5152SOL     OW16354   2.609   2.210   0.753
 5152SOL    HW116355   2.618   2.144   0.827
 5152SOL    HW216356   2.514   2.217   0.724
 5153SOL     OW16357   2.570   2.432   0.598
 5153SOL    HW116358   2.588   2.339   0.629
 5153SOL    HW216359   2.582   2.437   0.499
 5154SOL     OW16360   0.412   2.585   0.635
 5154SOL    HW116361   0.367   2.501   0.604
 5154SOL    HW216362   0.445   2.635   0.555
 5155SOL     OW16363   1.591   1.365   0.291
 5155SOL    HW116364   1.606   1.306   0.211
 5155SOL    HW216365   1.510   1.420   0.277
 5156SOL     OW16366   5.278   5.042   6.309
 5156SOL    HW116367   5.285   5.084   6.400
 5156SOL    HW216368   5.193   4.990   6.303
 5157SOL     OW16369   3.884   0.998   1.922
 5157SOL    HW116370   3.954   0.958   1.861
 5157SOL    HW216371   3.878   1.096   1.904
 5158SOL     OW16372   1.487   2.398   1.952
 5158SOL    HW116373   1.452   2.334   2.021
 5158SOL    HW216374   1.525   2.347   1.875
 5159SOL     OW16375   6.620   3.087   5.708
 5159SOL    HW116376   6.622   3.182   5.677
 5159SOL    HW216377   6.706   3.043   5.681
 5160SOL     OW16378   6.852   0.038   3.305
 5160SOL    HW116379   6.919   6.990   3.275
 5160SOL    HW216380   6.896   0.100   3.370
 5161SOL     OW16381   1.200   2.005   5.824
 5161SOL    HW116382   1.226   2.100   5.844
 5161SOL    HW216383   1.279   1.957   5.786
 5162SOL     OW16384   0.322   6.719   4.916
 5162SOL    HW116385   0.384   6.644   4.940
 5162SOL    HW216386   0.246   6.721   4.981
 5163SOL     OW16387   2.837   0.782   1.789
 5163SOL    HW116388   2.872   0.875   1.774
 5163SOL    HW216389   2.785   0.753   1.709
 5164SOL     OW16390   2.663   4.023   0.153
 5164SOL    HW116391   2.691   4.108   0.109
 5164SOL    HW216392   2.685   3.945   0.094
 5165SOL     OW16393   1.860   4.811   5.962
 5165SOL    HW116394   1.900   4.735   6.014
 5165SOL    HW216395   1.821   4.878   6.025
 5166SOL     OW16396   0.033   5.273   5.813
 5166SOL    HW116397   6.957   5.300   5.827
 5166SOL    HW216398   0.071   5.327   5.738
 5167SOL     OW16399   5.720   3.518   5.980
 5167SOL    HW116400   5.757   3.569   5.902
 5167SOL    HW216401   5.710   3.579   6.058
 5168SOL     OW16402   4.789   1.841   3.426
 5168SOL    HW116403   4.699   1.883   3.433
 5168SOL    HW216404   4.781   1.742   3.431
 5169SOL     OW16405   5.587   5.576   4.247
 5169SOL    HW116406   5.509   5.528   4.207
 5169SOL    HW216407   5.572   5.675   4.241
 5170SOL     OW16408   2.166   4.222   6.165
 5170SOL    HW116409   2.098   4.173   6.111
 5170SOL    HW216410   2.258   4.189   6.141
 5171SOL     OW16411   2.318   6.492   6.176
 5171SOL    HW116412   2.250   6.552   6.132
 5171SOL    HW216413   2.278   6.448   6.256
 5172SOL     OW16414   5.708   5.289   6.437
 5172SOL    HW116415   5.699   5.223   6.362
 5172SOL    HW216416   5.676   5.379   6.406
 5173SOL     OW16417   4.223   5.390   4.461
 5173SOL    HW116418   4.230   5.368   4.558
 5173SOL    HW216419   4.161   5.326   4.416
 5174SOL     OW16420   1.197   6.192   2.751
 5174SOL    HW116421   1.129   6.241   2.805
 5174SOL    HW216422   1.288   6.213   2.786
 5175SOL     OW16423   2.458   2.284   6.337
 5175SOL    HW116424   2.545   2.251   6.374
 5175SOL    HW216425   2.458   2.272   6.238
 5176SOL     OW16426   6.053   6.193   6.552
 5176SOL    HW116427   5.976   6.256   6.540
 5176SOL    HW216428   6.138   6.245   6.555
 5177SOL     OW16429   5.268   6.052   0.479
 5177SOL    HW116430   5.169   6.069   0.473
 5177SOL    HW216431   5.289   5.962   0.443
 5178SOL     OW16432   0.582   4.091   1.341
 5178SOL    HW116433   0.617   4.064   1.431
 5178SOL    HW216434   0.560   4.009   1.288
 5179SOL     OW16435   5.040   5.367   3.140
 5179SOL    HW116436   5.043   5.406   3.232
 5179SOL    HW216437   5.101   5.289   3.134
 5180SOL     OW16438   1.646   4.906   1.947
 5180SOL    HW116439   1.706   4.856   1.885
 5180SOL    HW216440   1.700   4.971   2.000
 5181SOL     OW16441   0.023   1.571   5.289
 5181SOL    HW116442   0.090   1.630   5.243
 5181SOL    HW216443   0.026   1.480   5.249
 5182SOL     OW16444   2.296   6.595   1.975
 5182SOL    HW116445   2.367   6.529   1.950
 5182SOL    HW216446   2.324   6.645   2.057
 5183SOL     OW16447   4.665   2.612   3.484
 5183SOL    HW116448   4.580   2.579   3.524
 5183SOL    HW216449   4.739   2.547   3.503
 5184SOL     OW16450   1.977   1.932   2.702
 5184SOL    HW116451   2.013   2.022   2.679
 5184SOL    HW216452   2.053   1.868   2.714
 5185SOL     OW16453   6.513   6.732   1.864
 5185SOL    HW116454   6.519   6.826   1.896
 5185SOL    HW216455   6.604   6.698   1.842
 5186SOL     OW16456   6.026   2.253   6.859
 5186SOL    HW116457   6.116   2.294   6.872
 5186SOL    HW216458   6.018   2.170   6.915
 5187SOL     OW16459   1.774   4.719   5.106
 5187SOL    HW116460   1.801   4.812   5.080
 5187SOL    HW216461   1.679   4.703   5.079
 5188SOL     OW16462   0.016   0.633   1.592
 5188SOL    HW116463   7.014   0.614   1.688
 5188SOL    HW216464   0.070   0.558   1.555
 5189SOL     OW16465   5.034   5.989   6.740
 5189SOL    HW116466   5.087   6.060   6.787
 5189SOL    HW216467   4.942   6.024   6.719
 5190SOL     OW16468   1.778   4.751   0.510
 5190SOL    HW116469   1.775   4.709   0.600
 5190SOL    HW216470   1.689   4.742   0.465
 5191SOL     OW16471   2.722   4.336   1.651
 5191SOL    HW116472   2.773   4.339   1.565
 5191SOL    HW216473   2.757   4.405   1.713
 5192SOL     OW16474   0.733   4.621   2.938
 5192SOL    HW116475   0.742   4.528   2.975
 5192SOL    HW216476   0.779   4.626   2.850
 5193SOL     OW16477   4.642   0.897   5.589
 5193SOL    HW116478   4.714   0.832   5.564
 5193SOL    HW216479   4.587   0.857   5.662
 5194SOL     OW16480   4.391   1.874   4.777
 5194SOL    HW116481   4.449   1.954   4.791
 5194SOL    HW216482   4.419   1.801   4.839
 5195SOL     OW16483   1.541   0.588   5.362
 5195SOL    HW116484   1.601   0.543   5.297
 5195SOL    HW216485   1.595   0.633   5.433
 5196SOL     OW16486   5.540   6.615   3.216
 5196SOL    HW116487   5.551   6.534   3.274
 5196SOL    HW216488   5.630   6.655   3.197
 5197SOL     OW16489   1.432   3.221   4.594
 5197SOL    HW116490   1.461   3.308   4.634
 5197SOL    HW216491   1.441   3.224   4.495
 5198SOL     OW16492   5.888   5.127   3.001
 5198SOL    HW116493   5.812   5.077   3.042
 5198SOL    HW216494   5.969   5.068   2.998
 5199SOL     OW16495   0.395   4.596   1.346
 5199SOL    HW116496   0.435   4.510   1.315
 5199SOL    HW216497   0.332   4.578   1.421
 5200SOL     OW16498   6.526   3.659   5.076
 5200SOL    HW116499   6.466   3.738   5.071
 5200SOL    HW216500   6.526   3.622   5.169
 5201SOL     OW16501   0.999   6.279   4.659
 5201SOL    HW116502   1.016   6.377   4.662
 5201SOL    HW216503   1.070   6.234   4.605
 5202SOL     OW16504   0.134   4.274   1.947
 5202SOL    HW116505   0.166   4.225   1.866
 5202SOL    HW216506   0.074   4.215   2.000
 5203SOL     OW16507   6.525   3.537   6.851
 5203SOL    HW116508   6.590   3.612   6.846
 5203SOL    HW216509   6.439   3.570   6.890
 5204SOL     OW16510   5.371   5.343   6.046
 5204SOL    HW116511   5.366   5.244   6.030
 5204SOL    HW216512   5.341   5.363   6.140
 5205SOL     OW16513   2.566   6.434   0.436
 5205SOL    HW116514   2.570   6.380   0.352
 5205SOL    HW216515   2.525   6.380   0.509
 5206SOL     OW16516   0.057   4.285   4.565
 5206SOL    HW116517   0.129   4.285   4.496
 5206SOL    HW216518   7.018   4.365   4.552
 5207SOL     OW16519   1.729   5.016   3.155
 5207SOL    HW116520   1.810   4.961   3.137
 5207SOL    HW216521   1.672   5.019   3.072
 5208SOL     OW16522   5.319   0.987   0.084
 5208SOL    HW116523   5.383   0.914   0.109
 5208SOL    HW216524   5.296   1.039   0.166
 5209SOL     OW16525   5.483   5.104   3.356
 5209SOL    HW116526   5.416   5.074   3.289
 5209SOL    HW216527   5.481   5.204   3.363
 5210SOL     OW16528   4.819   4.544   2.955
 5210SOL    HW116529   4.840   4.581   2.865
 5210SOL    HW216530   4.838   4.613   3.025
 5211SOL     OW16531   2.929   3.615   2.112
 5211SOL    HW116532   2.905   3.681   2.182
 5211SOL    HW216533   3.021   3.581   2.128
 5212SOL     OW16534   0.670   6.959   6.312
 5212SOL    HW116535   0.669   6.984   6.215
 5212SOL    HW216536   0.692   0.019   6.366
 5213SOL     OW16537   4.160   2.173   6.494
 5213SOL    HW116538   4.181   2.107   6.422
 5213SOL    HW216539   4.198   2.262   6.470
 5214SOL     OW16540   4.765   1.449   0.264
 5214SOL    HW116541   4.710   1.371   0.235
 5214SOL    HW216542   4.861   1.432   0.243
 5215SOL     OW16543   5.643   5.110   3.737
 5215SOL    HW116544   5.593   5.196   3.743
 5215SOL    HW216545   5.737   5.124   3.768
 5216SOL     OW16546   4.176   5.909   1.694
 5216SOL    HW116547   4.204   5.947   1.782
 5216SOL    HW216548   4.235   5.831   1.672
 5217SOL     OW16549   3.017   4.903   3.593
 5217SOL    HW116550   3.020   4.969   3.668
 5217SOL    HW216551   3.111   4.879   3.567
 5218SOL     OW16552   2.208   0.014   3.999
 5218SOL    HW116553   2.179   6.944   3.968
 5218SOL    HW216554   2.129   0.066   4.032
 5219SOL     OW16555   2.223   7.019   0.798
 5219SOL    HW116556   2.238   6.933   0.846
 5219SOL    HW216557   2.160   0.057   0.850
 5220SOL     OW16558   1.396   6.686   1.740
 5220SOL    HW116559   1.319   6.750   1.743
 5220SOL    HW216560   1.426   6.665   1.833
 5221SOL     OW16561   3.777   1.265   6.969
 5221SOL    HW116562   3.801   1.179   6.926
 5221SOL    HW216563   3.775   1.253   0.048
 5222SOL     OW16564   0.637   6.823   2.694
 5222SOL    HW116565   0.616   6.729   2.665
 5222SOL    HW216566   0.556   6.864   2.736
 5223SOL     OW16567   4.816   6.550   1.104
 5223SOL    HW116568   4.797   6.576   1.009
 5223SOL    HW216569   4.743   6.586   1.163
 5224SOL     OW16570   5.608   1.171   3.174
 5224SOL    HW116571   5.653   1.082   3.173
 5224SOL    HW216572   5.602   1.206   3.080
 5225SOL     OW16573   6.927   6.534   5.675
 5225SOL    HW116574   6.868   6.460   5.709
 5225SOL    HW216575   7.006   6.544   5.736
 5226SOL     OW16576   2.609   6.369   3.992
 5226SOL    HW116577   2.672   6.323   4.055
 5226SOL    HW216578   2.643   6.461   3.973
 5227SOL     OW16579   5.426   3.440   3.793
 5227SOL    HW116580   5.440   3.538   3.780
 5227SOL    HW216581   5.329   3.419   3.783
 5228SOL     OW16582   5.177   0.690   1.163
 5228SOL    HW116583   5.252   0.631   1.194
 5228SOL    HW216584   5.213   0.781   1.142
 5229SOL     OW16585   1.316   4.351   3.429
 5229SOL    HW116586   1.392   4.382   3.485
 5229SOL    HW216587   1.234   4.404   3.451
 5230SOL     OW16588   1.327   0.008   5.951
 5230SOL    HW116589   1.387   0.028   6.028
 5230SOL    HW216590   1.232   0.023   5.978
 5231SOL     OW16591   3.148   3.017   2.917
 5231SOL    HW116592   3.154   2.935   2.859
 5231SOL    HW216593   3.093   3.086   2.872
 5232SOL     OW16594   5.310   2.958   5.439
 5232SOL    HW116595   5.319   2.858   5.431
 5232SOL    HW216596   5.375   2.993   5.506
 5233SOL     OW16597   0.820   0.334   3.073
 5233SOL    HW116598   0.820   0.319   2.975
 5233SOL    HW216599   0.832   0.432   3.092
 5234SOL     OW16600   3.886   5.229   1.373
 5234SOL    HW116601   3.968   5.214   1.428
 5234SOL    HW216602   3.819   5.156   1.392
 5235SOL     OW16603   0.503   3.134   1.308
 5235SOL    HW116604   0.603   3.139   1.318
 5235SOL    HW216605   0.481   3.100   1.217
 5236SOL     OW16606   5.949   3.234   0.906
 5236SOL    HW116607   6.024   3.244   0.840
 5236SOL    HW216608   5.986   3.229   0.999
 5237SOL     OW16609   1.713   1.637   3.652
 5237SOL    HW116610   1.780   1.608   3.583
 5237SOL    HW216611   1.663   1.717   3.619
 5238SOL     OW16612   2.178   3.696   1.033
 5238SOL    HW116613   2.138   3.736   0.951
 5238SOL    HW216614   2.122   3.619   1.064
 5239SOL     OW16615   2.902   3.295   4.439
 5239SOL    HW116616   2.877   3.321   4.533
 5239SOL    HW216617   2.916   3.378   4.385
 5240SOL     OW16618   3.531   1.740   5.091
 5240SOL    HW116619   3.446   1.770   5.048
 5240SOL    HW216620   3.541   1.785   5.180
 5241SOL     OW16621   2.945   5.596   5.653
 5241SOL    HW116622   2.872   5.617   5.587
 5241SOL    HW216623   3.033   5.626   5.616
 5242SOL     OW16624   4.830   0.540   4.890
 5242SOL    HW116625   4.828   0.617   4.953
 5242SOL    HW216626   4.911   0.547   4.831
 5243SOL     OW16627   0.561   4.419   0.315
 5243SOL    HW116628   0.637   4.355   0.328
 5243SOL    HW216629   0.569   4.494   0.380
 5244SOL     OW16630   5.892   3.261   6.972
 5244SOL    HW116631   5.906   3.232   6.878
 5244SOL    HW216632   5.826   3.337   6.974
 5245SOL     OW16633   4.300   4.799   6.221
 5245SOL    HW116634   4.337   4.743   6.295
 5245SOL    HW216635   4.370   4.813   6.152
 5246SOL     OW16636   1.447   3.974   2.895
 5246SOL    HW116637   1.481   3.974   2.988
 5246SOL    HW216638   1.409   3.883   2.873
 5247SOL     OW16639   0.401   4.593   0.759
 5247SOL    HW116640   0.446   4.682   0.747
 5247SOL    HW216641   0.351   4.593   0.845
 5248SOL     OW16642   5.104   1.144   0.291
 5248SOL    HW116643   5.014   1.146   0.336
 5248SOL    HW216644   5.094   1.173   0.196
 5249SOL     OW16645   1.491   5.487   6.554
 5249SOL    HW116646   1.445   5.421   6.614
 5249SOL    HW216647   1.550   5.546   6.609
 5250SOL     OW16648   1.289   1.554   5.692
 5250SOL    HW116649   1.201   1.570   5.736
 5250SOL    HW216650   1.278   1.485   5.620
 5251SOL     OW16651   1.157   2.970   0.518
 5251SOL    HW116652   1.229   2.918   0.564
 5251SOL    HW216653   1.172   3.068   0.534
 5252SOL     OW16654   5.146   6.769   1.216
 5252SOL    HW116655   5.055   6.765   1.175
 5252SOL    HW216656   5.155   6.855   1.267
 5253SOL     OW16657   5.988   2.947   3.917
 5253SOL    HW116658   5.978   2.850   3.895
 5253SOL    HW216659   6.035   2.956   4.005
 5254SOL     OW16660   4.943   0.532   4.276
 5254SOL    HW116661   4.977   0.550   4.183
 5254SOL    HW216662   5.015   0.490   4.330
 5255SOL     OW16663   3.073   6.157   4.428
 5255SOL    HW116664   3.165   6.193   4.446
 5255SOL    HW216665   3.047   6.094   4.502
 5256SOL     OW16666   5.073   6.436   2.022
 5256SOL    HW116667   4.974   6.444   2.007
 5256SOL    HW216668   5.105   6.514   2.076
 5257SOL     OW16669   3.322   1.249   3.503
 5257SOL    HW116670   3.402   1.290   3.459
 5257SOL    HW216671   3.239   1.293   3.469
 5258SOL     OW16672   5.978   1.968   2.023
 5258SOL    HW116673   5.948   2.059   2.052
 5258SOL    HW216674   6.035   1.977   1.941
 5259SOL     OW16675   5.492   4.152   1.552
 5259SOL    HW116676   5.394   4.137   1.552
 5259SOL    HW216677   5.518   4.204   1.634
 5260SOL     OW16678   4.962   2.513   1.573
 5260SOL    HW116679   4.947   2.417   1.551
 5260SOL    HW216680   4.905   2.539   1.651
 5261SOL     OW16681   2.423   2.635   4.675
 5261SOL    HW116682   2.472   2.708   4.626
 5261SOL    HW216683   2.465   2.547   4.655
 5262SOL     OW16684   1.567   0.162   1.581
 5262SOL    HW116685   1.499   0.131   1.647
 5262SOL    HW216686   1.532   0.149   1.488
 5263SOL     OW16687   0.943   6.479   0.060
 5263SOL    HW116688   0.857   6.439   0.028
 5263SOL    HW216689   0.926   6.570   0.097
 5264SOL     OW16690   1.003   1.709   1.348
 5264SOL    HW116691   0.912   1.670   1.358
 5264SOL    HW216692   1.046   1.673   1.265
 5265SOL     OW16693   5.487   4.934   3.594
 5265SOL    HW116694   5.472   4.969   3.501
 5265SOL    HW216695   5.541   5.000   3.646
 5266SOL     OW16696   1.398   6.954   0.899
 5266SOL    HW116697   1.357   6.952   0.990
 5266SOL    HW216698   1.403   0.028   0.866
 5267SOL     OW16699   4.479   3.646   5.328
 5267SOL    HW116700   4.492   3.740   5.358
 5267SOL    HW216701   4.550   3.621   5.263
 5268SOL     OW16702   5.672   5.156   5.743
 5268SOL    HW116703   5.680   5.223   5.669
 5268SOL    HW216704   5.670   5.064   5.703
 5269SOL     OW16705   2.211   4.582   5.953
 5269SOL    HW116706   2.271   4.514   5.996
 5269SOL    HW216707   2.138   4.606   6.017
 5270SOL     OW16708   6.583   2.467   3.173
 5270SOL    HW116709   6.624   2.379   3.199
 5270SOL    HW216710   6.505   2.486   3.231
 5271SOL     OW16711   5.420   3.798   5.616
 5271SOL    HW116712   5.443   3.893   5.639
 5271SOL    HW216713   5.498   3.755   5.570
 5272SOL     OW16714   1.918   1.057   3.953
 5272SOL    HW116715   1.920   1.154   3.977
 5272SOL    HW216716   1.979   1.040   3.876
 5273SOL     OW16717   0.148   0.182   4.985
 5273SOL    HW116718   0.130   0.173   5.083
 5273SOL    HW216719   0.103   0.108   4.935
 5274SOL     OW16720   0.736   5.645   4.801
 5274SOL    HW116721   0.651   5.628   4.752
 5274SOL    HW216722   0.807   5.674   4.736
 5275SOL     OW16723   1.468   6.402   6.871
 5275SOL    HW116724   1.563   6.375   6.886
 5275SOL    HW216725   1.435   6.455   6.949
 5276SOL     OW16726   0.047   0.160   0.790
 5276SOL    HW116727   0.099   0.173   0.874
 5276SOL    HW216728   6.971   0.185   0.806
 5277SOL     OW16729   0.467   1.140   2.726
 5277SOL    HW116730   0.390   1.184   2.680
 5277SOL    HW216731   0.552   1.172   2.683
 5278SOL     OW16732   0.728   3.535   6.283
 5278SOL    HW116733   0.636   3.549   6.247
 5278SOL    HW216734   0.752   3.611   6.344
 5279SOL     OW16735   2.828   6.554   6.937
 5279SOL    HW116736   2.768   6.553   6.857
 5279SOL    HW216737   2.817   6.470   6.988
 5280SOL     OW16738   4.719   6.246   4.894
 5280SOL    HW116739   4.687   6.155   4.868
 5280SOL    HW216740   4.690   6.312   4.824
 5281SOL     OW16741   2.890   6.752   4.958
 5281SOL    HW116742   2.884   6.822   5.029
 5281SOL    HW216743   2.940   6.673   4.992
 5282SOL     OW16744   0.501   6.877   0.742
 5282SOL    HW116745   0.517   6.852   0.646
 5282SOL    HW216746   0.452   6.964   0.746
 5283SOL     OW16747   1.039   0.894   4.037
 5283SOL    HW116748   1.084   0.902   4.126
 5283SOL    HW216749   1.082   0.957   3.973
 5284SOL     OW16750   4.861   3.468   2.038
 5284SOL    HW116751   4.784   3.526   2.008
 5284SOL    HW216752   4.874   3.394   1.972
 5285SOL     OW16753   1.472   2.087   4.007
 5285SOL    HW116754   1.392   2.111   4.061
 5285SOL    HW216755   1.481   2.152   3.931
 5286SOL     OW16756   6.517   2.669   1.645
 5286SOL    HW116757   6.552   2.679   1.552
 5286SOL    HW216758   6.467   2.751   1.671
 5287SOL     OW16759   1.082   5.344   1.719
 5287SOL    HW116760   1.053   5.278   1.650
 5287SOL    HW216761   1.001   5.385   1.761
 5288SOL     OW16762   4.053   0.821   1.789
 5288SOL    HW116763   4.019   0.737   1.832
 5288SOL    HW216764   4.096   0.798   1.702
 5289SOL     OW16765   2.683   4.381   6.034
 5289SOL    HW116766   2.770   4.405   5.989
 5289SOL    HW216767   2.609   4.387   5.968
 5290SOL     OW16768   1.748   3.431   4.566
 5290SOL    HW116769   1.780   3.438   4.471
 5290SOL    HW216770   1.678   3.501   4.583
 5291SOL     OW16771   3.226   4.960   4.502
 5291SOL    HW116772   3.326   4.963   4.498
 5291SOL    HW216773   3.190   5.053   4.504
 5292SOL     OW16774   0.346   3.890   4.635
 5292SOL    HW116775   0.394   3.810   4.670
 5292SOL    HW216776   0.343   3.885   4.535
 5293SOL     OW16777   2.299   0.142   4.411
 5293SOL    HW116778   2.233   0.218   4.402
 5293SOL    HW216779   2.252   0.056   4.394
 5294SOL     OW16780   4.894   6.846   4.898
 5294SOL    HW116781   4.890   6.879   4.993
 5294SOL    HW216782   4.804   6.857   4.855
 5295SOL     OW16783   2.040   1.103   2.271
 5295SOL    HW116784   2.132   1.090   2.307
 5295SOL    HW216785   2.030   1.054   2.185
 5296SOL     OW16786   4.589   4.706   1.826
 5296SOL    HW116787   4.545   4.795   1.815
 5296SOL    HW216788   4.519   4.634   1.827
 5297SOL     OW16789   2.584   5.734   6.233
 5297SOL    HW116790   2.493   5.771   6.213
 5297SOL    HW216791   2.650   5.770   6.168
 5298SOL     OW16792   2.210   1.669   0.377
 5298SOL    HW116793   2.301   1.662   0.335
 5298SOL    HW216794   2.154   1.733   0.325
 5299SOL     OW16795   2.280   0.815   1.750
 5299SOL    HW116796   2.354   0.787   1.689
 5299SOL    HW216797   2.209   0.862   1.697
 5300SOL     OW16798   2.987   5.081   0.143
 5300SOL    HW116799   3.053   5.152   0.116
 5300SOL    HW216800   3.019   4.992   0.110
 5301SOL     OW16801   6.180   0.246   5.997
 5301SOL    HW116802   6.096   0.203   6.029
 5301SOL    HW216803   6.230   0.183   5.937
 5302SOL     OW16804   5.182   5.916   2.793
 5302SOL    HW116805   5.243   5.950   2.865
 5302SOL    HW216806   5.172   5.986   2.722
 5303SOL     OW16807   1.161   5.456   5.322
 5303SOL    HW116808   1.189   5.369   5.362
 5303SOL    HW216809   1.128   5.442   5.229
 5304SOL     OW16810   0.308   0.768   3.182
 5304SOL    HW116811   0.375   0.702   3.216
 5304SOL    HW216812   0.266   0.815   3.260
 5305SOL     OW16813   7.006   5.150   4.010
 5305SOL    HW116814   0.023   5.191   3.927
 5305SOL    HW216815   0.049   5.082   4.046
 5306SOL     OW16816   1.004   2.251   5.893
 5306SOL    HW116817   1.015   2.188   5.970
 5306SOL    HW216818   1.093   2.291   5.871
 5307SOL     OW16819   6.778   1.833   1.357
 5307SOL    HW116820   6.832   1.773   1.415
 5307SOL    HW216821   6.838   1.901   1.314
 5308SOL     OW16822   1.812   4.035   2.941
 5308SOL    HW116823   1.893   3.977   2.931
 5308SOL    HW216824   1.749   3.992   3.006
 5309SOL     OW16825   6.174   5.291   3.185
 5309SOL    HW116826   6.258   5.326   3.144
 5309SOL    HW216827   6.096   5.320   3.130
 5310SOL     OW16828   6.077   2.701   3.287
 5310SOL    HW116829   6.129   2.628   3.243
 5310SOL    HW216830   6.001   2.662   3.340
 5311SOL     OW16831   5.743   0.336   0.376
 5311SOL    HW116832   5.817   0.272   0.356
 5311SOL    HW216833   5.692   0.354   0.292
 5312SOL     OW16834   6.211   6.491   0.550
 5312SOL    HW116835   6.268   6.453   0.622
 5312SOL    HW216836   6.200   6.589   0.564
 5313SOL     OW16837   1.193   6.606   5.592
 5313SOL    HW116838   1.162   6.564   5.677
 5313SOL    HW216839   1.117   6.609   5.527
 5314SOL     OW16840   6.065   1.225   1.675
 5314SOL    HW116841   6.097   1.238   1.581
 5314SOL    HW216842   6.065   1.313   1.723
 5315SOL     OW16843   4.572   1.626   3.999
 5315SOL    HW116844   4.611   1.565   3.931
 5315SOL    HW216845   4.628   1.624   4.082
 5316SOL     OW16846   0.990   2.509   4.842
 5316SOL    HW116847   0.993   2.481   4.938
 5316SOL    HW216848   0.901   2.550   4.822
 5317SOL     OW16849   5.848   2.455   6.819
 5317SOL    HW116850   5.860   2.482   6.724
 5317SOL    HW216851   5.910   2.380   6.841
 5318SOL     OW16852   0.089   4.132   6.485
 5318SOL    HW116853   0.172   4.187   6.492
 5318SOL    HW216854   0.114   4.035   6.473
 5319SOL     OW16855   4.075   6.127   2.260
 5319SOL    HW116856   4.032   6.210   2.294
 5319SOL    HW216857   4.031   6.098   2.175
 5320SOL     OW16858   3.862   5.778   0.997
 5320SOL    HW116859   3.927   5.808   1.068
 5320SOL    HW216860   3.770   5.778   1.034
 5321SOL     OW16861   2.103   4.368   5.587
 5321SOL    HW116862   2.151   4.402   5.506
 5321SOL    HW216863   2.085   4.444   5.650
 5322SOL     OW16864   4.412   6.972   2.044
 5322SOL    HW116865   4.449   6.942   2.132
 5322SOL    HW216866   4.313   6.961   2.044
 5323SOL     OW16867   4.254   0.455   5.888
 5323SOL    HW116868   4.280   0.499   5.801
 5323SOL    HW216869   4.154   0.451   5.895
 5324SOL     OW16870   1.941   2.146   1.279
 5324SOL    HW116871   1.897   2.191   1.356
 5324SOL    HW216872   2.012   2.083   1.312
 5325SOL     OW16873   2.105   2.286   4.978
 5325SOL    HW116874   2.039   2.269   5.051
 5325SOL    HW216875   2.113   2.384   4.962
 5326SOL     OW16876   6.297   6.789   1.658
 5326SOL    HW116877   6.301   6.728   1.578
 5326SOL    HW216878   6.375   6.769   1.718
 5327SOL     OW16879   0.323   2.627   5.673
 5327SOL    HW116880   0.413   2.611   5.715
 5327SOL    HW216881   0.291   2.542   5.631
 5328SOL     OW16882   4.616   5.575   0.235
 5328SOL    HW116883   4.578   5.536   0.152
 5328SOL    HW216884   4.629   5.503   0.304
 5329SOL     OW16885   1.788   6.628   6.180
 5329SOL    HW116886   1.743   6.578   6.254
 5329SOL    HW216887   1.775   6.727   6.194
 5330SOL     OW16888   2.402   4.829   0.905
 5330SOL    HW116889   2.416   4.764   0.830
 5330SOL    HW216890   2.491   4.856   0.942
 5331SOL     OW16891   6.233   1.021   6.044
 5331SOL    HW116892   6.327   1.008   6.075
 5331SOL    HW216893   6.233   1.076   5.960
 5332SOL     OW16894   0.198   4.734   1.573
 5332SOL    HW116895   0.160   4.811   1.520
 5332SOL    HW216896   0.143   4.652   1.554
 5333SOL     OW16897   1.067   6.150   4.938
 5333SOL    HW116898   1.027   6.061   4.913
 5333SOL    HW216899   1.069   6.208   4.857
 5334SOL     OW16900   3.786   0.574   4.691
 5334SOL    HW116901   3.812   0.644   4.624
 5334SOL    HW216902   3.829   0.487   4.666
 5335SOL     OW16903   0.026   5.880   6.882
 5335SOL    HW116904   6.995   5.966   6.874
 5335SOL    HW216905   0.077   5.865   6.797
 5336SOL     OW16906   1.033   4.089   1.660
 5336SOL    HW116907   1.118   4.137   1.637
 5336SOL    HW216908   1.010   4.108   1.755
 5337SOL     OW16909   5.634   3.726   1.265
 5337SOL    HW116910   5.676   3.652   1.318
 5337SOL    HW216911   5.591   3.791   1.328
 5338SOL     OW16912   6.206   1.335   6.797
 5338SOL    HW116913   6.204   1.388   6.881
 5338SOL    HW216914   6.295   1.346   6.753
 5339SOL     OW16915   6.990   0.359   2.185
 5339SOL    HW116916   7.010   0.406   2.271
 5339SOL    HW216917   6.892   0.336   2.181
 5340SOL     OW16918   5.355   2.471   6.044
 5340SOL    HW116919   5.296   2.416   5.985
 5340SOL    HW216920   5.435   2.502   5.993
 5341SOL     OW16921   3.856   0.251   0.653
 5341SOL    HW116922   3.784   0.182   0.653
 5341SOL    HW216923   3.944   0.207   0.673
 5342SOL     OW16924   2.342   0.976   6.082
 5342SOL    HW116925   2.393   0.915   6.143
 5342SOL    HW216926   2.299   1.048   6.135
 5343SOL     OW16927   4.024   3.913   2.115
 5343SOL    HW116928   4.102   3.975   2.127
 5343SOL    HW216929   3.987   3.923   2.023
 5344SOL     OW16930   1.795   2.284   2.838
 5344SOL    HW116931   1.839   2.294   2.749
 5344SOL    HW216932   1.818   2.363   2.896
 5345SOL     OW16933   4.799   0.144   2.070
 5345SOL    HW116934   4.829   0.236   2.095
 5345SOL    HW216935   4.726   0.149   2.003
 5346SOL     OW16936   2.589   6.565   3.190
 5346SOL    HW116937   2.687   6.568   3.167
 5346SOL    HW216938   2.570   6.479   3.238
 5347SOL     OW16939   0.145   1.991   2.096
 5347SOL    HW116940   0.099   1.911   2.056
 5347SOL    HW216941   0.076   2.059   2.121
 5348SOL     OW16942   6.882   0.829   0.195
 5348SOL    HW116943   6.805   0.780   0.236
 5348SOL    HW216944   6.968   0.793   0.232
 5349SOL     OW16945   6.370   0.106   1.646
 5349SOL    HW116946   6.460   0.126   1.685
 5349SOL    HW216947   6.356   0.165   1.566
 5350SOL     OW16948   2.486   0.538   6.725
 5350SOL    HW116949   2.495   0.455   6.780
 5350SOL    HW216950   2.393   0.573   6.732
 5351SOL     OW16951   4.191   0.413   2.120
 5351SOL    HW116952   4.170   0.369   2.032
 5351SOL    HW216953   4.285   0.391   2.146
 5352SOL     OW16954   3.551   6.195   3.405
 5352SOL    HW116955   3.493   6.177   3.485
 5352SOL    HW216956   3.493   6.201   3.323
 5353SOL     OW16957   5.567   0.433   5.518
 5353SOL    HW116958   5.517   0.415   5.603
 5353SOL    HW216959   5.656   0.388   5.522
 5354SOL     OW16960   1.418   3.431   1.629
 5354SOL    HW116961   1.484   3.506   1.621
 5354SOL    HW216962   1.413   3.401   1.724
 5355SOL     OW16963   4.529   1.363   5.003
 5355SOL    HW116964   4.444   1.355   5.056
 5355SOL    HW216965   4.607   1.365   5.066
 5356SOL     OW16966   5.819   3.606   0.717
 5356SOL    HW116967   5.782   3.521   0.755
 5356SOL    HW216968   5.881   3.584   0.641
 5357SOL     OW16969   3.825   6.844   0.812
 5357SOL    HW116970   3.764   6.765   0.820
 5357SOL    HW216971   3.776   6.919   0.767
 5358SOL     OW16972   4.577   3.273   1.170
 5358SOL    HW116973   4.535   3.223   1.095
 5358SOL    HW216974   4.516   3.271   1.250
 5359SOL     OW16975   2.735   0.007   6.844
 5359SOL    HW116976   2.763   6.960   6.912
 5359SOL    HW216977   2.644   7.005   6.810
 5360SOL     OW16978   4.014   0.428   6.451
 5360SOL    HW116979   4.015   0.344   6.506
 5360SOL    HW216980   4.095   0.482   6.472
 5361SOL     OW16981   2.081   0.775   6.224
 5361SOL    HW116982   2.133   0.690   6.233
 5361SOL    HW216983   2.027   0.771   6.140
 5362SOL     OW16984   3.947   5.870   3.982
 5362SOL    HW116985   3.950   5.782   3.935
 5362SOL    HW216986   3.855   5.907   3.978
 5363SOL     OW16987   0.865   5.062   5.272
 5363SOL    HW116988   0.856   5.157   5.243
 5363SOL    HW216989   0.962   5.041   5.288
 5364SOL     OW16990   0.821   6.510   6.698
 5364SOL    HW116991   0.835   6.609   6.696
 5364SOL    HW216992   0.808   6.476   6.605
 5365SOL     OW16993   3.814   1.485   6.412
 5365SOL    HW116994   3.782   1.489   6.317
 5365SOL    HW216995   3.774   1.406   6.458
 5366SOL     OW16996   3.547   4.337   6.452
 5366SOL    HW116997   3.626   4.350   6.512
 5366SOL    HW216998   3.466   4.377   6.494
 5367SOL     OW16999   0.569   4.756   1.046
 5367SOL    HW117000   0.517   4.793   0.969
 5367SOL    HW217001   0.535   4.795   1.131
 5368SOL     OW17002   6.512   0.779   3.631
 5368SOL    HW117003   6.484   0.778   3.727
 5368SOL    HW217004   6.485   0.865   3.589
 5369SOL     OW17005   1.727   3.638   2.466
 5369SOL    HW117006   1.647   3.582   2.487
 5369SOL    HW217007   1.718   3.727   2.509
 5370SOL     OW17008   3.816   2.961   1.480
 5370SOL    HW117009   3.879   3.032   1.512
 5370SOL    HW217010   3.780   2.988   1.390
 5371SOL     OW17011   1.683   4.061   4.986
 5371SOL    HW117012   1.622   4.136   4.962
 5371SOL    HW217013   1.744   4.089   5.059
 5372SOL     OW17014   2.896   5.792   2.958
 5372SOL    HW117015   2.912   5.859   2.886
 5372SOL    HW217016   2.876   5.703   2.918
 5373SOL     OW17017   1.699   5.200   3.707
 5373SOL    HW117018   1.662   5.150   3.786
 5373SOL    HW217019   1.758   5.139   3.655
 5374SOL     OW17020   3.426   2.513   0.813
 5374SOL    HW117021   3.500   2.447   0.805
 5374SOL    HW217022   3.433   2.580   0.739
 5375SOL     OW17023   1.805   4.016   4.735
 5375SOL    HW117024   1.769   4.038   4.825
 5375SOL    HW217025   1.814   3.917   4.725
 5376SOL     OW17026   2.611   4.358   0.042
 5376SOL    HW117027   2.563   4.352   6.974
 5376SOL    HW217028   2.701   4.314   0.034
 5377SOL     OW17029   0.736   1.658   1.391
 5377SOL    HW117030   0.742   1.635   1.488
 5377SOL    HW217031   0.718   1.756   1.381
 5378SOL     OW17032   4.258   6.952   0.403
 5378SOL    HW117033   4.326   6.952   0.329
 5378SOL    HW217034   4.174   6.994   0.370
 5379SOL     OW17035   6.591   6.741   1.090
 5379SOL    HW117036   6.497   6.748   1.124
 5379SOL    HW217037   6.650   6.804   1.141
 5380SOL     OW17038   2.583   0.302   4.313
 5380SOL    HW117039   2.624   0.325   4.225
 5380SOL    HW217040   2.490   0.268   4.299
 5381SOL     OW17041   5.544   3.314   1.739
 5381SOL    HW117042   5.514   3.219   1.751
 5381SOL    HW217043   5.590   3.345   1.822
 5382SOL     OW17044   1.832   0.512   1.431
 5382SOL    HW117045   1.737   0.483   1.444
 5382SOL    HW217046   1.884   0.492   1.515
 5383SOL     OW17047   2.046   2.094   4.827
 5383SOL    HW117048   2.001   2.030   4.890
 5383SOL    HW217049   2.078   2.174   4.877
 5384SOL     OW17050   5.791   6.401   4.203
 5384SOL    HW117051   5.747   6.459   4.272
 5384SOL    HW217052   5.742   6.410   4.116
 5385SOL     OW17053   3.407   4.137   2.646
 5385SOL    HW117054   3.407   4.176   2.554
 5385SOL    HW217055   3.499   4.107   2.670
 5386SOL     OW17056   5.688   0.138   5.865
 5386SOL    HW117057   5.642   0.227   5.864
 5386SOL    HW217058   5.773   0.143   5.812
 5387SOL     OW17059   3.444   5.480   1.438
 5387SOL    HW117060   3.373   5.523   1.383
 5387SOL    HW217061   3.412   5.470   1.533
 5388SOL     OW17062   6.144   6.606   2.647
 5388SOL    HW117063   6.094   6.632   2.565
 5388SOL    HW217064   6.237   6.579   2.622
 5389SOL     OW17065   5.056   2.008   1.121
 5389SOL    HW117066   5.017   1.917   1.111
 5389SOL    HW217067   5.102   2.015   1.210
 5390SOL     OW17068   6.222   4.769   5.859
 5390SOL    HW117069   6.251   4.682   5.899
 5390SOL    HW217070   6.253   4.844   5.917
 5391SOL     OW17071   2.819   3.772   0.036
 5391SOL    HW117072   2.777   3.765   0.127
 5391SOL    HW217073   2.907   3.725   0.037
 5392SOL     OW17074   6.249   3.101   2.624
 5392SOL    HW117075   6.291   3.021   2.580
 5392SOL    HW217076   6.320   3.166   2.650
 5393SOL     OW17077   6.281   6.840   5.991
 5393SOL    HW117078   6.264   6.743   5.979
 5393SOL    HW217079   6.300   6.859   6.088
 5394SOL     OW17080   1.740   3.859   5.546
 5394SOL    HW117081   1.641   3.848   5.532
 5394SOL    HW217082   1.785   3.864   5.457
 5395SOL     OW17083   4.638   0.607   0.750
 5395SOL    HW117084   4.631   0.668   0.828
 5395SOL    HW217085   4.718   0.631   0.695
 5396SOL     OW17086   5.027   2.726   2.087
 5396SOL    HW117087   4.949   2.788   2.087
 5396SOL    HW217088   4.994   2.631   2.088
 5397SOL     OW17089   0.787   3.054   1.566
 5397SOL    HW117090   0.799   3.153   1.569
 5397SOL    HW217091   0.793   3.016   1.658
 5398SOL     OW17092   3.279   3.465   1.922
 5398SOL    HW117093   3.364   3.517   1.931
 5398SOL    HW217094   3.215   3.516   1.863
 5399SOL     OW17095   0.639   6.577   0.794
 5399SOL    HW117096   0.607   6.615   0.707
 5399SOL    HW217097   0.671   6.483   0.780
 5400SOL     OW17098   2.074   4.112   6.640
 5400SOL    HW117099   2.076   4.027   6.587
 5400SOL    HW217100   1.984   4.155   6.632
 5401SOL     OW17101   6.597   2.020   1.447
 5401SOL    HW117102   6.661   1.944   1.457
 5401SOL    HW217103   6.538   2.025   1.528
 5402SOL     OW17104   1.524   6.140   2.676
 5402SOL    HW117105   1.572   6.069   2.728
 5402SOL    HW217106   1.501   6.216   2.736
 5403SOL     OW17107   5.945   3.587   6.765
 5403SOL    HW117108   5.941   3.663   6.700
 5403SOL    HW217109   5.970   3.503   6.717
 5404SOL     OW17110   1.529   3.105   3.101
 5404SOL    HW117111   1.529   3.091   3.002
 5404SOL    HW217112   1.489   3.025   3.146
 5405SOL     OW17113   0.013   3.478   5.802
 5405SOL    HW117114   0.031   3.551   5.868
 5405SOL    HW217115   0.035   3.512   5.710
 5406SOL     OW17116   1.562   0.013   4.415
 5406SOL    HW117117   1.467   7.003   4.428
 5406SOL    HW217118   1.610   6.968   4.358
 5407SOL     OW17119   4.138   3.135   6.758
 5407SOL    HW117120   4.076   3.123   6.835
 5407SOL    HW217121   4.094   3.193   6.689
 5408SOL     OW17122   3.382   1.027   0.397
 5408SOL    HW117123   3.294   1.061   0.430
 5408SOL    HW217124   3.366   0.961   0.324
 5409SOL     OW17125   3.956   0.546   2.574
 5409SOL    HW117126   3.881   0.612   2.575
 5409SOL    HW217127   3.961   0.502   2.484
 5410SOL     OW17128   1.342   2.712   2.984
 5410SOL    HW117129   1.325   2.764   2.900
 5410SOL    HW217130   1.255   2.680   3.021
 5411SOL     OW17131   1.481   5.035   4.357
 5411SOL    HW117132   1.503   4.941   4.333
 5411SOL    HW217133   1.504   5.052   4.452
 5412SOL     OW17134   6.019   2.513   1.760
 5412SOL    HW117135   6.091   2.557   1.707
 5412SOL    HW217136   5.930   2.541   1.726
 5413SOL     OW17137   2.696   0.474   2.185
 5413SOL    HW117138   2.790   0.492   2.213
 5413SOL    HW217139   2.633   0.514   2.251
 5414SOL     OW17140   4.805   0.699   5.538
 5414SOL    HW117141   4.855   0.695   5.452
 5414SOL    HW217142   4.804   0.608   5.580
 5415SOL     OW17143   5.994   3.969   2.312
 5415SOL    HW117144   6.052   3.911   2.255
 5415SOL    HW217145   6.049   4.005   2.388
 5416SOL     OW17146   4.011   4.841   4.134
 5416SOL    HW117147   3.913   4.849   4.117
 5416SOL    HW217148   4.033   4.881   4.224
 5417SOL     OW17149   3.479   6.982   5.680
 5417SOL    HW117150   3.525   6.899   5.712
 5417SOL    HW217151   3.515   7.008   5.591
 5418SOL     OW17152   3.715   0.857   3.323
 5418SOL    HW117153   3.640   0.918   3.348
 5418SOL    HW217154   3.776   0.845   3.402
 5419SOL     OW17155   3.296   4.505   0.013
 5419SOL    HW117156   3.221   4.501   6.968
 5419SOL    HW217157   3.353   4.423   0.003
 5420SOL     OW17158   1.164   2.456   2.819
 5420SOL    HW117159   1.087   2.396   2.801
 5420SOL    HW217160   1.249   2.402   2.822
 5421SOL     OW17161   1.666   3.153   1.108
 5421SOL    HW117162   1.765   3.135   1.104
 5421SOL    HW217163   1.624   3.093   1.176
 5422SOL     OW17164   1.466   4.026   6.877
 5422SOL    HW117165   1.454   3.998   6.973
 5422SOL    HW217166   1.451   3.947   6.818
 5423SOL     OW17167   5.512   3.430   6.237
 5423SOL    HW117168   5.507   3.369   6.316
 5423SOL    HW217169   5.494   3.377   6.154
 5424SOL     OW17170   5.257   3.489   5.707
 5424SOL    HW117171   5.259   3.528   5.615
 5424SOL    HW217172   5.344   3.504   5.752
 5425SOL     OW17173   5.160   0.228   4.240
 5425SOL    HW117174   5.169   0.303   4.306
 5425SOL    HW217175   5.247   0.181   4.231
 5426SOL     OW17176   0.237   6.945   4.790
 5426SOL    HW117177   0.307   7.017   4.791
 5426SOL    HW217178   0.275   6.862   4.831
 5427SOL     OW17179   4.367   6.648   0.042
 5427SOL    HW117180   4.322   6.668   6.975
 5427SOL    HW217181   4.305   6.594   0.099
 5428SOL     OW17182   1.820   0.832   6.785
 5428SOL    HW117183   1.770   0.900   6.731
 5428SOL    HW217184   1.798   0.844   6.882
 5429SOL     OW17185   1.368   2.383   6.369
 5429SOL    HW117186   1.297   2.454   6.373
 5429SOL    HW217187   1.343   2.316   6.300
 5430SOL     OW17188   2.361   1.819   5.149
 5430SOL    HW117189   2.275   1.784   5.112
 5430SOL    HW217190   2.344   1.903   5.199
 5431SOL     OW17191   3.924   6.312   4.541
 5431SOL    HW117192   3.986   6.384   4.509
 5431SOL    HW217193   3.911   6.245   4.468
 5432SOL     OW17194   5.804   6.102   1.421
 5432SOL    HW117195   5.713   6.067   1.442
 5432SOL    HW217196   5.797   6.188   1.370
 5433SOL     OW17197   6.995   2.244   4.417
 5433SOL    HW117198   7.000   2.215   4.322
 5433SOL    HW217199   6.913   2.300   4.431
 5434SOL     OW17200   2.634   0.233   5.276
 5434SOL    HW117201   2.612   0.256   5.181
 5434SOL    HW217202   2.635   0.317   5.331
 5435SOL     OW17203   4.423   1.415   1.951
 5435SOL    HW117204   4.460   1.339   2.005
 5435SOL    HW217205   4.428   1.392   1.854
 5436SOL     OW17206   4.708   4.146   2.458
 5436SOL    HW117207   4.757   4.221   2.503
 5436SOL    HW217208   4.613   4.144   2.490
 5437SOL     OW17209   3.074   4.466   6.887
 5437SOL    HW117210   3.070   4.559   6.851
 5437SOL    HW217211   2.985   4.422   6.878
 5438SOL     OW17212   6.874   1.258   1.589
 5438SOL    HW117213   6.816   1.217   1.519
 5438SOL    HW217214   6.907   1.347   1.558
 5439SOL     OW17215   1.622   2.668   1.200
 5439SOL    HW117216   1.599   2.718   1.116
 5439SOL    HW217217   1.647   2.574   1.176
 5440SOL     OW17218   1.484   1.478   0.811
 5440SOL    HW117219   1.554   1.527   0.759
 5440SOL    HW217220   1.482   1.383   0.781
 5441SOL     OW17221   4.054   1.903   4.294
 5441SOL    HW117222   3.998   1.866   4.368
 5441SOL    HW217223   3.995   1.934   4.220
 5442SOL     OW17224   3.499   0.745   2.606
 5442SOL    HW117225   3.565   0.720   2.677
 5442SOL    HW217226   3.409   0.707   2.630
 5443SOL     OW17227   2.751   6.833   5.575
 5443SOL    HW117228   2.807   6.762   5.617
 5443SOL    HW217229   2.763   6.831   5.476
 5444SOL     OW17230   0.209   0.711   3.837
 5444SOL    HW117231   0.128   0.769   3.846
 5444SOL    HW217232   0.197   0.628   3.892
 5445SOL     OW17233   5.767   3.575   1.700
 5445SOL    HW117234   5.804   3.668   1.702
 5445SOL    HW217235   5.691   3.569   1.765
 5446SOL     OW17236   6.797   5.875   5.895
 5446SOL    HW117237   6.769   5.870   5.990
 5446SOL    HW217238   6.742   5.943   5.847
 5447SOL     OW17239   2.994   2.350   1.062
 5447SOL    HW117240   3.079   2.342   1.114
 5447SOL    HW217241   2.925   2.395   1.119
 5448SOL     OW17242   5.554   2.047   6.454
 5448SOL    HW117243   5.465   2.082   6.483
 5448SOL    HW217244   5.623   2.118   6.466
 5449SOL     OW17245   0.366   3.210   6.441
 5449SOL    HW117246   0.339   3.306   6.435
 5449SOL    HW217247   0.371   3.171   6.348
 5450SOL     OW17248   2.175   6.230   0.859
 5450SOL    HW117249   2.110   6.303   0.839
 5450SOL    HW217250   2.204   6.186   0.774
 5451SOL     OW17251   1.332   0.096   2.654
 5451SOL    HW117252   1.287   0.127   2.738
 5451SOL    HW217253   1.426   0.130   2.652
 5452SOL     OW17254   2.708   3.488   5.529
 5452SOL    HW117255   2.706   3.512   5.432
 5452SOL    HW217256   2.724   3.390   5.538
 5453SOL     OW17257   0.068   5.120   6.392
 5453SOL    HW117258   0.016   5.099   6.475
 5453SOL    HW217259   0.005   5.144   6.319
 5454SOL     OW17260   0.658   3.689   5.260
 5454SOL    HW117261   0.741   3.740   5.281
 5454SOL    HW217262   0.624   3.716   5.170
 5455SOL     OW17263   0.323   3.049   0.763
 5455SOL    HW117264   0.344   2.951   0.762
 5455SOL    HW217265   0.227   3.062   0.791
 5456SOL     OW17266   3.085   6.693   1.403
 5456SOL    HW117267   3.125   6.749   1.475
 5456SOL    HW217268   3.069   6.749   1.322
 5457SOL     OW17269   6.034   3.806   0.328
 5457SOL    HW117270   6.004   3.874   0.395
 5457SOL    HW217271   5.953   3.762   0.286
 5458SOL     OW17272   2.348   4.460   6.479
 5458SOL    HW117273   2.407   4.540   6.463
 5458SOL    HW217274   2.293   4.476   6.561
 5459SOL     OW17275   2.372   4.446   6.181
 5459SOL    HW117276   2.459   4.459   6.228
 5459SOL    HW217277   2.384   4.382   6.106
 5460SOL     OW17278   3.790   6.735   3.117
 5460SOL    HW117279   3.711   6.728   3.056
 5460SOL    HW217280   3.764   6.706   3.209
 5461SOL     OW17281   4.474   6.554   4.875
 5461SOL    HW117282   4.504   6.495   4.801
 5461SOL    HW217283   4.510   6.520   4.962
 5462SOL     OW17284   0.981   0.326   1.548
 5462SOL    HW117285   0.982   0.227   1.534
 5462SOL    HW217286   0.888   0.360   1.539
 5463SOL     OW17287   0.031   3.029   0.855
 5463SOL    HW117288   7.004   3.101   0.907
 5463SOL    HW217289   6.998   2.945   0.860
 5464SOL     OW17290   2.017   6.232   4.074
 5464SOL    HW117291   2.000   6.224   4.173
 5464SOL    HW217292   1.931   6.223   4.025
 5465SOL     OW17293   2.049   6.305   6.370
 5465SOL    HW117294   2.084   6.398   6.382
 5465SOL    HW217295   1.991   6.301   6.289
 5466SOL     OW17296   5.275   4.957   5.016
 5466SOL    HW117297   5.260   5.045   4.970
 5466SOL    HW217298   5.365   4.922   4.992
 5467SOL     OW17299   5.838   1.508   2.235
 5467SOL    HW117300   5.852   1.576   2.163
 5467SOL    HW217301   5.926   1.486   2.277
 5468SOL     OW17302   4.174   1.726   5.749
 5468SOL    HW117303   4.267   1.753   5.775
 5468SOL    HW217304   4.156   1.756   5.655
 5469SOL     OW17305   4.403   4.376   1.000
 5469SOL    HW117306   4.399   4.476   0.987
 5469SOL    HW217307   4.313   4.344   1.031
 5470SOL     OW17308   0.219   5.408   3.264
 5470SOL    HW117309   0.224   5.469   3.184
 5470SOL    HW217310   0.201   5.462   3.346
 5471SOL     OW17311   6.181   5.003   2.327
 5471SOL    HW117312   6.196   5.080   2.265
 5471SOL    HW217313   6.083   4.992   2.342
 5472SOL     OW17314   3.693   5.190   6.007
 5472SOL    HW117315   3.607   5.203   6.057
 5472SOL    HW217316   3.769   5.195   6.071
 5473SOL     OW17317   1.238   4.100   3.327
 5473SOL    HW117318   1.253   4.035   3.401
 5473SOL    HW217319   1.270   4.191   3.355
 5474SOL     OW17320   1.671   6.401   3.688
 5474SOL    HW117321   1.602   6.468   3.718
 5474SOL    HW217322   1.751   6.450   3.654
 5475SOL     OW17323   3.048   2.743   1.478
 5475SOL    HW117324   2.969   2.803   1.491
 5475SOL    HW217325   3.070   2.698   1.565
 5476SOL     OW17326   1.756   3.570   6.645
 5476SOL    HW117327   1.853   3.575   6.669
 5476SOL    HW217328   1.706   3.646   6.687
 5477SOL     OW17329   1.677   2.797   2.459
 5477SOL    HW117330   1.762   2.835   2.497
 5477SOL    HW217331   1.693   2.770   2.364
 5478SOL     OW17332   0.117   5.661   6.094
 5478SOL    HW117333   0.046   5.592   6.108
 5478SOL    HW217334   0.197   5.638   6.149
 5479SOL     OW17335   4.441   7.015   4.702
 5479SOL    HW117336   4.411   0.048   4.623
 5479SOL    HW217337   4.390   0.025   4.783
 5480SOL     OW17338   0.819   2.471   5.256
 5480SOL    HW117339   0.759   2.544   5.289
 5480SOL    HW217340   0.841   2.409   5.331
 5481SOL     OW17341   4.756   6.613   3.528
 5481SOL    HW117342   4.685   6.567   3.580
 5481SOL    HW217343   4.718   6.645   3.441
 5482SOL     OW17344   1.669   5.218   2.024
 5482SOL    HW117345   1.637   5.164   2.102
 5482SOL    HW217346   1.678   5.314   2.051
 5483SOL     OW17347   0.401   2.750   6.023
 5483SOL    HW117348   0.311   2.792   6.038
 5483SOL    HW217349   0.448   2.798   5.949
 5484SOL     OW17350   4.937   0.072   4.282
 5484SOL    HW117351   5.012   0.137   4.280
 5484SOL    HW217352   4.943   0.012   4.202
 5485SOL     OW17353   3.907   0.620   4.972
 5485SOL    HW117354   3.835   0.626   4.904
 5485SOL    HW217355   3.937   0.713   4.997
 5486SOL     OW17356   2.904   5.105   4.112
 5486SOL    HW117357   2.830   5.068   4.168
 5486SOL    HW217358   2.990   5.061   4.140
 5487SOL     OW17359   3.266   5.131   5.411
 5487SOL    HW117360   3.236   5.225   5.391
 5487SOL    HW217361   3.212   5.094   5.486
 5488SOL     OW17362   4.769   1.684   6.990
 5488SOL    HW117363   4.778   1.716   6.896
 5488SOL    HW217364   4.854   1.703   0.020
 5489SOL     OW17365   0.248   3.663   4.017
 5489SOL    HW117366   0.181   3.644   3.945
 5489SOL    HW217367   0.333   3.696   3.976
 5490SOL     OW17368   0.905   5.635   2.770
 5490SOL    HW117369   0.925   5.733   2.772
 5490SOL    HW217370   0.864   5.612   2.681
 5491SOL     OW17371   6.326   3.868   0.693
 5491SOL    HW117372   6.353   3.780   0.732
 5491SOL    HW217373   6.285   3.925   0.764
 5492SOL     OW17374   0.289   1.545   6.211
 5492SOL    HW117375   0.235   1.577   6.134
 5492SOL    HW217376   0.257   1.455   6.240
 5493SOL     OW17377   4.392   3.978   0.511
 5493SOL    HW117378   4.373   3.935   0.599
 5493SOL    HW217379   4.473   4.036   0.519
 5494SOL     OW17380   6.029   3.128   5.635
 5494SOL    HW117381   6.113   3.088   5.598
 5494SOL    HW217382   6.023   3.108   5.732
 5495SOL     OW17383   5.730   6.828   6.879
 5495SOL    HW117384   5.734   6.788   6.787
 5495SOL    HW217385   5.821   6.860   6.905
 5496SOL     OW17386   4.406   6.883   5.506
 5496SOL    HW117387   4.405   6.982   5.492
 5496SOL    HW217388   4.497   6.854   5.536
 5497SOL     OW17389   0.759   0.470   4.864
 5497SOL    HW117390   0.757   0.452   4.962
 5497SOL    HW217391   0.810   0.397   4.818
 5498SOL     OW17392   0.273   5.137   1.365
 5498SOL    HW117393   0.365   5.164   1.336
 5498SOL    HW217394   0.215   5.218   1.375
 5499SOL     OW17395   2.038   0.252   4.094
 5499SOL    HW117396   1.985   0.292   4.169
 5499SOL    HW217397   2.056   0.322   4.025
 5500SOL     OW17398   2.354   0.164   1.127
 5500SOL    HW117399   2.314   0.221   1.055
 5500SOL    HW217400   2.387   0.079   1.087
 5501SOL     OW17401   4.210   3.407   6.878
 5501SOL    HW117402   4.253   3.345   6.943
 5501SOL    HW217403   4.174   3.354   6.801
 5502SOL     OW17404   4.612   3.752   6.788
 5502SOL    HW117405   4.525   3.709   6.764
 5502SOL    HW217406   4.682   3.723   6.722
 5503SOL     OW17407   6.120   2.789   0.569
 5503SOL    HW117408   6.060   2.867   0.553
 5503SOL    HW217409   6.068   2.713   0.607
 5504SOL     OW17410   3.952   2.102   0.089
 5504SOL    HW117411   4.039   2.119   0.041
 5504SOL    HW217412   3.887   2.174   0.066
 5505SOL     OW17413   2.909   4.779   2.537
 5505SOL    HW117414   2.844   4.797   2.610
 5505SOL    HW217415   2.883   4.696   2.488
 5506SOL     OW17416   6.385   2.186   6.329
 5506SOL    HW117417   6.373   2.149   6.238
 5506SOL    HW217418   6.297   2.219   6.364
 5507SOL     OW17419   3.870   6.787   0.392
 5507SOL    HW117420   3.838   6.869   0.344
 5507SOL    HW217421   3.796   6.720   0.395
 5508SOL     OW17422   0.546   1.172   6.428
 5508SOL    HW117423   0.526   1.165   6.331
 5508SOL    HW217424   0.516   1.261   6.463
 5509SOL     OW17425   6.536   4.324   0.175
 5509SOL    HW117426   6.474   4.328   0.253
 5509SOL    HW217427   6.483   4.330   0.090
 5510SOL     OW17428   5.075   5.377   6.534
 5510SOL    HW117429   4.993   5.327   6.505
 5510SOL    HW217430   5.156   5.322   6.513
 5511SOL     OW17431   0.759   2.390   5.873
 5511SOL    HW117432   0.723   2.417   5.963
 5511SOL    HW217433   0.848   2.346   5.885
 5512SOL     OW17434   1.738   0.363   2.476
 5512SOL    HW117435   1.816   0.382   2.416
 5512SOL    HW217436   1.676   0.441   2.477
 5513SOL     OW17437   3.613   4.776   6.913
 5513SOL    HW117438   3.689   4.827   6.954
 5513SOL    HW217439   3.617   4.785   6.813
 5514SOL     OW17440   2.866   0.799   0.348
 5514SOL    HW117441   2.933   0.769   0.280
 5514SOL    HW217442   2.849   0.897   0.337
 5515SOL     OW17443   3.573   5.523   2.264
 5515SOL    HW117444   3.479   5.490   2.268
 5515SOL    HW217445   3.632   5.464   2.320
 5516SOL     OW17446   1.752   2.040   5.637
 5516SOL    HW117447   1.778   2.079   5.548
 5516SOL    HW217448   1.787   2.098   5.710
 5517SOL     OW17449   0.796   2.315   3.290
 5517SOL    HW117450   0.802   2.276   3.382
 5517SOL    HW217451   0.840   2.405   3.289
 5518SOL     OW17452   4.700   5.255   6.788
 5518SOL    HW117453   4.731   5.314   6.863
 5518SOL    HW217454   4.719   5.160   6.811
 5519SOL     OW17455   5.296   2.680   5.478
 5519SOL    HW117456   5.322   2.628   5.560
 5519SOL    HW217457   5.244   2.621   5.417
 5520SOL     OW17458   4.880   6.953   1.502
 5520SOL    HW117459   4.783   6.968   1.524
 5520SOL    HW217460   4.890   6.937   1.404
 5521SOL     OW17461   4.796   6.654   1.867
 5521SOL    HW117462   4.722   6.720   1.879
 5521SOL    HW217463   4.878   6.688   1.914
 5522SOL     OW17464   5.434   6.546   0.314
 5522SOL    HW117465   5.380   6.474   0.357
 5522SOL    HW217466   5.429   6.629   0.369
 5523SOL     OW17467   5.297   2.188   1.065
 5523SOL    HW117468   5.218   2.133   1.092
 5523SOL    HW217469   5.360   2.131   1.011
 5524SOL     OW17470   2.349   1.387   2.817
 5524SOL    HW117471   2.414   1.325   2.860
 5524SOL    HW217472   2.309   1.343   2.736
 5525SOL     OW17473   6.663   1.610   1.027
 5525SOL    HW117474   6.606   1.663   1.089
 5525SOL    HW217475   6.655   1.646   0.934
 5526SOL     OW17476   5.643   4.326   3.981
 5526SOL    HW117477   5.618   4.386   4.057
 5526SOL    HW217478   5.699   4.251   4.015
 5527SOL     OW17479   6.528   0.321   2.962
 5527SOL    HW117480   6.597   0.366   2.904
 5527SOL    HW217481   6.568   0.242   3.007
 5528SOL     OW17482   1.358   2.236   6.977
 5528SOL    HW117483   1.324   2.330   6.981
 5528SOL    HW217484   1.341   2.199   6.885
 5529SOL     OW17485   3.153   0.315   2.274
 5529SOL    HW117486   3.252   0.327   2.280
 5529SOL    HW217487   3.116   0.301   2.366
 5530SOL     OW17488   0.462   1.933   0.854
 5530SOL    HW117489   0.561   1.928   0.865
 5530SOL    HW217490   0.419   1.941   0.943
 5531SOL     OW17491   1.555   4.383   1.833
 5531SOL    HW117492   1.637   4.395   1.890
 5531SOL    HW217493   1.514   4.294   1.852
 5532SOL     OW17494   0.347   3.739   6.735
 5532SOL    HW117495   0.248   3.753   6.736
 5532SOL    HW217496   0.384   3.766   6.824
 5533SOL     OW17497   3.778   1.219   2.710
 5533SOL    HW117498   3.767   1.127   2.748
 5533SOL    HW217499   3.813   1.280   2.782
 5534SOL     OW17500   1.126   0.165   4.398
 5534SOL    HW117501   1.074   0.099   4.343
 5534SOL    HW217502   1.202   0.118   4.443
 5535SOL     OW17503   6.866   2.054   2.950
 5535SOL    HW117504   6.949   2.108   2.936
 5535SOL    HW217505   6.787   2.115   2.961
 5536SOL     OW17506   4.435   6.551   4.419
 5536SOL    HW117507   4.490   6.625   4.380
 5536SOL    HW217508   4.340   6.580   4.426
 5537SOL     OW17509   2.668   2.356   3.391
 5537SOL    HW117510   2.739   2.426   3.381
 5537SOL    HW217511   2.650   2.314   3.302
 5538SOL     OW17512   4.604   5.335   3.970
 5538SOL    HW117513   4.565   5.285   4.047
 5538SOL    HW217514   4.684   5.387   4.000
 5539SOL     OW17515   2.175   4.471   6.721
 5539SOL    HW117516   2.075   4.484   6.718
 5539SOL    HW217517   2.220   4.558   6.705
 5540SOL     OW17518   3.662   5.691   1.853
 5540SOL    HW117519   3.691   5.603   1.815
 5540SOL    HW217520   3.563   5.691   1.863
 5541SOL     OW17521   4.664   0.710   6.143
 5541SOL    HW117522   4.651   0.719   6.241
 5541SOL    HW217523   4.589   0.756   6.095
 5542SOL     OW17524   5.638   4.596   6.716
 5542SOL    HW117525   5.629   4.672   6.653
 5542SOL    HW217526   5.648   4.511   6.665
 5543SOL     OW17527   0.887   1.586   5.027
 5543SOL    HW117528   0.909   1.624   4.937
 5543SOL    HW217529   0.811   1.637   5.067
 5544SOL     OW17530   5.438   0.719   6.838
 5544SOL    HW117531   5.361   0.783   6.836
 5544SOL    HW217532   5.507   0.752   6.902
 5545SOL     OW17533   2.473   2.523   1.775
 5545SOL    HW117534   2.481   2.623   1.770
 5545SOL    HW217535   2.438   2.497   1.865
 5546SOL     OW17536   4.317   5.484   5.965
 5546SOL    HW117537   4.413   5.494   5.939
 5546SOL    HW217538   4.299   5.539   6.047
 5547SOL     OW17539   3.458   5.559   4.239
 5547SOL    HW117540   3.403   5.628   4.285
 5547SOL    HW217541   3.437   5.469   4.276
 5548SOL     OW17542   0.499   1.751   4.414
 5548SOL    HW117543   0.484   1.838   4.368
 5548SOL    HW217544   0.460   1.754   4.506
 5549SOL     OW17545   3.190   5.256   0.063
 5549SOL    HW117546   3.215   5.316   7.007
 5549SOL    HW217547   3.242   5.284   0.145
 5550SOL     OW17548   2.652   6.407   2.238
 5550SOL    HW117549   2.720   6.348   2.195
 5550SOL    HW217550   2.680   6.503   2.228
 5551SOL     OW17551   0.229   1.301   2.638
 5551SOL    HW117552   0.179   1.277   2.721
 5551SOL    HW217553   0.195   1.245   2.562
 5552SOL     OW17554   1.266   2.642   2.597
 5552SOL    HW117555   1.266   2.577   2.673
 5552SOL    HW217556   1.355   2.640   2.552
 5553SOL     OW17557   4.913   6.412   6.237
 5553SOL    HW117558   4.838   6.423   6.302
 5553SOL    HW217559   4.894   6.466   6.154
 5554SOL     OW17560   3.360   1.042   4.652
 5554SOL    HW117561   3.330   0.947   4.662
 5554SOL    HW217562   3.284   1.098   4.620
 5555SOL     OW17563   0.955   6.119   1.419
 5555SOL    HW117564   0.974   6.025   1.444
 5555SOL    HW217565   1.034   6.159   1.373
 5556SOL     OW17566   0.104   0.939   4.863
 5556SOL    HW117567   0.150   0.864   4.910
 5556SOL    HW217568   0.016   0.907   4.827
 5557SOL     OW17569   2.635   0.478   2.722
 5557SOL    HW117570   2.588   0.562   2.748
 5557SOL    HW217571   2.568   0.403   2.716
 5558SOL     OW17572   5.071   1.809   5.411
 5558SOL    HW117573   5.106   1.874   5.344
 5558SOL    HW217574   4.971   1.810   5.410
 5559SOL     OW17575   2.109   1.139   1.126
 5559SOL    HW117576   2.189   1.199   1.126
 5559SOL    HW217577   2.139   1.044   1.127
 5560SOL     OW17578   0.190   1.538   4.714
 5560SOL    HW117579   0.115   1.603   4.719
 5560SOL    HW217580   0.275   1.586   4.695
 5561SOL     OW17581   1.571   4.372   2.153
 5561SOL    HW117582   1.486   4.341   2.194
 5561SOL    HW217583   1.624   4.293   2.122
 5562SOL     OW17584   3.364   2.221   6.655
 5562SOL    HW117585   3.416   2.165   6.590
 5562SOL    HW217586   3.326   2.300   6.607
 5563SOL     OW17587   4.044   4.205   1.383
 5563SOL    HW117588   3.977   4.136   1.412
 5563SOL    HW217589   4.113   4.161   1.326
 5564SOL     OW17590   5.802   1.873   1.796
 5564SOL    HW117591   5.752   1.809   1.854
 5564SOL    HW217592   5.865   1.926   1.853
 5565SOL     OW17593   2.111   2.560   4.940
 5565SOL    HW117594   2.017   2.584   4.917
 5565SOL    HW217595   2.171   2.638   4.922
 5566SOL     OW17596   2.527   4.052   0.570
 5566SOL    HW117597   2.540   3.970   0.624
 5566SOL    HW217598   2.586   4.049   0.489
 5567SOL     OW17599   1.703   5.463   3.075
 5567SOL    HW117600   1.711   5.493   3.170
 5567SOL    HW217601   1.607   5.446   3.053
 5568SOL     OW17602   3.678   2.752   0.056
 5568SOL    HW117603   3.610   2.787   0.121
 5568SOL    HW217604   3.632   2.703   7.003
 5569SOL     OW17605   4.569   1.943   0.349
 5569SOL    HW117606   4.661   1.963   0.315
 5569SOL    HW217607   4.541   1.852   0.317
 5570SOL     OW17608   1.601   2.759   5.556
 5570SOL    HW117609   1.613   2.756   5.655
 5570SOL    HW217610   1.663   2.693   5.513
 5571SOL     OW17611   6.714   4.656   6.358
 5571SOL    HW117612   6.636   4.719   6.364
 5571SOL    HW217613   6.682   4.563   6.378
 5572SOL     OW17614   0.727   3.244   5.690
 5572SOL    HW117615   0.718   3.259   5.591
 5572SOL    HW217616   0.660   3.300   5.739
 5573SOL     OW17617   6.582   3.879   6.635
 5573SOL    HW117618   6.623   3.805   6.582
 5573SOL    HW217619   6.548   3.949   6.574
 5574SOL     OW17620   1.771   6.824   3.910
 5574SOL    HW117621   1.789   6.899   3.975
 5574SOL    HW217622   1.845   6.757   3.915
 5575SOL     OW17623   1.060   1.469   2.643
 5575SOL    HW117624   1.010   1.413   2.577
 5575SOL    HW217625   1.103   1.409   2.711
 5576SOL     OW17626   5.757   6.557   5.556
 5576SOL    HW117627   5.739   6.655   5.564
 5576SOL    HW217628   5.825   6.542   5.484
 5577SOL     OW17629   2.246   4.266   4.541
 5577SOL    HW117630   2.309   4.304   4.474
 5577SOL    HW217631   2.287   4.272   4.632
 5578SOL     OW17632   3.881   2.104   6.124
 5578SOL    HW117633   3.821   2.083   6.201
 5578SOL    HW217634   3.827   2.126   6.044
 5579SOL     OW17635   5.160   4.688   1.887
 5579SOL    HW117636   5.087   4.631   1.926
 5579SOL    HW217637   5.119   4.769   1.844
 5580SOL     OW17638   5.598   1.462   1.808
 5580SOL    HW117639   5.628   1.411   1.727
 5580SOL    HW217640   5.499   1.451   1.819
 5581SOL     OW17641   3.506   2.634   0.566
 5581SOL    HW117642   3.576   2.705   0.556
 5581SOL    HW217643   3.538   2.549   0.524
 5582SOL     OW17644   3.260   3.089   3.147
 5582SOL    HW117645   3.215   3.064   3.062
 5582SOL    HW217646   3.198   3.074   3.224
 5583SOL     OW17647   4.055   0.637   0.084
 5583SOL    HW117648   4.061   0.614   0.181
 5583SOL    HW217649   3.969   0.685   0.066
 5584SOL     OW17650   4.904   3.643   3.718
 5584SOL    HW117651   4.974   3.668   3.786
 5584SOL    HW217652   4.857   3.561   3.748
 5585SOL     OW17653   0.428   0.255   3.195
 5585SOL    HW117654   0.514   0.259   3.244
 5585SOL    HW217655   0.361   0.202   3.248
 5586SOL     OW17656   2.226   0.662   6.769
 5586SOL    HW117657   2.210   0.731   6.840
 5586SOL    HW217658   2.145   0.656   6.711
 5587SOL     OW17659   3.760   6.116   3.548
 5587SOL    HW117660   3.722   6.030   3.582
 5587SOL    HW217661   3.702   6.153   3.476
 5588SOL     OW17662   5.474   6.617   6.503
 5588SOL    HW117663   5.459   6.588   6.408
 5588SOL    HW217664   5.388   6.647   6.543
 5589SOL     OW17665   1.855   3.963   0.043
 5589SOL    HW117666   1.910   4.038   0.006
 5589SOL    HW217667   1.912   3.906   0.101
 5590SOL     OW17668   6.785   0.495   3.693
 5590SOL    HW117669   6.867   0.438   3.693
 5590SOL    HW217670   6.791   0.564   3.766
 5591SOL     OW17671   5.564   0.322   0.099
 5591SOL    HW117672   5.625   0.371   0.037
 5591SOL    HW217673   5.477   0.370   0.105
 5592SOL     OW17674   1.200   2.879   2.691
 5592SOL    HW117675   1.202   2.956   2.627
 5592SOL    HW217676   1.246   2.801   2.650
 5593SOL     OW17677   2.286   4.252   4.858
 5593SOL    HW117678   2.195   4.294   4.866
 5593SOL    HW217679   2.294   4.178   4.924
 5594SOL     OW17680   2.537   1.325   6.243
 5594SOL    HW117681   2.618   1.383   6.247
 5594SOL    HW217682   2.562   1.230   6.264
 5595SOL     OW17683   0.610   3.082   6.712
 5595SOL    HW117684   0.581   2.987   6.722
 5595SOL    HW217685   0.613   3.106   6.615
 5596SOL     OW17686   4.897   3.496   4.092
 5596SOL    HW117687   4.985   3.452   4.073
 5596SOL    HW217688   4.823   3.438   4.060
 5597SOL     OW17689   0.113   1.958   6.674
 5597SOL    HW117690   0.031   1.902   6.673
 5597SOL    HW217691   0.136   1.981   6.769
 5598SOL     OW17692   6.015   0.897   4.001
 5598SOL    HW117693   5.916   0.901   3.984
 5598SOL    HW217694   6.032   0.841   4.083
 5599SOL     OW17695   5.521   3.366   3.040
 5599SOL    HW117696   5.523   3.370   3.140
 5599SOL    HW217697   5.448   3.305   3.010
 5600SOL     OW17698   1.864   2.812   1.915
 5600SOL    HW117699   1.810   2.729   1.928
 5600SOL    HW217700   1.827   2.884   1.973
 5601SOL     OW17701   5.921   2.576   6.546
 5601SOL    HW117702   6.009   2.531   6.533
 5601SOL    HW217703   5.923   2.666   6.501
 5602SOL     OW17704   6.432   1.832   3.134
 5602SOL    HW117705   6.355   1.769   3.126
 5602SOL    HW217706   6.501   1.792   3.194
 5603SOL     OW17707   3.514   1.937   6.511
 5603SOL    HW117708   3.446   1.984   6.453
 5603SOL    HW217709   3.549   1.858   6.462
 5604SOL     OW17710   0.995   5.203   3.200
 5604SOL    HW117711   0.920   5.240   3.145
 5604SOL    HW217712   1.070   5.269   3.202
 5605SOL     OW17713   3.603   6.666   4.594
 5605SOL    HW117714   3.686   6.656   4.648
 5605SOL    HW217715   3.601   6.598   4.521
 5606SOL     OW17716   4.249   3.395   0.932
 5606SOL    HW117717   4.291   3.412   0.843
 5606SOL    HW217718   4.267   3.473   0.992
 5607SOL     OW17719   0.531   2.296   2.863
 5607SOL    HW117720   0.562   2.221   2.922
 5607SOL    HW217721   0.475   2.259   2.789
 5608SOL     OW17722   6.291   0.347   3.788
 5608SOL    HW117723   6.285   0.325   3.690
 5608SOL    HW217724   6.204   0.387   3.818
 5609SOL     OW17725   6.654   0.584   6.875
 5609SOL    HW117726   6.659   0.542   6.966
 5609SOL    HW217727   6.741   0.630   6.856
 5610SOL     OW17728   5.805   6.286   6.069
 5610SOL    HW117729   5.787   6.286   5.970
 5610SOL    HW217730   5.754   6.212   6.113
 5611SOL     OW17731   6.524   3.978   1.502
 5611SOL    HW117732   6.587   4.000   1.428
 5611SOL    HW217733   6.481   4.062   1.535
 5612SOL     OW17734   4.375   2.244   1.546
 5612SOL    HW117735   4.307   2.281   1.609
 5612SOL    HW217736   4.421   2.166   1.588
 5613SOL     OW17737   6.521   5.161   5.385
 5613SOL    HW117738   6.503   5.064   5.400
 5613SOL    HW217739   6.463   5.194   5.310
 5614SOL     OW17740   5.247   2.165   4.981
 5614SOL    HW117741   5.273   2.183   5.076
 5614SOL    HW217742   5.328   2.136   4.930
 5615SOL     OW17743   0.567   3.361   2.741
 5615SOL    HW117744   0.591   3.276   2.694
 5615SOL    HW217745   0.644   3.391   2.797
 5616SOL     OW17746   1.389   3.405   1.891
 5616SOL    HW117747   1.352   3.487   1.934
 5616SOL    HW217748   1.314   3.342   1.870
 5617SOL     OW17749   0.561   5.184   5.536
 5617SOL    HW117750   0.501   5.184   5.617
 5617SOL    HW217751   0.538   5.261   5.478
 5618SOL     OW17752   4.751   0.220   2.893
 5618SOL    HW117753   4.743   0.307   2.943
 5618SOL    HW217754   4.845   0.209   2.861
 5619SOL     OW17755   3.100   3.771   3.237
 5619SOL    HW117756   3.132   3.706   3.306
 5619SOL    HW217757   3.146   3.859   3.250
 5620SOL     OW17758   5.007   4.883   5.370
 5620SOL    HW117759   5.050   4.879   5.460
 5620SOL    HW217760   5.017   4.975   5.333
 5621SOL     OW17761   1.165   3.213   6.410
 5621SOL    HW117762   1.227   3.137   6.430
 5621SOL    HW217763   1.218   3.294   6.386
 5622SOL     OW17764   5.963   5.659   3.419
 5622SOL    HW117765   5.993   5.564   3.434
 5622SOL    HW217766   6.038   5.711   3.377
 5623SOL     OW17767   4.528   4.841   3.888
 5623SOL    HW117768   4.472   4.761   3.912
 5623SOL    HW217769   4.621   4.811   3.868
 5624SOL     OW17770   5.175   3.945   3.811
 5624SOL    HW117771   5.129   3.960   3.724
 5624SOL    HW217772   5.142   3.860   3.852
 5625SOL     OW17773   3.059   6.627   6.218
 5625SOL    HW117774   3.014   6.703   6.172
 5625SOL    HW217775   2.993   6.555   6.236
 5626SOL     OW17776   2.011   4.988   6.600
 5626SOL    HW117777   1.991   4.916   6.666
 5626SOL    HW217778   2.089   5.042   6.632
 5627SOL     OW17779   1.149   5.304   0.617
 5627SOL    HW117780   1.242   5.266   0.610
 5627SOL    HW217781   1.128   5.321   0.713
 5628SOL     OW17782   1.875   3.183   0.098
 5628SOL    HW117783   1.821   3.100   0.086
 5628SOL    HW217784   1.968   3.159   0.125
 5629SOL     OW17785   6.865   3.422   4.422
 5629SOL    HW117786   6.906   3.390   4.508
 5629SOL    HW217787   6.766   3.410   4.427
 5630SOL     OW17788   1.637   4.381   0.282
 5630SOL    HW117789   1.559   4.443   0.283
 5630SOL    HW217790   1.605   4.288   0.299
 5631SOL     OW17791   3.875   0.427   2.808
 5631SOL    HW117792   3.959   0.419   2.862
 5631SOL    HW217793   3.896   0.468   2.719
 5632SOL     OW17794   3.577   6.648   6.792
 5632SOL    HW117795   3.560   6.698   6.877
 5632SOL    HW217796   3.496   6.595   6.768
 5633SOL     OW17797   1.517   5.209   5.394
 5633SOL    HW117798   1.513   5.109   5.394
 5633SOL    HW217799   1.588   5.240   5.331
 5634SOL     OW17800   2.433   0.377   1.912
 5634SOL    HW117801   2.428   0.338   2.004
 5634SOL    HW217802   2.382   0.463   1.910
 5635SOL     OW17803   3.665   0.438   2.476
 5635SOL    HW117804   3.653   0.421   2.574
 5635SOL    HW217805   3.747   0.391   2.443
 5636SOL     OW17806   5.352   0.088   4.793
 5636SOL    HW117807   5.448   0.065   4.812
 5636SOL    HW217808   5.327   0.054   4.702
 5637SOL     OW17809   4.947   6.989   5.129
 5637SOL    HW117810   4.894   0.053   5.118
 5637SOL    HW217811   5.045   7.010   5.128
 5638SOL     OW17812   0.192   5.794   0.211
 5638SOL    HW117813   0.194   5.745   0.298
 5638SOL    HW217814   0.162   5.732   0.138
 5639SOL     OW17815   3.046   6.908   2.300
 5639SOL    HW117816   3.058   6.969   2.221
 5639SOL    HW217817   2.955   6.869   2.297
 5640SOL     OW17818   3.617   6.980   4.080
 5640SOL    HW117819   3.628   6.923   3.999
 5640SOL    HW217820   3.640   6.926   4.161
 5641SOL     OW17821   6.396   4.662   3.752
 5641SOL    HW117822   6.470   4.648   3.686
 5641SOL    HW217823   6.312   4.685   3.704
 5642SOL     OW17824   2.546   2.622   6.248
 5642SOL    HW117825   2.446   2.625   6.248
 5642SOL    HW217826   2.576   2.530   6.275
 5643SOL     OW17827   5.628   3.092   3.661
 5643SOL    HW117828   5.598   2.998   3.673
 5643SOL    HW217829   5.703   3.095   3.594
 5644SOL     OW17830   3.535   0.671   5.928
 5644SOL    HW117831   3.612   0.732   5.943
 5644SOL    HW217832   3.566   0.591   5.877
 5645SOL     OW17833   5.890   6.873   2.737
 5645SOL    HW117834   5.986   6.855   2.760
 5645SOL    HW217835   5.843   6.787   2.721
 5646SOL     OW17836   6.403   0.331   3.470
 5646SOL    HW117837   6.459   0.414   3.474
 5646SOL    HW217838   6.462   0.251   3.463
 5647SOL     OW17839   5.923   3.784   6.342
 5647SOL    HW117840   5.857   3.735   6.400
 5647SOL    HW217841   5.984   3.839   6.400
 5648SOL     OW17842   2.335   1.589   4.138
 5648SOL    HW117843   2.372   1.624   4.224
 5648SOL    HW217844   2.244   1.551   4.153
 5649SOL     OW17845   0.616   0.385   5.115
 5649SOL    HW117846   0.678   0.307   5.112
 5649SOL    HW217847   0.522   0.353   5.122
 5650SOL     OW17848   6.825   4.815   4.983
 5650SOL    HW117849   6.923   4.795   4.993
 5650SOL    HW217850   6.814   4.908   4.948
 5651SOL     OW17851   6.051   0.476   2.350
 5651SOL    HW117852   6.051   0.508   2.445
 5651SOL    HW217853   5.993   0.536   2.295
 5652SOL     OW17854   5.259   4.396   6.944
 5652SOL    HW117855   5.294   4.488   6.923
 5652SOL    HW217856   5.334   4.338   6.975
 5653SOL     OW17857   1.851   6.066   6.954
 5653SOL    HW117858   1.811   5.999   6.893
 5653SOL    HW217859   1.844   6.034   0.029
 5654SOL     OW17860   1.707   0.146   0.035
 5654SOL    HW117861   1.753   0.229   0.004
 5654SOL    HW217862   1.652   0.167   0.117
 5655SOL     OW17863   6.347   5.053   3.184
 5655SOL    HW117864   6.266   5.109   3.200
 5655SOL    HW217865   6.319   4.960   3.158
 5656SOL     OW17866   3.716   5.360   6.287
 5656SOL    HW117867   3.732   5.426   6.214
 5656SOL    HW217868   3.803   5.324   6.320
 5657SOL     OW17869   4.718   4.962   2.008
 5657SOL    HW117870   4.729   5.046   2.061
 5657SOL    HW217871   4.686   4.984   1.917
 5658SOL     OW17872   4.634   6.656   5.892
 5658SOL    HW117873   4.579   6.585   5.849
 5658SOL    HW217874   4.578   6.705   5.958
 5659SOL     OW17875   3.817   4.009   3.320
 5659SOL    HW117876   3.838   3.951   3.241
 5659SOL    HW217877   3.900   4.054   3.351
 5660SOL     OW17878   6.964   5.630   1.656
 5660SOL    HW117879   6.944   5.607   1.561
 5660SOL    HW217880   6.896   5.694   1.691
 5661SOL     OW17881   6.156   5.846   4.770
 5661SOL    HW117882   6.245   5.868   4.731
 5661SOL    HW217883   6.139   5.904   4.850
 5662SOL     OW17884   1.870   4.566   4.374
 5662SOL    HW117885   1.926   4.637   4.332
 5662SOL    HW217886   1.790   4.608   4.416
 5663SOL     OW17887   2.491   3.573   1.032
 5663SOL    HW117888   2.410   3.622   0.999
 5663SOL    HW217889   2.545   3.542   0.953
 5664SOL     OW17890   6.398   6.169   2.141
 5664SOL    HW117891   6.322   6.171   2.076
 5664SOL    HW217892   6.363   6.152   2.233
 5665SOL     OW17893   1.390   0.964   5.717
 5665SOL    HW117894   1.480   0.988   5.680
 5665SOL    HW217895   1.354   0.885   5.667
 5666SOL     OW17896   6.001   5.393   6.696
 5666SOL    HW117897   5.917   5.437   6.728
 5666SOL    HW217898   6.077   5.457   6.704
 5667SOL     OW17899   5.891   4.457   2.384
 5667SOL    HW117900   5.896   4.534   2.320
 5667SOL    HW217901   5.806   4.462   2.436
 5668SOL     OW17902   6.497   2.271   6.894
 5668SOL    HW117903   6.489   2.181   6.852
 5668SOL    HW217904   6.580   2.275   6.950
 5669SOL     OW17905   0.176   3.003   4.772
 5669SOL    HW117906   0.219   3.051   4.848
 5669SOL    HW217907   0.191   3.054   4.687
 5670SOL     OW17908   1.689   3.592   2.197
 5670SOL    HW117909   1.703   3.632   2.288
 5670SOL    HW217910   1.652   3.500   2.206
 5671SOL     OW17911   1.115   0.790   4.856
 5671SOL    HW117912   1.046   0.739   4.804
 5671SOL    HW217913   1.182   0.727   4.894
 5672SOL     OW17914   4.618   4.013   5.751
 5672SOL    HW117915   4.528   4.001   5.711
 5672SOL    HW217916   4.613   4.000   5.850
 5673SOL     OW17917   1.633   6.973   0.666
 5673SOL    HW117918   1.554   6.930   0.710
 5673SOL    HW217919   1.691   7.015   0.735
 5674SOL     OW17920   0.256   2.809   1.529
 5674SOL    HW117921   0.339   2.865   1.533
 5674SOL    HW217922   0.191   2.842   1.597
 5675SOL     OW17923   3.850   1.049   5.642
 5675SOL    HW117924   3.916   1.101   5.695
 5675SOL    HW217925   3.818   1.103   5.564
 5676SOL     OW17926   2.484   6.990   2.277
 5676SOL    HW117927   2.433   0.004   2.198
 5676SOL    HW217928   2.581   7.012   2.266
 5677SOL     OW17929   6.281   0.227   2.866
 5677SOL    HW117930   6.373   0.264   2.872
 5677SOL    HW217931   6.265   0.164   2.942
 5678SOL     OW17932   1.062   5.396   2.755
 5678SOL    HW117933   1.033   5.490   2.774
 5678SOL    HW217934   1.004   5.358   2.682
 5679SOL     OW17935   3.968   5.811   5.557
 5679SOL    HW117936   3.909   5.877   5.604
 5679SOL    HW217937   4.049   5.793   5.613
 5680SOL     OW17938   1.641   6.754   6.821
 5680SOL    HW117939   1.640   6.753   6.921
 5680SOL    HW217940   1.729   6.720   6.788
 5681SOL     OW17941   2.964   4.211   6.302
 5681SOL    HW117942   3.027   4.224   6.379
 5681SOL    HW217943   2.986   4.277   6.230
 5682SOL     OW17944   2.017   2.895   3.799
 5682SOL    HW117945   2.057   2.921   3.886
 5682SOL    HW217946   1.919   2.879   3.810
 5683SOL     OW17947   4.053   3.452   5.202
 5683SOL    HW117948   4.115   3.375   5.214
 5683SOL    HW217949   4.087   3.531   5.254
 5684SOL     OW17950   3.035   3.938   3.000
 5684SOL    HW117951   3.074   3.879   3.071
 5684SOL    HW217952   3.053   4.033   3.023
 5685SOL     OW17953   0.255   6.079   1.187
 5685SOL    HW117954   0.223   6.168   1.218
 5685SOL    HW217955   0.251   6.014   1.262
 5686SOL     OW17956   3.376   4.762   0.035
 5686SOL    HW117957   3.327   4.675   0.030
 5686SOL    HW217958   3.464   4.754   7.009
 5687SOL     OW17959   4.296   5.878   6.522
 5687SOL    HW117960   4.279   5.891   6.619
 5687SOL    HW217961   4.246   5.947   6.470
 5688SOL     OW17962   5.133   1.554   2.346
 5688SOL    HW117963   5.188   1.580   2.266
 5688SOL    HW217964   5.061   1.491   2.317
 5689SOL     OW17965   4.385   3.611   5.755
 5689SOL    HW117966   4.331   3.614   5.671
 5689SOL    HW217967   4.479   3.583   5.733
 5690SOL     OW17968   3.844   6.949   3.370
 5690SOL    HW117969   3.839   6.993   3.280
 5690SOL    HW217970   3.850   6.850   3.358
 5691SOL     OW17971   3.650   0.152   4.289
 5691SOL    HW117972   3.649   0.250   4.271
 5691SOL    HW217973   3.673   0.103   4.205
 5692SOL     OW17974   5.463   2.524   6.473
 5692SOL    HW117975   5.484   2.575   6.390
 5692SOL    HW217976   5.441   2.588   6.547
 5693SOL     OW17977   5.097   2.602   2.481
 5693SOL    HW117978   5.144   2.668   2.541
 5693SOL    HW217979   4.999   2.605   2.498
 5694SOL     OW17980   1.808   2.083   4.392
 5694SOL    HW117981   1.762   2.146   4.329
 5694SOL    HW217982   1.822   2.127   4.481
 5695SOL     OW17983   2.202   3.953   3.254
 5695SOL    HW117984   2.188   4.039   3.205
 5695SOL    HW217985   2.275   3.965   3.322
 5696SOL     OW17986   2.787   0.724   6.197
 5696SOL    HW117987   2.778   0.625   6.189
 5696SOL    HW217988   2.876   0.746   6.238
 5697SOL     OW17989   6.301   3.719   0.299
 5697SOL    HW117990   6.202   3.719   0.311
 5697SOL    HW217991   6.325   3.769   0.215
 5698SOL     OW17992   1.692   4.599   3.779
 5698SOL    HW117993   1.626   4.620   3.851
 5698SOL    HW217994   1.783   4.628   3.807
 5699SOL     OW17995   0.352   2.525   5.265
 5699SOL    HW117996   0.345   2.494   5.360
 5699SOL    HW217997   0.294   2.467   5.207
 5700SOL     OW17998   1.111   5.434   3.845
 5700SOL    HW117999   1.189   5.400   3.792
 5700SOL    HW218000   1.026   5.400   3.805
 5701SOL     OW18001   4.864   3.888   2.788
 5701SOL    HW118002   4.940   3.840   2.831
 5701SOL    HW218003   4.809   3.934   2.857
 5702SOL     OW18004   3.410   0.303   6.965
 5702SOL    HW118005   3.481   0.373   6.978
 5702SOL    HW218006   3.339   0.315   0.014
 5703SOL     OW18007   4.665   4.360   1.701
 5703SOL    HW118008   4.612   4.307   1.766
 5703SOL    HW218009   4.697   4.445   1.744
 5704SOL     OW18010   5.042   4.211   3.535
 5704SOL    HW118011   5.061   4.112   3.534
 5704SOL    HW218012   5.040   4.245   3.441
 5705SOL     OW18013   6.280   1.617   3.762
 5705SOL    HW118014   6.313   1.705   3.798
 5705SOL    HW218015   6.335   1.543   3.801
 5706SOL     OW18016   2.195   1.158   6.591
 5706SOL    HW118017   2.108   1.207   6.583
 5706SOL    HW218018   2.180   1.060   6.573
 5707SOL     OW18019   3.510   1.388   0.076
 5707SOL    HW118020   3.427   1.421   0.120
 5707SOL    HW218021   3.528   1.442   7.013
 5708SOL     OW18022   6.824   6.848   0.850
 5708SOL    HW118023   6.848   6.764   0.802
 5708SOL    HW218024   6.896   6.870   0.916
 5709SOL     OW18025   1.244   2.638   1.030
 5709SOL    HW118026   1.312   2.709   1.050
 5709SOL    HW218027   1.290   2.549   1.025
 5710SOL     OW18028   3.487   4.670   0.279
 5710SOL    HW118029   3.418   4.676   0.206
 5710SOL    HW218030   3.448   4.622   0.358
 5711SOL     OW18031   5.267   1.694   5.199
 5711SOL    HW118032   5.230   1.781   5.167
 5711SOL    HW218033   5.216   1.663   5.279
 5712SOL     OW18034   6.441   6.685   0.043
 5712SOL    HW118035   6.446   6.782   0.065
 5712SOL    HW218036   6.356   6.646   0.079
 5713SOL     OW18037   0.157   2.649   2.614
 5713SOL    HW118038   0.211   2.608   2.688
 5713SOL    HW218039   0.217   2.703   2.554
 5714SOL     OW18040   1.976   0.640   6.636
 5714SOL    HW118041   1.970   0.704   6.560
 5714SOL    HW218042   1.896   0.652   6.695
 5715SOL     OW18043   1.838   0.157   3.281
 5715SOL    HW118044   1.901   0.184   3.354
 5715SOL    HW218045   1.828   0.232   3.216
 5716SOL     OW18046   1.966   2.045   5.263
 5716SOL    HW118047   1.927   2.062   5.172
 5716SOL    HW218048   1.926   2.109   5.329
 5717SOL     OW18049   0.566   3.402   5.805
 5717SOL    HW118050   0.629   3.478   5.820
 5717SOL    HW218051   0.481   3.437   5.765
 5718SOL     OW18052   2.774   4.949   6.165
 5718SOL    HW118053   2.812   5.004   6.239
 5718SOL    HW218054   2.675   4.940   6.178
 5719SOL     OW18055   2.220   0.870   0.850
 5719SOL    HW118056   2.299   0.927   0.873
 5719SOL    HW218057   2.197   0.883   0.754
 5720SOL     OW18058   1.516   5.900   3.843
 5720SOL    HW118059   1.562   5.963   3.782
 5720SOL    HW218060   1.583   5.843   3.891
 5721SOL     OW18061   6.615   3.985   0.172
 5721SOL    HW118062   6.596   4.004   0.268
 5721SOL    HW218063   6.651   4.067   0.127
 5722SOL     OW18064   5.418   1.210   4.168
 5722SOL    HW118065   5.355   1.238   4.095
 5722SOL    HW218066   5.493   1.157   4.129
 5723SOL     OW18067   0.705   4.429   1.393
 5723SOL    HW118068   0.638   4.418   1.319
 5723SOL    HW218069   0.739   4.523   1.393
 5724SOL     OW18070   5.031   2.793   5.781
 5724SOL    HW118071   4.939   2.829   5.792
 5724SOL    HW218072   5.085   2.856   5.725
 5725SOL     OW18073   5.483   6.597   5.498
 5725SOL    HW118074   5.566   6.555   5.534
 5725SOL    HW218075   5.494   6.612   5.399
 5726SOL     OW18076   4.305   4.972   5.774
 5726SOL    HW118077   4.316   4.872   5.774
 5726SOL    HW218078   4.394   5.015   5.761
 5727SOL     OW18079   5.560   2.732   4.250
 5727SOL    HW118080   5.534   2.828   4.242
 5727SOL    HW218081   5.625   2.721   4.326
 5728SOL     OW18082   4.468   0.798   5.404
 5728SOL    HW118083   4.469   0.705   5.443
 5728SOL    HW218084   4.529   0.856   5.457
 5729SOL     OW18085   1.192   2.896   3.665
 5729SOL    HW118086   1.132   2.901   3.744
 5729SOL    HW218087   1.185   2.981   3.612
 5730SOL     OW18088   4.053   4.514   0.185
 5730SOL    HW118089   4.026   4.567   0.265
 5730SOL    HW218090   4.099   4.430   0.214
 5731SOL     OW18091   4.516   1.099   4.786
 5731SOL    HW118092   4.510   1.154   4.869
 5731SOL    HW218093   4.459   1.140   4.714
 5732SOL     OW18094   5.472   4.519   4.793
 5732SOL    HW118095   5.487   4.443   4.729
 5732SOL    HW218096   5.543   4.588   4.780
 5733SOL     OW18097   2.584   0.118   1.924
 5733SOL    HW118098   2.648   0.109   1.848
 5733SOL    HW218099   2.518   0.191   1.904
 5734SOL     OW18100   1.546   6.795   5.992
 5734SOL    HW118101   1.495   6.709   5.996
 5734SOL    HW218102   1.596   6.807   6.077
 5735SOL     OW18103   5.508   0.998   0.926
 5735SOL    HW118104   5.595   0.993   0.878
 5735SOL    HW218105   5.499   1.086   0.971
 5736SOL     OW18106   5.360   3.631   6.360
 5736SOL    HW118107   5.436   3.607   6.299
 5736SOL    HW218108   5.331   3.725   6.341
 5737SOL     OW18109   5.375   5.694   2.395
 5737SOL    HW118110   5.394   5.684   2.492
 5737SOL    HW218111   5.398   5.787   2.366
 5738SOL     OW18112   2.405   0.840   1.299
 5738SOL    HW118113   2.389   0.929   1.340
 5738SOL    HW218114   2.473   0.849   1.226
 5739SOL     OW18115   2.394   0.758   5.189
 5739SOL    HW118116   2.421   0.662   5.196
 5739SOL    HW218117   2.410   0.804   5.276
 5740SOL     OW18118   4.889   3.399   2.322
 5740SOL    HW118119   4.829   3.403   2.242
 5740SOL    HW218120   4.915   3.492   2.349
 5741SOL     OW18121   1.517   3.324   4.332
 5741SOL    HW118122   1.530   3.420   4.306
 5741SOL    HW218123   1.447   3.283   4.273
 5742SOL     OW18124   5.971   5.815   2.141
 5742SOL    HW118125   6.035   5.751   2.184
 5742SOL    HW218126   5.893   5.764   2.104
 5743SOL     OW18127   3.664   5.714   0.300
 5743SOL    HW118128   3.718   5.754   0.374
 5743SOL    HW218129   3.714   5.639   0.258
 5744SOL     OW18130   5.219   5.986   3.277
 5744SOL    HW118131   5.219   5.973   3.376
 5744SOL    HW218132   5.131   5.957   3.239
 5745SOL     OW18133   0.920   3.431   2.662
 5745SOL    HW118134   0.947   3.344   2.620
 5745SOL    HW218135   0.896   3.417   2.758
 5746SOL     OW18136   5.326   0.495   3.059
 5746SOL    HW118137   5.381   0.536   3.132
 5746SOL    HW218138   5.343   0.396   3.057
 5747SOL     OW18139   1.854   0.011   1.201
 5747SOL    HW118140   1.854   0.100   1.246
 5747SOL    HW218141   1.773   6.979   1.229
 5748SOL     OW18142   5.853   6.476   6.902
 5748SOL    HW118143   5.923   6.541   6.871
 5748SOL    HW218144   5.871   6.386   6.863
 5749SOL     OW18145   2.160   6.083   6.191
 5749SOL    HW118146   2.115   6.144   6.256
 5749SOL    HW218147   2.202   6.137   6.118
 5750SOL     OW18148   6.508   2.642   4.415
 5750SOL    HW118149   6.591   2.669   4.365
 5750SOL    HW218150   6.502   2.695   4.500
 5751SOL     OW18151   0.294   3.578   4.435
 5751SOL    HW118152   0.214   3.592   4.494
 5751SOL    HW218153   0.338   3.666   4.417
 5752SOL     OW18154   5.520   0.895   0.484
 5752SOL    HW118155   5.542   0.989   0.507
 5752SOL    HW218156   5.593   0.834   0.517
 5753SOL     OW18157   3.790   3.894   4.276
 5753SOL    HW118158   3.714   3.954   4.302
 5753SOL    HW218159   3.766   3.800   4.297
 5754SOL     OW18160   6.546   6.134   0.973
 5754SOL    HW118161   6.458   6.167   0.940
 5754SOL    HW218162   6.546   6.131   1.073
 5755SOL     OW18163   1.330   3.006   6.685
 5755SOL    HW118164   1.348   3.104   6.677
 5755SOL    HW218165   1.327   2.980   6.781
 5756SOL     OW18166   6.216   6.030   1.771
 5756SOL    HW118167   6.178   6.036   1.679
 5756SOL    HW218168   6.280   5.953   1.775
 5757SOL     OW18169   0.417   1.369   3.634
 5757SOL    HW118170   0.321   1.364   3.662
 5757SOL    HW218171   0.425   1.342   3.538
 5758SOL     OW18172   6.099   6.734   3.053
 5758SOL    HW118173   6.131   6.725   3.147
 5758SOL    HW218174   6.063   6.827   3.039
 5759SOL     OW18175   2.182   6.951   2.331
 5759SOL    HW118176   2.202   0.026   2.357
 5759SOL    HW218177   2.261   6.912   2.284
 5760SOL     OW18178   0.533   1.859   6.420
 5760SOL    HW118179   0.614   1.878   6.475
 5760SOL    HW218180   0.541   1.770   6.377
 5761SOL     OW18181   6.679   6.477   4.701
 5761SOL    HW118182   6.678   6.544   4.776
 5761SOL    HW218183   6.587   6.468   4.663
 5762SOL     OW18184   0.982   5.462   5.650
 5762SOL    HW118185   1.005   5.543   5.595
 5762SOL    HW218186   1.065   5.425   5.691
 5763SOL     OW18187   5.377   0.448   0.588
 5763SOL    HW118188   5.465   0.403   0.600
 5763SOL    HW218189   5.377   0.535   0.637
 5764SOL     OW18190   4.534   6.309   4.327
 5764SOL    HW118191   4.516   6.212   4.344
 5764SOL    HW218192   4.486   6.364   4.396
 5765SOL     OW18193   6.772   5.348   2.268
 5765SOL    HW118194   6.802   5.253   2.275
 5765SOL    HW218195   6.759   5.386   2.359
 5766SOL     OW18196   0.809   1.533   4.026
 5766SOL    HW118197   0.760   1.478   3.959
 5766SOL    HW218198   0.744   1.581   4.084
 5767SOL     OW18199   4.675   6.688   0.362
 5767SOL    HW118200   4.671   6.594   0.394
 5767SOL    HW218201   4.665   6.751   0.440
 5768SOL     OW18202   1.334   0.920   5.060
 5768SOL    HW118203   1.341   0.862   5.141
 5768SOL    HW218204   1.254   0.892   5.005
 5769SOL     OW18205   0.802   2.985   5.695
 5769SOL    HW118206   0.791   3.083   5.676
 5769SOL    HW218207   0.871   2.947   5.634
 5770SOL     OW18208   1.926   4.568   2.282
 5770SOL    HW118209   1.979   4.509   2.220
 5770SOL    HW218210   1.844   4.600   2.236
 5771SOL     OW18211   2.770   5.146   3.734
 5771SOL    HW118212   2.717   5.124   3.816
 5771SOL    HW218213   2.773   5.066   3.675
 5772SOL     OW18214   3.056   0.047   3.057
 5772SOL    HW118215   3.036   7.013   3.138
 5772SOL    HW218216   3.092   0.137   3.084
 5773SOL     OW18217   5.572   1.061   3.437
 5773SOL    HW118218   5.527   1.124   3.500
 5773SOL    HW218219   5.529   1.067   3.347
 5774SOL     OW18220   1.221   6.761   3.294
 5774SOL    HW118221   1.163   6.680   3.291
 5774SOL    HW218222   1.309   6.742   3.252
 5775SOL     OW18223   5.929   5.155   2.280
 5775SOL    HW118224   5.842   5.113   2.253
 5775SOL    HW218225   5.970   5.199   2.200
 5776SOL     OW18226   2.891   1.097   4.332
 5776SOL    HW118227   2.991   1.090   4.337
 5776SOL    HW218228   2.859   1.061   4.245
 5777SOL     OW18229   1.259   0.422   1.538
 5777SOL    HW118230   1.168   0.382   1.552
 5777SOL    HW218231   1.309   0.368   1.471
 5778SOL     OW18232   0.051   0.470   0.786
 5778SOL    HW118233   0.042   0.567   0.765
 5778SOL    HW218234   0.145   0.451   0.815
 5779SOL     OW18235   6.240   1.510   0.259
 5779SOL    HW118236   6.265   1.593   0.309
 5779SOL    HW218237   6.159   1.527   0.204
 5780SOL     OW18238   4.940   4.897   4.037
 5780SOL    HW118239   4.960   4.934   3.946
 5780SOL    HW218240   4.856   4.938   4.072
 5781SOL     OW18241   1.592   5.356   5.922
 5781SOL    HW118242   1.655   5.313   5.985
 5781SOL    HW218243   1.631   5.356   5.830
 5782SOL     OW18244   0.135   0.913   7.014
 5782SOL    HW118245   0.186   0.999   0.004
 5782SOL    HW218246   0.161   0.851   0.068
 5783SOL     OW18247   2.493   2.772   0.019
 5783SOL    HW118248   2.439   2.829   0.082
 5783SOL    HW218249   2.432   2.729   6.972
 5784SOL     OW18250   0.074   6.598   6.386
 5784SOL    HW118251   0.011   6.531   6.425
 5784SOL    HW218252   0.080   6.677   6.447
 5785SOL     OW18253   1.297   1.254   0.845
 5785SOL    HW118254   1.280   1.319   0.771
 5785SOL    HW218255   1.378   1.200   0.825
 5786SOL     OW18256   6.247   5.476   1.305
 5786SOL    HW118257   6.223   5.573   1.300
 5786SOL    HW218258   6.327   5.459   1.247
 5787SOL     OW18259   2.192   3.015   5.618
 5787SOL    HW118260   2.226   3.060   5.700
 5787SOL    HW218261   2.270   2.990   5.560
 5788SOL     OW18262   3.260   0.549   3.907
 5788SOL    HW118263   3.176   0.561   3.854
 5788SOL    HW218264   3.279   0.632   3.958
 5789SOL     OW18265   3.935   5.065   6.166
 5789SOL    HW118266   3.966   5.132   6.233
 5789SOL    HW218267   3.960   5.096   6.074
 5790SOL     OW18268   1.221   3.835   3.638
 5790SOL    HW118269   1.153   3.894   3.595
 5790SOL    HW218270   1.290   3.891   3.684
 5791SOL     OW18271   1.885   0.626   3.120
 5791SOL    HW118272   1.914   0.720   3.101
 5791SOL    HW218273   1.814   0.600   3.054
 5792SOL     OW18274   0.077   2.270   2.447
 5792SOL    HW118275   0.151   2.335   2.466
 5792SOL    HW218276   0.104   2.178   2.475
 5793SOL     OW18277   6.473   0.685   4.541
 5793SOL    HW118278   6.412   0.661   4.466
 5793SOL    HW218279   6.561   0.716   4.504
 5794SOL     OW18280   6.115   4.536   6.304
 5794SOL    HW118281   6.026   4.546   6.348
 5794SOL    HW218282   6.105   4.487   6.217
 5795SOL     OW18283   5.773   4.109   6.706
 5795SOL    HW118284   5.738   4.035   6.764
 5795SOL    HW218285   5.865   4.134   6.737
 5796SOL     OW18286   3.146   2.327   0.634
 5796SOL    HW118287   3.168   2.418   0.598
 5796SOL    HW218288   3.053   2.328   0.670
 5797SOL     OW18289   2.844   2.495   5.347
 5797SOL    HW118290   2.772   2.454   5.291
 5797SOL    HW218291   2.804   2.560   5.412
 5798SOL     OW18292   6.692   5.180   4.639
 5798SOL    HW118293   6.695   5.276   4.612
 5798SOL    HW218294   6.597   5.153   4.655
 5799SOL     OW18295   5.075   0.992   4.235
 5799SOL    HW118296   5.148   1.054   4.266
 5799SOL    HW218297   5.084   0.977   4.136
 5800SOL     OW18298   6.182   5.985   6.683
 5800SOL    HW118299   6.144   6.077   6.670
 5800SOL    HW218300   6.280   5.987   6.663
 5801SOL     OW18301   1.912   0.867   2.708
 5801SOL    HW118302   2.003   0.833   2.732
 5801SOL    HW218303   1.916   0.965   2.690
 5802SOL     OW18304   1.134   2.972   4.910
 5802SOL    HW118305   1.170   3.061   4.881
 5802SOL    HW218306   1.083   2.931   4.834
 5803SOL     OW18307   1.642   4.741   1.024
 5803SOL    HW118308   1.628   4.738   1.123
 5803SOL    HW218309   1.732   4.780   1.004
 5804SOL     OW18310   6.776   2.866   6.093
 5804SOL    HW118311   6.727   2.809   6.027
 5804SOL    HW218312   6.713   2.899   6.162
 5805SOL     OW18313   6.069   3.354   6.643
 5805SOL    HW118314   6.101   3.263   6.669
 5805SOL    HW218315   6.029   3.351   6.552
 5806SOL     OW18316   0.043   6.850   6.597
 5806SOL    HW118317   7.011   6.921   6.550
 5806SOL    HW218318   0.135   6.844   6.558
 5807SOL     OW18319   2.298   3.698   1.727
 5807SOL    HW118320   2.302   3.623   1.792
 5807SOL    HW218321   2.300   3.662   1.634
 5808SOL     OW18322   6.233   1.895   3.535
 5808SOL    HW118323   6.171   1.905   3.613
 5808SOL    HW218324   6.232   1.801   3.503
 5809SOL     OW18325   0.388   3.009   4.306
 5809SOL    HW118326   0.472   3.045   4.266
 5809SOL    HW218327   0.322   2.989   4.233
 5810SOL     OW18328   2.131   2.163   2.646
 5810SOL    HW118329   2.227   2.178   2.624
 5810SOL    HW218330   2.081   2.249   2.639
 5811SOL     OW18331   2.922   0.524   2.341
 5811SOL    HW118332   3.021   0.539   2.339
 5811SOL    HW218333   2.875   0.609   2.318
 5812SOL     OW18334   4.597   0.412   4.477
 5812SOL    HW118335   4.675   0.447   4.529
 5812SOL    HW218336   4.540   0.488   4.447
 5813SOL     OW18337   1.743   1.066   5.132
 5813SOL    HW118338   1.758   0.996   5.201
 5813SOL    HW218339   1.651   1.103   5.141
 5814SOL     OW18340   0.032   4.966   0.549
 5814SOL    HW118341   6.970   5.023   0.550
 5814SOL    HW218342   0.007   4.871   0.570
 5815SOL     OW18343   3.700   1.391   3.730
 5815SOL    HW118344   3.642   1.385   3.811
 5815SOL    HW218345   3.793   1.414   3.757
 5816SOL     OW18346   4.884   6.896   1.241
 5816SOL    HW118347   4.792   6.895   1.204
 5816SOL    HW218348   4.939   6.964   1.191
 5817SOL     OW18349   5.727   1.757   6.208
 5817SOL    HW118350   5.788   1.750   6.287
 5817SOL    HW218351   5.736   1.674   6.152
 5818SOL     OW18352   6.123   6.379   5.572
 5818SOL    HW118353   6.184   6.431   5.632
 5818SOL    HW218354   6.160   6.377   5.480
 5819SOL     OW18355   5.737   0.250   0.911
 5819SOL    HW118356   5.694   0.325   0.961
 5819SOL    HW218357   5.748   0.171   0.971
 5820SOL     OW18358   5.573   5.384   2.427
 5820SOL    HW118359   5.582   5.428   2.516
 5820SOL    HW218360   5.476   5.380   2.401
 5821SOL     OW18361   3.243   6.726   2.373
 5821SOL    HW118362   3.194   6.638   2.370
 5821SOL    HW218363   3.178   6.799   2.395
 5822SOL     OW18364   0.944   1.183   2.165
 5822SOL    HW118365   1.031   1.176   2.116
 5822SOL    HW218366   0.938   1.272   2.210
 5823SOL     OW18367   2.182   2.909   4.366
 5823SOL    HW118368   2.177   2.991   4.424
 5823SOL    HW218369   2.189   2.828   4.424
 5824SOL     OW18370   4.104   0.478   3.398
 5824SOL    HW118371   4.099   0.490   3.498
 5824SOL    HW218372   4.071   0.387   3.374
 5825SOL     OW18373   3.073   0.959   1.275
 5825SOL    HW118374   3.115   0.962   1.366
 5825SOL    HW218375   3.115   1.029   1.217
 5826SOL     OW18376   6.614   6.709   4.444
 5826SOL    HW118377   6.546   6.705   4.370
 5826SOL    HW218378   6.623   6.618   4.486
 5827SOL     OW18379   1.945   4.862   5.365
 5827SOL    HW118380   1.890   4.936   5.403
 5827SOL    HW218381   1.906   4.833   5.277
 5828SOL     OW18382   6.520   1.989   1.785
 5828SOL    HW118383   6.442   2.046   1.759
 5828SOL    HW218384   6.549   2.013   1.878
 5829SOL     OW18385   1.329   1.811   1.676
 5829SOL    HW118386   1.303   1.796   1.771
 5829SOL    HW218387   1.416   1.767   1.657
 5830SOL     OW18388   2.081   1.042   5.432
 5830SOL    HW118389   2.168   1.035   5.383
 5830SOL    HW218390   2.053   0.952   5.464
 5831SOL     OW18391   5.879   5.955   3.040
 5831SOL    HW118392   5.807   5.947   3.109
 5831SOL    HW218393   5.846   6.011   2.964
 5832SOL     OW18394   3.346   3.455   4.661
 5832SOL    HW118395   3.288   3.483   4.737
 5832SOL    HW218396   3.442   3.462   4.687
 5833SOL     OW18397   3.452   3.189   4.806
 5833SOL    HW118398   3.550   3.172   4.796
 5833SOL    HW218399   3.401   3.119   4.757
 5834SOL     OW18400   6.421   0.636   0.221
 5834SOL    HW118401   6.408   0.730   0.190
 5834SOL    HW218402   6.424   0.574   0.143
 5835SOL     OW18403   5.253   2.863   4.387
 5835SOL    HW118404   5.332   2.872   4.447
 5835SOL    HW218405   5.195   2.788   4.419
 5836SOL     OW18406   3.264   6.792   2.736
 5836SOL    HW118407   3.167   6.773   2.746
 5836SOL    HW218408   3.285   6.883   2.771
 5837SOL     OW18409   4.563   4.842   6.737
 5837SOL    HW118410   4.505   4.920   6.713
 5837SOL    HW218411   4.592   4.795   6.653
 5838SOL     OW18412   0.466   1.431   5.292
 5838SOL    HW118413   0.399   1.505   5.299
 5838SOL    HW218414   0.479   1.406   5.196
 5839SOL     OW18415   6.987   2.586   2.308
 5839SOL    HW118416   6.971   2.549   2.400
 5839SOL    HW218417   0.065   2.593   2.292
 5840SOL     OW18418   2.932   5.448   0.276
 5840SOL    HW118419   2.974   5.460   0.366
 5840SOL    HW218420   2.906   5.352   0.264
 5841SOL     OW18421   6.118   2.411   2.733
 5841SOL    HW118422   6.214   2.419   2.763
 5841SOL    HW218423   6.059   2.451   2.802
 5842SOL     OW18424   3.887   3.335   0.045
 5842SOL    HW118425   3.792   3.363   0.053
 5842SOL    HW218426   3.945   3.400   0.095
 5843SOL     OW18427   0.987   3.042   1.023
 5843SOL    HW118428   1.027   2.995   0.945
 5843SOL    HW218429   0.909   2.989   1.057
 5844SOL     OW18430   1.640   5.923   6.845
 5844SOL    HW118431   1.604   5.877   6.926
 5844SOL    HW218432   1.580   5.999   6.821
 5845SOL     OW18433   1.161   2.432   4.641
 5845SOL    HW118434   1.199   2.522   4.619
 5845SOL    HW218435   1.085   2.443   4.705
 5846SOL     OW18436   0.727   3.239   6.240
 5846SOL    HW118437   0.682   3.229   6.151
 5846SOL    HW218438   0.739   3.336   6.260
 5847SOL     OW18439   1.480   2.267   3.775
 5847SOL    HW118440   1.435   2.180   3.753
 5847SOL    HW218441   1.468   2.331   3.699
 5848SOL     OW18442   1.238   5.185   3.467
 5848SOL    HW118443   1.288   5.240   3.400
 5848SOL    HW218444   1.291   5.178   3.552
 5849SOL     OW18445   3.051   6.804   5.603
 5849SOL    HW118446   3.056   6.725   5.664
 5849SOL    HW218447   3.112   6.876   5.636
 5850SOL     OW18448   0.615   4.398   3.482
 5850SOL    HW118449   0.625   4.411   3.383
 5850SOL    HW218450   0.690   4.445   3.529
 5851SOL     OW18451   5.146   3.163   2.065
 5851SOL    HW118452   5.150   3.063   2.059
 5851SOL    HW218453   5.202   3.203   1.992
 5852SOL     OW18454   4.236   5.823   2.642
 5852SOL    HW118455   4.215   5.774   2.727
 5852SOL    HW218456   4.324   5.869   2.650
 5853SOL     OW18457   4.685   4.402   5.569
 5853SOL    HW118458   4.763   4.450   5.530
 5853SOL    HW218459   4.702   4.304   5.569
 5854SOL     OW18460   0.900   0.861   6.570
 5854SOL    HW118461   0.935   0.780   6.523
 5854SOL    HW218462   0.959   0.882   6.648
 5855SOL     OW18463   1.971   1.277   5.086
 5855SOL    HW118464   1.902   1.209   5.111
 5855SOL    HW218465   2.045   1.231   5.036
 5856SOL     OW18466   2.178   5.088   2.877
 5856SOL    HW118467   2.236   5.093   2.959
 5856SOL    HW218468   2.106   5.157   2.883
 5857SOL     OW18469   0.023   2.338   5.447
 5857SOL    HW118470   0.060   2.250   5.477
 5857SOL    HW218471   7.001   2.327   5.357
 5858SOL     OW18472   3.762   6.641   3.370
 5858SOL    HW118473   3.682   6.617   3.426
 5858SOL    HW218474   3.839   6.584   3.396
 5859SOL     OW18475   6.475   5.637   1.662
 5859SOL    HW118476   6.453   5.707   1.594
 5859SOL    HW218477   6.476   5.678   1.753
 5860SOL     OW18478   0.634   3.421   0.893
 5860SOL    HW118479   0.554   3.458   0.845
 5860SOL    HW218480   0.712   3.481   0.879
 5861SOL     OW18481   5.878   2.082   4.157
 5861SOL    HW118482   5.815   2.023   4.207
 5861SOL    HW218483   5.828   2.159   4.118
 5862SOL     OW18484   4.617   4.375   3.664
 5862SOL    HW118485   4.604   4.393   3.762
 5862SOL    HW218486   4.713   4.390   3.640
 5863SOL     OW18487   1.973   1.590   1.283
 5863SOL    HW118488   1.901   1.579   1.214
 5863SOL    HW218489   1.953   1.671   1.339
 5864SOL     OW18490   4.064   5.660   0.480
 5864SOL    HW118491   4.053   5.583   0.543
 5864SOL    HW218492   4.153   5.702   0.495
 5865SOL     OW18493   4.659   0.807   3.557
 5865SOL    HW118494   4.664   0.760   3.469
 5865SOL    HW218495   4.586   0.767   3.612
 5866SOL     OW18496   3.067   1.874   6.782
 5866SOL    HW118497   3.093   1.914   6.871
 5866SOL    HW218498   3.101   1.780   6.777
 5867SOL     OW18499   0.348   2.814   1.260
 5867SOL    HW118500   0.288   2.823   1.340
 5867SOL    HW218501   0.444   2.814   1.291
 5868SOL     OW18502   1.353   6.751   4.481
 5868SOL    HW118503   1.375   6.741   4.578
 5868SOL    HW218504   1.254   6.747   4.469
 5869SOL     OW18505   3.353   4.916   4.146
 5869SOL    HW118506   3.342   4.961   4.057
 5869SOL    HW218507   3.264   4.883   4.178
 5870SOL     OW18508   5.168   5.202   4.159
 5870SOL    HW118509   5.212   5.120   4.120
 5870SOL    HW218510   5.200   5.283   4.110
 5871SOL     OW18511   2.632   3.734   0.234
 5871SOL    HW118512   2.641   3.700   0.328
 5871SOL    HW218513   2.536   3.734   0.207
 5872SOL     OW18514   3.802   5.722   4.180
 5872SOL    HW118515   3.790   5.626   4.154
 5872SOL    HW218516   3.849   5.771   4.106
 5873SOL     OW18517   1.860   3.352   6.904
 5873SOL    HW118518   1.864   3.284   6.978
 5873SOL    HW218519   1.845   3.305   6.817
 5874SOL     OW18520   1.097   4.054   6.758
 5874SOL    HW118521   1.010   4.087   6.722
 5874SOL    HW218522   1.125   3.972   6.708
 5875SOL     OW18523   4.142   2.204   0.556
 5875SOL    HW118524   4.212   2.178   0.621
 5875SOL    HW218525   4.094   2.285   0.589
 5876SOL     OW18526   3.825   3.985   6.209
 5876SOL    HW118527   3.806   4.037   6.125
 5876SOL    HW218528   3.875   4.044   6.273
 5877SOL     OW18529   6.079   0.183   2.364
 5877SOL    HW118530   6.069   0.283   2.365
 5877SOL    HW218531   6.102   0.151   2.456
 5878SOL     OW18532   4.986   3.991   2.238
 5878SOL    HW118533   4.889   3.973   2.252
 5878SOL    HW218534   4.999   4.085   2.208
 5879SOL     OW18535   2.886   4.095   5.190
 5879SOL    HW118536   2.800   4.124   5.231
 5879SOL    HW218537   2.877   4.002   5.156
 5880SOL     OW18538   5.634   2.301   6.873
 5880SOL    HW118539   5.706   2.357   6.832
 5880SOL    HW218540   5.552   2.304   6.815
 5881SOL     OW18541   1.578   6.544   2.748
 5881SOL    HW118542   1.674   6.520   2.765
 5881SOL    HW218543   1.520   6.504   2.819
 5882SOL     OW18544   1.402   4.717   5.541
 5882SOL    HW118545   1.427   4.624   5.569
 5882SOL    HW218546   1.324   4.748   5.596
 5883SOL     OW18547   6.747   5.643   0.271
 5883SOL    HW118548   6.734   5.731   0.224
 5883SOL    HW218549   6.829   5.598   0.236
 5884SOL     OW18550   6.778   0.905   2.295
 5884SOL    HW118551   6.687   0.946   2.296
 5884SOL    HW218552   6.816   0.906   2.388
 5885SOL     OW18553   0.202   5.318   0.855
 5885SOL    HW118554   0.244   5.388   0.797
 5885SOL    HW218555   0.112   5.294   0.819
 5886SOL     OW18556   1.888   5.079   3.581
 5886SOL    HW118557   1.937   5.166   3.574
 5886SOL    HW218558   1.934   5.010   3.526
 5887SOL     OW18559   3.198   2.993   0.086
 5887SOL    HW118560   3.190   3.035   0.176
 5887SOL    HW218561   3.228   2.898   0.096
 5888SOL     OW18562   2.791   6.134   1.264
 5888SOL    HW118563   2.874   6.099   1.309
 5888SOL    HW218564   2.725   6.163   1.334
 5889SOL     OW18565   5.616   1.410   2.357
 5889SOL    HW118566   5.683   1.464   2.306
 5889SOL    HW218567   5.662   1.333   2.401
 5890SOL     OW18568   2.472   4.961   3.477
 5890SOL    HW118569   2.416   4.882   3.452
 5890SOL    HW218570   2.562   4.930   3.507
 5891SOL     OW18571   2.515   3.556   6.671
 5891SOL    HW118572   2.511   3.652   6.642
 5891SOL    HW218573   2.527   3.552   6.770
 5892SOL     OW18574   1.488   2.928   0.445
 5892SOL    HW118575   1.427   2.849   0.453
 5892SOL    HW218576   1.458   3.001   0.506
 5893SOL     OW18577   0.764   6.283   1.511
 5893SOL    HW118578   0.846   6.235   1.480
 5893SOL    HW218579   0.739   6.353   1.444
 5894SOL     OW18580   2.095   5.843   6.860
 5894SOL    HW118581   2.093   5.915   6.791
 5894SOL    HW218582   2.074   5.755   6.817
 5895SOL     OW18583   5.789   4.006   3.286
 5895SOL    HW118584   5.708   4.008   3.228
 5895SOL    HW218585   5.829   4.098   3.290
 5896SOL     OW18586   5.408   2.109   2.261
 5896SOL    HW118587   5.423   2.086   2.357
 5896SOL    HW218588   5.370   2.201   2.254
 5897SOL     OW18589   3.321   2.160   0.778
 5897SOL    HW118590   3.268   2.218   0.716
 5897SOL    HW218591   3.359   2.083   0.727
 5898SOL     OW18592   2.080   0.898   6.833
 5898SOL    HW118593   2.083   0.998   6.836
 5898SOL    HW218594   1.984   0.868   6.825
 5899SOL     OW18595   0.095   6.876   0.050
 5899SOL    HW118596   0.083   6.856   0.147
 5899SOL    HW218597   0.123   6.972   0.040
 5900SOL     OW18598   6.069   6.425   2.288
 5900SOL    HW118599   6.095   6.419   2.192
 5900SOL    HW218600   5.983   6.476   2.296
 5901SOL     OW18601   2.486   0.320   5.025
 5901SOL    HW118602   2.495   0.276   4.936
 5901SOL    HW218603   2.547   0.399   5.030
 5902SOL     OW18604   4.063   4.147   5.573
 5902SOL    HW118605   4.135   4.175   5.510
 5902SOL    HW218606   4.038   4.052   5.555
 5903SOL     OW18607   6.480   1.944   5.192
 5903SOL    HW118608   6.393   1.897   5.173
 5903SOL    HW218609   6.519   1.976   5.105
 5904SOL     OW18610   0.123   4.925   1.397
 5904SOL    HW118611   0.085   4.899   1.308
 5904SOL    HW218612   0.188   5.000   1.385
 5905SOL     OW18613   6.027   2.503   5.040
 5905SOL    HW118614   6.067   2.462   4.958
 5905SOL    HW218615   5.991   2.594   5.018
 5906SOL     OW18616   4.545   1.147   6.008
 5906SOL    HW118617   4.465   1.199   5.977
 5906SOL    HW218618   4.625   1.173   5.953
 5907SOL     OW18619   1.374   2.939   5.652
 5907SOL    HW118620   1.432   2.882   5.594
 5907SOL    HW218621   1.368   3.031   5.614
 5908SOL     OW18622   4.553   4.157   6.510
 5908SOL    HW118623   4.492   4.202   6.445
 5908SOL    HW218624   4.524   4.177   6.603
 5909SOL     OW18625   6.077   5.018   4.094
 5909SOL    HW118626   6.115   4.981   4.179
 5909SOL    HW218627   5.986   4.980   4.079
 5910SOL     OW18628   3.121   4.585   0.943
 5910SOL    HW118629   3.133   4.613   0.848
 5910SOL    HW218630   3.084   4.492   0.945
 5911SOL     OW18631   6.248   0.150   6.571
 5911SOL    HW118632   6.339   0.174   6.539
 5911SOL    HW218633   6.211   0.224   6.627
 5912SOL     OW18634   0.667   3.526   5.509
 5912SOL    HW118635   0.688   3.444   5.455
 5912SOL    HW218636   0.617   3.591   5.452
 5913SOL     OW18637   1.828   2.483   4.355
 5913SOL    HW118638   1.729   2.490   4.345
 5913SOL    HW218639   1.872   2.549   4.294
 5914SOL     OW18640   1.447   5.888   1.045
 5914SOL    HW118641   1.349   5.907   1.055
 5914SOL    HW218642   1.499   5.969   1.072
 5915SOL     OW18643   5.692   3.582   4.762
 5915SOL    HW118644   5.620   3.591   4.831
 5915SOL    HW218645   5.726   3.488   4.762
 5916SOL     OW18646   3.054   0.087   6.401
 5916SOL    HW118647   3.131   0.076   6.338
 5916SOL    HW218648   3.062   0.175   6.449
 5917SOL     OW18649   3.913   3.961   2.601
 5917SOL    HW118650   3.914   3.895   2.526
 5917SOL    HW218651   3.960   3.922   2.680
 5918SOL     OW18652   2.318   1.936   4.215
 5918SOL    HW118653   2.268   2.008   4.262
 5918SOL    HW218654   2.417   1.952   4.226
 5919SOL     OW18655   1.365   2.172   6.716
 5919SOL    HW118656   1.444   2.218   6.675
 5919SOL    HW218657   1.347   2.087   6.666
 5920SOL     OW18658   2.638   5.359   0.032
 5920SOL    HW118659   2.573   5.373   0.106
 5920SOL    HW218660   2.594   5.378   6.964
 5921SOL     OW18661   4.005   5.522   5.637
 5921SOL    HW118662   4.063   5.457   5.587
 5921SOL    HW218663   4.061   5.594   5.676
 5922SOL     OW18664   5.801   4.822   1.361
 5922SOL    HW118665   5.725   4.759   1.381
 5922SOL    HW218666   5.876   4.771   1.319
 5923SOL     OW18667   0.324   0.761   3.613
 5923SOL    HW118668   0.422   0.743   3.607
 5923SOL    HW218669   0.291   0.738   3.704
 5924SOL     OW18670   6.103   1.947   4.702
 5924SOL    HW118671   6.018   1.929   4.652
 5924SOL    HW218672   6.175   1.973   4.637
 5925SOL     OW18673   6.268   6.173   0.580
 5925SOL    HW118674   6.321   6.229   0.643
 5925SOL    HW218675   6.170   6.190   0.594
 5926SOL     OW18676   3.064   5.336   2.063
 5926SOL    HW118677   3.157   5.313   2.035
 5926SOL    HW218678   2.999   5.283   2.009
 5927SOL     OW18679   2.194   5.241   1.983
 5927SOL    HW118680   2.149   5.182   2.049
 5927SOL    HW218681   2.134   5.256   1.905
 5928SOL     OW18682   1.135   5.963   1.180
 5928SOL    HW118683   1.142   5.876   1.228
 5928SOL    HW218684   1.138   5.947   1.081
 5929SOL     OW18685   0.647   6.703   5.398
 5929SOL    HW118686   0.670   6.645   5.319
 5929SOL    HW218687   0.548   6.715   5.402
 5930SOL     OW18688   6.235   1.096   4.967
 5930SOL    HW118689   6.208   1.093   5.064
 5930SOL    HW218690   6.162   1.058   4.911
 5931SOL     OW18691   5.636   5.028   0.483
 5931SOL    HW118692   5.727   5.024   0.443
 5931SOL    HW218693   5.635   5.094   0.559
 5932SOL     OW18694   2.241   0.397   7.008
 5932SOL    HW118695   2.179   0.466   0.026
 5932SOL    HW218696   2.213   0.306   0.019
 5933SOL     OW18697   6.314   3.513   2.958
 5933SOL    HW118698   6.364   3.537   3.041
 5933SOL    HW218699   6.245   3.443   2.980
 5934SOL     OW18700   4.018   3.795   2.405
 5934SOL    HW118701   4.092   3.850   2.443
 5934SOL    HW218702   3.995   3.829   2.314
 5935SOL     OW18703   3.910   2.930   2.859
 5935SOL    HW118704   3.811   2.938   2.876
 5935SOL    HW218705   3.927   2.855   2.795
 5936SOL     OW18706   6.559   6.280   6.373
 5936SOL    HW118707   6.469   6.294   6.331
 5936SOL    HW218708   6.590   6.365   6.415
 5937SOL     OW18709   1.398   4.570   0.260
 5937SOL    HW118710   1.415   4.622   0.344
 5937SOL    HW218711   1.311   4.522   0.267
 5938SOL     OW18712   2.155   4.423   0.722
 5938SOL    HW118713   2.238   4.384   0.683
 5938SOL    HW218714   2.159   4.523   0.715
 5939SOL     OW18715   1.582   1.495   2.384
 5939SOL    HW118716   1.677   1.526   2.375
 5939SOL    HW218717   1.579   1.396   2.369
 5940SOL     OW18718   3.798   5.211   3.471
 5940SOL    HW118719   3.807   5.221   3.372
 5940SOL    HW218720   3.715   5.256   3.503
 5941SOL     OW18721   6.798   3.123   2.942
 5941SOL    HW118722   6.769   3.187   2.871
 5941SOL    HW218723   6.760   3.151   3.030
 5942SOL     OW18724   6.949   2.032   4.700
 5942SOL    HW118725   6.893   2.111   4.727
 5942SOL    HW218726   0.025   2.050   4.721
 5943SOL     OW18727   1.403   5.147   0.829
 5943SOL    HW118728   1.389   5.049   0.815
 5943SOL    HW218729   1.322   5.187   0.873
 5944SOL     OW18730   5.044   2.327   3.288
 5944SOL    HW118731   5.038   2.350   3.191
 5944SOL    HW218732   5.025   2.230   3.300
 5945SOL     OW18733   6.674   5.282   6.136
 5945SOL    HW118734   6.639   5.248   6.223
 5945SOL    HW218735   6.701   5.378   6.145
 5946SOL     OW18736   3.671   2.696   5.396
 5946SOL    HW118737   3.610   2.718   5.320
 5946SOL    HW218738   3.763   2.727   5.375
 5947SOL     OW18739   4.868   4.003   1.675
 5947SOL    HW118740   4.786   4.061   1.680
 5947SOL    HW218741   4.910   3.997   1.765
 5948SOL     OW18742   3.244   5.181   3.485
 5948SOL    HW118743   3.266   5.091   3.521
 5948SOL    HW218744   3.296   5.198   3.402
 5949SOL     OW18745   4.469   4.587   2.526
 5949SOL    HW118746   4.506   4.542   2.444
 5949SOL    HW218747   4.407   4.660   2.498
 5950SOL     OW18748   5.600   2.717   3.968
 5950SOL    HW118749   5.586   2.714   4.067
 5950SOL    HW218750   5.692   2.684   3.946
 5951SOL     OW18751   2.012   6.838   4.257
 5951SOL    HW118752   1.984   6.764   4.317
 5951SOL    HW218753   2.095   6.881   4.293
 5952SOL     OW18754   0.333   5.669   5.060
 5952SOL    HW118755   0.263   5.729   5.021
 5952SOL    HW218756   0.393   5.722   5.120
 5953SOL     OW18757   1.409   3.354   6.010
 5953SOL    HW118758   1.440   3.272   5.962
 5953SOL    HW218759   1.310   3.348   6.026
 5954SOL     OW18760   0.974   5.099   6.566
 5954SOL    HW118761   1.009   5.123   6.657
 5954SOL    HW218762   0.876   5.084   6.572
 5955SOL     OW18763   4.964   5.012   3.075
 5955SOL    HW118764   4.975   5.011   2.976
 5955SOL    HW218765   5.055   5.013   3.119
 5956SOL     OW18766   0.134   2.345   6.751
 5956SOL    HW118767   0.070   2.293   6.694
 5956SOL    HW218768   0.132   2.308   6.844
 5957SOL     OW18769   4.654   6.591   5.537
 5957SOL    HW118770   4.747   6.605   5.569
 5957SOL    HW218771   4.590   6.591   5.614
 5958SOL     OW18772   0.911   5.329   2.565
 5958SOL    HW118773   0.955   5.279   2.490
 5958SOL    HW218774   0.866   5.411   2.528
 5959SOL     OW18775   1.405   0.834   6.469
 5959SOL    HW118776   1.412   0.900   6.544
 5959SOL    HW218777   1.382   0.882   6.384
 5960SOL     OW18778   3.589   6.243   5.161
 5960SOL    HW118779   3.563   6.339   5.159
 5960SOL    HW218780   3.534   6.192   5.095
 5961SOL     OW18781   2.346   0.931   5.715
 5961SOL    HW118782   2.408   0.901   5.787
 5961SOL    HW218783   2.384   0.907   5.625
 5962SOL     OW18784   5.155   4.069   2.436
 5962SOL    HW118785   5.095   4.030   2.367
 5962SOL    HW218786   5.145   4.018   2.522
 5963SOL     OW18787   3.970   3.857   1.825
 5963SOL    HW118788   4.049   3.894   1.775
 5963SOL    HW218789   3.944   3.770   1.785
 5964SOL     OW18790   1.923   3.636   5.573
 5964SOL    HW118791   1.854   3.706   5.555
 5964SOL    HW218792   2.014   3.678   5.572
 5965SOL     OW18793   2.110   1.535   3.852
 5965SOL    HW118794   2.077   1.548   3.946
 5965SOL    HW218795   2.209   1.540   3.850
 5966SOL     OW18796   2.252   5.823   3.862
 5966SOL    HW118797   2.304   5.883   3.922
 5966SOL    HW218798   2.293   5.823   3.770
 5967SOL     OW18799   4.526   6.094   2.303
 5967SOL    HW118800   4.586   6.085   2.223
 5967SOL    HW218801   4.535   6.185   2.342
 5968SOL     OW18802   0.122   1.761   3.799
 5968SOL    HW118803   0.102   1.850   3.758
 5968SOL    HW218804   0.218   1.738   3.783
 5969SOL     OW18805   5.882   2.777   2.664
 5969SOL    HW118806   5.831   2.733   2.738
 5969SOL    HW218807   5.911   2.709   2.597
 5970SOL     OW18808   1.993   3.534   3.426
 5970SOL    HW118809   1.895   3.517   3.423
 5970SOL    HW218810   2.010   3.629   3.452
 5971SOL     OW18811   2.845   6.532   2.831
 5971SOL    HW118812   2.756   6.498   2.801
 5971SOL    HW218813   2.902   6.454   2.860
 5972SOL     OW18814   5.210   0.039   1.830
 5972SOL    HW118815   5.261   6.976   1.850
 5972SOL    HW218816   5.172   0.034   1.738
 5973SOL     OW18817   1.657   4.395   2.960
 5973SOL    HW118818   1.662   4.301   2.926
 5973SOL    HW218819   1.605   4.398   3.045
 5974SOL     OW18820   1.203   3.640   6.428
 5974SOL    HW118821   1.269   3.599   6.365
 5974SOL    HW218822   1.140   3.570   6.460
 5975SOL     OW18823   2.357   2.737   6.757
 5975SOL    HW118824   2.258   2.724   6.752
 5975SOL    HW218825   2.389   2.782   6.674
 5976SOL     OW18826   3.320   2.942   4.702
 5976SOL    HW118827   3.318   2.947   4.602
 5976SOL    HW218828   3.407   2.903   4.732
 5977SOL     OW18829   0.582   3.735   3.289
 5977SOL    HW118830   0.501   3.677   3.289
 5977SOL    HW218831   0.560   3.824   3.250
 5978SOL     OW18832   4.889   5.157   2.391
 5978SOL    HW118833   4.903   5.228   2.459
 5978SOL    HW218834   4.912   5.193   2.300
 5979SOL     OW18835   0.977   1.345   1.776
 5979SOL    HW118836   0.916   1.379   1.847
 5979SOL    HW218837   1.025   1.264   1.810
 5980SOL     OW18838   6.453   3.301   5.938
 5980SOL    HW118839   6.477   3.254   6.022
 5980SOL    HW218840   6.392   3.244   5.883
 5981SOL     OW18841   4.101   1.874   0.974
 5981SOL    HW118842   4.184   1.883   0.920
 5981SOL    HW218843   4.071   1.964   1.006
 5982SOL     OW18844   5.735   2.100   0.016
 5982SOL    HW118845   5.701   2.189   7.006
 5982SOL    HW218846   5.830   2.090   7.009
 5983SOL     OW18847   0.782   0.918   4.811
 5983SOL    HW118848   0.793   0.825   4.778
 5983SOL    HW218849   0.797   0.982   4.735
 5984SOL     OW18850   0.742   6.800   5.838
 5984SOL    HW118851   0.772   6.708   5.861
 5984SOL    HW218852   0.669   6.796   5.770
 5985SOL     OW18853   5.068   3.136   4.197
 5985SOL    HW118854   5.141   3.191   4.156
 5985SOL    HW218855   5.082   3.039   4.173
 5986SOL     OW18856   3.203   2.922   2.675
 5986SOL    HW118857   3.170   2.942   2.583
 5986SOL    HW218858   3.302   2.935   2.679
 5987SOL     OW18859   4.574   6.998   5.877
 5987SOL    HW118860   4.520   0.061   5.892
 5987SOL    HW218861   4.581   6.981   5.779
 5988SOL     OW18862   3.583   0.309   5.359
 5988SOL    HW118863   3.663   0.369   5.363
 5988SOL    HW218864   3.502   0.361   5.386
 5989SOL     OW18865   2.815   1.792   6.501
 5989SOL    HW118866   2.749   1.789   6.426
 5989SOL    HW218867   2.770   1.763   6.586
 5990SOL     OW18868   3.418   4.864   2.380
 5990SOL    HW118869   3.365   4.819   2.308
 5990SOL    HW218870   3.397   4.821   2.468
 5991SOL     OW18871   2.828   5.361   4.012
 5991SOL    HW118872   2.776   5.356   3.927
 5991SOL    HW218873   2.891   5.283   4.017
 5992SOL     OW18874   4.332   2.325   4.019
 5992SOL    HW118875   4.256   2.364   4.070
 5992SOL    HW218876   4.296   2.270   3.943
 5993SOL     OW18877   3.346   5.738   3.960
 5993SOL    HW118878   3.392   5.775   4.041
 5993SOL    HW218879   3.247   5.740   3.973
 5994SOL     OW18880   5.896   2.400   1.499
 5994SOL    HW118881   5.973   2.341   1.522
 5994SOL    HW218882   5.839   2.413   1.579
 5995SOL     OW18883   0.898   4.253   1.452
 5995SOL    HW118884   0.809   4.295   1.436
 5995SOL    HW218885   0.889   4.154   1.451
 5996SOL     OW18886   0.661   5.593   5.501
 5996SOL    HW118887   0.716   5.510   5.507
 5996SOL    HW218888   0.715   5.666   5.460
 5997SOL     OW18889   0.747   0.465   1.486
 5997SOL    HW118890   0.716   0.559   1.476
 5997SOL    HW218891   0.673   0.409   1.524
 5998SOL     OW18892   4.391   2.177   3.623
 5998SOL    HW118893   4.340   2.220   3.549
 5998SOL    HW218894   4.445   2.245   3.672
 5999SOL     OW18895   2.412   2.730   3.258
 5999SOL    HW118896   2.425   2.684   3.346
 5999SOL    HW218897   2.342   2.801   3.267
 6000SOL     OW18898   4.649   0.334   3.415
 6000SOL    HW118899   4.630   0.246   3.371
 6000SOL    HW218900   4.720   0.382   3.363
 6001SOL     OW18901   6.392   1.997   6.949
 6001SOL    HW118902   6.445   1.978   6.866
 6001SOL    HW218903   6.339   1.916   6.974
 6002SOL     OW18904   1.668   0.633   1.940
 6002SOL    HW118905   1.643   0.723   1.904
 6002SOL    HW218906   1.610   0.563   1.898
 6003SOL     OW18907   5.487   4.420   3.786
 6003SOL    HW118908   5.532   4.351   3.843
 6003SOL    HW218909   5.418   4.375   3.729
 6004SOL     OW18910   0.098   3.220   1.587
 6004SOL    HW118911   0.170   3.220   1.657
 6004SOL    HW218912   0.139   3.216   1.496
 6005SOL     OW18913   2.087   6.081   2.228
 6005SOL    HW118914   2.047   5.995   2.258
 6005SOL    HW218915   2.094   6.082   2.128
 6006SOL     OW18916   1.976   5.789   0.470
 6006SOL    HW118917   2.019   5.844   0.398
 6006SOL    HW218918   2.015   5.813   0.559
 6007SOL     OW18919   5.140   3.068   4.945
 6007SOL    HW118920   5.159   3.043   4.850
 6007SOL    HW218921   5.067   3.137   4.947
 6008SOL     OW18922   4.618   4.032   1.253
 6008SOL    HW118923   4.593   4.030   1.156
 6008SOL    HW218924   4.715   4.054   1.263
 6009SOL     OW18925   4.183   1.573   4.813
 6009SOL    HW118926   4.108   1.516   4.846
 6009SOL    HW218927   4.148   1.663   4.790
 6010SOL     OW18928   1.089   3.950   3.135
 6010SOL    HW118929   1.117   4.019   3.202
 6010SOL    HW218930   1.141   3.963   3.050
 6011SOL     OW18931   6.743   2.602   1.806
 6011SOL    HW118932   6.806   2.573   1.734
 6011SOL    HW218933   6.649   2.602   1.771
 6012SOL     OW18934   0.586   2.749   1.635
 6012SOL    HW118935   0.507   2.697   1.667
 6012SOL    HW218936   0.559   2.844   1.619
 6013SOL     OW18937   5.848   0.655   2.262
 6013SOL    HW118938   5.805   0.617   2.180
 6013SOL    HW218939   5.908   0.730   2.236
 6014SOL     OW18940   6.162   0.291   1.068
 6014SOL    HW118941   6.100   0.368   1.084
 6014SOL    HW218942   6.202   0.262   1.155
 6015SOL     OW18943   5.620   0.528   4.415
 6015SOL    HW118944   5.711   0.535   4.457
 6015SOL    HW218945   5.588   0.434   4.419
 6016SOL     OW18946   1.994   6.938   5.064
 6016SOL    HW118947   1.998   6.849   5.020
 6016SOL    HW218948   1.960   6.927   5.158
 6017SOL     OW18949   7.018   3.543   2.532
 6017SOL    HW118950   0.080   3.499   2.497
 6017SOL    HW218951   0.008   3.561   2.630
 6018SOL     OW18952   2.539   5.089   1.457
 6018SOL    HW118953   2.485   5.005   1.463
 6018SOL    HW218954   2.501   5.149   1.387
 6019SOL     OW18955   5.765   6.290   3.158
 6019SOL    HW118956   5.846   6.348   3.162
 6019SOL    HW218957   5.694   6.326   3.219
 6020SOL     OW18958   2.786   6.893   2.608
 6020SOL    HW118959   2.822   6.948   2.683
 6020SOL    HW218960   2.687   6.904   2.604
 6021SOL     OW18961   4.010   0.811   4.012
 6021SOL    HW118962   4.017   0.892   3.954
 6021SOL    HW218963   3.996   0.839   4.107
 6022SOL     OW18964   4.814   0.993   6.057
 6022SOL    HW118965   4.887   0.956   6.114
 6022SOL    HW218966   4.736   0.930   6.058
 6023SOL     OW18967   0.442   1.949   2.723
 6023SOL    HW118968   0.414   2.045   2.715
 6023SOL    HW218969   0.448   1.909   2.631
 6024SOL     OW18970   0.088   5.807   2.639
 6024SOL    HW118971   0.073   5.709   2.649
 6024SOL    HW218972   0.084   5.832   2.542
 6025SOL     OW18973   4.082   2.191   2.725
 6025SOL    HW118974   4.127   2.197   2.636
 6025SOL    HW218975   3.983   2.188   2.712
 6026SOL     OW18976   0.607   4.239   5.577
 6026SOL    HW118977   0.610   4.146   5.542
 6026SOL    HW218978   0.580   4.238   5.674
 6027SOL     OW18979   3.425   3.245   0.124
 6027SOL    HW118980   3.418   3.176   0.052
 6027SOL    HW218981   3.374   3.215   0.205
 6028SOL     OW18982   1.176   4.432   0.309
 6028SOL    HW118983   1.111   4.383   0.252
 6028SOL    HW218984   1.128   4.477   0.384
 6029SOL     OW18985   0.497   4.543   2.095
 6029SOL    HW118986   0.438   4.473   2.135
 6029SOL    HW218987   0.537   4.510   2.010
 6030SOL     OW18988   1.962   6.691   0.956
 6030SOL    HW118989   1.960   6.609   1.014
 6030SOL    HW218990   2.057   6.718   0.940
 6031SOL     OW18991   5.051   0.591   4.027
 6031SOL    HW118992   5.031   0.653   3.952
 6031SOL    HW218993   5.136   0.619   4.072
 6032SOL     OW18994   0.303   3.456   2.774
 6032SOL    HW118995   0.242   3.387   2.813
 6032SOL    HW218996   0.398   3.426   2.782
 6033SOL     OW18997   0.258   6.655   4.667
 6033SOL    HW118998   0.162   6.673   4.646
 6033SOL    HW218999   0.270   6.655   4.767
 6034SOL     OW19000   2.337   4.276   5.262
 6034SOL    HW119001   2.297   4.219   5.190
 6034SOL    HW219002   2.386   4.218   5.327
 6035SOL     OW19003   5.557   6.805   3.787
 6035SOL    HW119004   5.600   6.729   3.738
 6035SOL    HW219005   5.572   6.890   3.737
 6036SOL     OW19006   0.188   0.725   4.313
 6036SOL    HW119007   0.207   0.737   4.411
 6036SOL    HW219008   0.119   0.654   4.302
 6037SOL     OW19009   0.435   5.485   4.847
 6037SOL    HW119010   0.366   5.541   4.894
 6037SOL    HW219011   0.451   5.523   4.756
 6038SOL     OW19012   6.098   3.883   6.546
 6038SOL    HW119013   6.156   3.820   6.598
 6038SOL    HW219014   6.155   3.935   6.482
 6039SOL     OW19015   4.015   3.205   4.785
 6039SOL    HW119016   4.045   3.242   4.697
 6039SOL    HW219017   4.083   3.227   4.855
 6040SOL     OW19018   1.217   1.079   0.596
 6040SOL    HW119019   1.196   1.076   0.499
 6040SOL    HW219020   1.222   1.174   0.626
 6041SOL     OW19021   0.690   2.477   0.454
 6041SOL    HW119022   0.784   2.457   0.425
 6041SOL    HW219023   0.690   2.559   0.511
 6042SOL     OW19024   5.570   5.646   5.015
 6042SOL    HW119025   5.496   5.708   4.988
 6042SOL    HW219026   5.539   5.588   5.090
 6043SOL     OW19027   6.969   4.465   4.024
 6043SOL    HW119028   6.905   4.396   3.989
 6043SOL    HW219029   6.938   4.556   3.996
 6044SOL     OW19030   1.182   0.658   1.450
 6044SOL    HW119031   1.256   0.714   1.413
 6044SOL    HW219032   1.215   0.566   1.469
 6045SOL     OW19033   6.715   4.311   0.870
 6045SOL    HW119034   6.676   4.241   0.811
 6045SOL    HW219035   6.692   4.292   0.966
 6046SOL     OW19036   2.445   3.333   0.505
 6046SOL    HW119037   2.453   3.329   0.605
 6046SOL    HW219038   2.405   3.420   0.478
 6047SOL     OW19039   0.403   6.303   4.714
 6047SOL    HW119040   0.378   6.332   4.807
 6047SOL    HW219041   0.502   6.285   4.711
 6048SOL     OW19042   4.944   6.070   5.001
 6048SOL    HW119043   4.963   6.017   4.919
 6048SOL    HW219044   4.885   6.147   4.978
 6049SOL     OW19045   6.240   6.038   0.352
 6049SOL    HW119046   6.326   5.994   0.324
 6049SOL    HW219047   6.254   6.083   0.440
 6050SOL     OW19048   5.978   4.283   5.661
 6050SOL    HW119049   5.908   4.225   5.619
 6050SOL    HW219050   6.039   4.318   5.590
 6051SOL     OW19051   2.659   1.770   2.881
 6051SOL    HW119052   2.620   1.749   2.791
 6051SOL    HW219053   2.585   1.787   2.946
 6052SOL     OW19054   6.600   1.558   0.438
 6052SOL    HW119055   6.590   1.501   0.356
 6052SOL    HW219056   6.510   1.583   0.473
 6053SOL     OW19057   2.049   0.279   6.289
 6053SOL    HW119058   2.111   0.201   6.285
 6053SOL    HW219059   2.022   0.295   6.384
 6054SOL     OW19060   1.915   4.447   6.600
 6054SOL    HW119061   1.956   4.473   6.512
 6054SOL    HW219062   1.825   4.407   6.583
 6055SOL     OW19063   5.103   0.194   3.744
 6055SOL    HW119064   5.190   0.147   3.726
 6055SOL    HW219065   5.113   0.253   3.823
 6056SOL     OW19066   5.069   3.732   6.017
 6056SOL    HW119067   5.102   3.748   5.924
 6056SOL    HW219068   5.134   3.770   6.082
 6057SOL     OW19069   3.565   0.945   6.285
 6057SOL    HW119070   3.572   0.858   6.333
 6057SOL    HW219071   3.651   0.996   6.295
 6058SOL     OW19072   5.150   1.785   4.831
 6058SOL    HW119073   5.081   1.848   4.868
 6058SOL    HW219074   5.183   1.725   4.904
 6059SOL     OW19075   6.558   6.564   5.844
 6059SOL    HW119076   6.617   6.604   5.914
 6059SOL    HW219077   6.509   6.486   5.883
 6060SOL     OW19078   3.257   6.414   6.416
 6060SOL    HW119079   3.160   6.416   6.439
 6060SOL    HW219080   3.279   6.493   6.358
 6061SOL     OW19081   1.950   1.632   6.865
 6061SOL    HW119082   1.873   1.615   6.928
 6061SOL    HW219083   1.975   1.728   6.868
 6062SOL     OW19084   1.327   0.188   4.089
 6062SOL    HW119085   1.239   0.222   4.056
 6062SOL    HW219086   1.357   0.112   4.032
 6063SOL     OW19087   5.389   6.044   0.172
 6063SOL    HW119088   5.457   6.073   0.105
 6063SOL    HW219089   5.302   6.091   0.154
 6064SOL     OW19090   0.650   5.236   2.905
 6064SOL    HW119091   0.720   5.174   2.869
 6064SOL    HW219092   0.693   5.302   2.967
 6065SOL     OW19093   5.908   6.557   1.752
 6065SOL    HW119094   5.999   6.516   1.755
 6065SOL    HW219095   5.914   6.651   1.719
 6066SOL     OW19096   4.610   1.949   6.162
 6066SOL    HW119097   4.583   2.032   6.112
 6066SOL    HW219098   4.530   1.892   6.178
 6067SOL     OW19099   5.012   2.148   6.512
 6067SOL    HW119100   5.036   2.244   6.500
 6067SOL    HW219101   4.921   2.131   6.474
 6068SOL     OW19102   5.236   1.809   5.643
 6068SOL    HW119103   5.162   1.805   5.575
 6068SOL    HW219104   5.196   1.819   5.734
 6069SOL     OW19105   5.833   4.284   4.578
 6069SOL    HW119106   5.833   4.292   4.479
 6069SOL    HW219107   5.827   4.188   4.604
 6070SOL     OW19108   4.206   2.951   6.459
 6070SOL    HW119109   4.253   3.038   6.442
 6070SOL    HW219110   4.264   2.894   6.518
 6071SOL     OW19111   5.084   6.798   5.509
 6071SOL    HW119112   5.028   6.852   5.572
 6071SOL    HW219113   5.103   6.709   5.550
 6072SOL     OW19114   6.972   1.573   0.875
 6072SOL    HW119115   6.873   1.587   0.875
 6072SOL    HW219116   7.010   1.606   0.789
 6073SOL     OW19117   6.371   1.565   1.362
 6073SOL    HW119118   6.395   1.618   1.281
 6073SOL    HW219119   6.455   1.528   1.403
 6074SOL     OW19120   1.061   7.011   5.271
 6074SOL    HW119121   1.089   0.076   5.315
 6074SOL    HW219122   0.997   6.962   5.331
 6075SOL     OW19123   4.791   4.334   6.558
 6075SOL    HW119124   4.773   4.262   6.491
 6075SOL    HW219125   4.878   4.379   6.535
 6076SOL     OW19126   2.834   0.506   4.089
 6076SOL    HW119127   2.742   0.533   4.119
 6076SOL    HW219128   2.895   0.584   4.094
 6077SOL     OW19129   5.273   5.106   2.656
 6077SOL    HW119130   5.296   5.127   2.751
 6077SOL    HW219131   5.353   5.120   2.598
 6078SOL     OW19132   2.067   4.661   3.608
 6078SOL    HW119133   2.004   4.678   3.533
 6078SOL    HW219134   2.132   4.737   3.615
 6079SOL     OW19135   2.815   1.658   0.492
 6079SOL    HW119136   2.785   1.597   0.566
 6079SOL    HW219137   2.812   1.609   0.405
 6080SOL     OW19138   5.851   2.638   2.909
 6080SOL    HW119139   5.910   2.560   2.931
 6080SOL    HW219140   5.771   2.638   2.968
 6081SOL     OW19141   0.894   3.978   2.846
 6081SOL    HW119142   0.853   3.998   2.757
 6081SOL    HW219143   0.900   3.879   2.858
 6082SOL     OW19144   3.203   1.885   4.219
 6082SOL    HW119145   3.103   1.878   4.221
 6082SOL    HW219146   3.234   1.942   4.296
 6083SOL     OW19147   1.886   0.189   0.664
 6083SOL    HW119148   1.849   0.277   0.636
 6083SOL    HW219149   1.849   0.164   0.753
 6084SOL     OW19150   0.387   5.063   5.772
 6084SOL    HW119151   0.301   5.063   5.721
 6084SOL    HW219152   0.399   5.152   5.817
 6085SOL     OW19153   5.185   5.382   1.607
 6085SOL    HW119154   5.262   5.376   1.672
 6085SOL    HW219155   5.219   5.367   1.514
 6086SOL     OW19156   2.747   1.804   2.599
 6086SOL    HW119157   2.826   1.751   2.633
 6086SOL    HW219158   2.722   1.770   2.508
 6087SOL     OW19159   3.529   0.554   1.354
 6087SOL    HW119160   3.551   0.492   1.278
 6087SOL    HW219161   3.613   0.588   1.395
 6088SOL     OW19162   0.156   6.818   5.652
 6088SOL    HW119163   0.218   6.740   5.657
 6088SOL    HW219164   0.093   6.816   5.730
 6089SOL     OW19165   6.462   3.700   0.520
 6089SOL    HW119166   6.406   3.707   0.438
 6089SOL    HW219167   6.422   3.756   0.593
 6090SOL     OW19168   0.260   5.789   4.175
 6090SOL    HW119169   0.268   5.885   4.148
 6090SOL    HW219170   0.351   5.753   4.199
 6091SOL     OW19171   6.390   2.017   1.253
 6091SOL    HW119172   6.454   2.064   1.313
 6091SOL    HW219173   6.297   2.026   1.289
 6092SOL     OW19174   1.548   3.242   0.855
 6092SOL    HW119175   1.629   3.236   0.797
 6092SOL    HW219176   1.575   3.239   0.952
 6093SOL     OW19177   1.192   3.826   0.614
 6093SOL    HW119178   1.284   3.799   0.588
 6093SOL    HW219179   1.149   3.876   0.539
 6094SOL     OW19180   0.794   1.226   0.832
 6094SOL    HW119181   0.709   1.186   0.868
 6094SOL    HW219182   0.827   1.171   0.756
 6095SOL     OW19183   6.851   3.699   5.277
 6095SOL    HW119184   6.801   3.757   5.341
 6095SOL    HW219185   6.881   3.753   5.199
 6096SOL     OW19186   4.346   1.873   2.628
 6096SOL    HW119187   4.422   1.930   2.661
 6096SOL    HW219188   4.373   1.776   2.634
 6097SOL     OW19189   3.225   1.986   2.116
 6097SOL    HW119190   3.165   2.049   2.068
 6097SOL    HW219191   3.173   1.906   2.146
 6098SOL     OW19192   1.301   0.635   6.310
 6098SOL    HW119193   1.359   0.630   6.229
 6098SOL    HW219194   1.352   0.680   6.384
 6099SOL     OW19195   6.026   4.318   5.264
 6099SOL    HW119196   5.936   4.302   5.304
 6099SOL    HW219197   6.088   4.354   5.334
 6100SOL     OW19198   6.754   2.427   6.965
 6100SOL    HW119199   6.728   2.389   0.034
 6100SOL    HW219200   6.695   2.504   6.944
 6101SOL     OW19201   6.069   0.112   3.524
 6101SOL    HW119202   6.048   0.208   3.539
 6101SOL    HW219203   6.153   0.087   3.573
 6102SOL     OW19204   3.215   0.058   4.954
 6102SOL    HW119205   3.212   7.019   5.034
 6102SOL    HW219206   3.269   0.139   4.974
 6103SOL     OW19207   6.100   1.238   5.440
 6103SOL    HW119208   6.001   1.227   5.432
 6103SOL    HW219209   6.122   1.273   5.531
 6104SOL     OW19210   1.330   3.427   0.864
 6104SOL    HW119211   1.402   3.358   0.867
 6104SOL    HW219212   1.241   3.384   0.879
 6105SOL     OW19213   3.408   4.972   4.845
 6105SOL    HW119214   3.323   4.932   4.810
 6105SOL    HW219215   3.470   4.990   4.768
 6106SOL     OW19216   3.106   4.950   4.240
 6106SOL    HW119217   3.037   4.879   4.230
 6106SOL    HW219218   3.114   4.975   4.337
 6107SOL     OW19219   2.171   5.053   5.385
 6107SOL    HW119220   2.223   5.082   5.466
 6107SOL    HW219221   2.114   4.974   5.408
 6108SOL     OW19222   5.825   1.491   4.294
 6108SOL    HW119223   5.730   1.471   4.270
 6108SOL    HW219224   5.868   1.409   4.331
 6109SOL     OW19225   6.846   4.167   2.057
 6109SOL    HW119226   6.834   4.265   2.071
 6109SOL    HW219227   6.765   4.129   2.012
 6110SOL     OW19228   3.315   2.032   3.330
 6110SOL    HW119229   3.347   1.959   3.390
 6110SOL    HW219230   3.392   2.071   3.280
 6111SOL     OW19231   0.377   4.535   3.488
 6111SOL    HW119232   0.466   4.495   3.511
 6111SOL    HW219233   0.305   4.489   3.539
 6112SOL     OW19234   1.028   2.420   1.144
 6112SOL    HW119235   1.079   2.426   1.058
 6112SOL    HW219236   0.934   2.394   1.125
 6113SOL     OW19237   1.797   5.065   5.488
 6113SOL    HW119238   1.830   5.155   5.460
 6113SOL    HW219239   1.777   5.066   5.586
 6114SOL     OW19240   5.333   4.944   0.940
 6114SOL    HW119241   5.365   4.855   0.973
 6114SOL    HW219242   5.267   4.981   1.005
 6115SOL     OW19243   6.352   4.360   2.262
 6115SOL    HW119244   6.374   4.308   2.345
 6115SOL    HW219245   6.317   4.450   2.289
 6116SOL     OW19246   3.387   1.937   0.961
 6116SOL    HW119247   3.345   2.012   0.911
 6116SOL    HW219248   3.380   1.954   1.060
 6117SOL     OW19249   5.765   6.442   3.903
 6117SOL    HW119250   5.766   6.344   3.883
 6117SOL    HW219251   5.671   6.475   3.901
 6118SOL     OW19252   6.235   0.285   3.250
 6118SOL    HW119253   6.224   0.200   3.198
 6118SOL    HW219254   6.289   0.267   3.332
 6119SOL     OW19255   6.052   5.824   4.322
 6119SOL    HW119256   6.013   5.815   4.414
 6119SOL    HW219257   6.044   5.737   4.274
 6120SOL     OW19258   2.425   1.615   3.551
 6120SOL    HW119259   2.410   1.714   3.552
 6120SOL    HW219260   2.520   1.595   3.573
 6121SOL     OW19261   6.465   1.805   4.371
 6121SOL    HW119262   6.500   1.742   4.439
 6121SOL    HW219263   6.463   1.760   4.281
 6122SOL     OW19264   4.205   6.467   4.119
 6122SOL    HW119265   4.151   6.421   4.048
 6122SOL    HW219266   4.221   6.562   4.093
 6123SOL     OW19267   6.132   1.618   2.883
 6123SOL    HW119268   6.034   1.602   2.871
 6123SOL    HW219269   6.158   1.701   2.833
 6124SOL     OW19270   3.067   0.139   4.629
 6124SOL    HW119271   3.004   0.095   4.694
 6124SOL    HW219272   3.015   0.195   4.565
 6125SOL     OW19273   0.754   4.553   2.292
 6125SOL    HW119274   0.775   4.460   2.322
 6125SOL    HW219275   0.672   4.552   2.235
 6126SOL     OW19276   3.971   5.914   2.423
 6126SOL    HW119277   4.054   5.957   2.388
 6126SOL    HW219278   3.891   5.967   2.395
 6127SOL     OW19279   1.999   4.908   1.932
 6127SOL    HW119280   2.022   4.810   1.932
 6127SOL    HW219281   2.009   4.944   2.025
 6128SOL     OW19282   4.899   3.094   1.237
 6128SOL    HW119283   4.870   3.109   1.332
 6128SOL    HW219284   4.875   3.000   1.210
 6129SOL     OW19285   6.217   3.864   3.327
 6129SOL    HW119286   6.302   3.897   3.367
 6129SOL    HW219287   6.190   3.923   3.251
 6130SOL     OW19288   5.271   4.412   2.191
 6130SOL    HW119289   5.366   4.423   2.221
 6130SOL    HW219290   5.233   4.502   2.168
 6131SOL     OW19291   6.282   1.519   5.195
 6131SOL    HW119292   6.191   1.486   5.221
 6131SOL    HW219293   6.329   1.553   5.277
 6132SOL     OW19294   6.771   2.804   0.475
 6132SOL    HW119295   6.861   2.801   0.431
 6132SOL    HW219296   6.751   2.897   0.504
 6133SOL     OW19297   1.141   4.612   0.856
 6133SOL    HW119298   1.194   4.647   0.934
 6133SOL    HW219299   1.204   4.577   0.787
 6134SOL     OW19300   4.427   3.612   0.196
 6134SOL    HW119301   4.372   3.671   0.137
 6134SOL    HW219302   4.518   3.600   0.158
 6135SOL     OW19303   5.567   0.258   2.729
 6135SOL    HW119304   5.499   0.185   2.718
 6135SOL    HW219305   5.598   0.260   2.824
 6136SOL     OW19306   0.659   1.219   2.528
 6136SOL    HW119307   0.666   1.189   2.433
 6136SOL    HW219308   0.751   1.226   2.567
 6137SOL     OW19309   3.038   6.823   6.498
 6137SOL    HW119310   3.107   6.841   6.568
 6137SOL    HW219311   3.014   6.909   6.453
 6138SOL     OW19312   5.306   0.216   3.089
 6138SOL    HW119313   5.208   0.204   3.075
 6138SOL    HW219314   5.355   0.135   3.058
 6139SOL     OW19315   2.405   5.854   3.629
 6139SOL    HW119316   2.351   5.873   3.547
 6139SOL    HW219317   2.492   5.904   3.624
 6140SOL     OW19318   1.260   5.232   1.231
 6140SOL    HW119319   1.230   5.198   1.142
 6140SOL    HW219320   1.266   5.156   1.296
 6141SOL     OW19321   6.749   5.742   5.664
 6141SOL    HW119322   6.757   5.779   5.757
 6141SOL    HW219323   6.828   5.769   5.610
 6142SOL     OW19324   0.539   4.349   3.198
 6142SOL    HW119325   0.557   4.258   3.234
 6142SOL    HW219326   0.611   4.375   3.134
 6143SOL     OW19327   6.562   4.308   6.682
 6143SOL    HW119328   6.492   4.347   6.622
 6143SOL    HW219329   6.586   4.217   6.649
 6144SOL     OW19330   6.938   4.501   4.483
 6144SOL    HW119331   6.895   4.561   4.552
 6144SOL    HW219332   6.987   4.557   4.417
 6145SOL     OW19333   6.052   5.413   3.421
 6145SOL    HW119334   6.089   5.371   3.338
 6145SOL    HW219335   5.985   5.352   3.463
 6146SOL     OW19336   5.795   2.835   3.262
 6146SOL    HW119337   5.782   2.919   3.315
 6146SOL    HW219338   5.872   2.847   3.199
 6147SOL     OW19339   1.232   4.138   2.917
 6147SOL    HW119340   1.318   4.090   2.928
 6147SOL    HW219341   1.209   4.143   2.819
 6148SOL     OW19342   6.142   5.696   3.099
 6148SOL    HW119343   6.123   5.761   3.173
 6148SOL    HW219344   6.063   5.636   3.086
 6149SOL     OW19345   2.002   6.141   4.822
 6149SOL    HW119346   2.076   6.205   4.803
 6149SOL    HW219347   2.034   6.048   4.805
 6150SOL     OW19348   4.530   6.216   6.209
 6150SOL    HW119349   4.605   6.151   6.195
 6150SOL    HW219350   4.568   6.305   6.235
 6151SOL     OW19351   4.879   0.479   5.671
 6151SOL    HW119352   4.953   0.411   5.674
 6151SOL    HW219353   4.794   0.437   5.702
 6152SOL     OW19354   6.733   4.855   5.447
 6152SOL    HW119355   6.771   4.947   5.437
 6152SOL    HW219356   6.789   4.789   5.396
 6153SOL     OW19357   4.453   5.077   6.609
 6153SOL    HW119358   4.506   5.158   6.632
 6153SOL    HW219359   4.358   5.090   6.639
 6154SOL     OW19360   5.286   3.135   3.702
 6154SOL    HW119361   5.328   3.087   3.625
 6154SOL    HW219362   5.346   3.130   3.782
 6155SOL     OW19363   2.468   4.834   4.663
 6155SOL    HW119364   2.428   4.869   4.747
 6155SOL    HW219365   2.396   4.819   4.595
 6156SOL     OW19366   5.863   0.619   4.513
 6156SOL    HW119367   5.800   0.681   4.560
 6156SOL    HW219368   5.946   0.669   4.488
 6157SOL     OW19369   1.031   1.656   3.913
 6157SOL    HW119370   1.073   1.593   3.848
 6157SOL    HW219371   0.943   1.620   3.943
 6158SOL     OW19372   5.442   6.806   0.378
 6158SOL    HW119373   5.459   6.885   0.319
 6158SOL    HW219374   5.348   6.810   0.413
 6159SOL     OW19375   5.219   3.256   6.617
 6159SOL    HW119376   5.148   3.240   6.686
 6159SOL    HW219377   5.179   3.303   6.538
 6160SOL     OW19378   6.375   4.603   0.926
 6160SOL    HW119379   6.331   4.692   0.937
 6160SOL    HW219380   6.473   4.616   0.917
 6161SOL     OW19381   5.821   0.212   6.228
 6161SOL    HW119382   5.878   0.177   6.154
 6161SOL    HW219383   5.844   0.165   6.313
 6162SOL     OW19384   5.526   5.141   4.272
 6162SOL    HW119385   5.497   5.162   4.365
 6162SOL    HW219386   5.623   5.115   4.272
 6163SOL     OW19387   6.511   3.951   2.396
 6163SOL    HW119388   6.468   3.901   2.321
 6163SOL    HW219389   6.611   3.952   2.382
 6164SOL     OW19390   4.798   2.759   0.611
 6164SOL    HW119391   4.793   2.848   0.656
 6164SOL    HW219392   4.877   2.709   0.645
 6165SOL     OW19393   4.013   0.398   1.585
 6165SOL    HW119394   4.013   0.300   1.604
 6165SOL    HW219395   3.923   0.436   1.607
 6166SOL     OW19396   4.072   1.283   0.574
 6166SOL    HW119397   4.034   1.337   0.649
 6166SOL    HW219398   4.042   1.320   0.487
 6167SOL     OW19399   0.066   5.292   3.807
 6167SOL    HW119400   0.150   5.330   3.769
 6167SOL    HW219401   0.025   5.230   3.741
 6168SOL     OW19402   0.703   2.983   1.045
 6168SOL    HW119403   0.722   2.997   1.142
 6168SOL    HW219404   0.648   3.058   1.010
 6169SOL     OW19405   2.172   4.415   1.469
 6169SOL    HW119406   2.105   4.343   1.450
 6169SOL    HW219407   2.201   4.409   1.564
 6170SOL     OW19408   6.724   1.935   3.445
 6170SOL    HW119409   6.674   1.854   3.412
 6170SOL    HW219410   6.691   2.016   3.396
 6171SOL     OW19411   5.923   1.008   5.905
 6171SOL    HW119412   5.926   0.932   5.841
 6171SOL    HW219413   5.938   0.975   5.998
 6172SOL     OW19414   1.241   4.490   4.269
 6172SOL    HW119415   1.224   4.448   4.358
 6172SOL    HW219416   1.303   4.568   4.280
 6173SOL     OW19417   5.556   6.219   2.979
 6173SOL    HW119418   5.575   6.190   2.885
 6173SOL    HW219419   5.642   6.224   3.030
 6174SOL     OW19420   6.381   2.432   2.822
 6174SOL    HW119421   6.370   2.531   2.833
 6174SOL    HW219422   6.472   2.412   2.787
 6175SOL     OW19423   3.959   1.682   6.953
 6175SOL    HW119424   3.963   1.733   0.018
 6175SOL    HW219425   3.921   1.740   6.880
 6176SOL     OW19426   3.050   3.727   6.261
 6176SOL    HW119427   3.149   3.729   6.255
 6176SOL    HW219428   3.021   3.656   6.325
 6177SOL     OW19429   5.704   5.579   1.424
 6177SOL    HW119430   5.798   5.614   1.414
 6177SOL    HW219431   5.691   5.502   1.361
 6178SOL     OW19432   3.985   4.967   2.028
 6178SOL    HW119433   3.923   4.989   2.103
 6178SOL    HW219434   3.945   4.895   1.971
 6179SOL     OW19435   5.513   4.927   5.248
 6179SOL    HW119436   5.508   4.941   5.149
 6179SOL    HW219437   5.469   4.841   5.272
 6180SOL     OW19438   2.224   3.841   6.308
 6180SOL    HW119439   2.184   3.824   6.218
 6180SOL    HW219440   2.158   3.891   6.365
 6181SOL     OW19441   6.154   6.266   0.160
 6181SOL    HW119442   6.176   6.183   0.210
 6181SOL    HW219443   6.216   6.275   0.082
 6182SOL     OW19444   2.714   2.409   6.607
 6182SOL    HW119445   2.796   2.407   6.664
 6182SOL    HW219446   2.702   2.320   6.562
 6183SOL     OW19447   0.349   0.815   0.572
 6183SOL    HW119448   0.300   0.903   0.570
 6183SOL    HW219449   0.396   0.806   0.660
 6184SOL     OW19450   3.281   6.814   5.165
 6184SOL    HW119451   3.319   6.771   5.083
 6184SOL    HW219452   3.354   6.835   5.229
 6185SOL     OW19453   3.432   3.231   5.382
 6185SOL    HW119454   3.421   3.207   5.286
 6185SOL    HW219455   3.526   3.212   5.411
 6186SOL     OW19456   1.219   2.118   2.784
 6186SOL    HW119457   1.315   2.132   2.758
 6186SOL    HW219458   1.216   2.065   2.870
 6187SOL     OW19459   3.182   1.856   6.245
 6187SOL    HW119460   3.220   1.940   6.283
 6187SOL    HW219461   3.216   1.843   6.152
 6188SOL     OW19462   2.157   1.608   5.847
 6188SOL    HW119463   2.133   1.551   5.768
 6188SOL    HW219464   2.230   1.671   5.821
 6189SOL     OW19465   6.732   5.299   0.273
 6189SOL    HW119466   6.658   5.363   0.292
 6189SOL    HW219467   6.805   5.347   0.224
 6190SOL     OW19468   0.352   3.093   3.754
 6190SOL    HW119469   0.449   3.068   3.766
 6190SOL    HW219470   0.331   3.173   3.810
 6191SOL     OW19471   2.311   4.076   0.803
 6191SOL    HW119472   2.349   4.133   0.730
 6191SOL    HW219473   2.249   4.008   0.763
 6192SOL     OW19474   3.092   1.932   1.373
 6192SOL    HW119475   3.016   1.901   1.315
 6192SOL    HW219476   3.178   1.928   1.320
 6193SOL     OW19477   3.982   6.147   6.842
 6193SOL    HW119478   4.014   6.238   6.867
 6193SOL    HW219479   3.992   6.085   6.920
 6194SOL     OW19480   5.495   0.049   6.206
 6194SOL    HW119481   5.529   0.003   6.124
 6194SOL    HW219482   5.402   0.017   6.226
 6195SOL     OW19483   4.899   5.947   6.021
 6195SOL    HW119484   4.836   5.906   5.955
 6195SOL    HW219485   4.906   6.045   6.003
 6196SOL     OW19486   6.203   3.544   3.348
 6196SOL    HW119487   6.151   3.492   3.280
 6196SOL    HW219488   6.294   3.504   3.359
 6197SOL     OW19489   1.142   5.121   0.937
 6197SOL    HW119490   1.106   5.094   0.848
 6197SOL    HW219491   1.068   5.121   1.005
 6198SOL     OW19492   6.085   1.363   6.541
 6198SOL    HW119493   6.156   1.432   6.526
 6198SOL    HW219494   6.081   1.339   6.638
 6199SOL     OW19495   2.417   6.877   6.299
 6199SOL    HW119496   2.332   6.846   6.257
 6199SOL    HW219497   2.493   6.822   6.263
 6200SOL     OW19498   1.108   0.224   0.580
 6200SOL    HW119499   1.117   0.128   0.555
 6200SOL    HW219500   1.168   0.279   0.523
 6201SOL     OW19501   0.407   5.200   3.338
 6201SOL    HW119502   0.370   5.115   3.301
 6201SOL    HW219503   0.361   5.278   3.294
 6202SOL     OW19504   5.726   0.491   2.096
 6202SOL    HW119505   5.695   0.503   2.002
 6202SOL    HW219506   5.654   0.521   2.159
 6203SOL     OW19507   6.550   0.653   2.043
 6203SOL    HW119508   6.637   0.658   1.994
 6203SOL    HW219509   6.494   0.732   2.020
 6204SOL     OW19510   1.085   5.620   4.830
 6204SOL    HW119511   1.021   5.682   4.784
 6204SOL    HW219512   1.066   5.526   4.801
 6205SOL     OW19513   5.827   4.812   3.565
 6205SOL    HW119514   5.780   4.733   3.526
 6205SOL    HW219515   5.881   4.783   3.644
 6206SOL     OW19516   5.732   2.007   3.550
 6206SOL    HW119517   5.644   2.046   3.575
 6206SOL    HW219518   5.743   2.010   3.450
 6207SOL     OW19519   1.653   5.766   3.383
 6207SOL    HW119520   1.696   5.698   3.443
 6207SOL    HW219521   1.721   5.807   3.323
 6208SOL     OW19522   4.019   4.543   6.374
 6208SOL    HW119523   4.087   4.505   6.310
 6208SOL    HW219524   3.930   4.546   6.329
 6209SOL     OW19525   3.826   1.270   1.883
 6209SOL    HW119526   3.871   1.310   1.963
 6209SOL    HW219527   3.819   1.339   1.811
 6210SOL     OW19528   5.628   1.092   4.033
 6210SOL    HW119529   5.687   1.038   3.974
 6210SOL    HW219530   5.623   1.186   3.998
 6211SOL     OW19531   5.282   3.368   5.071
 6211SOL    HW119532   5.267   3.321   4.984
 6211SOL    HW219533   5.245   3.313   5.145
 6212SOL     OW19534   5.349   4.182   4.943
 6212SOL    HW119535   5.284   4.125   4.992
 6212SOL    HW219536   5.360   4.148   4.849
 6213SOL     OW19537   5.022   6.153   0.478
 6213SOL    HW119538   4.984   6.089   0.544
 6213SOL    HW219539   4.950   6.184   0.416
 6214SOL     OW19540   6.023   0.089   6.422
 6214SOL    HW119541   6.055   0.035   6.344
 6214SOL    HW219542   6.101   0.117   6.478
 6215SOL     OW19543   5.772   1.842   5.505
 6215SOL    HW119544   5.778   1.782   5.425
 6215SOL    HW219545   5.685   1.826   5.551
 6216SOL     OW19546   4.752   1.651   5.369
 6216SOL    HW119547   4.758   1.664   5.270
 6216SOL    HW219548   4.774   1.737   5.416
 6217SOL     OW19549   0.034   3.974   2.468
 6217SOL    HW119550   0.090   4.032   2.529
 6217SOL    HW219551   6.985   4.031   2.423
 6218SOL     OW19552   4.721   6.610   0.838
 6218SOL    HW119553   4.774   6.691   0.815
 6218SOL    HW219554   4.636   6.608   0.785
 6219SOL     OW19555   1.886   0.314   6.761
 6219SOL    HW119556   1.873   0.379   6.836
 6219SOL    HW219557   1.951   0.351   6.695
 6220SOL     OW19558   3.410   7.011   2.025
 6220SOL    HW119559   3.431   6.930   2.081
 6220SOL    HW219560   3.314   7.007   1.997
 6221SOL     OW19561   4.668   5.301   5.682
 6221SOL    HW119562   4.765   5.326   5.677
 6221SOL    HW219563   4.613   5.370   5.634
 6222SOL     OW19564   6.534   0.998   2.344
 6222SOL    HW119565   6.454   0.946   2.373
 6222SOL    HW219566   6.564   1.058   2.418
 6223SOL     OW19567   6.538   4.749   4.498
 6223SOL    HW119568   6.451   4.762   4.452
 6223SOL    HW219569   6.591   4.834   4.495
 6224SOL     OW19570   4.168   6.566   0.219
 6224SOL    HW119571   4.211   6.605   0.301
 6224SOL    HW219572   4.072   6.595   0.215
 6225SOL     OW19573   5.199   6.394   6.252
 6225SOL    HW119574   5.237   6.307   6.218
 6225SOL    HW219575   5.107   6.406   6.216
 6226SOL     OW19576   0.817   1.009   3.815
 6226SOL    HW119577   0.793   1.106   3.822
 6226SOL    HW219578   0.807   0.966   3.905
 6227SOL     OW19579   2.623   5.235   5.958
 6227SOL    HW119580   2.605   5.331   5.979
 6227SOL    HW219581   2.712   5.209   5.994
 6228SOL     OW19582   0.896   3.504   3.684
 6228SOL    HW119583   0.905   3.521   3.586
 6228SOL    HW219584   0.950   3.571   3.734
 6229SOL     OW19585   0.509   4.049   4.250
 6229SOL    HW119586   0.563   4.120   4.296
 6229SOL    HW219587   0.539   4.040   4.156
 6230SOL     OW19588   0.782   0.916   1.713
 6230SOL    HW119589   0.687   0.942   1.696
 6230SOL    HW219590   0.785   0.825   1.755
 6231SOL     OW19591   2.236   5.449   5.858
 6231SOL    HW119592   2.230   5.515   5.783
 6231SOL    HW219593   2.296   5.373   5.830
 6232SOL     OW19594   4.314   0.106   0.002
 6232SOL    HW119595   4.282   0.018   0.037
 6232SOL    HW219596   4.389   0.090   6.957
 6233SOL     OW19597   0.023   3.679   1.016
 6233SOL    HW119598   0.039   3.615   0.940
 6233SOL    HW219599   0.070   3.646   1.098
 6234SOL     OW19600   5.021   5.711   3.979
 6234SOL    HW119601   5.096   5.775   3.961
 6234SOL    HW219602   4.962   5.749   4.051
 6235SOL     OW19603   0.627   0.887   2.079
 6235SOL    HW119604   0.718   0.899   2.040
 6235SOL    HW219605   0.573   0.825   2.021
 6236SOL     OW19606   6.830   5.945   1.373
 6236SOL    HW119607   6.739   5.917   1.403
 6236SOL    HW219608   6.831   6.043   1.353
 6237SOL     OW19609   3.562   1.001   2.521
 6237SOL    HW119610   3.538   0.917   2.568
 6237SOL    HW219611   3.515   1.078   2.563
 6238SOL     OW19612   2.703   0.807   3.392
 6238SOL    HW119613   2.708   0.906   3.384
 6238SOL    HW219614   2.675   0.783   3.485
 6239SOL     OW19615   4.514   1.402   4.560
 6239SOL    HW119616   4.578   1.404   4.637
 6239SOL    HW219617   4.564   1.388   4.475
 6240SOL     OW19618   3.992   3.207   4.271
 6240SOL    HW119619   3.917   3.228   4.208
 6240SOL    HW219620   3.973   3.120   4.317
 6241SOL     OW19621   3.704   6.950   3.597
 6241SOL    HW119622   3.741   6.950   3.504
 6241SOL    HW219623   3.747   0.002   3.650
 6242SOL     OW19624   3.029   2.191   4.213
 6242SOL    HW119625   3.080   2.261   4.162
 6242SOL    HW219626   2.937   2.183   4.175
 6243SOL     OW19627   4.179   1.572   0.122
 6243SOL    HW119628   4.211   1.483   0.155
 6243SOL    HW219629   4.156   1.565   0.025
 6244SOL     OW19630   4.416   2.371   2.149
 6244SOL    HW119631   4.411   2.365   2.248
 6244SOL    HW219632   4.490   2.433   2.123
 6245SOL     OW19633   6.932   4.903   2.090
 6245SOL    HW119634   6.904   4.856   2.006
 6245SOL    HW219635   6.867   4.977   2.110
 6246SOL     OW19636   0.738   6.567   5.153
 6246SOL    HW119637   0.813   6.502   5.141
 6246SOL    HW219638   0.760   6.652   5.106
 6247SOL     OW19639   5.597   5.185   2.958
 6247SOL    HW119640   5.619   5.120   3.030
 6247SOL    HW219641   5.653   5.166   2.877
 6248SOL     OW19642   4.323   2.773   5.651
 6248SOL    HW119643   4.259   2.799   5.579
 6248SOL    HW219644   4.415   2.760   5.612
 6249SOL     OW19645   5.690   3.700   3.545
 6249SOL    HW119646   5.717   3.723   3.638
 6249SOL    HW219647   5.769   3.709   3.484
 6250SOL     OW19648   5.711   6.954   6.038
 6250SOL    HW119649   5.794   6.947   6.093
 6250SOL    HW219650   5.715   0.017   5.983
 6251SOL     OW19651   2.981   0.746   4.385
 6251SOL    HW119652   3.003   0.843   4.375
 6251SOL    HW219653   3.021   0.695   4.308
 6252SOL     OW19654   3.098   5.538   0.916
 6252SOL    HW119655   3.076   5.470   0.847
 6252SOL    HW219656   3.034   5.529   0.993
 6253SOL     OW19657   4.851   6.132   4.016
 6253SOL    HW119658   4.875   6.080   4.098
 6253SOL    HW219659   4.775   6.087   3.969
 6254SOL     OW19660   0.711   0.142   1.508
 6254SOL    HW119661   0.613   0.159   1.519
 6254SOL    HW219662   0.749   0.108   1.594
 6255SOL     OW19663   1.559   1.168   0.745
 6255SOL    HW119664   1.637   1.162   0.808
 6255SOL    HW219665   1.554   1.085   0.690
 6256SOL     OW19666   6.126   5.384   2.396
 6256SOL    HW119667   6.028   5.405   2.389
 6256SOL    HW219668   6.147   5.306   2.336
 6257SOL     OW19669   3.538   3.449   0.834
 6257SOL    HW119670   3.593   3.492   0.762
 6257SOL    HW219671   3.598   3.400   0.898
 6258SOL     OW19672   4.337   5.369   5.077
 6258SOL    HW119673   4.257   5.371   5.138
 6258SOL    HW219674   4.308   5.390   4.984
 6259SOL     OW19675   4.559   0.817   5.127
 6259SOL    HW119676   4.534   0.819   5.224
 6259SOL    HW219677   4.574   0.911   5.095
 6260SOL     OW19678   3.111   1.846   1.049
 6260SOL    HW119679   3.054   1.928   1.042
 6260SOL    HW219680   3.208   1.872   1.051
 6261SOL     OW19681   3.976   6.955   1.028
 6261SOL    HW119682   3.925   6.911   0.954
 6261SOL    HW219683   3.913   6.990   1.097
 6262SOL     OW19684   6.018   0.884   2.456
 6262SOL    HW119685   5.945   0.866   2.522
 6262SOL    HW219686   6.061   0.972   2.477
 6263SOL     OW19687   6.202   6.049   6.289
 6263SOL    HW119688   6.125   6.020   6.345
 6263SOL    HW219689   6.263   5.972   6.273
 6264SOL     OW19690   1.245   5.955   0.433
 6264SOL    HW119691   1.287   5.913   0.354
 6264SOL    HW219692   1.152   5.920   0.445
 6265SOL     OW19693   3.705   6.948   6.740
 6265SOL    HW119694   3.712   6.904   6.650
 6265SOL    HW219695   3.765   0.008   6.743
 6266SOL     OW19696   3.378   5.193   3.059
 6266SOL    HW119697   3.280   5.199   3.078
 6266SOL    HW219698   3.430   5.216   3.142
 6267SOL     OW19699   0.510   6.098   4.398
 6267SOL    HW119700   0.561   6.050   4.469
 6267SOL    HW219701   0.430   6.144   4.438
 6268SOL     OW19702   3.810   1.662   1.343
 6268SOL    HW119703   3.766   1.572   1.341
 6268SOL    HW219704   3.744   1.732   1.318
 6269SOL     OW19705   6.541   6.298   6.893
 6269SOL    HW119706   6.614   6.285   6.825
 6269SOL    HW219707   6.554   6.233   6.967
 6270SOL     OW19708   1.248   6.176   0.943
 6270SOL    HW119709   1.186   6.249   0.915
 6270SOL    HW219710   1.328   6.217   0.989
 6271SOL     OW19711   6.741   3.166   6.148
 6271SOL    HW119712   6.765   3.101   6.076
 6271SOL    HW219713   6.642   3.175   6.154
 6272SOL     OW19714   0.520   1.427   6.915
 6272SOL    HW119715   0.550   1.435   6.820
 6272SOL    HW219716   0.513   1.518   6.955
 6273SOL     OW19717   0.217   6.411   2.918
 6273SOL    HW119718   0.264   6.355   2.850
 6273SOL    HW219719   0.124   6.431   2.886
 6274SOL     OW19720   2.869   6.349   3.798
 6274SOL    HW119721   2.799   6.319   3.862
 6274SOL    HW219722   2.867   6.292   3.716
 6275SOL     OW19723   2.644   5.844   0.564
 6275SOL    HW119724   2.712   5.906   0.524
 6275SOL    HW219725   2.552   5.875   0.539
 6276SOL     OW19726   2.012   5.350   2.564
 6276SOL    HW119727   2.039   5.279   2.500
 6276SOL    HW219728   2.093   5.388   2.608
 6277SOL     OW19729   5.284   2.452   1.008
 6277SOL    HW119730   5.275   2.360   1.047
 6277SOL    HW219731   5.231   2.517   1.062
 6278SOL     OW19732   3.990   2.296   0.329
 6278SOL    HW119733   4.061   2.247   0.379
 6278SOL    HW219734   4.016   2.306   0.233
 6279SOL     OW19735   2.047   6.520   1.894
 6279SOL    HW119736   2.055   6.535   1.795
 6279SOL    HW219737   2.134   6.541   1.938
 6280SOL     OW19738   5.059   1.286   6.468
 6280SOL    HW119739   5.086   1.337   6.550
 6280SOL    HW219740   5.033   1.350   6.396
 6281SOL     OW19741   4.973   4.121   6.036
 6281SOL    HW119742   5.004   4.216   6.029
 6281SOL    HW219743   4.980   4.091   6.131
 6282SOL     OW19744   0.766   3.591   5.876
 6282SOL    HW119745   0.834   3.617   5.944
 6282SOL    HW219746   0.733   3.672   5.829
 6283SOL     OW19747   2.724   0.312   4.526
 6283SOL    HW119748   2.672   0.281   4.447
 6283SOL    HW219749   2.692   0.403   4.554
 6284SOL     OW19750   1.754   3.258   5.817
 6284SOL    HW119751   1.840   3.308   5.827
 6284SOL    HW219752   1.774   3.161   5.799
 6285SOL     OW19753   1.150   4.128   2.609
 6285SOL    HW119754   1.098   4.046   2.634
 6285SOL    HW219755   1.220   4.103   2.543
 6286SOL     OW19756   0.925   2.326   6.808
 6286SOL    HW119757   0.841   2.358   6.766
 6286SOL    HW219758   1.002   2.345   6.747
 6287SOL     OW19759   4.417   4.600   4.545
 6287SOL    HW119760   4.364   4.641   4.619
 6287SOL    HW219761   4.380   4.629   4.457
 6288SOL     OW19762   3.017   3.301   6.242
 6288SOL    HW119763   3.105   3.317   6.198
 6288SOL    HW219764   2.961   3.243   6.184
 6289SOL     OW19765   2.365   4.820   4.931
 6289SOL    HW119766   2.409   4.774   5.008
 6289SOL    HW219767   2.319   4.903   4.963
 6290SOL     OW19768   6.620   6.931   3.877
 6290SOL    HW119769   6.675   6.998   3.926
 6290SOL    HW219770   6.672   6.896   3.799
 6291SOL     OW19771   3.504   3.613   1.949
 6291SOL    HW119772   3.579   3.590   2.011
 6291SOL    HW219773   3.528   3.585   1.856
 6292SOL     OW19774   1.421   4.384   4.743
 6292SOL    HW119775   1.475   4.309   4.704
 6292SOL    HW219776   1.397   4.448   4.670
 6293SOL     OW19777   2.983   1.353   6.334
 6293SOL    HW119778   2.923   1.426   6.303
 6293SOL    HW219779   2.953   1.266   6.294
 6294SOL     OW19780   1.877   1.335   2.360
 6294SOL    HW119781   1.924   1.248   2.374
 6294SOL    HW219782   1.831   1.335   2.271
 6295SOL     OW19783   4.407   3.448   6.517
 6295SOL    HW119784   4.404   3.520   6.586
 6295SOL    HW219785   4.502   3.428   6.492
 6296SOL     OW19786   0.555   3.025   0.142
 6296SOL    HW119787   0.466   3.046   0.101
 6296SOL    HW219788   0.598   3.109   0.175
 6297SOL     OW19789   6.344   1.274   4.081
 6297SOL    HW119790   6.343   1.228   4.170
 6297SOL    HW219791   6.329   1.207   4.009
 6298SOL     OW19792   6.990   6.594   0.309
 6298SOL    HW119793   6.920   6.523   0.298
 6298SOL    HW219794   0.040   6.562   0.372
 6299SOL     OW19795   3.436   2.076   3.955
 6299SOL    HW119796   3.438   2.051   3.858
 6299SOL    HW219797   3.346   2.112   3.978
 6300SOL     OW19798   2.677   1.991   1.332
 6300SOL    HW119799   2.657   2.023   1.240
 6300SOL    HW219800   2.755   1.928   1.330
 6301SOL     OW19801   3.800   6.371   0.120
 6301SOL    HW119802   3.842   6.448   0.169
 6301SOL    HW219803   3.825   6.285   0.165
 6302SOL     OW19804   1.797   3.469   0.187
 6302SOL    HW119805   1.845   3.388   0.153
 6302SOL    HW219806   1.770   3.527   0.109
 6303SOL     OW19807   6.701   4.973   4.464
 6303SOL    HW119808   6.686   5.003   4.369
 6303SOL    HW219809   6.691   5.050   4.526
 6304SOL     OW19810   2.790   0.916   4.162
 6304SOL    HW119811   2.732   0.913   4.080
 6304SOL    HW219812   2.838   0.829   4.172
 6305SOL     OW19813   0.849   5.607   5.819
 6305SOL    HW119814   0.751   5.587   5.812
 6305SOL    HW219815   0.899   5.556   5.749
 6306SOL     OW19816   0.928   4.397   4.297
 6306SOL    HW119817   0.948   4.324   4.362
 6306SOL    HW219818   1.014   4.443   4.272
 6307SOL     OW19819   3.218   3.292   2.752
 6307SOL    HW119820   3.266   3.254   2.673
 6307SOL    HW219821   3.279   3.293   2.831
 6308SOL     OW19822   1.223   1.919   0.991
 6308SOL    HW119823   1.158   1.941   0.918
 6308SOL    HW219824   1.292   1.991   0.996
 6309SOL     OW19825   1.781   5.899   4.758
 6309SOL    HW119826   1.875   5.922   4.731
 6309SOL    HW219827   1.784   5.830   4.830
 6310SOL     OW19828   0.294   0.091   3.421
 6310SOL    HW119829   0.194   0.095   3.433
 6310SOL    HW219830   0.317   0.019   3.356
 6311SOL     OW19831   6.681   1.213   6.510
 6311SOL    HW119832   6.613   1.253   6.449
 6311SOL    HW219833   6.659   1.117   6.526
 6312SOL     OW19834   3.319   5.464   1.110
 6312SOL    HW119835   3.333   5.370   1.078
 6312SOL    HW219836   3.342   5.528   1.037
 6313SOL     OW19837   5.559   4.891   3.977
 6313SOL    HW119838   5.592   4.931   3.891
 6313SOL    HW219839   5.532   4.796   3.961
 6314SOL     OW19840   2.021   6.951   3.205
 6314SOL    HW119841   1.947   6.936   3.271
 6314SOL    HW219842   2.109   6.938   3.251
 6315SOL     OW19843   2.620   2.167   3.599
 6315SOL    HW119844   2.520   2.160   3.601
 6315SOL    HW219845   2.647   2.243   3.540
 6316SOL     OW19846   4.513   0.521   5.385
 6316SOL    HW119847   4.596   0.468   5.402
 6316SOL    HW219848   4.506   0.541   5.287
 6317SOL     OW19849   4.740   4.908   2.765
 6317SOL    HW119850   4.774   4.818   2.737
 6317SOL    HW219851   4.722   4.908   2.863
 6318SOL     OW19852   6.398   6.962   0.039
 6318SOL    HW119853   6.301   6.939   0.029
 6318SOL    HW219854   6.407   0.040   0.054
 6319SOL     OW19855   4.738   2.275   4.399
 6319SOL    HW119856   4.798   2.302   4.324
 6319SOL    HW219857   4.696   2.187   4.379
 6320SOL     OW19858   6.767   1.553   6.226
 6320SOL    HW119859   6.853   1.596   6.252
 6320SOL    HW219860   6.727   1.601   6.148
 6321SOL     OW19861   0.781   3.182   0.277
 6321SOL    HW119862   0.830   3.158   0.193
 6321SOL    HW219863   0.695   3.227   0.254
 6322SOL     OW19864   1.440   1.849   3.206
 6322SOL    HW119865   1.368   1.780   3.209
 6322SOL    HW219866   1.528   1.805   3.185
 6323SOL     OW19867   1.908   5.441   1.195
 6323SOL    HW119868   1.871   5.504   1.128
 6323SOL    HW219869   1.993   5.402   1.161
 6324SOL     OW19870   4.435   2.806   1.283
 6324SOL    HW119871   4.524   2.832   1.320
 6324SOL    HW219872   4.363   2.859   1.329
 6325SOL     OW19873   1.400   3.419   3.302
 6325SOL    HW119874   1.414   3.343   3.366
 6325SOL    HW219875   1.389   3.504   3.352
 6326SOL     OW19876   4.789   5.106   5.419
 6326SOL    HW119877   4.714   5.159   5.380
 6326SOL    HW219878   4.790   5.014   5.378
 6327SOL     OW19879   0.535   0.887   2.855
 6327SOL    HW119880   0.608   0.848   2.799
 6327SOL    HW219881   0.488   0.958   2.803
 6328SOL     OW19882   4.399   3.366   5.476
 6328SOL    HW119883   4.388   3.465   5.463
 6328SOL    HW219884   4.493   3.346   5.500
 6329SOL     OW19885   0.728   3.023   4.868
 6329SOL    HW119886   0.827   3.037   4.866
 6329SOL    HW219887   0.683   3.088   4.807
 6330SOL     OW19888   4.292   1.928   3.883
 6330SOL    HW119889   4.388   1.909   3.865
 6330SOL    HW219890   4.255   1.859   3.946
 6331SOL     OW19891   1.409   3.679   3.829
 6331SOL    HW119892   1.498   3.693   3.785
 6331SOL    HW219893   1.369   3.768   3.852
 6332SOL     OW19894   4.420   1.584   0.477
 6332SOL    HW119895   4.451   1.594   0.572
 6332SOL    HW219896   4.488   1.625   0.416
 6333SOL     OW19897   5.746   0.747   0.590
 6333SOL    HW119898   5.775   0.652   0.580
 6333SOL    HW219899   5.803   0.792   0.658
 6334SOL     OW19900   2.340   1.005   1.979
 6334SOL    HW119901   2.326   0.946   1.900
 6334SOL    HW219902   2.309   1.098   1.957
 6335SOL     OW19903   6.755   3.605   5.757
 6335SOL    HW119904   6.836   3.576   5.807
 6335SOL    HW219905   6.683   3.537   5.766
 6336SOL     OW19906   1.335   4.403   5.428
 6336SOL    HW119907   1.275   4.325   5.409
 6336SOL    HW219908   1.302   4.484   5.379
 6337SOL     OW19909   5.887   6.974   4.798
 6337SOL    HW119910   5.810   6.913   4.818
 6337SOL    HW219911   5.876   0.039   4.848
 6338SOL     OW19912   0.854   0.602   3.051
 6338SOL    HW119913   0.788   0.676   3.060
 6338SOL    HW219914   0.934   0.635   3.001
 6339SOL     OW19915   0.369   3.559   3.277
 6339SOL    HW119916   0.350   3.563   3.376
 6339SOL    HW219917   0.283   3.560   3.227
 6340SOL     OW19918   2.820   5.335   6.502
 6340SOL    HW119919   2.743   5.390   6.472
 6340SOL    HW219920   2.895   5.343   6.437
 6341SOL     OW19921   0.180   4.573   2.702
 6341SOL    HW119922   0.217   4.631   2.775
 6341SOL    HW219923   0.173   4.626   2.618
 6342SOL     OW19924   2.062   0.591   1.729
 6342SOL    HW119925   2.155   0.561   1.706
 6342SOL    HW219926   2.044   0.678   1.685
 6343SOL     OW19927   1.409   5.585   0.020
 6343SOL    HW119928   1.377   5.564   6.947
 6343SOL    HW219929   1.467   5.666   0.018
 6344SOL     OW19930   1.408   1.496   4.646
 6344SOL    HW119931   1.347   1.518   4.570
 6344SOL    HW219932   1.355   1.461   4.723
 6345SOL     OW19933   6.463   2.994   2.945
 6345SOL    HW119934   6.495   2.929   2.876
 6345SOL    HW219935   6.460   2.949   3.035
 6346SOL     OW19936   0.576   4.696   4.936
 6346SOL    HW119937   0.532   4.656   4.856
 6346SOL    HW219938   0.525   4.669   5.018
 6347SOL     OW19939   1.961   2.205   3.727
 6347SOL    HW119940   2.040   2.266   3.719
 6347SOL    HW219941   1.987   2.124   3.780
 6348SOL     OW19942   0.739   2.701   6.803
 6348SOL    HW119943   0.715   2.751   6.887
 6348SOL    HW219944   0.733   2.603   6.820
 6349SOL     OW19945   5.786   0.839   1.023
 6349SOL    HW119946   5.840   0.767   0.978
 6349SOL    HW219947   5.694   0.804   1.042
 6350SOL     OW19948   0.819   5.914   1.241
 6350SOL    HW119949   0.800   5.919   1.143
 6350SOL    HW219950   0.905   5.963   1.260
 6351SOL     OW19951   6.029   2.956   1.969
 6351SOL    HW119952   6.105   2.891   1.965
 6351SOL    HW219953   6.051   3.037   1.914
 6352SOL     OW19954   4.479   0.628   4.377
 6352SOL    HW119955   4.446   0.687   4.450
 6352SOL    HW219956   4.436   0.654   4.290
 6353SOL     OW19957   3.372   6.746   5.938
 6353SOL    HW119958   3.428   6.724   6.018
 6353SOL    HW219959   3.295   6.803   5.965
 6354SOL     OW19960   5.141   4.967   2.413
 6354SOL    HW119961   5.135   5.035   2.486
 6354SOL    HW219962   5.049   4.935   2.390
 6355SOL     OW19963   4.448   5.996   0.492
 6355SOL    HW119964   4.419   6.084   0.455
 6355SOL    HW219965   4.419   5.923   0.430
 6356SOL     OW19966   6.733   6.644   6.054
 6356SOL    HW119967   6.715   6.729   6.005
 6356SOL    HW219968   6.762   6.666   6.147
 6357SOL     OW19969   4.836   1.825   3.017
 6357SOL    HW119970   4.927   1.786   3.030
 6357SOL    HW219971   4.835   1.918   3.053
 6358SOL     OW19972   1.252   1.646   4.447
 6358SOL    HW119973   1.180   1.629   4.515
 6358SOL    HW219974   1.217   1.705   4.375
 6359SOL     OW19975   5.870   5.062   0.895
 6359SOL    HW119976   5.898   5.001   0.970
 6359SOL    HW219977   5.771   5.074   0.897
 6360SOL     OW19978   2.092   3.078   0.987
 6360SOL    HW119979   2.088   2.984   1.020
 6360SOL    HW219980   2.115   3.139   1.063
 6361SOL     OW19981   0.421   2.022   2.074
 6361SOL    HW119982   0.463   1.932   2.089
 6361SOL    HW219983   0.321   2.012   2.077
 6362SOL     OW19984   1.435   5.187   0.273
 6362SOL    HW119985   1.510   5.121   0.267
 6362SOL    HW219986   1.455   5.252   0.347
 6363SOL     OW19987   1.012   2.666   2.156
 6363SOL    HW119988   0.983   2.625   2.242
 6363SOL    HW219989   1.010   2.765   2.164
 6364SOL     OW19990   3.003   1.305   4.070
 6364SOL    HW119991   2.987   1.358   4.153
 6364SOL    HW219992   2.947   1.343   3.996
 6365SOL     OW19993   6.394   6.766   2.931
 6365SOL    HW119994   6.435   6.806   3.013
 6365SOL    HW219995   6.444   6.684   2.905
 6366SOL     OW19996   6.001   1.502   5.254
 6366SOL    HW119997   5.958   1.592   5.254
 6366SOL    HW219998   5.947   1.439   5.311
 6367SOL     OW19999   0.970   2.464   4.423
 6367SOL    HW120000   1.033   2.441   4.497
 6367SOL    HW220001   0.909   2.386   4.406
 6368SOL     OW20002   4.968   3.358   5.049
 6368SOL    HW120003   4.951   3.411   5.131
 6368SOL    HW220004   4.988   3.419   4.972
 6369SOL     OW20005   3.617   4.126   0.710
 6369SOL    HW120006   3.569   4.073   0.640
 6369SOL    HW220007   3.581   4.102   0.800
 6370SOL     OW20008   6.005   4.179   4.810
 6370SOL    HW120009   5.973   4.272   4.796
 6370SOL    HW220010   6.058   4.174   4.895
 6371SOL     OW20011   5.551   3.981   0.849
 6371SOL    HW120012   5.615   3.991   0.925
 6371SOL    HW220013   5.576   4.043   0.775
 6372SOL     OW20014   6.791   1.328   0.984
 6372SOL    HW120015   6.872   1.302   1.036
 6372SOL    HW220016   6.762   1.420   1.011
 6373SOL     OW20017   5.204   2.723   1.583
 6373SOL    HW120018   5.250   2.724   1.672
 6373SOL    HW220019   5.124   2.664   1.588
 6374SOL     OW20020   4.193   3.827   6.518
 6374SOL    HW120021   4.293   3.835   6.523
 6374SOL    HW220022   4.168   3.783   6.432
 6375SOL     OW20023   5.064   0.948   1.760
 6375SOL    HW120024   5.030   1.032   1.719
 6375SOL    HW220025   5.127   0.970   1.835
 6376SOL     OW20026   2.656   6.700   0.358
 6376SOL    HW120027   2.610   6.615   0.383
 6376SOL    HW220028   2.755   6.687   0.360
 6377SOL     OW20029   0.334   0.762   0.096
 6377SOL    HW120030   0.410   0.825   0.081
 6377SOL    HW220031   0.312   0.715   0.011
 6378SOL     OW20032   5.765   4.117   2.563
 6378SOL    HW120033   5.789   4.153   2.473
 6378SOL    HW220034   5.785   4.019   2.566
 6379SOL     OW20035   2.883   5.643   0.077
 6379SOL    HW120036   2.860   5.546   0.080
 6379SOL    HW220037   2.963   5.661   0.134
 6380SOL     OW20038   1.972   3.130   4.834
 6380SOL    HW120039   2.004   3.046   4.789
 6380SOL    HW220040   1.997   3.127   4.931
 6381SOL     OW20041   3.673   3.754   0.653
 6381SOL    HW120042   3.703   3.805   0.733
 6381SOL    HW220043   3.700   3.659   0.661
 6382SOL     OW20044   1.448   1.138   1.163
 6382SOL    HW120045   1.502   1.221   1.147
 6382SOL    HW220046   1.372   1.159   1.224
 6383SOL     OW20047   2.378   2.213   2.533
 6383SOL    HW120048   2.394   2.237   2.438
 6383SOL    HW220049   2.462   2.226   2.586
 6384SOL     OW20050   6.395   1.843   2.076
 6384SOL    HW120051   6.491   1.825   2.056
 6384SOL    HW220052   6.381   1.941   2.092
 6385SOL     OW20053   6.856   3.860   1.069
 6385SOL    HW120054   6.848   3.926   0.995
 6385SOL    HW220055   6.936   3.802   1.054
 6386SOL     OW20056   3.368   3.631   0.128
 6386SOL    HW120057   3.385   3.568   0.052
 6386SOL    HW220058   3.360   3.579   0.213
 6387SOL     OW20059   6.605   0.820   5.912
 6387SOL    HW120060   6.620   0.730   5.871
 6387SOL    HW220061   6.528   0.815   5.976
 6388SOL     OW20062   5.965   5.356   1.292
 6388SOL    HW120063   6.062   5.380   1.280
 6388SOL    HW220064   5.957   5.284   1.361
 6389SOL     OW20065   6.601   6.615   0.635
 6389SOL    HW120066   6.574   6.706   0.668
 6389SOL    HW220067   6.664   6.573   0.699
 6390SOL     OW20068   5.174   6.711   6.523
 6390SOL    HW120069   5.149   6.724   6.427
 6390SOL    HW220070   5.094   6.728   6.581
 6391SOL     OW20071   1.854   2.171   4.650
 6391SOL    HW120072   1.908   2.250   4.619
 6391SOL    HW220073   1.908   2.119   4.717
 6392SOL     OW20074   4.985   6.723   4.161
 6392SOL    HW120075   5.051   6.668   4.110
 6392SOL    HW220076   4.978   6.814   4.119
 6393SOL     OW20077   1.917   5.404   0.873
 6393SOL    HW120078   1.870   5.482   0.833
 6393SOL    HW220079   1.903   5.323   0.815
 6394SOL     OW20080   1.698   5.490   2.119
 6394SOL    HW120081   1.743   5.571   2.157
 6394SOL    HW220082   1.607   5.480   2.159
 6395SOL     OW20083   1.631   4.211   4.641
 6395SOL    HW120084   1.717   4.176   4.678
 6395SOL    HW220085   1.633   4.207   4.541
 6396SOL     OW20086   1.866   3.452   4.994
 6396SOL    HW120087   1.877   3.405   5.081
 6396SOL    HW220088   1.809   3.398   4.933
 6397SOL     OW20089   6.643   2.786   5.105
 6397SOL    HW120090   6.560   2.744   5.069
 6397SOL    HW220091   6.723   2.748   5.058
 6398SOL     OW20092   1.598   0.176   2.644
 6398SOL    HW120093   1.658   0.202   2.568
 6398SOL    HW220094   1.653   0.166   2.727
 6399SOL     OW20095   2.362   6.860   0.016
 6399SOL    HW120096   2.315   6.896   0.097
 6399SOL    HW220097   2.300   6.803   6.984
 6400SOL     OW20098   0.636   6.526   2.722
 6400SOL    HW120099   0.730   6.497   2.704
 6400SOL    HW220100   0.621   6.528   2.821
 6401SOL     OW20101   3.843   5.180   1.850
 6401SOL    HW120102   3.768   5.125   1.885
 6401SOL    HW220103   3.914   5.120   1.813
 6402SOL     OW20104   3.672   3.836   6.021
 6402SOL    HW120105   3.584   3.880   6.003
 6402SOL    HW220106   3.716   3.881   6.098
 6403SOL     OW20107   4.827   5.611   5.692
 6403SOL    HW120108   4.868   5.533   5.738
 6403SOL    HW220109   4.762   5.579   5.624
 6404SOL     OW20110   4.821   5.719   6.662
 6404SOL    HW120111   4.752   5.754   6.725
 6404SOL    HW220112   4.905   5.700   6.712
 6405SOL     OW20113   4.355   1.113   2.415
 6405SOL    HW120114   4.401   1.117   2.326
 6405SOL    HW220115   4.324   1.020   2.433
 6406SOL     OW20116   0.589   3.400   2.031
 6406SOL    HW120117   0.625   3.493   2.033
 6406SOL    HW220118   0.503   3.396   2.081
 6407SOL     OW20119   0.560   7.005   1.997
 6407SOL    HW120120   0.625   6.929   1.995
 6407SOL    HW220121   0.589   0.051   2.067
 6408SOL     OW20122   0.537   1.376   1.976
 6408SOL    HW120123   0.525   1.288   2.022
 6408SOL    HW220124   0.622   1.418   2.006
 6409SOL     OW20125   5.942   4.223   3.316
 6409SOL    HW120126   5.886   4.295   3.356
 6409SOL    HW220127   6.018   4.201   3.378
 6410SOL     OW20128   1.989   0.935   0.674
 6410SOL    HW120129   2.035   1.020   0.648
 6410SOL    HW220130   1.913   0.956   0.736
 6411SOL     OW20131   0.881   2.511   3.519
 6411SOL    HW120132   0.957   2.469   3.568
 6411SOL    HW220133   0.902   2.606   3.499
 6412SOL     OW20134   3.833   0.180   0.084
 6412SOL    HW120135   3.863   0.274   0.067
 6412SOL    HW220136   3.868   0.120   0.012
 6413SOL     OW20137   4.712   5.796   3.061
 6413SOL    HW120138   4.675   5.754   3.143
 6413SOL    HW220139   4.792   5.744   3.030
 6414SOL     OW20140   3.143   0.100   6.974
 6414SOL    HW120141   3.113   0.111   6.879
 6414SOL    HW220142   3.072   0.135   0.015
 6415SOL     OW20143   0.668   1.954   3.422
 6415SOL    HW120144   0.705   1.955   3.329
 6415SOL    HW220145   0.669   1.861   3.457
 6416SOL     OW20146   3.181   4.883   0.456
 6416SOL    HW120147   3.142   4.819   0.391
 6416SOL    HW220148   3.266   4.922   0.419
 6417SOL     OW20149   4.333   3.626   6.756
 6417SOL    HW120150   4.261   3.694   6.738
 6417SOL    HW220151   4.295   3.552   6.811
 6418SOL     OW20152   4.990   5.704   0.472
 6418SOL    HW120153   5.052   5.678   0.547
 6418SOL    HW220154   5.010   5.648   0.392
 6419SOL     OW20155   0.885   6.804   6.650
 6419SOL    HW120156   0.984   6.808   6.662
 6419SOL    HW220157   0.864   6.776   6.557
 6420SOL     OW20158   2.638   4.661   3.431
 6420SOL    HW120159   2.595   4.628   3.515
 6420SOL    HW220160   2.605   4.608   3.353
 6421SOL     OW20161   5.490   6.535   1.849
 6421SOL    HW120162   5.499   6.634   1.843
 6421SOL    HW220163   5.505   6.494   1.759
 6422SOL     OW20164   0.618   2.118   4.816
 6422SOL    HW120165   0.711   2.112   4.780
 6422SOL    HW220166   0.555   2.143   4.742
 6423SOL     OW20167   1.138   4.355   4.501
 6423SOL    HW120168   1.144   4.281   4.569
 6423SOL    HW220169   1.069   4.421   4.531
 6424SOL     OW20170   6.611   4.248   5.953
 6424SOL    HW120171   6.687   4.291   5.905
 6424SOL    HW220172   6.526   4.266   5.902
 6425SOL     OW20173   0.608   6.585   4.725
 6425SOL    HW120174   0.530   6.554   4.671
 6425SOL    HW220175   0.589   6.572   4.822
 6426SOL     OW20176   4.116   5.328   4.019
 6426SOL    HW120177   4.150   5.373   3.936
 6426SOL    HW220178   4.184   5.262   4.051
 6427SOL     OW20179   3.827   3.024   3.903
 6427SOL    HW120180   3.906   3.079   3.875
 6427SOL    HW220181   3.789   2.978   3.823
 6428SOL     OW20182   6.138   2.422   0.565
 6428SOL    HW120183   6.045   2.459   0.566
 6428SOL    HW220184   6.168   2.412   0.470
 6429SOL     OW20185   2.541   1.448   5.302
 6429SOL    HW120186   2.487   1.429   5.220
 6429SOL    HW220187   2.638   1.446   5.279
 6430SOL     OW20188   5.558   1.417   4.787
 6430SOL    HW120189   5.596   1.476   4.858
 6430SOL    HW220190   5.619   1.415   4.708
 6431SOL     OW20191   3.391   5.235   2.779
 6431SOL    HW120192   3.393   5.213   2.877
 6431SOL    HW220193   3.422   5.329   2.765
 6432SOL     OW20194   4.310   3.583   6.270
 6432SOL    HW120195   4.342   3.558   6.179
 6432SOL    HW220196   4.359   3.531   6.339
 6433SOL     OW20197   3.410   5.139   6.198
 6433SOL    HW120198   3.438   5.044   6.213
 6433SOL    HW220199   3.411   5.188   6.285
 6434SOL     OW20200   6.411   5.222   6.029
 6434SOL    HW120201   6.485   5.283   5.999
 6434SOL    HW220202   6.444   5.128   6.030
 6435SOL     OW20203   4.662   1.282   0.992
 6435SOL    HW120204   4.715   1.258   0.911
 6435SOL    HW220205   4.566   1.293   0.967
 6436SOL     OW20206   0.524   3.448   3.735
 6436SOL    HW120207   0.585   3.512   3.782
 6436SOL    HW220208   0.478   3.390   3.802
 6437SOL     OW20209   1.646   2.738   5.830
 6437SOL    HW120210   1.679   2.643   5.828
 6437SOL    HW220211   1.606   2.757   5.920
 6438SOL     OW20212   0.358   5.170   1.056
 6438SOL    HW120213   0.314   5.220   0.982
 6438SOL    HW220214   0.331   5.074   1.054
 6439SOL     OW20215   5.250   6.683   2.883
 6439SOL    HW120216   5.344   6.710   2.864
 6439SOL    HW220217   5.249   6.591   2.923
 6440SOL     OW20218   2.412   1.674   6.059
 6440SOL    HW120219   2.318   1.669   6.091
 6440SOL    HW220220   2.415   1.659   5.961
 6441SOL     OW20221   0.645   2.409   1.870
 6441SOL    HW120222   0.643   2.506   1.892
 6441SOL    HW220223   0.587   2.359   1.935
 6442SOL     OW20224   2.521   1.900   4.574
 6442SOL    HW120225   2.490   1.989   4.608
 6442SOL    HW220226   2.472   1.827   4.622
 6443SOL     OW20227   2.903   2.579   6.426
 6443SOL    HW120228   2.842   2.519   6.478
 6443SOL    HW220229   2.931   2.534   6.342
 6444SOL     OW20230   0.068   3.427   5.095
 6444SOL    HW120231   6.996   3.459   5.113
 6444SOL    HW220232   0.133   3.502   5.111
 6445SOL     OW20233   3.122   3.088   3.396
 6445SOL    HW120234   3.061   3.159   3.360
 6445SOL    HW220235   3.103   3.075   3.493
 6446SOL     OW20236   1.216   1.213   1.300
 6446SOL    HW120237   1.172   1.131   1.263
 6446SOL    HW220238   1.159   1.293   1.279
 6447SOL     OW20239   6.195   3.707   1.288
 6447SOL    HW120240   6.149   3.624   1.257
 6447SOL    HW220241   6.130   3.765   1.336
 6448SOL     OW20242   4.336   4.327   1.369
 6448SOL    HW120243   4.385   4.280   1.442
 6448SOL    HW220244   4.320   4.264   1.293
 6449SOL     OW20245   4.352   5.125   0.460
 6449SOL    HW120246   4.262   5.099   0.494
 6449SOL    HW220247   4.422   5.103   0.529
 6450SOL     OW20248   5.177   3.629   6.770
 6450SOL    HW120249   5.130   3.625   6.858
 6450SOL    HW220250   5.116   3.596   6.698
 6451SOL     OW20251   4.248   2.684   1.634
 6451SOL    HW120252   4.173   2.618   1.633
 6451SOL    HW220253   4.216   2.770   1.673
 6452SOL     OW20254   4.100   1.848   4.779
 6452SOL    HW120255   4.194   1.877   4.760
 6452SOL    HW220256   4.055   1.915   4.838
 6453SOL     OW20257   2.497   0.672   2.860
 6453SOL    HW120258   2.403   0.642   2.843
 6453SOL    HW220259   2.510   0.687   2.958
 6454SOL     OW20260   5.300   3.475   4.579
 6454SOL    HW120261   5.232   3.536   4.539
 6454SOL    HW220262   5.309   3.494   4.677
 6455SOL     OW20263   0.297   2.800   4.484
 6455SOL    HW120264   0.333   2.881   4.438
 6455SOL    HW220265   0.336   2.718   4.442
 6456SOL     OW20266   6.336   1.944   2.919
 6456SOL    HW120267   6.354   2.042   2.922
 6456SOL    HW220268   6.383   1.899   2.995
 6457SOL     OW20269   2.022   6.345   2.682
 6457SOL    HW120270   2.002   6.306   2.592
 6457SOL    HW220271   2.102   6.300   2.721
 6458SOL     OW20272   0.867   0.056   4.291
 6458SOL    HW120273   0.768   0.068   4.281
 6458SOL    HW220274   0.914   0.116   4.226
 6459SOL     OW20275   0.504   3.222   3.040
 6459SOL    HW120276   0.522   3.255   2.947
 6459SOL    HW220277   0.541   3.288   3.106
 6460SOL     OW20278   1.757   4.999   6.143
 6460SOL    HW120279   1.850   4.998   6.181
 6460SOL    HW220280   1.696   5.047   6.206
 6461SOL     OW20281   0.436   6.373   1.284
 6461SOL    HW120282   0.498   6.295   1.276
 6461SOL    HW220283   0.471   6.449   1.229
 6462SOL     OW20284   2.092   4.024   5.201
 6462SOL    HW120285   2.110   4.054   5.295
 6462SOL    HW220286   2.175   4.033   5.146
 6463SOL     OW20287   4.417   2.542   1.223
 6463SOL    HW120288   4.420   2.636   1.257
 6463SOL    HW220289   4.463   2.538   1.134
 6464SOL     OW20290   0.978   3.733   2.800
 6464SOL    HW120291   0.963   3.678   2.883
 6464SOL    HW220292   0.912   3.706   2.730
 6465SOL     OW20293   2.853   0.851   3.618
 6465SOL    HW120294   2.769   0.906   3.623
 6465SOL    HW220295   2.895   0.862   3.528
 6466SOL     OW20296   6.445   4.816   6.367
 6466SOL    HW120297   6.405   4.774   6.448
 6466SOL    HW220298   6.479   4.907   6.390
 6467SOL     OW20299   2.816   2.941   5.906
 6467SOL    HW120300   2.883   2.970   5.839
 6467SOL    HW220301   2.728   2.923   5.861
 6468SOL     OW20302   0.975   0.696   1.289
 6468SOL    HW120303   0.889   0.693   1.340
 6468SOL    HW220304   1.052   0.698   1.353
 6469SOL     OW20305   1.890   1.147   1.295
 6469SOL    HW120306   1.818   1.079   1.279
 6469SOL    HW220307   1.969   1.127   1.237
 6470SOL     OW20308   6.099   1.699   6.466
 6470SOL    HW120309   6.099   1.794   6.435
 6470SOL    HW220310   6.193   1.666   6.476
 6471SOL     OW20311   0.370   6.201   6.275
 6471SOL    HW120312   0.332   6.268   6.340
 6471SOL    HW220313   0.418   6.249   6.202
 6472SOL     OW20314   0.292   6.153   1.793
 6472SOL    HW120315   0.238   6.144   1.876
 6472SOL    HW220316   0.275   6.242   1.751
 6473SOL     OW20317   2.730   1.623   3.327
 6473SOL    HW120318   2.696   1.691   3.262
 6473SOL    HW220319   2.731   1.661   3.419
 6474SOL     OW20320   4.202   6.936   4.317
 6474SOL    HW120321   4.119   6.974   4.277
 6474SOL    HW220322   4.279   6.996   4.299
 6475SOL     OW20323   5.159   5.799   3.087
 6475SOL    HW120324   5.243   5.846   3.115
 6475SOL    HW220325   5.092   5.867   3.058
 6476SOL     OW20326   4.578   4.163   6.140
 6476SOL    HW120327   4.656   4.105   6.116
 6476SOL    HW220328   4.612   4.247   6.182
 6477SOL     OW20329   0.719   6.265   1.099
 6477SOL    HW120330   0.737   6.326   1.177
 6477SOL    HW220331   0.650   6.197   1.125
 6478SOL     OW20332   1.456   6.354   0.975
 6478SOL    HW120333   1.523   6.416   1.017
 6478SOL    HW220334   1.440   6.381   0.880
 6479SOL     OW20335   4.730   5.409   3.553
 6479SOL    HW120336   4.755   5.391   3.648
 6479SOL    HW220337   4.764   5.499   3.526
 6480SOL     OW20338   3.564   1.226   5.542
 6480SOL    HW120339   3.552   1.222   5.641
 6480SOL    HW220340   3.481   1.194   5.497
 6481SOL     OW20341   4.311   3.214   1.720
 6481SOL    HW120342   4.383   3.164   1.770
 6481SOL    HW220343   4.222   3.187   1.755
 6482SOL     OW20344   4.959   3.106   5.247
 6482SOL    HW120345   4.881   3.047   5.228
 6482SOL    HW220346   4.966   3.176   5.176
 6483SOL     OW20347   1.893   5.774   5.668
 6483SOL    HW120348   1.811   5.815   5.708
 6483SOL    HW220349   1.958   5.751   5.740
 6484SOL     OW20350   3.639   1.513   2.501
 6484SOL    HW120351   3.612   1.532   2.595
 6484SOL    HW220352   3.735   1.485   2.499
 6485SOL     OW20353   2.782   5.023   4.718
 6485SOL    HW120354   2.782   5.122   4.728
 6485SOL    HW220355   2.876   4.990   4.710
 6486SOL     OW20356   0.239   3.921   2.142
 6486SOL    HW120357   0.182   3.930   2.060
 6486SOL    HW220358   0.199   3.851   2.202
 6487SOL     OW20359   6.192   5.075   4.720
 6487SOL    HW120360   6.212   5.162   4.766
 6487SOL    HW220361   6.131   5.021   4.777
 6488SOL     OW20362   3.803   5.215   3.811
 6488SOL    HW120363   3.887   5.161   3.818
 6488SOL    HW220364   3.823   5.300   3.762
 6489SOL     OW20365   6.413   3.042   5.134
 6489SOL    HW120366   6.467   3.030   5.217
 6489SOL    HW220367   6.473   3.041   5.054
 6490SOL     OW20368   1.984   2.679   0.765
 6490SOL    HW120369   1.905   2.723   0.809
 6490SOL    HW220370   2.058   2.746   0.757
 6491SOL     OW20371   1.559   0.796   1.745
 6491SOL    HW120372   1.592   0.857   1.673
 6491SOL    HW220373   1.464   0.770   1.726
 6492SOL     OW20374   4.112   3.716   3.978
 6492SOL    HW120375   4.107   3.816   3.971
 6492SOL    HW220376   4.120   3.690   4.074
 6493SOL     OW20377   1.113   4.967   4.066
 6493SOL    HW120378   1.173   5.046   4.080
 6493SOL    HW220379   1.033   4.994   4.012
 6494SOL     OW20380   6.500   1.011   1.506
 6494SOL    HW120381   6.532   0.975   1.594
 6494SOL    HW220382   6.422   1.073   1.522
 6495SOL     OW20383   6.873   6.606   3.129
 6495SOL    HW120384   6.825   6.578   3.045
 6495SOL    HW220385   6.948   6.543   3.147
 6496SOL     OW20386   3.078   2.309   1.668
 6496SOL    HW120387   3.099   2.216   1.697
 6496SOL    HW220388   3.049   2.362   1.748
 6497SOL     OW20389   0.654   2.154   0.882
 6497SOL    HW120390   0.660   2.167   0.783
 6497SOL    HW220391   0.660   2.243   0.928
 6498SOL     OW20392   2.002   4.773   4.234
 6498SOL    HW120393   2.076   4.710   4.210
 6498SOL    HW220394   2.007   4.853   4.174
 6499SOL     OW20395   5.044   2.375   3.019
 6499SOL    HW120396   5.022   2.468   3.047
 6499SOL    HW220397   5.080   2.376   2.926
 6500SOL     OW20398   1.544   3.975   3.144
 6500SOL    HW120399   1.594   3.889   3.138
 6500SOL    HW220400   1.447   3.956   3.158
 6501SOL     OW20401   6.570   0.591   2.825
 6501SOL    HW120402   6.556   0.677   2.873
 6501SOL    HW220403   6.656   0.550   2.856
 6502SOL     OW20404   0.780   3.039   2.194
 6502SOL    HW120405   0.715   2.963   2.191
 6502SOL    HW220406   0.861   3.015   2.140
 6503SOL     OW20407   0.068   2.573   5.923
 6503SOL    HW120408   0.018   2.516   5.857
 6503SOL    HW220409   0.077   2.666   5.887
 6504SOL     OW20410   4.302   6.934   6.227
 6504SOL    HW120411   4.292   6.905   6.132
 6504SOL    HW220412   4.312   0.013   6.230
 6505SOL     OW20413   0.219   6.389   0.687
 6505SOL    HW120414   0.194   6.321   0.617
 6505SOL    HW220415   0.296   6.355   0.740
 6506SOL     OW20416   6.781   3.739   1.943
 6506SOL    HW120417   6.717   3.745   1.867
 6506SOL    HW220418   6.844   3.664   1.928
 6507SOL     OW20419   3.879   5.437   1.197
 6507SOL    HW120420   3.963   5.477   1.233
 6507SOL    HW220421   3.849   5.363   1.257
 6508SOL     OW20422   6.709   0.454   4.032
 6508SOL    HW120423   6.717   0.542   4.078
 6508SOL    HW220424   6.797   0.408   4.033
 6509SOL     OW20425   1.913   1.298   0.084
 6509SOL    HW120426   1.814   1.286   0.089
 6509SOL    HW220427   1.940   1.377   0.139
 6510SOL     OW20428   3.522   4.990   4.375
 6510SOL    HW120429   3.618   4.962   4.373
 6510SOL    HW220430   3.470   4.940   4.305
 6511SOL     OW20431   3.150   2.716   0.104
 6511SOL    HW120432   3.055   2.736   0.128
 6511SOL    HW220433   3.162   2.727   0.005
 6512SOL     OW20434   5.007   0.809   0.908
 6512SOL    HW120435   4.953   0.774   0.985
 6512SOL    HW220436   5.028   0.734   0.845
 6513SOL     OW20437   3.111   4.838   2.995
 6513SOL    HW120438   3.075   4.772   2.929
 6513SOL    HW220439   3.186   4.889   2.953
 6514SOL     OW20440   5.341   5.556   5.478
 6514SOL    HW120441   5.318   5.647   5.444
 6514SOL    HW220442   5.362   5.561   5.575
 6515SOL     OW20443   0.581   4.930   2.348
 6515SOL    HW120444   0.677   4.916   2.372
 6515SOL    HW220445   0.576   4.969   2.256
 6516SOL     OW20446   6.022   1.540   3.813
 6516SOL    HW120447   6.114   1.568   3.784
 6516SOL    HW220448   5.992   1.463   3.757
 6517SOL     OW20449   6.630   4.063   0.775
 6517SOL    HW120450   6.607   4.050   0.678
 6517SOL    HW220451   6.707   4.004   0.798
 6518SOL     OW20452   0.856   1.438   2.229
 6518SOL    HW120453   0.918   1.503   2.273
 6518SOL    HW220454   0.762   1.467   2.245
 6519SOL     OW20455   1.204   1.382   3.285
 6519SOL    HW120456   1.166   1.327   3.359
 6519SOL    HW220457   1.283   1.335   3.246
 6520SOL     OW20458   6.214   5.530   0.122
 6520SOL    HW120459   6.287   5.545   0.189
 6520SOL    HW220460   6.244   5.565   0.033
 6521SOL     OW20461   1.837   4.445   4.683
 6521SOL    HW120462   1.874   4.536   4.701
 6521SOL    HW220463   1.751   4.454   4.631
 6522SOL     OW20464   2.148   3.115   5.051
 6522SOL    HW120465   2.185   3.189   5.107
 6522SOL    HW220466   2.220   3.050   5.028
 6523SOL     OW20467   5.713   6.661   0.562
 6523SOL    HW120468   5.810   6.655   0.540
 6523SOL    HW220469   5.661   6.603   0.499
 6524SOL     OW20470   3.322   2.806   1.426
 6524SOL    HW120471   3.358   2.801   1.519
 6524SOL    HW220472   3.222   2.814   1.429
 6525SOL     OW20473   1.780   4.977   3.835
 6525SOL    HW120474   1.814   4.886   3.856
 6525SOL    HW220475   1.806   5.002   3.742
 6526SOL     OW20476   6.252   6.760   0.578
 6526SOL    HW120477   6.306   6.836   0.615
 6526SOL    HW220478   6.174   6.797   0.527
 6527SOL     OW20479   5.370   1.432   1.242
 6527SOL    HW120480   5.303   1.446   1.169
 6527SOL    HW220481   5.434   1.509   1.245
 6528SOL     OW20482   4.647   6.610   0.086
 6528SOL    HW120483   4.550   6.605   0.061
 6528SOL    HW220484   4.656   6.645   0.179
 6529SOL     OW20485   4.412   0.397   1.812
 6529SOL    HW120486   4.318   0.365   1.805
 6529SOL    HW220487   4.443   0.428   1.722
 6530SOL     OW20488   6.792   2.887   3.900
 6530SOL    HW120489   6.804   2.944   3.982
 6530SOL    HW220490   6.793   2.946   3.819
 6531SOL     OW20491   3.914   3.239   3.626
 6531SOL    HW120492   3.955   3.212   3.713
 6531SOL    HW220493   3.941   3.175   3.555
 6532SOL     OW20494   0.523   5.743   7.012
 6532SOL    HW120495   0.499   5.816   6.948
 6532SOL    HW220496   0.623   5.735   7.017
 6533SOL     OW20497   5.331   5.356   1.389
 6533SOL    HW120498   5.293   5.306   1.311
 6533SOL    HW220499   5.424   5.325   1.406
 6534SOL     OW20500   6.860   3.525   3.967
 6534SOL    HW120501   6.898   3.546   4.057
 6534SOL    HW220502   6.933   3.491   3.907
 6535SOL     OW20503   5.202   3.805   5.798
 6535SOL    HW120504   5.261   3.783   5.720
 6535SOL    HW220505   5.170   3.899   5.790
 6536SOL     OW20506   0.593   4.757   5.296
 6536SOL    HW120507   0.676   4.701   5.301
 6536SOL    HW220508   0.607   4.843   5.346
 6537SOL     OW20509   6.945   5.435   4.284
 6537SOL    HW120510   0.004   5.457   4.226
 6537SOL    HW220511   6.861   5.446   4.230
 6538SOL     OW20512   1.556   3.372   3.607
 6538SOL    HW120513   1.542   3.352   3.704
 6538SOL    HW220514   1.520   3.297   3.551
 6539SOL     OW20515   4.828   0.108   6.682
 6539SOL    HW120516   4.829   0.030   6.619
 6539SOL    HW220517   4.922   0.131   6.708
 6540SOL     OW20518   0.589   2.474   4.918
 6540SOL    HW120519   0.616   2.387   4.960
 6540SOL    HW220520   0.613   2.474   4.821
 6541SOL     OW20521   4.129   1.877   5.482
 6541SOL    HW120522   4.057   1.838   5.425
 6541SOL    HW220523   4.214   1.885   5.429
 6542SOL     OW20524   1.654   4.610   2.236
 6542SOL    HW120525   1.624   4.524   2.197
 6542SOL    HW220526   1.589   4.682   2.212
 6543SOL     OW20527   4.587   1.330   4.293
 6543SOL    HW120528   4.652   1.391   4.247
 6543SOL    HW220529   4.624   1.238   4.295
 6544SOL     OW20530   0.815   0.337   0.982
 6544SOL    HW120531   0.904   0.365   0.946
 6544SOL    HW220532   0.808   0.360   1.079
 6545SOL     OW20533   5.711   6.194   0.622
 6545SOL    HW120534   5.713   6.104   0.664
 6545SOL    HW220535   5.629   6.203   0.565
 6546SOL     OW20536   4.357   5.072   5.340
 6546SOL    HW120537   4.305   5.115   5.414
 6546SOL    HW220538   4.330   4.976   5.333
 6547SOL     OW20539   0.803   6.210   5.266
 6547SOL    HW120540   0.705   6.195   5.280
 6547SOL    HW220541   0.816   6.284   5.200
 6548SOL     OW20542   1.345   1.612   6.032
 6548SOL    HW120543   1.270   1.677   6.023
 6548SOL    HW220544   1.400   1.613   5.949
 6549SOL     OW20545   3.886   1.369   2.503
 6549SOL    HW120546   3.851   1.312   2.578
 6549SOL    HW220547   3.901   1.311   2.423
 6550SOL     OW20548   6.187   6.481   1.738
 6550SOL    HW120549   6.227   6.520   1.655
 6550SOL    HW220550   6.242   6.506   1.817
 6551SOL     OW20551   2.609   5.042   0.857
 6551SOL    HW120552   2.672   5.057   0.782
 6551SOL    HW220553   2.521   5.086   0.836
 6552SOL     OW20554   2.001   4.240   6.925
 6552SOL    HW120555   2.012   4.321   6.983
 6552SOL    HW220556   1.909   4.238   6.887
 6553SOL     OW20557   6.981   2.061   3.759
 6553SOL    HW120558   6.982   1.994   3.684
 6553SOL    HW220559   6.937   2.020   3.839
 6554SOL     OW20560   1.150   2.380   3.566
 6554SOL    HW120561   1.153   2.285   3.598
 6554SOL    HW220562   1.223   2.396   3.500
 6555SOL     OW20563   1.692   4.147   3.286
 6555SOL    HW120564   1.638   4.098   3.217
 6555SOL    HW220565   1.671   4.110   3.377
 6556SOL     OW20566   4.881   3.482   3.002
 6556SOL    HW120567   4.800   3.422   3.002
 6556SOL    HW220568   4.940   3.459   3.079
 6557SOL     OW20569   2.394   0.606   2.561
 6557SOL    HW120570   2.304   0.612   2.518
 6557SOL    HW220571   2.434   0.697   2.568
 6558SOL     OW20572   5.385   5.803   0.853
 6558SOL    HW120573   5.405   5.802   0.755
 6558SOL    HW220574   5.429   5.882   0.895
 6559SOL     OW20575   0.538   1.999   6.150
 6559SOL    HW120576   0.495   2.087   6.130
 6559SOL    HW220577   0.519   1.973   6.245
 6560SOL     OW20578   6.595   5.029   6.697
 6560SOL    HW120579   6.633   5.085   6.771
 6560SOL    HW220580   6.605   4.932   6.720
 6561SOL     OW20581   2.359   5.299   0.746
 6561SOL    HW120582   2.312   5.375   0.702
 6561SOL    HW220583   2.443   5.278   0.696
 6562SOL     OW20584   4.849   2.519   1.838
 6562SOL    HW120585   4.912   2.491   1.911
 6562SOL    HW220586   4.821   2.614   1.853
 6563SOL     OW20587   6.193   5.382   5.517
 6563SOL    HW120588   6.205   5.480   5.498
 6563SOL    HW220589   6.152   5.337   5.438
 6564SOL     OW20590   5.226   3.022   2.457
 6564SOL    HW120591   5.151   3.032   2.523
 6564SOL    HW220592   5.234   3.107   2.405
 6565SOL     OW20593   5.077   6.078   2.521
 6565SOL    HW120594   5.097   6.112   2.430
 6565SOL    HW220595   5.060   6.154   2.583
 6566SOL     OW20596   5.505   5.351   3.774
 6566SOL    HW120597   5.520   5.443   3.739
 6566SOL    HW220598   5.465   5.355   3.865
 6567SOL     OW20599   3.518   0.854   2.892
 6567SOL    HW120600   3.462   0.782   2.933
 6567SOL    HW220601   3.487   0.944   2.925
 6568SOL     OW20602   5.608   0.474   1.046
 6568SOL    HW120603   5.564   0.563   1.040
 6568SOL    HW220604   5.641   0.459   1.139
 6569SOL     OW20605   1.443   4.921   3.393
 6569SOL    HW120606   1.392   4.934   3.308
 6569SOL    HW220607   1.485   5.007   3.420
 6570SOL     OW20608   4.366   0.127   2.319
 6570SOL    HW120609   4.271   0.145   2.344
 6570SOL    HW220610   4.389   0.032   2.340
 6571SOL     OW20611   2.604   6.420   2.674
 6571SOL    HW120612   2.534   6.354   2.649
 6571SOL    HW220613   2.562   6.498   2.721
 6572SOL     OW20614   1.943   5.983   3.713
 6572SOL    HW120615   1.848   6.011   3.700
 6572SOL    HW220616   1.945   5.886   3.739
 6573SOL     OW20617   7.006   2.262   3.515
 6573SOL    HW120618   6.982   2.182   3.570
 6573SOL    HW220619   0.068   2.242   3.461
 6574SOL     OW20620   0.249   5.300   2.106
 6574SOL    HW120621   0.175   5.364   2.083
 6574SOL    HW220622   0.210   5.210   2.128
 6575SOL     OW20623   6.998   1.616   3.599
 6575SOL    HW120624   6.997   1.716   3.601
 6575SOL    HW220625   6.993   1.584   3.505
 6576SOL     OW20626   3.893   6.873   1.647
 6576SOL    HW120627   3.951   6.835   1.576
 6576SOL    HW220628   3.854   6.799   1.702
 6577SOL     OW20629   3.719   1.013   4.854
 6577SOL    HW120630   3.717   0.954   4.773
 6577SOL    HW220631   3.730   1.108   4.826
 6578SOL     OW20632   0.745   5.495   0.249
 6578SOL    HW120633   0.757   5.432   0.173
 6578SOL    HW220634   0.833   5.510   0.294
 6579SOL     OW20635   1.383   1.660   3.751
 6579SOL    HW120636   1.333   1.597   3.811
 6579SOL    HW220637   1.438   1.723   3.806
 6580SOL     OW20638   3.151   2.331   0.303
 6580SOL    HW120639   3.160   2.408   0.366
 6580SOL    HW220640   3.206   2.255   0.336
 6581SOL     OW20641   0.654   2.759   2.405
 6581SOL    HW120642   0.650   2.771   2.306
 6581SOL    HW220643   0.747   2.780   2.437
 6582SOL     OW20644   4.640   0.543   2.842
 6582SOL    HW120645   4.657   0.533   2.941
 6582SOL    HW220646   4.705   0.609   2.804
 6583SOL     OW20647   2.661   4.660   1.087
 6583SOL    HW120648   2.617   4.743   1.120
 6583SOL    HW220649   2.746   4.684   1.039
 6584SOL     OW20650   4.112   3.167   6.188
 6584SOL    HW120651   4.211   3.162   6.171
 6584SOL    HW220652   4.063   3.128   6.111
 6585SOL     OW20653   5.153   6.784   1.586
 6585SOL    HW120654   5.077   6.722   1.603
 6585SOL    HW220655   5.119   6.878   1.583
 6586SOL     OW20656   6.929   1.340   6.571
 6586SOL    HW120657   6.830   1.335   6.585
 6586SOL    HW220658   6.965   1.422   6.616
 6587SOL     OW20659   3.498   4.972   5.090
 6587SOL    HW120660   3.459   4.898   5.144
 6587SOL    HW220661   3.457   4.973   4.999
 6588SOL     OW20662   0.951   1.308   0.148
 6588SOL    HW120663   0.900   1.365   0.084
 6588SOL    HW220664   0.888   1.257   0.206
 6589SOL     OW20665   6.102   6.989   1.616
 6589SOL    HW120666   6.102   0.061   1.655
 6589SOL    HW220667   6.196   6.953   1.616
 6590SOL     OW20668   1.330   6.354   4.709
 6590SOL    HW120669   1.292   6.269   4.674
 6590SOL    HW220670   1.261   6.426   4.705
 6591SOL     OW20671   6.382   3.173   3.508
 6591SOL    HW120672   6.448   3.115   3.460
 6591SOL    HW220673   6.299   3.181   3.454
 6592SOL     OW20674   0.007   0.867   3.839
 6592SOL    HW120675   6.946   0.817   3.809
 6592SOL    HW220676   0.006   0.959   3.799
 6593SOL     OW20677   1.698   0.500   2.900
 6593SOL    HW120678   1.599   0.501   2.886
 6593SOL    HW220679   1.744   0.528   2.816
 6594SOL     OW20680   5.607   0.070   0.016
 6594SOL    HW120681   5.584   0.157   0.059
 6594SOL    HW220682   5.585   0.073   6.939
 6595SOL     OW20683   1.319   1.675   4.982
 6595SOL    HW120684   1.416   1.651   4.980
 6595SOL    HW220685   1.308   1.769   4.951
 6596SOL     OW20686   5.842   0.618   2.908
 6596SOL    HW120687   5.776   0.546   2.930
 6596SOL    HW220688   5.932   0.577   2.893
 6597SOL     OW20689   0.933   4.702   1.086
 6597SOL    HW120690   0.943   4.640   1.008
 6597SOL    HW220691   1.023   4.733   1.116
 6598SOL     OW20692   0.893   5.137   2.297
 6598SOL    HW120693   0.888   5.053   2.243
 6598SOL    HW220694   0.982   5.142   2.343
 6599SOL     OW20695   0.846   5.409   6.229
 6599SOL    HW120696   0.896   5.479   6.179
 6599SOL    HW220697   0.751   5.439   6.241
 6600SOL     OW20698   4.431   6.241   4.952
 6600SOL    HW120699   4.506   6.294   4.989
 6600SOL    HW220700   4.414   6.269   4.857
 6601SOL     OW20701   1.024   2.960   2.083
 6601SOL    HW120702   1.052   2.907   2.003
 6601SOL    HW220703   1.092   3.030   2.103
 6602SOL     OW20704   6.383   5.654   0.859
 6602SOL    HW120705   6.344   5.693   0.775
 6602SOL    HW220706   6.339   5.696   0.938
 6603SOL     OW20707   6.885   4.141   2.352
 6603SOL    HW120708   6.810   4.206   2.364
 6603SOL    HW220709   6.894   4.119   2.254
 6604SOL     OW20710   1.237   5.394   2.357
 6604SOL    HW120711   1.168   5.353   2.298
 6604SOL    HW220712   1.195   5.463   2.416
 6605SOL     OW20713   7.012   4.850   1.077
 6605SOL    HW120714   0.079   4.898   1.089
 6605SOL    HW220715   6.938   4.907   1.113
 6606SOL     OW20716   1.912   4.281   2.543
 6606SOL    HW120717   1.813   4.291   2.549
 6606SOL    HW220718   1.952   4.293   2.633
 6607SOL     OW20719   6.531   3.545   4.223
 6607SOL    HW120720   6.482   3.515   4.142
 6607SOL    HW220721   6.469   3.596   4.283
 6608SOL     OW20722   0.915   0.430   5.397
 6608SOL    HW120723   0.851   0.400   5.467
 6608SOL    HW220724   0.868   0.490   5.332
 6609SOL     OW20725   3.192   2.536   6.794
 6609SOL    HW120726   3.259   2.503   6.861
 6609SOL    HW220727   3.181   2.635   6.804
 6610SOL     OW20728   2.748   6.742   1.326
 6610SOL    HW120729   2.798   6.828   1.338
 6610SOL    HW220730   2.718   6.733   1.231
 6611SOL     OW20731   3.281   1.506   4.777
 6611SOL    HW120732   3.230   1.453   4.844
 6611SOL    HW220733   3.379   1.493   4.791
 6612SOL     OW20734   0.358   6.978   0.248
 6612SOL    HW120735   0.270   6.957   0.291
 6612SOL    HW220736   0.342   0.001   0.159
 6613SOL     OW20737   3.757   6.552   1.509
 6613SOL    HW120738   3.830   6.592   1.454
 6613SOL    HW220739   3.777   6.455   1.525
 6614SOL     OW20740   3.693   4.693   0.924
 6614SOL    HW120741   3.611   4.748   0.915
 6614SOL    HW220742   3.681   4.606   0.876
 6615SOL     OW20743   3.164   5.535   6.210
 6615SOL    HW120744   3.201   5.469   6.144
 6615SOL    HW220745   3.236   5.564   6.272
 6616SOL     OW20746   4.239   1.686   6.836
 6616SOL    HW120747   4.245   1.665   6.739
 6616SOL    HW220748   4.147   1.720   6.858
 6617SOL     OW20749   3.270   1.596   3.811
 6617SOL    HW120750   3.357   1.576   3.766
 6617SOL    HW220751   3.282   1.672   3.875
 6618SOL     OW20752   5.758   3.065   4.181
 6618SOL    HW120753   5.768   3.079   4.082
 6618SOL    HW220754   5.672   3.105   4.212
 6619SOL     OW20755   4.877   5.236   4.193
 6619SOL    HW120756   4.844   5.220   4.286
 6619SOL    HW220757   4.977   5.237   4.192
 6620SOL     OW20758   1.115   2.888   3.297
 6620SOL    HW120759   1.117   2.797   3.339
 6620SOL    HW220760   1.208   2.922   3.285
 6621SOL     OW20761   3.484   3.563   3.641
 6621SOL    HW120762   3.495   3.657   3.608
 6621SOL    HW220763   3.495   3.500   3.564
 6622SOL     OW20764   0.262   4.903   1.060
 6622SOL    HW120765   0.316   4.907   1.144
 6622SOL    HW220766   0.251   4.808   1.032
 6623SOL     OW20767   3.785   3.695   3.317
 6623SOL    HW120768   3.764   3.599   3.298
 6623SOL    HW220769   3.709   3.736   3.367
 6624SOL     OW20770   2.408   2.199   3.122
 6624SOL    HW120771   2.416   2.138   3.044
 6624SOL    HW220772   2.499   2.229   3.151
 6625SOL     OW20773   0.218   3.991   5.066
 6625SOL    HW120774   0.219   4.051   5.146
 6625SOL    HW220775   0.308   3.991   5.023
 6626SOL     OW20776   3.103   5.750   5.335
 6626SOL    HW120777   3.113   5.737   5.433
 6626SOL    HW220778   3.169   5.819   5.304
 6627SOL     OW20779   2.661   6.774   4.065
 6627SOL    HW120780   2.645   6.693   4.009
 6627SOL    HW220781   2.660   6.749   4.162
 6628SOL     OW20782   3.471   0.565   3.196
 6628SOL    HW120783   3.459   0.651   3.245
 6628SOL    HW220784   3.551   0.570   3.137
 6629SOL     OW20785   4.575   5.477   5.178
 6629SOL    HW120786   4.655   5.487   5.119
 6629SOL    HW220787   4.496   5.451   5.122
 6630SOL     OW20788   1.678   0.312   0.285
 6630SOL    HW120789   1.731   0.382   0.334
 6630SOL    HW220790   1.674   0.229   0.341
 6631SOL     OW20791   1.697   2.479   5.799
 6631SOL    HW120792   1.626   2.432   5.748
 6631SOL    HW220793   1.768   2.413   5.826
 6632SOL     OW20794   1.304   0.202   6.662
 6632SOL    HW120795   1.335   0.246   6.578
 6632SOL    HW220796   1.214   0.238   6.687
 6633SOL     OW20797   4.492   6.436   5.956
 6633SOL    HW120798   4.504   6.362   6.021
 6633SOL    HW220799   4.410   6.420   5.901
 6634SOL     OW20800   2.814   2.042   3.368
 6634SOL    HW120801   2.746   1.973   3.345
 6634SOL    HW220802   2.775   2.108   3.433
 6635SOL     OW20803   5.212   5.728   5.917
 6635SOL    HW120804   5.132   5.780   5.887
 6635SOL    HW220805   5.287   5.790   5.937
 6636SOL     OW20806   4.163   0.990   0.780
 6636SOL    HW120807   4.255   1.020   0.754
 6636SOL    HW220808   4.102   0.997   0.700
 6637SOL     OW20809   0.344   1.985   0.092
 6637SOL    HW120810   0.362   2.082   0.103
 6637SOL    HW220811   0.417   1.943   0.037
 6638SOL     OW20812   3.222   3.349   3.562
 6638SOL    HW120813   3.196   3.260   3.599
 6638SOL    HW220814   3.284   3.337   3.485
 6639SOL     OW20815   4.682   2.657   1.523
 6639SOL    HW120816   4.610   2.695   1.580
 6639SOL    HW220817   4.657   2.564   1.496
 6640SOL     OW20818   1.166   4.152   4.694
 6640SOL    HW120819   1.191   4.095   4.616
 6640SOL    HW220820   1.183   4.102   4.779
 6641SOL     OW20821   6.213   2.557   0.023
 6641SOL    HW120822   6.268   2.641   0.025
 6641SOL    HW220823   6.218   2.512   0.112
 6642SOL     OW20824   1.127   5.171   6.030
 6642SOL    HW120825   1.035   5.132   6.039
 6642SOL    HW220826   1.178   5.121   5.960
 6643SOL     OW20827   3.888   5.555   6.125
 6643SOL    HW120828   3.947   5.593   6.055
 6643SOL    HW220829   3.807   5.613   6.136
 6644SOL     OW20830   2.233   0.231   3.789
 6644SOL    HW120831   2.253   0.226   3.691
 6644SOL    HW220832   2.240   0.140   3.829
 6645SOL     OW20833   4.347   2.280   5.911
 6645SOL    HW120834   4.345   2.379   5.894
 6645SOL    HW220835   4.256   2.249   5.938
 6646SOL     OW20836   4.421   0.215   5.895
 6646SOL    HW120837   4.447   0.258   5.981
 6646SOL    HW220838   4.345   0.267   5.854
 6647SOL     OW20839   3.979   4.391   1.211
 6647SOL    HW120840   4.038   4.367   1.133
 6647SOL    HW220841   3.982   4.318   1.279
 6648SOL     OW20842   3.480   5.726   5.590
 6648SOL    HW120843   3.488   5.824   5.604
 6648SOL    HW220844   3.541   5.697   5.516
 6649SOL     OW20845   4.885   2.709   6.006
 6649SOL    HW120846   4.807   2.765   5.977
 6649SOL    HW220847   4.966   2.733   5.952
 6650SOL     OW20848   2.665   1.261   5.555
 6650SOL    HW120849   2.629   1.353   5.565
 6650SOL    HW220850   2.711   1.234   5.640
 6651SOL     OW20851   7.013   1.701   4.775
 6651SOL    HW120852   6.981   1.675   4.866
 6651SOL    HW220853   6.937   1.697   4.711
 6652SOL     OW20854   0.130   4.400   6.632
 6652SOL    HW120855   0.055   4.402   6.566
 6652SOL    HW220856   0.108   4.336   6.706
 6653SOL     OW20857   5.705   4.366   6.922
 6653SOL    HW120858   5.695   4.465   6.919
 6653SOL    HW220859   5.616   4.323   6.933
 6654SOL     OW20860   6.566   2.092   3.091
 6654SOL    HW120861   6.529   1.999   3.094
 6654SOL    HW220862   6.574   2.128   3.183
 6655SOL     OW20863   6.483   6.072   1.253
 6655SOL    HW120864   6.397   6.124   1.256
 6655SOL    HW220865   6.463   5.978   1.224
 6656SOL     OW20866   4.199   0.894   2.551
 6656SOL    HW120867   4.154   0.816   2.593
 6656SOL    HW220868   4.179   0.977   2.604
 6657SOL     OW20869   4.698   1.860   4.911
 6657SOL    HW120870   4.640   1.941   4.895
 6657SOL    HW220871   4.708   1.810   4.825
 6658SOL     OW20872   6.927   5.822   4.829
 6658SOL    HW120873   6.830   5.799   4.822
 6658SOL    HW220874   6.953   5.882   4.754
 6659SOL     OW20875   0.354   5.518   0.719
 6659SOL    HW120876   0.403   5.556   0.640
 6659SOL    HW220877   0.412   5.524   0.800
 6660SOL     OW20878   0.868   0.408   4.220
 6660SOL    HW120879   0.799   0.349   4.179
 6660SOL    HW220880   0.823   0.483   4.269
 6661SOL     OW20881   4.131   6.075   3.760
 6661SOL    HW120882   4.231   6.074   3.759
 6661SOL    HW220883   4.096   5.985   3.736
 6662SOL     OW20884   3.407   0.051   2.528
 6662SOL    HW120885   3.463   7.001   2.570
 6662SOL    HW220886   3.313   0.017   2.518
 6663SOL     OW20887   2.132   4.005   5.510
 6663SOL    HW120888   2.106   4.065   5.586
 6663SOL    HW220889   2.231   4.010   5.497
 6664SOL     OW20890   3.627   0.053   1.861
 6664SOL    HW120891   3.540   0.032   1.907
 6664SOL    HW220892   3.622   0.023   1.766
 6665SOL     OW20893   2.717   0.550   0.188
 6665SOL    HW120894   2.701   0.592   0.277
 6665SOL    HW220895   2.647   0.581   0.124
 6666SOL     OW20896   2.904   6.259   5.652
 6666SOL    HW120897   2.940   6.236   5.743
 6666SOL    HW220898   2.925   6.185   5.588
 6667SOL     OW20899   1.572   5.816   0.080
 6667SOL    HW120900   1.658   5.773   0.108
 6667SOL    HW220901   1.562   5.904   0.126
 6668SOL     OW20902   6.779   3.930   6.829
 6668SOL    HW120903   6.855   3.985   6.792
 6668SOL    HW220904   6.718   3.904   6.754
 6669SOL     OW20905   1.119   2.694   3.493
 6669SOL    HW120906   1.167   2.618   3.537
 6669SOL    HW220907   1.130   2.777   3.549
 6670SOL     OW20908   3.306   3.513   0.350
 6670SOL    HW120909   3.287   3.554   0.440
 6670SOL    HW220910   3.240   3.440   0.333
 6671SOL     OW20911   4.682   4.788   0.797
 6671SOL    HW120912   4.644   4.811   0.707
 6671SOL    HW220913   4.722   4.697   0.793
 6672SOL     OW20914   1.935   3.021   1.232
 6672SOL    HW120915   1.874   2.970   1.292
 6672SOL    HW220916   2.009   2.962   1.201
 6673SOL     OW20917   5.742   3.435   4.343
 6673SOL    HW120918   5.700   3.509   4.290
 6673SOL    HW220919   5.675   3.362   4.358
 6674SOL     OW20920   6.928   0.062   0.441
 6674SOL    HW120921   6.950   0.159   0.451
 6674SOL    HW220922   6.890   0.028   0.527
 6675SOL     OW20923   4.811   1.168   0.165
 6675SOL    HW120924   4.831   1.228   0.087
 6675SOL    HW220925   4.749   1.094   0.135
 6676SOL     OW20926   0.861   3.892   5.136
 6676SOL    HW120927   0.799   3.964   5.168
 6676SOL    HW220928   0.897   3.918   5.046
 6677SOL     OW20929   0.283   2.223   6.546
 6677SOL    HW120930   0.245   2.289   6.611
 6677SOL    HW220931   0.381   2.213   6.562
 6678SOL     OW20932   3.076   4.246   6.579
 6678SOL    HW120933   3.038   4.334   6.609
 6678SOL    HW220934   3.028   4.172   6.625
 6679SOL     OW20935   1.508   0.562   4.186
 6679SOL    HW120936   1.519   0.655   4.223
 6679SOL    HW220937   1.461   0.505   4.252
 6680SOL     OW20938   6.090   4.859   1.546
 6680SOL    HW120939   6.143   4.894   1.624
 6680SOL    HW220940   6.152   4.832   1.473
 6681SOL     OW20941   2.761   5.794   1.285
 6681SOL    HW120942   2.799   5.721   1.342
 6681SOL    HW220943   2.709   5.857   1.342
 6682SOL     OW20944   2.498   5.625   6.519
 6682SOL    HW120945   2.508   5.527   6.505
 6682SOL    HW220946   2.558   5.675   6.457
 6683SOL     OW20947   6.777   5.428   5.667
 6683SOL    HW120948   6.694   5.465   5.624
 6683SOL    HW220949   6.797   5.480   5.750
 6684SOL     OW20950   2.873   5.730   6.483
 6684SOL    HW120951   2.822   5.651   6.450
 6684SOL    HW220952   2.826   5.815   6.456
 6685SOL     OW20953   4.238   2.807   0.842
 6685SOL    HW120954   4.244   2.716   0.883
 6685SOL    HW220955   4.213   2.799   0.746
 6686SOL     OW20956   4.943   4.432   5.419
 6686SOL    HW120957   5.009   4.501   5.391
 6686SOL    HW220958   4.895   4.397   5.339
 6687SOL     OW20959   0.299   2.136   1.058
 6687SOL    HW120960   0.287   2.228   1.093
 6687SOL    HW220961   0.296   2.138   0.958
 6688SOL     OW20962   4.643   6.046   0.830
 6688SOL    HW120963   4.549   6.074   0.849
 6688SOL    HW220964   4.645   5.995   0.744
 6689SOL     OW20965   3.523   4.863   6.238
 6689SOL    HW120966   3.476   4.776   6.222
 6689SOL    HW220967   3.606   4.867   6.183
 6690SOL     OW20968   0.883   0.793   0.213
 6690SOL    HW120969   0.905   0.711   0.159
 6690SOL    HW220970   0.863   0.766   0.308
 6691SOL     OW20971   2.537   1.618   2.012
 6691SOL    HW120972   2.631   1.644   1.990
 6691SOL    HW220973   2.520   1.634   2.109
 6692SOL     OW20974   4.448   6.497   2.137
 6692SOL    HW120975   4.474   6.584   2.096
 6692SOL    HW220976   4.349   6.489   2.140
 6693SOL     OW20977   3.439   1.277   5.783
 6693SOL    HW120978   3.353   1.329   5.787
 6693SOL    HW220979   3.418   1.179   5.778
 6694SOL     OW20980   4.492   3.859   1.710
 6694SOL    HW120981   4.521   3.938   1.656
 6694SOL    HW220982   4.398   3.873   1.741
 6695SOL     OW20983   2.901   2.324   0.448
 6695SOL    HW120984   2.988   2.358   0.411
 6695SOL    HW220985   2.860   2.259   0.384
 6696SOL     OW20986   3.852   2.873   4.980
 6696SOL    HW120987   3.865   2.779   5.010
 6696SOL    HW220988   3.799   2.923   5.049
 6697SOL     OW20989   4.573   1.796   2.405
 6697SOL    HW120990   4.616   1.859   2.341
 6697SOL    HW220991   4.516   1.847   2.469
 6698SOL     OW20992   2.925   3.764   1.326
 6698SOL    HW120993   2.938   3.666   1.343
 6698SOL    HW220994   2.829   3.780   1.302
 6699SOL     OW20995   1.481   3.096   5.850
 6699SOL    HW120996   1.468   3.013   5.797
 6699SOL    HW220997   1.502   3.172   5.788
 6700SOL     OW20998   5.637   0.638   1.334
 6700SOL    HW120999   5.649   0.543   1.308
 6700SOL    HW221000   5.540   0.661   1.336
 6701SOL     OW21001   5.906   6.821   1.709
 6701SOL    HW121002   5.827   6.873   1.676
 6701SOL    HW221003   5.990   6.872   1.692
 6702SOL     OW21004   3.689   3.160   0.529
 6702SOL    HW121005   3.783   3.191   0.543
 6702SOL    HW221006   3.659   3.186   0.437
 6703SOL     OW21007   0.343   1.408   0.342
 6703SOL    HW121008   0.267   1.403   0.407
 6703SOL    HW221009   0.412   1.472   0.376
 6704SOL     OW21010   3.196   6.987   5.709
 6704SOL    HW121011   3.158   0.057   5.690
 6704SOL    HW221012   3.293   6.986   5.684
 6705SOL     OW21013   6.692   4.380   2.337
 6705SOL    HW121014   6.606   4.377   2.286
 6705SOL    HW221015   6.732   4.471   2.331
 6706SOL     OW21016   6.889   6.774   0.517
 6706SOL    HW121017   6.819   6.844   0.506
 6706SOL    HW221018   6.887   6.712   0.438
 6707SOL     OW21019   4.235   1.075   2.976
 6707SOL    HW121020   4.251   0.976   2.968
 6707SOL    HW221021   4.295   1.112   3.046
 6708SOL     OW21022   0.724   2.982   0.454
 6708SOL    HW121023   0.750   3.050   0.386
 6708SOL    HW221024   0.650   3.019   0.511
 6709SOL     OW21025   2.216   4.091   2.432
 6709SOL    HW121026   2.216   4.029   2.353
 6709SOL    HW221027   2.170   4.176   2.407
 6710SOL     OW21028   4.871   1.543   0.731
 6710SOL    HW121029   4.777   1.531   0.764
 6710SOL    HW221030   4.869   1.583   0.640
 6711SOL     OW21031   3.708   5.790   6.118
 6711SOL    HW121032   3.612   5.771   6.100
 6711SOL    HW221033   3.715   5.863   6.186
 6712SOL     OW21034   4.881   4.090   1.284
 6712SOL    HW121035   4.876   4.162   1.352
 6712SOL    HW221036   4.952   4.024   1.310
 6713SOL     OW21037   1.871   4.138   4.225
 6713SOL    HW121038   1.791   4.172   4.276
 6713SOL    HW221039   1.948   4.126   4.288
 6714SOL     OW21040   5.554   1.336   1.558
 6714SOL    HW121041   5.494   1.410   1.526
 6714SOL    HW221042   5.575   1.275   1.482
 6715SOL     OW21043   1.148   0.199   6.291
 6715SOL    HW121044   1.240   0.211   6.253
 6715SOL    HW221045   1.085   0.174   6.217
 6716SOL     OW21046   0.934   5.490   1.325
 6716SOL    HW121047   0.889   5.519   1.410
 6716SOL    HW221048   0.962   5.394   1.333
 6717SOL     OW21049   6.245   1.641   5.860
 6717SOL    HW121050   6.147   1.655   5.848
 6717SOL    HW221051   6.272   1.555   5.816
 6718SOL     OW21052   4.933   1.697   1.133
 6718SOL    HW121053   4.998   1.692   1.208
 6718SOL    HW221054   4.895   1.606   1.115
 6719SOL     OW21055   1.544   1.690   0.335
 6719SOL    HW121056   1.558   1.624   0.409
 6719SOL    HW221057   1.448   1.691   0.309
 6720SOL     OW21058   1.654   1.091   5.676
 6720SOL    HW121059   1.596   1.131   5.747
 6720SOL    HW221060   1.714   1.161   5.638
 6721SOL     OW21061   6.069   6.800   0.376
 6721SOL    HW121062   6.024   6.878   0.333
 6721SOL    HW221063   6.017   6.717   0.356
 6722SOL     OW21064   5.653   4.333   0.514
 6722SOL    HW121065   5.616   4.422   0.540
 6722SOL    HW221066   5.582   4.264   0.523
 6723SOL     OW21067   1.692   3.128   4.423
 6723SOL    HW121068   1.639   3.184   4.360
 6723SOL    HW221069   1.664   3.147   4.517
 6724SOL     OW21070   2.399   4.323   4.300
 6724SOL    HW121071   2.384   4.278   4.212
 6724SOL    HW221072   2.487   4.371   4.299
 6725SOL     OW21073   4.853   3.233   4.019
 6725SOL    HW121074   4.829   3.145   3.978
 6725SOL    HW221075   4.887   3.219   4.111
 6726SOL     OW21076   0.426   1.414   6.507
 6726SOL    HW121077   0.352   1.481   6.519
 6726SOL    HW221078   0.507   1.444   6.557
 6727SOL     OW21079   1.031   4.708   5.261
 6727SOL    HW121080   1.036   4.767   5.180
 6727SOL    HW221081   1.123   4.679   5.288
 6728SOL     OW21082   3.386   1.250   4.349
 6728SOL    HW121083   3.348   1.253   4.441
 6728SOL    HW221084   3.404   1.343   4.317
 6729SOL     OW21085   4.023   0.925   2.153
 6729SOL    HW121086   3.983   0.968   2.072
 6729SOL    HW221087   4.067   0.840   2.127
 6730SOL     OW21088   6.890   1.959   0.727
 6730SOL    HW121089   6.989   1.951   0.719
 6730SOL    HW221090   6.867   1.995   0.817
 6731SOL     OW21091   4.241   0.210   6.257
 6731SOL    HW121092   4.247   0.173   6.350
 6731SOL    HW221093   4.228   0.309   6.262
 6732SOL     OW21094   0.013   4.885   5.424
 6732SOL    HW121095   7.016   4.853   5.517
 6732SOL    HW221096   0.065   4.970   5.426
 6733SOL     OW21097   4.833   4.973   5.044
 6733SOL    HW121098   4.862   4.991   4.950
 6733SOL    HW221099   4.819   5.060   5.091
 6734SOL     OW21100   5.770   2.209   5.265
 6734SOL    HW121101   5.830   2.288   5.250
 6734SOL    HW221102   5.824   2.133   5.300
 6735SOL     OW21103   5.503   2.477   4.331
 6735SOL    HW121104   5.534   2.556   4.279
 6735SOL    HW221105   5.424   2.502   4.387
 6736SOL     OW21106   3.279   3.870   0.813
 6736SOL    HW121107   3.307   3.948   0.759
 6736SOL    HW221108   3.337   3.863   0.895
 6737SOL     OW21109   6.566   3.799   0.930
 6737SOL    HW121110   6.556   3.897   0.909
 6737SOL    HW221111   6.662   3.780   0.954
 6738SOL     OW21112   2.040   6.633   4.600
 6738SOL    HW121113   2.085   6.620   4.688
 6738SOL    HW221114   2.045   6.549   4.547
 6739SOL     OW21115   6.777   6.749   5.652
 6739SOL    HW121116   6.850   6.682   5.639
 6739SOL    HW221117   6.777   6.780   5.747
 6740SOL     OW21118   0.389   6.755   1.942
 6740SOL    HW121119   0.466   6.818   1.954
 6740SOL    HW221120   0.304   6.806   1.947
 6741SOL     OW21121   3.249   1.478   0.116
 6741SOL    HW121122   3.260   1.570   0.078
 6741SOL    HW221123   3.245   1.484   0.216
 6742SOL     OW21124   6.477   4.242   2.999
 6742SOL    HW121125   6.570   4.276   2.983
 6742SOL    HW221126   6.439   4.207   2.913
 6743SOL     OW21127   3.727   3.690   6.704
 6743SOL    HW121128   3.752   3.778   6.663
 6743SOL    HW221129   3.792   3.621   6.673
 6744SOL     OW21130   6.617   6.882   5.474
 6744SOL    HW121131   6.685   6.860   5.544
 6744SOL    HW221132   6.604   6.803   5.414
 6745SOL     OW21133   6.767   4.192   5.430
 6745SOL    HW121134   6.785   4.252   5.352
 6745SOL    HW221135   6.701   4.236   5.491
 6746SOL     OW21136   0.958   2.260   3.058
 6746SOL    HW121137   0.986   2.314   2.978
 6746SOL    HW221138   0.924   2.321   3.129
 6747SOL     OW21139   0.862   6.347   5.001
 6747SOL    HW121140   0.954   6.382   5.023
 6747SOL    HW221141   0.870   6.254   4.966
 6748SOL     OW21142   1.849   0.621   5.037
 6748SOL    HW121143   1.866   0.534   4.991
 6748SOL    HW221144   1.886   0.695   4.981
 6749SOL     OW21145   4.099   5.134   2.280
 6749SOL    HW121146   4.118   5.229   2.257
 6749SOL    HW221147   4.001   5.116   2.268
 6750SOL     OW21148   3.452   1.073   6.057
 6750SOL    HW121149   3.456   1.023   6.144
 6750SOL    HW221150   3.455   1.008   5.981
 6751SOL     OW21151   4.089   0.626   4.323
 6751SOL    HW121152   4.166   0.655   4.267
 6751SOL    HW221153   4.078   0.689   4.400
 6752SOL     OW21154   2.297   4.672   2.691
 6752SOL    HW121155   2.292   4.758   2.639
 6752SOL    HW221156   2.240   4.603   2.646
 6753SOL     OW21157   3.844   3.357   6.800
 6753SOL    HW121158   3.902   3.381   6.878
 6753SOL    HW221159   3.894   3.375   6.715
 6754SOL     OW21160   6.617   0.877   0.502
 6754SOL    HW121161   6.644   0.799   0.446
 6754SOL    HW221162   6.615   0.850   0.598
 6755SOL     OW21163   3.144   5.819   5.881
 6755SOL    HW121164   3.067   5.796   5.940
 6755SOL    HW221165   3.146   5.918   5.866
 6756SOL     OW21166   3.522   3.238   6.551
 6756SOL    HW121167   3.473   3.152   6.561
 6756SOL    HW221168   3.583   3.232   6.472
 6757SOL     OW21169   4.284   0.018   1.776
 6757SOL    HW121170   4.249   6.985   1.853
 6757SOL    HW221171   4.306   6.977   1.700
 6758SOL     OW21172   5.195   3.241   3.242
 6758SOL    HW121173   5.197   3.168   3.173
 6758SOL    HW221174   5.123   3.221   3.309
 6759SOL     OW21175   0.934   1.728   2.742
 6759SOL    HW121176   0.959   1.756   2.835
 6759SOL    HW221177   0.965   1.635   2.725
 6760SOL     OW21178   5.301   2.042   5.553
 6760SOL    HW121179   5.293   1.943   5.559
 6760SOL    HW221180   5.230   2.084   5.609
 6761SOL     OW21181   3.570   1.456   5.101
 6761SOL    HW121182   3.491   1.395   5.092
 6761SOL    HW221183   3.541   1.551   5.097
 6762SOL     OW21184   5.744   5.008   4.788
 6762SOL    HW121185   5.731   5.071   4.712
 6762SOL    HW221186   5.825   5.036   4.841
 6763SOL     OW21187   5.635   6.923   4.272
 6763SOL    HW121188   5.619   6.870   4.189
 6763SOL    HW221189   5.694   6.871   4.334
 6764SOL     OW21190   0.393   4.698   1.743
 6764SOL    HW121191   0.421   4.607   1.712
 6764SOL    HW221192   0.305   4.722   1.702
 6765SOL     OW21193   0.293   3.394   2.159
 6765SOL    HW121194   0.216   3.377   2.098
 6765SOL    HW221195   0.315   3.491   2.159
 6766SOL     OW21196   5.789   0.066   1.570
 6766SOL    HW121197   5.851   0.044   1.495
 6766SOL    HW221198   5.820   0.149   1.616
 6767SOL     OW21199   3.318   0.178   1.114
 6767SOL    HW121200   3.336   0.130   1.199
 6767SOL    HW221201   3.221   0.172   1.092
 6768SOL     OW21202   1.798   6.904   0.218
 6768SOL    HW121203   1.831   6.997   0.206
 6768SOL    HW221204   1.853   6.857   0.287
 6769SOL     OW21205   4.835   2.929   1.497
 6769SOL    HW121206   4.805   2.841   1.534
 6769SOL    HW221207   4.789   3.003   1.547
 6770SOL     OW21208   0.362   1.711   1.758
 6770SOL    HW121209   0.413   1.717   1.843
 6770SOL    HW221210   0.414   1.754   1.684
 6771SOL     OW21211   4.580   1.746   3.067
 6771SOL    HW121212   4.516   1.810   3.109
 6771SOL    HW221213   4.659   1.795   3.031
 6772SOL     OW21214   4.013   1.622   4.091
 6772SOL    HW121215   4.004   1.704   4.035
 6772SOL    HW221216   4.073   1.641   4.169
 6773SOL     OW21217   0.465   3.733   1.437
 6773SOL    HW121218   0.527   3.658   1.461
 6773SOL    HW221219   0.499   3.779   1.355
 6774SOL     OW21220   0.762   2.577   6.296
 6774SOL    HW121221   0.838   2.637   6.316
 6774SOL    HW221222   0.676   2.623   6.319
 6775SOL     OW21223   1.286   4.224   6.862
 6775SOL    HW121224   1.363   4.165   6.887
 6775SOL    HW221225   1.208   4.168   6.836
 6776SOL     OW21226   5.981   5.685   6.956
 6776SOL    HW121227   5.958   5.603   7.009
 6776SOL    HW221228   5.899   5.739   6.939
 6777SOL     OW21229   4.809   5.726   0.059
 6777SOL    HW121230   4.867   5.795   0.104
 6777SOL    HW221231   4.759   5.674   0.129
 6778SOL     OW21232   6.420   5.468   3.349
 6778SOL    HW121233   6.491   5.533   3.377
 6778SOL    HW221234   6.398   5.482   3.253
 6779SOL     OW21235   6.211   3.551   6.397
 6779SOL    HW121236   6.118   3.588   6.393
 6779SOL    HW221237   6.207   3.451   6.395
 6780SOL     OW21238   1.118   2.984   2.411
 6780SOL    HW121239   1.087   3.032   2.329
 6780SOL    HW221240   1.169   2.902   2.384
 6781SOL     OW21241   5.690   4.888   5.638
 6781SOL    HW121242   5.720   4.911   5.545
 6781SOL    HW221243   5.641   4.801   5.637
 6782SOL     OW21244   6.054   0.750   3.210
 6782SOL    HW121245   6.109   0.711   3.136
 6782SOL    HW221246   5.979   0.688   3.231
 6783SOL     OW21247   0.433   5.901   6.558
 6783SOL    HW121248   0.532   5.895   6.547
 6783SOL    HW221249   0.410   5.990   6.597
 6784SOL     OW21250   3.993   3.104   6.998
 6784SOL    HW121251   3.946   3.192   7.001
 6784SOL    HW221252   3.943   3.037   0.032
 6785SOL     OW21253   6.221   5.768   1.995
 6785SOL    HW121254   6.202   5.848   2.052
 6785SOL    HW221255   6.143   5.751   1.934
 6786SOL     OW21256   1.685   3.695   5.764
 6786SOL    HW121257   1.673   3.754   5.684
 6786SOL    HW221258   1.752   3.736   5.826
 6787SOL     OW21259   1.141   3.500   1.595
 6787SOL    HW121260   1.111   3.441   1.520
 6787SOL    HW221261   1.238   3.486   1.611
 6788SOL     OW21262   2.921   4.733   1.021
 6788SOL    HW121263   2.956   4.812   1.071
 6788SOL    HW221264   2.993   4.664   1.013
 6789SOL     OW21265   0.558   5.766   3.376
 6789SOL    HW121266   0.609   5.761   3.462
 6789SOL    HW221267   0.555   5.676   3.333
 6790SOL     OW21268   1.571   2.728   0.881
 6790SOL    HW121269   1.624   2.785   0.818
 6790SOL    HW221270   1.495   2.781   0.919
 6791SOL     OW21271   3.501   4.057   6.157
 6791SOL    HW121272   3.495   4.053   6.256
 6791SOL    HW221273   3.420   4.012   6.117
 6792SOL     OW21274   0.156   4.746   0.111
 6792SOL    HW121275   0.084   4.677   0.103
 6792SOL    HW221276   0.152   4.807   0.032
 6793SOL     OW21277   5.785   1.609   1.605
 6793SOL    HW121278   5.709   1.547   1.590
 6793SOL    HW221279   5.759   1.702   1.579
 6794SOL     OW21280   4.305   1.255   4.696
 6794SOL    HW121281   4.205   1.263   4.703
 6794SOL    HW221282   4.337   1.304   4.615
 6795SOL     OW21283   3.332   6.039   6.970
 6795SOL    HW121284   3.255   5.986   6.935
 6795SOL    HW221285   3.380   6.083   6.894
 6796SOL     OW21286   3.829   1.974   3.021
 6796SOL    HW121287   3.788   1.979   3.113
 6796SOL    HW221288   3.762   2.005   2.954
 6797SOL     OW21289   6.926   2.767   2.100
 6797SOL    HW121290   6.857   2.826   2.141
 6797SOL    HW221291   6.933   2.682   2.151
 6798SOL     OW21292   6.411   0.412   2.401
 6798SOL    HW121293   6.454   0.347   2.463
 6798SOL    HW221294   6.347   0.363   2.341
 6799SOL     OW21295   4.865   5.631   1.940
 6799SOL    HW121296   4.876   5.563   1.868
 6799SOL    HW221297   4.881   5.589   2.029
 6800SOL     OW21298   3.493   3.694   6.823
 6800SOL    HW121299   3.452   3.602   6.827
 6800SOL    HW221300   3.579   3.689   6.772
 6801SOL     OW21301   0.928   2.113   2.797
 6801SOL    HW121302   1.015   2.072   2.767
 6801SOL    HW221303   0.929   2.126   2.896
 6802SOL     OW21304   2.745   4.857   2.731
 6802SOL    HW121305   2.651   4.884   2.751
 6802SOL    HW221306   2.802   4.873   2.811
 6803SOL     OW21307   4.358   2.214   0.354
 6803SOL    HW121308   4.301   2.185   0.431
 6803SOL    HW221309   4.451   2.180   0.366
 6804SOL     OW21310   1.028   0.264   3.474
 6804SOL    HW121311   1.094   0.331   3.508
 6804SOL    HW221312   1.073   0.176   3.460
 6805SOL     OW21313   5.137   0.814   4.888
 6805SOL    HW121314   5.047   0.832   4.848
 6805SOL    HW221315   5.206   0.814   4.815
 6806SOL     OW21316   5.416   6.247   5.329
 6806SOL    HW121317   5.469   6.172   5.366
 6806SOL    HW221318   5.318   6.229   5.343
 6807SOL     OW21319   3.295   3.118   6.838
 6807SOL    HW121320   3.350   3.068   6.771
 6807SOL    HW221321   3.305   3.075   6.928
 6808SOL     OW21322   2.154   3.268   3.803
 6808SOL    HW121323   2.150   3.257   3.902
 6808SOL    HW221324   2.149   3.178   3.760
 6809SOL     OW21325   2.070   3.719   6.533
 6809SOL    HW121326   2.006   3.767   6.473
 6809SOL    HW221327   2.121   3.651   6.479
 6810SOL     OW21328   5.548   1.709   3.021
 6810SOL    HW121329   5.454   1.713   2.988
 6810SOL    HW221330   5.575   1.798   3.058
 6811SOL     OW21331   4.582   5.599   1.915
 6811SOL    HW121332   4.537   5.574   2.000
 6811SOL    HW221333   4.679   5.615   1.931
 6812SOL     OW21334   3.483   2.819   2.392
 6812SOL    HW121335   3.474   2.721   2.376
 6812SOL    HW221336   3.556   2.856   2.335
 6813SOL     OW21337   5.117   3.285   1.232
 6813SOL    HW121338   5.064   3.200   1.236
 6813SOL    HW221339   5.125   3.314   1.137
 6814SOL     OW21340   2.720   3.295   0.566
 6814SOL    HW121341   2.765   3.222   0.515
 6814SOL    HW221342   2.626   3.307   0.532
 6815SOL     OW21343   1.585   6.848   1.568
 6815SOL    HW121344   1.537   6.810   1.647
 6815SOL    HW221345   1.623   6.937   1.593
 6816SOL     OW21346   6.395   3.725   1.473
 6816SOL    HW121347   6.444   3.813   1.470
 6816SOL    HW221348   6.334   3.718   1.394
 6817SOL     OW21349   0.823   2.322   6.285
 6817SOL    HW121350   0.912   2.313   6.331
 6817SOL    HW221351   0.795   2.418   6.284
 6818SOL     OW21352   3.654   5.386   1.554
 6818SOL    HW121353   3.575   5.424   1.505
 6818SOL    HW221354   3.738   5.419   1.511
 6819SOL     OW21355   3.020   1.400   3.815
 6819SOL    HW121356   3.079   1.326   3.784
 6819SOL    HW221357   3.075   1.483   3.829
 6820SOL     OW21358   1.499   5.145   3.938
 6820SOL    HW121359   1.566   5.184   4.001
 6820SOL    HW221360   1.410   5.141   3.983
 6821SOL     OW21361   2.492   2.563   4.267
 6821SOL    HW121362   2.572   2.542   4.211
 6821SOL    HW221363   2.508   2.531   4.361
 6822SOL     OW21364   5.042   2.089   5.706
 6822SOL    HW121365   4.979   2.011   5.699
 6822SOL    HW221366   4.990   2.173   5.720
 6823SOL     OW21367   3.850   3.615   2.545
 6823SOL    HW121368   3.916   3.678   2.503
 6823SOL    HW221369   3.892   3.526   2.558
 6824SOL     OW21370   1.521   4.722   6.274
 6824SOL    HW121371   1.489   4.817   6.270
 6824SOL    HW221372   1.613   4.719   6.311
 6825SOL     OW21373   5.544   6.806   4.060
 6825SOL    HW121374   5.556   6.825   3.963
 6825SOL    HW221375   5.478   6.731   4.071
 6826SOL     OW21376   0.862   2.858   2.825
 6826SOL    HW121377   0.797   2.878   2.899
 6826SOL    HW221378   0.931   2.794   2.858
 6827SOL     OW21379   5.945   6.196   4.980
 6827SOL    HW121380   5.891   6.218   5.061
 6827SOL    HW221381   5.905   6.241   4.900
 6828SOL     OW21382   1.910   1.804   1.438
 6828SOL    HW121383   1.821   1.847   1.421
 6828SOL    HW221384   1.980   1.875   1.445
 6829SOL     OW21385   5.298   4.737   3.629
 6829SOL    HW121386   5.316   4.672   3.703
 6829SOL    HW221387   5.381   4.789   3.609
 6830SOL     OW21388   5.131   2.509   4.277
 6830SOL    HW121389   5.047   2.473   4.236
 6830SOL    HW221390   5.198   2.529   4.205
 6831SOL     OW21391   6.978   1.160   5.783
 6831SOL    HW121392   7.002   1.123   5.693
 6831SOL    HW221393   6.968   1.085   5.849
 6832SOL     OW21394   2.867   5.484   1.824
 6832SOL    HW121395   2.804   5.433   1.883
 6832SOL    HW221396   2.903   5.423   1.754
 6833SOL     OW21397   4.214   5.803   0.103
 6833SOL    HW121398   4.135   5.757   0.144
 6833SOL    HW221399   4.257   5.741   0.037
 6834SOL     OW21400   3.807   5.412   2.356
 6834SOL    HW121401   3.811   5.419   2.256
 6834SOL    HW221402   3.834   5.499   2.396
 6835SOL     OW21403   3.937   7.005   4.700
 6835SOL    HW121404   3.990   6.960   4.772
 6835SOL    HW221405   3.957   6.962   4.612
 6836SOL     OW21406   3.737   6.039   6.257
 6836SOL    HW121407   3.806   6.105   6.287
 6836SOL    HW221408   3.650   6.059   6.302
 6837SOL     OW21409   0.654   2.686   2.695
 6837SOL    HW121410   0.700   2.742   2.765
 6837SOL    HW221411   0.700   2.698   2.607
 6838SOL     OW21412   2.561   1.801   0.748
 6838SOL    HW121413   2.588   1.815   0.652
 6838SOL    HW221414   2.618   1.858   0.807
 6839SOL     OW21415   4.603   0.903   1.665
 6839SOL    HW121416   4.614   0.944   1.756
 6839SOL    HW221417   4.656   0.954   1.598
 6840SOL     OW21418   0.790   1.263   6.506
 6840SOL    HW121419   0.709   1.213   6.476
 6840SOL    HW221420   0.872   1.215   6.474
 6841SOL     OW21421   0.295   3.329   5.985
 6841SOL    HW121422   0.284   3.244   5.934
 6841SOL    HW221423   0.263   3.406   5.929
 6842SOL     OW21424   2.610   4.595   3.023
 6842SOL    HW121425   2.689   4.657   3.017
 6842SOL    HW221426   2.584   4.566   2.931
 6843SOL     OW21427   4.152   0.126   1.078
 6843SOL    HW121428   4.093   0.049   1.052
 6843SOL    HW221429   4.182   0.174   0.995
 6844SOL     OW21430   5.392   0.538   6.186
 6844SOL    HW121431   5.451   0.606   6.143
 6844SOL    HW221432   5.437   0.448   6.184
 6845SOL     OW21433   5.034   2.056   2.823
 6845SOL    HW121434   4.993   2.023   2.908
 6845SOL    HW221435   4.963   2.067   2.754
 6846SOL     OW21436   2.370   3.685   0.112
 6846SOL    HW121437   2.375   3.590   0.082
 6846SOL    HW221438   2.305   3.735   0.056
 6847SOL     OW21439   0.013   2.796   4.829
 6847SOL    HW121440   0.085   2.861   4.803
 6847SOL    HW221441   0.053   2.708   4.849
 6848SOL     OW21442   0.052   5.050   3.335
 6848SOL    HW121443   0.145   5.033   3.301
 6848SOL    HW221444   0.045   5.144   3.368
 6849SOL     OW21445   3.133   4.176   5.947
 6849SOL    HW121446   3.060   4.210   6.007
 6849SOL    HW221447   3.121   4.077   5.933
 6850SOL     OW21448   4.824   0.117   3.757
 6850SOL    HW121449   4.771   0.197   3.729
 6850SOL    HW221450   4.922   0.138   3.747
 6851SOL     OW21451   1.842   3.790   3.157
 6851SOL    HW121452   1.856   3.812   3.254
 6851SOL    HW221453   1.930   3.767   3.115
 6852SOL     OW21454   4.218   4.702   0.054
 6852SOL    HW121455   4.179   4.629   0.111
 6852SOL    HW221456   4.272   4.763   0.111
 6853SOL     OW21457   4.094   4.759   6.512
 6853SOL    HW121458   4.031   4.706   6.456
 6853SOL    HW221459   4.137   4.699   6.580
 6854SOL     OW21460   5.183   5.617   6.458
 6854SOL    HW121461   5.238   5.604   6.376
 6854SOL    HW221462   5.147   5.529   6.488
 6855SOL     OW21463   4.323   4.952   3.150
 6855SOL    HW121464   4.256   5.019   3.182
 6855SOL    HW221465   4.363   4.906   3.229
 6856SOL     OW21466   0.137   2.646   6.742
 6856SOL    HW121467   0.105   2.590   6.819
 6856SOL    HW221468   0.235   2.633   6.730
 6857SOL     OW21469   1.067   4.177   5.728
 6857SOL    HW121470   1.010   4.227   5.663
 6857SOL    HW221471   1.129   4.116   5.679
 6858SOL     OW21472   1.979   4.044   1.982
 6858SOL    HW121473   2.076   4.065   1.974
 6858SOL    HW221474   1.967   3.946   2.000
 6859SOL     OW21475   2.070   1.835   1.947
 6859SOL    HW121476   2.166   1.849   1.921
 6859SOL    HW221477   2.037   1.750   1.906
 6860SOL     OW21478   0.440   6.326   0.907
 6860SOL    HW121479   0.530   6.362   0.885
 6860SOL    HW221480   0.448   6.230   0.934
 6861SOL     OW21481   6.189   3.292   6.293
 6861SOL    HW121482   6.116   3.293   6.226
 6861SOL    HW221483   6.190   3.204   6.340
 6862SOL     OW21484   0.920   4.657   3.932
 6862SOL    HW121485   0.870   4.701   3.857
 6862SOL    HW221486   1.011   4.630   3.900
 6863SOL     OW21487   5.480   1.339   5.263
 6863SOL    HW121488   5.464   1.332   5.361
 6863SOL    HW221489   5.533   1.260   5.231
 6864SOL     OW21490   1.334   3.400   6.293
 6864SOL    HW121491   1.360   3.369   6.202
 6864SOL    HW221492   1.415   3.406   6.351
 6865SOL     OW21493   2.603   0.636   4.135
 6865SOL    HW121494   2.506   0.632   4.158
 6865SOL    HW221495   2.614   0.659   4.038
 6866SOL     OW21496   1.469   4.740   0.536
 6866SOL    HW121497   1.499   4.794   0.458
 6866SOL    HW221498   1.402   4.792   0.588
 6867SOL     OW21499   2.282   3.480   6.560
 6867SOL    HW121500   2.372   3.518   6.581
 6867SOL    HW221501   2.268   3.397   6.614
 6868SOL     OW21502   3.328   5.181   3.787
 6868SOL    HW121503   3.338   5.083   3.806
 6868SOL    HW221504   3.258   5.194   3.718
 6869SOL     OW21505   2.558   0.884   5.894
 6869SOL    HW121506   2.593   0.968   5.853
 6869SOL    HW221507   2.498   0.906   5.971
 6870SOL     OW21508   5.458   2.067   6.899
 6870SOL    HW121509   5.456   2.011   6.982
 6870SOL    HW221510   5.540   2.123   6.897
 6871SOL     OW21511   6.875   3.170   2.443
 6871SOL    HW121512   6.853   3.136   2.352
 6871SOL    HW221513   6.842   3.264   2.453
 6872SOL     OW21514   1.718   4.241   0.934
 6872SOL    HW121515   1.648   4.180   0.969
 6872SOL    HW221516   1.715   4.242   0.834
 6873SOL     OW21517   0.732   4.362   2.998
 6873SOL    HW121518   0.828   4.358   2.969
 6873SOL    HW221519   0.675   4.318   2.929
 6874SOL     OW21520   4.685   6.352   2.882
 6874SOL    HW121521   4.646   6.384   2.968
 6874SOL    HW221522   4.655   6.258   2.864
 6875SOL     OW21523   2.606   0.963   0.739
 6875SOL    HW121524   2.595   0.944   0.641
 6875SOL    HW221525   2.697   0.933   0.768
 6876SOL     OW21526   5.529   5.408   3.419
 6876SOL    HW121527   5.617   5.455   3.406
 6876SOL    HW221528   5.457   5.459   3.372
 6877SOL     OW21529   0.689   3.889   1.959
 6877SOL    HW121530   0.735   3.883   1.871
 6877SOL    HW221531   0.615   3.957   1.953
 6878SOL     OW21532   1.881   0.706   4.665
 6878SOL    HW121533   1.802   0.653   4.694
 6878SOL    HW221534   1.852   0.796   4.633
 6879SOL     OW21535   1.191   1.679   1.139
 6879SOL    HW121536   1.290   1.677   1.125
 6879SOL    HW221537   1.151   1.753   1.084
 6880SOL     OW21538   1.583   5.744   0.458
 6880SOL    HW121539   1.578   5.840   0.486
 6880SOL    HW221540   1.674   5.708   0.476
 6881SOL     OW21541   0.014   3.371   0.452
 6881SOL    HW121542   7.002   3.463   0.430
 6881SOL    HW221543   6.976   3.331   0.523
 6882SOL     OW21544   3.278   6.177   0.354
 6882SOL    HW121545   3.223   6.215   0.428
 6882SOL    HW221546   3.351   6.120   0.392
 6883SOL     OW21547   5.252   0.546   1.438
 6883SOL    HW121548   5.290   0.473   1.382
 6883SOL    HW221549   5.228   0.509   1.528
 6884SOL     OW21550   1.987   4.742   3.337
 6884SOL    HW121551   1.971   4.778   3.245
 6884SOL    HW221552   1.899   4.720   3.380
 6885SOL     OW21553   5.939   4.482   5.039
 6885SOL    HW121554   5.961   4.427   5.120
 6885SOL    HW221555   5.894   4.424   4.971
 6886SOL     OW21556   5.369   3.237   0.317
 6886SOL    HW121557   5.341   3.280   0.403
 6886SOL    HW221558   5.382   3.139   0.332
 6887SOL     OW21559   5.699   5.965   5.877
 6887SOL    HW121560   5.747   5.958   5.965
 6887SOL    HW221561   5.753   5.919   5.806
 6888SOL     OW21562   6.270   4.223   0.326
 6888SOL    HW121563   6.221   4.158   0.268
 6888SOL    HW221564   6.252   4.204   0.422
 6889SOL     OW21565   0.136   2.092   5.559
 6889SOL    HW121566   0.138   2.019   5.490
 6889SOL    HW221567   0.213   2.081   5.621
 6890SOL     OW21568   4.812   4.691   3.777
 6890SOL    HW121569   4.854   4.602   3.760
 6890SOL    HW221570   4.758   4.718   3.697
 6891SOL     OW21571   1.424   1.592   1.096
 6891SOL    HW121572   1.485   1.625   1.024
 6891SOL    HW221573   1.421   1.492   1.093
 6892SOL     OW21574   3.090   0.906   5.050
 6892SOL    HW121575   3.187   0.929   5.065
 6892SOL    HW221576   3.066   0.928   4.955
 6893SOL     OW21577   6.109   3.053   0.360
 6893SOL    HW121578   6.050   3.044   0.280
 6893SOL    HW221579   6.057   3.090   0.436
 6894SOL     OW21580   5.976   4.835   0.202
 6894SOL    HW121581   5.945   4.745   0.233
 6894SOL    HW221582   5.944   4.851   0.109
 6895SOL     OW21583   1.038   6.132   2.292
 6895SOL    HW121584   0.969   6.083   2.238
 6895SOL    HW221585   1.009   6.136   2.388
 6896SOL     OW21586   4.876   1.286   5.685
 6896SOL    HW121587   4.813   1.363   5.672
 6896SOL    HW221588   4.967   1.312   5.652
 6897SOL     OW21589   4.265   2.694   5.395
 6897SOL    HW121590   4.210   2.670   5.315
 6897SOL    HW221591   4.354   2.649   5.389
 6898SOL     OW21592   1.723   6.680   1.397
 6898SOL    HW121593   1.660   6.730   1.457
 6898SOL    HW221594   1.687   6.588   1.380
 6899SOL     OW21595   5.843   6.225   2.435
 6899SOL    HW121596   5.882   6.279   2.510
 6899SOL    HW221597   5.764   6.273   2.397
 6900SOL     OW21598   6.614   3.494   4.890
 6900SOL    HW121599   6.701   3.449   4.906
 6900SOL    HW221600   6.592   3.552   4.968
 6901SOL     OW21601   5.591   4.975   5.994
 6901SOL    HW121602   5.649   4.994   5.915
 6901SOL    HW221603   5.504   5.022   5.984
 6902SOL     OW21604   0.585   5.678   5.741
 6902SOL    HW121605   0.603   5.639   5.650
 6902SOL    HW221606   0.643   5.759   5.754
 6903SOL     OW21607   1.475   6.097   4.927
 6903SOL    HW121608   1.440   6.186   4.958
 6903SOL    HW221609   1.526   6.110   4.842
 6904SOL     OW21610   0.289   0.354   5.879
 6904SOL    HW121611   0.255   0.265   5.906
 6904SOL    HW221612   0.306   0.355   5.780
 6905SOL     OW21613   5.094   6.191   5.846
 6905SOL    HW121614   5.163   6.262   5.839
 6905SOL    HW221615   5.042   6.185   5.761
 6906SOL     OW21616   2.420   0.671   3.651
 6906SOL    HW121617   2.404   0.602   3.721
 6906SOL    HW221618   2.380   0.758   3.680
 6907SOL     OW21619   6.054   1.780   0.719
 6907SOL    HW121620   6.003   1.816   0.797
 6907SOL    HW221621   6.004   1.798   0.635
 6908SOL     OW21622   3.464   5.444   0.551
 6908SOL    HW121623   3.559   5.425   0.527
 6908SOL    HW221624   3.456   5.536   0.589
 6909SOL     OW21625   5.338   4.745   2.497
 6909SOL    HW121626   5.421   4.778   2.542
 6909SOL    HW221627   5.284   4.823   2.466
 6910SOL     OW21628   0.915   2.370   2.663
 6910SOL    HW121629   0.822   2.399   2.636
 6910SOL    HW221630   0.912   2.277   2.699
 6911SOL     OW21631   2.506   6.606   5.597
 6911SOL    HW121632   2.596   6.561   5.600
 6911SOL    HW221633   2.504   6.671   5.521
 6912SOL     OW21634   2.743   3.818   6.794
 6912SOL    HW121635   2.809   3.765   6.740
 6912SOL    HW221636   2.774   3.823   6.888
 6913SOL     OW21637   4.716   5.846   5.833
 6913SOL    HW121638   4.751   5.755   5.851
 6913SOL    HW221639   4.680   5.850   5.739
 6914SOL     OW21640   5.835   2.155   2.176
 6914SOL    HW121641   5.872   2.200   2.257
 6914SOL    HW221642   5.757   2.098   2.202
 6915SOL     OW21643   0.089   3.439   3.377
 6915SOL    HW121644   0.114   3.386   3.458
 6915SOL    HW221645   7.014   3.420   3.352
 6916SOL     OW21646   4.709   6.315   5.775
 6916SOL    HW121647   4.792   6.369   5.788
 6916SOL    HW221648   4.635   6.352   5.831
 6917SOL     OW21649   3.471   5.994   2.156
 6917SOL    HW121650   3.403   5.922   2.173
 6917SOL    HW221651   3.549   5.956   2.106
 6918SOL     OW21652   2.364   3.613   0.506
 6918SOL    HW121653   2.397   3.695   0.460
 6918SOL    HW221654   2.265   3.605   0.494
 6919SOL     OW21655   6.197   6.153   3.229
 6919SOL    HW121656   6.264   6.080   3.244
 6919SOL    HW221657   6.222   6.205   3.148
 6920SOL     OW21658   6.591   2.079   5.388
 6920SOL    HW121659   6.552   2.016   5.320
 6920SOL    HW221660   6.574   2.043   5.480
 6921SOL     OW21661   4.380   0.168   3.945
 6921SOL    HW121662   4.475   0.169   3.976
 6921SOL    HW221663   4.372   0.108   3.865
 6922SOL     OW21664   2.890   5.340   6.777
 6922SOL    HW121665   2.880   5.344   6.677
 6922SOL    HW221666   2.827   5.272   6.814
 6923SOL     OW21667   5.350   0.070   2.662
 6923SOL    HW121668   5.369   0.004   2.589
 6923SOL    HW221669   5.273   0.128   2.635
 6924SOL     OW21670   3.190   5.784   1.921
 6924SOL    HW121671   3.115   5.766   1.857
 6924SOL    HW221672   3.169   5.866   1.975
 6925SOL     OW21673   6.029   6.573   4.764
 6925SOL    HW121674   6.013   6.651   4.703
 6925SOL    HW221675   6.035   6.605   4.858
 6926SOL     OW21676   3.095   1.974   0.481
 6926SOL    HW121677   3.048   2.048   0.530
 6926SOL    HW221678   3.103   1.895   0.540
 6927SOL     OW21679   3.622   0.363   0.218
 6927SOL    HW121680   3.626   0.369   0.118
 6927SOL    HW221681   3.714   0.368   0.256
 6928SOL     OW21682   3.581   5.188   6.928
 6928SOL    HW121683   3.583   5.262   6.995
 6928SOL    HW221684   3.562   5.102   6.974
 6929SOL     OW21685   4.879   4.891   2.356
 6929SOL    HW121686   4.783   4.862   2.357
 6929SOL    HW221687   4.883   4.989   2.378
 6930SOL     OW21688   0.986   6.626   1.542
 6930SOL    HW121689   1.000   6.625   1.443
 6930SOL    HW221690   0.987   6.533   1.577
 6931SOL     OW21691   3.135   3.660   1.009
 6931SOL    HW121692   3.097   3.643   1.100
 6931SOL    HW221693   3.166   3.574   0.969
 6932SOL     OW21694   3.885   0.291   6.192
 6932SOL    HW121695   3.877   0.365   6.125
 6932SOL    HW221696   3.894   0.330   6.284
 6933SOL     OW21697   2.963   5.721   6.136
 6933SOL    HW121698   2.908   5.670   6.069
 6933SOL    HW221699   3.045   5.668   6.159
 6934SOL     OW21700   4.940   5.223   0.184
 6934SOL    HW121701   4.964   5.150   0.248
 6934SOL    HW221702   4.980   5.202   0.094
 6935SOL     OW21703   3.903   6.197   1.814
 6935SOL    HW121704   3.825   6.229   1.868
 6935SOL    HW221705   3.929   6.267   1.748
 6936SOL     OW21706   0.804   1.665   5.983
 6936SOL    HW121707   0.862   1.708   5.913
 6936SOL    HW221708   0.861   1.612   6.045
 6937SOL     OW21709   6.070   5.201   0.524
 6937SOL    HW121710   6.116   5.198   0.435
 6937SOL    HW221711   5.989   5.141   0.521
 6938SOL     OW21712   3.016   0.945   4.788
 6938SOL    HW121713   2.950   1.001   4.739
 6938SOL    HW221714   3.038   0.864   4.733
 6939SOL     OW21715   5.802   3.739   3.899
 6939SOL    HW121716   5.833   3.742   3.994
 6939SOL    HW221717   5.721   3.797   3.888
 6940SOL     OW21718   2.395   6.560   0.735
 6940SOL    HW121719   2.419   6.655   0.715
 6940SOL    HW221720   2.296   6.553   0.751
 6941SOL     OW21721   3.762   3.126   2.624
 6941SOL    HW121722   3.779   3.030   2.602
 6941SOL    HW221723   3.839   3.163   2.676
 6942SOL     OW21724   6.532   4.997   2.781
 6942SOL    HW121725   6.594   4.998   2.702
 6942SOL    HW221726   6.441   5.027   2.753
 6943SOL     OW21727   4.691   5.049   6.447
 6943SOL    HW121728   4.606   5.053   6.500
 6943SOL    HW221729   4.691   4.967   6.391
 6944SOL     OW21730   1.310   4.651   5.288
 6944SOL    HW121731   1.328   4.704   5.205
 6944SOL    HW221732   1.355   4.695   5.366
 6945SOL     OW21733   5.456   1.959   1.093
 6945SOL    HW121734   5.482   1.866   1.119
 6945SOL    HW221735   5.532   2.003   1.044
 6946SOL     OW21736   5.269   6.196   2.727
 6946SOL    HW121737   5.303   6.282   2.690
 6946SOL    HW221738   5.173   6.207   2.754
 6947SOL     OW21739   6.536   4.278   5.319
 6947SOL    HW121740   6.601   4.205   5.299
 6947SOL    HW221741   6.523   4.334   5.238
 6948SOL     OW21742   6.920   4.401   6.493
 6948SOL    HW121743   6.864   4.369   6.417
 6948SOL    HW221744   6.862   4.421   6.572
 6949SOL     OW21745   2.798   1.451   2.740
 6949SOL    HW121746   2.775   1.358   2.767
 6949SOL    HW221747   2.833   1.502   2.819
 6950SOL     OW21748   1.188   1.052   3.850
 6950SOL    HW121749   1.263   0.986   3.836
 6950SOL    HW221750   1.184   1.114   3.771
 6951SOL     OW21751   1.414   3.777   6.773
 6951SOL    HW121752   1.490   3.782   6.708
 6951SOL    HW221753   1.328   3.795   6.724
 6952SOL     OW21754   5.051   5.484   3.434
 6952SOL    HW121755   4.968   5.531   3.464
 6952SOL    HW221756   5.128   5.549   3.433
 6953SOL     OW21757   6.422   1.298   1.498
 6953SOL    HW121758   6.407   1.308   1.596
 6953SOL    HW221759   6.502   1.351   1.471
 6954SOL     OW21760   6.830   4.279   6.165
 6954SOL    HW121761   6.736   4.266   6.134
 6954SOL    HW221762   6.846   4.228   6.249
 6955SOL     OW21763   4.817   5.344   2.898
 6955SOL    HW121764   4.735   5.325   2.952
 6955SOL    HW221765   4.792   5.396   2.816
 6956SOL     OW21766   5.432   5.187   1.885
 6956SOL    HW121767   5.469   5.108   1.835
 6956SOL    HW221768   5.337   5.170   1.908
 6957SOL     OW21769   6.118   5.309   5.266
 6957SOL    HW121770   6.134   5.233   5.203
 6957SOL    HW221771   6.156   5.393   5.228
 6958SOL     OW21772   3.484   3.216   2.592
 6958SOL    HW121773   3.571   3.217   2.641
 6958SOL    HW221774   3.466   3.306   2.552
 6959SOL     OW21775   1.638   4.059   2.728
 6959SOL    HW121776   1.563   4.007   2.769
 6959SOL    HW221777   1.716   4.060   2.791
 6960SOL     OW21778   5.012   4.723   0.922
 6960SOL    HW121779   5.006   4.768   0.833
 6960SOL    HW221780   4.997   4.791   0.994
 6961SOL     OW21781   4.599   2.770   5.578
 6961SOL    HW121782   4.586   2.851   5.521
 6961SOL    HW221783   4.662   2.707   5.533
 6962SOL     OW21784   2.742   6.188   6.845
 6962SOL    HW121785   2.822   6.159   6.794
 6962SOL    HW221786   2.769   6.253   6.916
 6963SOL     OW21787   0.100   6.275   6.793
 6963SOL    HW121788   0.146   6.347   6.740
 6963SOL    HW221789   0.068   6.314   6.879
 6964SOL     OW21790   1.963   1.537   4.951
 6964SOL    HW121791   1.954   1.520   4.853
 6964SOL    HW221792   1.920   1.462   5.001
 6965SOL     OW21793   1.720   1.655   0.001
 6965SOL    HW121794   1.637   1.602   7.004
 6965SOL    HW221795   1.723   1.683   0.098
 6966SOL     OW21796   1.395   6.554   1.261
 6966SOL    HW121797   1.384   6.652   1.248
 6966SOL    HW221798   1.304   6.511   1.267
 6967SOL     OW21799   3.541   0.774   6.942
 6967SOL    HW121800   3.595   0.828   7.006
 6967SOL    HW221801   3.451   0.754   6.983
 6968SOL     OW21802   3.285   0.455   3.030
 6968SOL    HW121803   3.274   0.518   2.953
 6968SOL    HW221804   3.341   0.499   3.101
 6969SOL     OW21805   1.937   2.774   1.631
 6969SOL    HW121806   1.962   2.821   1.716
 6969SOL    HW221807   1.885   2.835   1.572
 6970SOL     OW21808   3.744   5.663   5.517
 6970SOL    HW121809   3.716   5.607   5.595
 6970SOL    HW221810   3.829   5.710   5.538
 6971SOL     OW21811   5.849   3.927   6.959
 6971SOL    HW121812   5.935   3.964   6.923
 6971SOL    HW221813   5.869   3.842   7.009
 6972SOL     OW21814   5.900   3.805   1.649
 6972SOL    HW121815   5.906   3.819   1.550
 6972SOL    HW221816   5.888   3.894   1.694
 6973SOL     OW21817   0.817   1.239   2.873
 6973SOL    HW121818   0.729   1.270   2.907
 6973SOL    HW221819   0.890   1.276   2.931
 6974SOL     OW21820   3.995   3.167   3.189
 6974SOL    HW121821   4.088   3.142   3.163
 6974SOL    HW221822   3.935   3.088   3.178
 6975SOL     OW21823   3.081   5.750   4.483
 6975SOL    HW121824   3.032   5.705   4.558
 6975SOL    HW221825   3.034   5.732   4.397
 6976SOL     OW21826   4.427   5.111   6.006
 6976SOL    HW121827   4.490   5.175   6.051
 6976SOL    HW221828   4.441   5.116   5.907
 6977SOL     OW21829   4.882   4.360   2.341
 6977SOL    HW121830   4.959   4.390   2.285
 6977SOL    HW221831   4.828   4.292   2.292
 6978SOL     OW21832   0.705   3.540   0.610
 6978SOL    HW121833   0.739   3.474   0.544
 6978SOL    HW221834   0.614   3.512   0.641
 6979SOL     OW21835   1.075   3.842   2.578
 6979SOL    HW121836   1.081   3.765   2.514
 6979SOL    HW221837   1.063   3.807   2.671
 6980SOL     OW21838   2.348   5.011   3.113
 6980SOL    HW121839   2.268   5.014   3.174
 6980SOL    HW221840   2.351   4.922   3.067
 6981SOL     OW21841   4.571   3.102   6.593
 6981SOL    HW121842   4.670   3.096   6.608
 6981SOL    HW221843   4.527   3.139   6.675
 6982SOL     OW21844   0.437   0.705   1.932
 6982SOL    HW121845   0.381   0.737   1.856
 6982SOL    HW221846   0.378   0.665   2.002
 6983SOL     OW21847   6.375   0.028   4.304
 6983SOL    HW121848   6.410   0.035   4.211
 6983SOL    HW221849   6.275   0.031   4.302
 6984SOL     OW21850   1.391   3.552   3.036
 6984SOL    HW121851   1.360   3.500   3.116
 6984SOL    HW221852   1.458   3.498   2.985
 6985SOL     OW21853   5.162   2.874   0.197
 6985SOL    HW121854   5.098   2.870   0.273
 6985SOL    HW221855   5.116   2.908   0.115
 6986SOL     OW21856   4.549   5.059   5.770
 6986SOL    HW121857   4.579   5.133   5.710
 6986SOL    HW221858   4.629   5.016   5.812
 6987SOL     OW21859   6.989   1.094   6.483
 6987SOL    HW121860   6.926   1.096   6.406
 6987SOL    HW221861   6.978   1.177   6.537
 6988SOL     OW21862   2.497   1.523   6.765
 6988SOL    HW121863   2.553   1.465   6.706
 6988SOL    HW221864   2.449   1.466   6.832
 6989SOL     OW21865   0.683   3.901   2.344
 6989SOL    HW121866   0.728   3.980   2.387
 6989SOL    HW221867   0.589   3.924   2.321
 6990SOL     OW21868   3.743   3.744   6.360
 6990SOL    HW121869   3.749   3.820   6.295
 6990SOL    HW221870   3.649   3.732   6.389
 6991SOL     OW21871   5.748   3.521   2.968
 6991SOL    HW121872   5.796   3.469   2.897
 6991SOL    HW221873   5.670   3.467   3.001
 6992SOL     OW21874   1.547   4.762   6.758
 6992SOL    HW121875   1.558   4.859   6.781
 6992SOL    HW221876   1.486   4.753   6.679
 6993SOL     OW21877   3.856   2.252   1.650
 6993SOL    HW121878   3.791   2.280   1.721
 6993SOL    HW221879   3.876   2.331   1.591
 6994SOL     OW21880   2.653   1.409   3.165
 6994SOL    HW121881   2.628   1.477   3.233
 6994SOL    HW221882   2.753   1.403   3.159
 6995SOL     OW21883   0.325   4.106   0.784
 6995SOL    HW121884   0.245   4.122   0.842
 6995SOL    HW221885   0.366   4.193   0.758
 6996SOL     OW21886   0.986   1.154   6.325
 6996SOL    HW121887   0.926   1.126   6.250
 6996SOL    HW221888   1.061   1.088   6.333
 6997SOL     OW21889   6.416   6.370   5.967
 6997SOL    HW121890   6.350   6.314   5.916
 6997SOL    HW221891   6.404   6.355   6.065
 6998SOL     OW21892   0.021   0.325   0.569
 6998SOL    HW121893   0.001   0.412   0.613
 6998SOL    HW221894   0.039   0.256   0.640
 6999SOL     OW21895   6.539   2.972   6.957
 6999SOL    HW121896   6.638   2.985   6.960
 6999SOL    HW221897   6.499   3.042   6.898
 7000SOL     OW21898   0.296   5.773   3.479
 7000SOL    HW121899   0.318   5.828   3.560
 7000SOL    HW221900   0.373   5.776   3.415
 7001SOL     OW21901   6.824   1.689   4.569
 7001SOL    HW121902   6.730   1.668   4.542
 7001SOL    HW221903   6.844   1.785   4.550
 7002SOL     OW21904   0.917   4.934   2.671
 7002SOL    HW121905   0.904   4.840   2.704
 7002SOL    HW221906   0.829   4.970   2.638
 7003SOL     OW21907   0.787   4.782   6.759
 7003SOL    HW121908   0.875   4.736   6.748
 7003SOL    HW221909   0.714   4.726   6.721
 7004SOL     OW21910   1.885   6.716   6.578
 7004SOL    HW121911   1.928   6.751   6.661
 7004SOL    HW221912   1.878   6.790   6.510
 7005SOL     OW21913   1.278   5.537   0.378
 7005SOL    HW121914   1.278   5.623   0.327
 7005SOL    HW221915   1.223   5.469   0.330
 7006SOL     OW21916   0.341   0.294   3.587
 7006SOL    HW121917   0.295   0.226   3.530
 7006SOL    HW221918   0.435   0.265   3.604
 7007SOL     OW21919   2.131   0.504   6.177
 7007SOL    HW121920   2.114   0.410   6.208
 7007SOL    HW221921   2.223   0.510   6.138
 7008SOL     OW21922   5.154   3.339   3.828
 7008SOL    HW121923   5.212   3.272   3.782
 7008SOL    HW221924   5.076   3.360   3.769
 7009SOL     OW21925   4.846   5.598   2.336
 7009SOL    HW121926   4.936   5.628   2.367
 7009SOL    HW221927   4.776   5.633   2.399
 7010SOL     OW21928   5.020   3.076   2.627
 7010SOL    HW121929   5.025   3.167   2.667
 7010SOL    HW221930   4.980   3.012   2.693
 7011SOL     OW21931   2.556   6.705   6.160
 7011SOL    HW121932   2.541   6.617   6.206
 7011SOL    HW221933   2.518   6.702   6.068
 7012SOL     OW21934   6.982   3.240   0.686
 7012SOL    HW121935   0.002   3.163   0.735
 7012SOL    HW221936   6.935   3.301   0.750
 7013SOL     OW21937   3.404   2.573   0.192
 7013SOL    HW121938   3.412   2.501   0.261
 7013SOL    HW221939   3.310   2.606   0.190
 7014SOL     OW21940   5.981   3.349   0.312
 7014SOL    HW121941   5.962   3.278   0.379
 7014SOL    HW221942   6.031   3.310   0.235
 7015SOL     OW21943   6.251   6.176   1.381
 7015SOL    HW121944   6.278   6.264   1.341
 7015SOL    HW221945   6.195   6.193   1.462
 7016SOL     OW21946   3.020   4.960   1.153
 7016SOL    HW121947   3.036   5.058   1.162
 7016SOL    HW221948   3.012   4.918   1.243
 7017SOL     OW21949   5.942   4.761   5.685
 7017SOL    HW121950   6.015   4.828   5.677
 7017SOL    HW221951   5.853   4.807   5.685
 7018SOL     OW21952   5.017   3.780   5.115
 7018SOL    HW121953   5.006   3.779   5.214
 7018SOL    HW221954   4.941   3.730   5.073
 7019SOL     OW21955   3.847   5.442   2.079
 7019SOL    HW121956   3.921   5.387   2.039
 7019SOL    HW221957   3.836   5.525   2.026
 7020SOL     OW21958   0.805   1.747   6.286
 7020SOL    HW121959   0.798   1.844   6.266
 7020SOL    HW221960   0.728   1.698   6.245
 7021SOL     OW21961   0.938   1.716   4.780
 7021SOL    HW121962   1.008   1.667   4.728
 7021SOL    HW221963   0.869   1.752   4.717
 7022SOL     OW21964   2.488   3.759   0.703
 7022SOL    HW121965   2.399   3.798   0.729
 7022SOL    HW221966   2.476   3.694   0.629
 7023SOL     OW21967   0.403   1.466   0.827
 7023SOL    HW121968   0.502   1.456   0.836
 7023SOL    HW221969   0.379   1.478   0.731
 7024SOL     OW21970   3.138   4.145   5.064
 7024SOL    HW121971   3.062   4.125   5.126
 7024SOL    HW221972   3.141   4.243   5.046
 7025SOL     OW21973   2.774   0.634   1.292
 7025SOL    HW121974   2.849   0.673   1.239
 7025SOL    HW221975   2.704   0.597   1.231
 7026SOL     OW21976   3.330   1.933   1.243
 7026SOL    HW121977   3.378   1.870   1.303
 7026SOL    HW221978   3.362   2.027   1.259
 7027SOL     OW21979   3.176   4.795   1.927
 7027SOL    HW121980   3.214   4.705   1.904
 7027SOL    HW221981   3.077   4.792   1.920
 7028SOL     OW21982   3.596   0.423   3.671
 7028SOL    HW121983   3.523   0.490   3.685
 7028SOL    HW221984   3.567   0.334   3.705
 7029SOL     OW21985   3.493   3.784   3.488
 7029SOL    HW121986   3.430   3.761   3.414
 7029SOL    HW221987   3.512   3.882   3.486
 7030SOL     OW21988   6.167   0.009   4.806
 7030SOL    HW121989   6.077   6.989   4.789
 7030SOL    HW221990   6.169   0.103   4.773
 7031SOL     OW21991   4.647   5.884   0.610
 7031SOL    HW121992   4.663   5.794   0.569
 7031SOL    HW221993   4.568   5.927   0.566
 7032SOL     OW21994   4.469   4.883   4.528
 7032SOL    HW121995   4.481   4.789   4.560
 7032SOL    HW221996   4.499   4.947   4.599
 7033SOL     OW21997   1.756   1.559   5.719
 7033SOL    HW121998   1.807   1.620   5.781
 7033SOL    HW221999   1.666   1.541   5.758
 7034SOL     OW22000   6.320   1.303   2.313
 7034SOL    HW122001   6.374   1.370   2.365
 7034SOL    HW222002   6.355   1.298   2.219
 7035SOL     OW22003   2.741   1.747   1.722
 7035SOL    HW122004   2.798   1.829   1.708
 7035SOL    HW222005   2.756   1.711   1.814
 7036SOL     OW22006   5.943   1.468   1.793
 7036SOL    HW122007   5.888   1.515   1.724
 7036SOL    HW222008   5.967   1.532   1.866
 7037SOL     OW22009   1.730   0.315   6.290
 7037SOL    HW122010   1.787   0.338   6.211
 7037SOL    HW222011   1.784   0.265   6.357
 7038SOL     OW22012   0.745   4.607   0.709
 7038SOL    HW122013   0.687   4.601   0.628
 7038SOL    HW222014   0.816   4.677   0.693
 7039SOL     OW22015   6.768   0.220   1.534
 7039SOL    HW122016   6.747   0.128   1.568
 7039SOL    HW222017   6.757   0.222   1.434
 7040SOL     OW22018   5.708   2.245   4.984
 7040SOL    HW122019   5.771   2.182   4.937
 7040SOL    HW222020   5.708   2.225   5.082
 7041SOL     OW22021   1.271   0.304   3.758
 7041SOL    HW122022   1.362   0.340   3.776
 7041SOL    HW222023   1.274   0.243   3.678
 7042SOL     OW22024   5.930   6.209   5.426
 7042SOL    HW122025   5.957   6.113   5.417
 7042SOL    HW222026   5.991   6.255   5.490
 7043SOL     OW22027   1.656   5.667   1.211
 7043SOL    HW122028   1.665   5.675   1.310
 7043SOL    HW222029   1.704   5.743   1.167
 7044SOL     OW22030   4.353   6.134   5.180
 7044SOL    HW122031   4.392   6.160   5.092
 7044SOL    HW222032   4.265   6.090   5.166
 7045SOL     OW22033   5.893   5.937   1.744
 7045SOL    HW122034   5.935   5.863   1.797
 7045SOL    HW222035   5.794   5.939   1.762
 7046SOL     OW22036   2.176   1.742   3.228
 7046SOL    HW122037   2.215   1.822   3.272
 7046SOL    HW222038   2.093   1.768   3.179
 7047SOL     OW22039   1.151   6.952   0.778
 7047SOL    HW122040   1.095   7.009   0.837
 7047SOL    HW222041   1.239   6.934   0.821
 7048SOL     OW22042   0.709   6.394   3.684
 7048SOL    HW122043   0.621   6.426   3.719
 7048SOL    HW222044   0.767   6.473   3.661
 7049SOL     OW22045   3.702   1.645   4.476
 7049SOL    HW122046   3.638   1.706   4.524
 7049SOL    HW222047   3.658   1.607   4.395
 7050SOL     OW22048   3.908   4.223   0.376
 7050SOL    HW122049   3.886   4.125   0.375
 7050SOL    HW222050   4.004   4.235   0.348
 7051SOL     OW22051   1.135   2.351   1.822
 7051SOL    HW122052   1.214   2.378   1.766
 7051SOL    HW222053   1.115   2.255   1.805
 7052SOL     OW22054   4.817   2.334   2.708
 7052SOL    HW122055   4.830   2.247   2.661
 7052SOL    HW222056   4.720   2.359   2.706
 7053SOL     OW22057   1.253   4.902   3.660
 7053SOL    HW122058   1.322   4.915   3.589
 7053SOL    HW222059   1.292   4.850   3.735
 7054SOL     OW22060   5.173   0.000   6.944
 7054SOL    HW122061   5.257   7.004   6.995
 7054SOL    HW222062   5.168   0.096   6.916
 7055SOL     OW22063   2.446   0.214   0.405
 7055SOL    HW122064   2.501   0.154   0.347
 7055SOL    HW222065   2.420   0.295   0.354
 7056SOL     OW22066   6.823   5.288   0.959
 7056SOL    HW122067   6.773   5.358   0.908
 7056SOL    HW222068   6.870   5.330   1.037
 7057SOL     OW22069   3.232   5.890   4.682
 7057SOL    HW122070   3.328   5.887   4.707
 7057SOL    HW222071   3.185   5.810   4.719
 7058SOL     OW22072   6.538   1.778   6.401
 7058SOL    HW122073   6.473   1.740   6.336
 7058SOL    HW222074   6.489   1.814   6.480
 7059SOL     OW22075   2.008   0.274   5.154
 7059SOL    HW122076   1.983   0.264   5.250
 7059SOL    HW222077   2.012   0.184   5.111
 7060SOL     OW22078   3.366   2.450   1.718
 7060SOL    HW122079   3.427   2.502   1.658
 7060SOL    HW222080   3.277   2.496   1.723
 7061SOL     OW22081   1.669   0.992   1.577
 7061SOL    HW122082   1.651   1.002   1.480
 7061SOL    HW222083   1.720   1.072   1.610
 7062SOL     OW22084   3.291   0.770   4.642
 7062SOL    HW122085   3.206   0.720   4.630
 7062SOL    HW222086   3.335   0.782   4.553
 7063SOL     OW22087   0.323   1.422   1.790
 7063SOL    HW122088   0.330   1.518   1.764
 7063SOL    HW222089   0.380   1.404   1.870
 7064SOL     OW22090   2.988   1.439   5.553
 7064SOL    HW122091   2.913   1.501   5.528
 7064SOL    HW222092   2.989   1.361   5.492
 7065SOL     OW22093   3.767   6.329   4.938
 7065SOL    HW122094   3.786   6.233   4.961
 7065SOL    HW222095   3.828   6.358   4.864
 7066SOL     OW22096   3.385   0.208   1.485
 7066SOL    HW122097   3.428   0.129   1.439
 7066SOL    HW222098   3.352   0.272   1.416
 7067SOL     OW22099   2.372   4.020   6.120
 7067SOL    HW122100   2.356   3.952   6.191
 7067SOL    HW222101   2.471   4.036   6.111
 7068SOL     OW22102   5.209   4.277   4.427
 7068SOL    HW122103   5.217   4.209   4.500
 7068SOL    HW222104   5.221   4.232   4.338
 7069SOL     OW22105   5.126   0.633   5.701
 7069SOL    HW122106   5.027   0.642   5.697
 7069SOL    HW222107   5.150   0.548   5.748
 7070SOL     OW22108   0.466   0.709   5.673
 7070SOL    HW122109   0.384   0.677   5.721
 7070SOL    HW222110   0.497   0.795   5.713
 7071SOL     OW22111   4.497   6.100   6.591
 7071SOL    HW122112   4.465   6.010   6.563
 7071SOL    HW222113   4.464   6.169   6.526
 7072SOL     OW22114   0.795   3.771   6.449
 7072SOL    HW122115   0.887   3.794   6.481
 7072SOL    HW222116   0.730   3.788   6.523
 7073SOL     OW22117   4.735   1.060   3.570
 7073SOL    HW122118   4.699   0.967   3.569
 7073SOL    HW222119   4.740   1.095   3.476
 7074SOL     OW22120   5.827   4.167   2.286
 7074SOL    HW122121   5.873   4.078   2.291
 7074SOL    HW222122   5.896   4.239   2.282
 7075SOL     OW22123   2.444   5.219   2.707
 7075SOL    HW122124   2.379   5.295   2.707
 7075SOL    HW222125   2.502   5.225   2.788
 7076SOL     OW22126   5.725   1.850   1.280
 7076SOL    HW122127   5.799   1.795   1.242
 7076SOL    HW222128   5.732   1.851   1.380
 7077SOL     OW22129   3.347   6.079   1.383
 7077SOL    HW122130   3.346   5.979   1.382
 7077SOL    HW222131   3.261   6.112   1.421
 7078SOL     OW22132   6.806   1.110   6.281
 7078SOL    HW122133   6.857   1.155   6.207
 7078SOL    HW222134   6.765   1.179   6.340
 7079SOL     OW22135   2.110   5.562   4.539
 7079SOL    HW122136   2.028   5.607   4.574
 7079SOL    HW222137   2.101   5.463   4.551
 7080SOL     OW22138   4.270   1.555   6.324
 7080SOL    HW122139   4.297   1.488   6.394
 7080SOL    HW222140   4.298   1.522   6.234
 7081SOL     OW22141   2.245   6.576   0.414
 7081SOL    HW122142   2.227   6.545   0.320
 7081SOL    HW222143   2.332   6.537   0.445
 7082SOL     OW22144   0.656   3.651   2.091
 7082SOL    HW122145   0.561   3.659   2.121
 7082SOL    HW222146   0.686   3.740   2.055
 7083SOL     OW22147   5.024   3.085   3.004
 7083SOL    HW122148   4.972   3.070   3.088
 7083SOL    HW222149   5.116   3.047   3.014
 7084SOL     OW22150   1.030   5.034   0.676
 7084SOL    HW122151   0.930   5.030   0.680
 7084SOL    HW222152   1.058   5.088   0.597
 7085SOL     OW22153   0.373   3.867   2.576
 7085SOL    HW122154   0.291   3.923   2.590
 7085SOL    HW222155   0.354   3.799   2.505
 7086SOL     OW22156   4.903   0.650   3.544
 7086SOL    HW122157   4.983   0.622   3.491
 7086SOL    HW222158   4.878   0.744   3.520
 7087SOL     OW22159   5.320   2.441   3.534
 7087SOL    HW122160   5.369   2.529   3.534
 7087SOL    HW222161   5.368   2.378   3.473
 7088SOL     OW22162   5.779   2.514   5.165
 7088SOL    HW122163   5.862   2.497   5.113
 7088SOL    HW222164   5.716   2.570   5.111
 7089SOL     OW22165   2.651   5.570   0.694
 7089SOL    HW122166   2.659   5.660   0.651
 7089SOL    HW222167   2.660   5.498   0.625
 7090SOL     OW22168   4.538   2.791   1.009
 7090SOL    HW122169   4.446   2.765   1.039
 7090SOL    HW222170   4.589   2.710   0.984
 7091SOL     OW22171   6.125   6.716   0.055
 7091SOL    HW122172   6.138   6.643   0.121
 7091SOL    HW222173   6.076   6.792   0.098
 7092SOL     OW22174   4.000   0.186   6.559
 7092SOL    HW122175   3.935   0.155   6.490
 7092SOL    HW222176   4.091   0.149   6.540
 7093SOL     OW22177   3.586   3.446   0.435
 7093SOL    HW122178   3.488   3.453   0.417
 7093SOL    HW222179   3.636   3.444   0.349
 7094SOL     OW22180   4.594   1.179   5.396
 7094SOL    HW122181   4.603   1.272   5.432
 7094SOL    HW222182   4.681   1.130   5.408
 7095SOL     OW22183   2.757   4.848   3.958
 7095SOL    HW122184   2.697   4.833   3.880
 7095SOL    HW222185   2.851   4.863   3.927
 7096SOL     OW22186   6.409   6.427   0.708
 7096SOL    HW122187   6.451   6.499   0.654
 7096SOL    HW222188   6.477   6.358   0.731
 7097SOL     OW22189   5.229   1.524   2.684
 7097SOL    HW122190   5.193   1.456   2.620
 7097SOL    HW222191   5.252   1.608   2.634
 7098SOL     OW22192   0.549   1.300   2.925
 7098SOL    HW122193   0.511   1.235   2.859
 7098SOL    HW222194   0.481   1.318   2.996
 7099SOL     OW22195   3.477   1.993   4.444
 7099SOL    HW122196   3.534   2.064   4.486
 7099SOL    HW222197   3.381   2.020   4.449
 7100SOL     OW22198   0.248   4.226   1.273
 7100SOL    HW122199   0.195   4.308   1.294
 7100SOL    HW222200   0.330   4.251   1.221
 7101SOL     OW22201   2.768   5.988   4.382
 7101SOL    HW122202   2.762   5.912   4.447
 7101SOL    HW222203   2.824   6.061   4.422
 7102SOL     OW22204   5.556   1.239   2.886
 7102SOL    HW122205   5.527   1.326   2.926
 7102SOL    HW222206   5.636   1.254   2.827
 7103SOL     OW22207   5.445   3.836   4.022
 7103SOL    HW122208   5.519   3.830   4.089
 7103SOL    HW222209   5.439   3.929   3.987
 7104SOL     OW22210   5.155   2.901   4.670
 7104SOL    HW122211   5.144   2.816   4.618
 7104SOL    HW222212   5.240   2.896   4.723
 7105SOL     OW22213   3.688   4.085   2.733
 7105SOL    HW122214   3.769   4.062   2.678
 7105SOL    HW222215   3.700   4.049   2.826
 7106SOL     OW22216   2.853   1.968   2.133
 7106SOL    HW122217   2.909   2.043   2.098
 7106SOL    HW222218   2.761   2.001   2.152
 7107SOL     OW22219   3.722   1.258   6.559
 7107SOL    HW122220   3.684   1.293   6.644
 7107SOL    HW222221   3.753   1.163   6.572
 7108SOL     OW22222   3.641   0.349   1.855
 7108SOL    HW122223   3.626   0.253   1.831
 7108SOL    HW222224   3.576   0.377   1.925
 7109SOL     OW22225   3.512   5.534   5.927
 7109SOL    HW122226   3.583   5.467   5.904
 7109SOL    HW222227   3.484   5.582   5.844
 7110SOL     OW22228   2.559   6.064   5.117
 7110SOL    HW122229   2.598   6.074   5.026
 7110SOL    HW222230   2.506   5.979   5.122
 7111SOL     OW22231   6.777   1.105   4.746
 7111SOL    HW122232   6.812   1.012   4.735
 7111SOL    HW222233   6.697   1.103   4.807
 7112SOL     OW22234   0.335   5.121   5.302
 7112SOL    HW122235   0.367   5.050   5.364
 7112SOL    HW222236   0.378   5.208   5.326
 7113SOL     OW22237   3.651   6.799   4.987
 7113SOL    HW122238   3.670   6.847   4.901
 7113SOL    HW222239   3.553   6.801   5.004
 7114SOL     OW22240   5.942   3.819   1.386
 7114SOL    HW122241   5.868   3.753   1.373
 7114SOL    HW222242   5.944   3.882   1.309
 7115SOL     OW22243   4.698   2.911   6.159
 7115SOL    HW122244   4.762   2.967   6.106
 7115SOL    HW222245   4.607   2.918   6.117
 7116SOL     OW22246   6.494   4.480   5.156
 7116SOL    HW122247   6.571   4.543   5.165
 7116SOL    HW222248   6.412   4.531   5.131
 7117SOL     OW22249   4.779   7.000   3.060
 7117SOL    HW122250   4.735   6.928   3.006
 7117SOL    HW222251   4.749   0.070   3.027
 7118SOL     OW22252   4.403   4.224   5.914
 7118SOL    HW122253   4.420   4.210   6.012
 7118SOL    HW222254   4.480   4.272   5.873
 7119SOL     OW22255   3.056   6.580   4.735
 7119SOL    HW122256   3.149   6.580   4.698
 7119SOL    HW222257   3.019   6.486   4.733
 7120SOL     OW22258   4.287   1.366   1.048
 7120SOL    HW122259   4.199   1.403   1.016
 7120SOL    HW222260   4.279   1.267   1.060
 7121SOL     OW22261   1.044   6.247   2.001
 7121SOL    HW122262   1.111   6.306   1.957
 7121SOL    HW222263   1.059   6.247   2.099
 7122SOL     OW22264   3.904   1.858   6.755
 7122SOL    HW122265   3.903   1.822   6.662
 7122SOL    HW222266   3.967   1.935   6.760
 7123SOL     OW22267   5.038   4.698   6.013
 7123SOL    HW122268   5.042   4.620   6.075
 7123SOL    HW222269   5.038   4.666   5.918
 7124SOL     OW22270   2.859   3.115   0.421
 7124SOL    HW122271   2.850   3.092   0.324
 7124SOL    HW222272   2.889   3.035   0.472
 7125SOL     OW22273   1.029   6.607   1.933
 7125SOL    HW122274   0.956   6.569   1.877
 7125SOL    HW222275   1.078   6.678   1.882
 7126SOL     OW22276   4.156   4.569   1.303
 7126SOL    HW122277   4.070   4.539   1.262
 7126SOL    HW222278   4.212   4.489   1.326
 7127SOL     OW22279   2.800   5.947   6.098
 7127SOL    HW122280   2.843   5.862   6.127
 7127SOL    HW222281   2.860   6.024   6.121
 7128SOL     OW22282   3.427   4.256   6.974
 7128SOL    HW122283   3.451   4.163   6.945
 7128SOL    HW222284   3.500   4.293   0.010
 7129SOL     OW22285   0.057   0.288   6.859
 7129SOL    HW122286   0.008   0.272   6.945
 7129SOL    HW222287   0.154   0.305   6.879
 7130SOL     OW22288   3.677   0.397   4.195
 7130SOL    HW122289   3.588   0.428   4.162
 7130SOL    HW222290   3.716   0.467   4.255
 7131SOL     OW22291   2.149   1.458   2.087
 7131SOL    HW122292   2.212   1.510   2.030
 7131SOL    HW222293   2.071   1.428   2.032
 7132SOL     OW22294   4.756   4.426   1.987
 7132SOL    HW122295   4.668   4.389   2.017
 7132SOL    HW222296   4.755   4.525   1.996
 7133SOL     OW22297   4.795   6.041   2.868
 7133SOL    HW122298   4.744   6.036   2.953
 7133SOL    HW222299   4.770   5.964   2.809
 7134SOL     OW22300   4.534   5.278   0.124
 7134SOL    HW122301   4.619   5.225   0.132
 7134SOL    HW222302   4.551   5.358   0.066
 7135SOL     OW22303   2.158   4.374   1.211
 7135SOL    HW122304   2.064   4.408   1.207
 7135SOL    HW222305   2.198   4.394   1.300
 7136SOL     OW22306   1.225   2.638   1.693
 7136SOL    HW122307   1.221   2.682   1.783
 7136SOL    HW222308   1.316   2.654   1.654
 7137SOL     OW22309   2.960   1.116   2.359
 7137SOL    HW122310   2.973   1.208   2.397
 7137SOL    HW222311   2.993   1.115   2.264
 7138SOL     OW22312   0.249   3.289   6.850
 7138SOL    HW122313   0.266   3.356   6.778
 7138SOL    HW222314   0.222   3.335   6.934
 7139SOL     OW22315   5.643   5.896   1.161
 7139SOL    HW122316   5.651   5.839   1.079
 7139SOL    HW222317   5.579   5.853   1.225
 7140SOL     OW22318   6.935   5.038   0.205
 7140SOL    HW122319   6.962   4.948   0.239
 7140SOL    HW222320   6.841   5.058   0.236
 7141SOL     OW22321   3.490   1.219   1.245
 7141SOL    HW122322   3.413   1.195   1.186
 7141SOL    HW222323   3.471   1.190   1.338
 7142SOL     OW22324   4.809   0.055   5.445
 7142SOL    HW122325   4.761   0.036   5.359
 7142SOL    HW222326   4.899   0.094   5.425
 7143SOL     OW22327   3.411   2.667   6.017
 7143SOL    HW122328   3.343   2.710   6.076
 7143SOL    HW222329   3.409   2.711   5.927
 7144SOL     OW22330   0.033   1.036   5.549
 7144SOL    HW122331   6.973   1.032   5.489
 7144SOL    HW222332   0.090   0.955   5.534
 7145SOL     OW22333   6.217   2.426   6.173
 7145SOL    HW122334   6.200   2.409   6.270
 7145SOL    HW222335   6.130   2.445   6.127
 7146SOL     OW22336   0.435   1.910   4.636
 7146SOL    HW122337   0.399   2.003   4.647
 7146SOL    HW222338   0.387   1.848   4.698
 7147SOL     OW22339   6.735   0.189   1.206
 7147SOL    HW122340   6.827   0.224   1.188
 7147SOL    HW222341   6.680   0.195   1.122
 7148SOL     OW22342   5.809   6.991   0.798
 7148SOL    HW122343   5.884   0.010   0.852
 7148SOL    HW222344   5.726   0.023   0.814
 7149SOL     OW22345   5.396   4.130   6.089
 7149SOL    HW122346   5.322   4.082   6.042
 7149SOL    HW222347   5.471   4.147   6.025
 7150SOL     OW22348   2.941   2.386   6.755
 7150SOL    HW122349   2.985   2.299   6.735
 7150SOL    HW222350   3.009   2.458   6.758
 7151SOL     OW22351   5.342   1.471   6.858
 7151SOL    HW122352   5.272   1.456   6.928
 7151SOL    HW222353   5.407   1.395   6.859
 7152SOL     OW22354   4.703   0.303   5.491
 7152SOL    HW122355   4.692   0.323   5.588
 7152SOL    HW222356   4.756   0.219   5.480
 7153SOL     OW22357   3.739   5.839   0.762
 7153SOL    HW122358   3.758   5.799   0.851
 7153SOL    HW222359   3.677   5.917   0.773
 7154SOL     OW22360   5.269   0.682   1.736
 7154SOL    HW122361   5.228   0.703   1.824
 7154SOL    HW222362   5.199   0.647   1.674
 7155SOL     OW22363   1.857   0.283   1.291
 7155SOL    HW122364   1.915   0.307   1.214
 7155SOL    HW222365   1.868   0.351   1.364
 7156SOL     OW22366   6.214   3.698   5.776
 7156SOL    HW122367   6.168   3.656   5.854
 7156SOL    HW222368   6.304   3.731   5.804
 7157SOL     OW22369   0.284   3.831   5.961
 7157SOL    HW122370   0.328   3.908   6.007
 7157SOL    HW222371   0.342   3.799   5.886
 7158SOL     OW22372   5.311   0.014   3.893
 7158SOL    HW122373   5.276   6.943   3.913
 7158SOL    HW222374   5.348   0.015   3.800
 7159SOL     OW22375   0.675   6.463   3.096
 7159SOL    HW122376   0.639   6.385   3.045
 7159SOL    HW222377   0.722   6.430   3.178
 7160SOL     OW22378   6.027   6.765   2.444
 7160SOL    HW122379   5.966   6.830   2.490
 7160SOL    HW222380   6.072   6.811   2.368
 7161SOL     OW22381   4.142   3.528   2.220
 7161SOL    HW122382   4.223   3.585   2.210
 7161SOL    HW222383   4.062   3.577   2.186
 7162SOL     OW22384   0.002   6.008   0.792
 7162SOL    HW122385   0.036   5.967   0.876
 7162SOL    HW222386   6.985   6.099   0.811
 7163SOL     OW22387   6.491   0.265   1.106
 7163SOL    HW122388   6.438   0.180   1.116
 7163SOL    HW222389   6.435   0.343   1.132
 7164SOL     OW22390   1.569   0.559   6.999
 7164SOL    HW122391   1.550   0.542   6.902
 7164SOL    HW222392   1.513   0.497   0.035
 7165SOL     OW22393   4.872   2.278   6.729
 7165SOL    HW122394   4.913   2.216   6.663
 7165SOL    HW222395   4.853   2.229   6.814
 7166SOL     OW22396   6.896   5.609   5.370
 7166SOL    HW122397   6.949   5.655   5.442
 7166SOL    HW222398   6.799   5.610   5.395
 7167SOL     OW22399   0.306   3.246   5.620
 7167SOL    HW122400   0.350   3.277   5.704
 7167SOL    HW222401   0.220   3.295   5.607
 7168SOL     OW22402   1.279   1.325   2.445
 7168SOL    HW122403   1.279   1.422   2.419
 7168SOL    HW222404   1.371   1.288   2.432
 7169SOL     OW22405   1.661   4.399   5.940
 7169SOL    HW122406   1.698   4.352   5.860
 7169SOL    HW222407   1.571   4.437   5.918
 7170SOL     OW22408   3.991   1.419   1.095
 7170SOL    HW122409   4.039   1.439   1.181
 7170SOL    HW222410   3.940   1.334   1.104
 7171SOL     OW22411   0.041   4.488   0.958
 7171SOL    HW122412   6.995   4.496   1.032
 7171SOL    HW222413   7.013   4.495   0.870
 7172SOL     OW22414   0.414   2.431   3.546
 7172SOL    HW122415   0.507   2.414   3.578
 7172SOL    HW222416   0.412   2.425   3.446
 7173SOL     OW22417   3.857   5.307   5.070
 7173SOL    HW122418   3.774   5.258   5.097
 7173SOL    HW222419   3.921   5.311   5.147
 7174SOL     OW22420   6.345   3.909   2.178
 7174SOL    HW122421   6.424   3.850   2.163
 7174SOL    HW222422   6.267   3.855   2.209
 7175SOL     OW22423   6.234   3.490   6.006
 7175SOL    HW122424   6.333   3.495   6.017
 7175SOL    HW222425   6.210   3.402   5.965
 7176SOL     OW22426   0.412   0.941   6.511
 7176SOL    HW122427   0.496   0.996   6.509
 7176SOL    HW222428   0.416   0.872   6.439
 7177SOL     OW22429   1.398   5.724   3.267
 7177SOL    HW122430   1.488   5.720   3.309
 7177SOL    HW222431   1.328   5.734   3.338
 7178SOL     OW22432   1.413   6.319   5.320
 7178SOL    HW122433   1.438   6.415   5.335
 7178SOL    HW222434   1.343   6.293   5.387
 7179SOL     OW22435   4.514   4.848   6.027
 7179SOL    HW122436   4.608   4.877   6.013
 7179SOL    HW222437   4.452   4.923   6.004
 7180SOL     OW22438   1.481   2.980   1.964
 7180SOL    HW122439   1.581   2.982   1.959
 7180SOL    HW222440   1.449   3.052   2.025
 7181SOL     OW22441   2.482   0.589   0.033
 7181SOL    HW122442   2.513   0.683   0.016
 7181SOL    HW222443   2.406   0.568   6.992
 7182SOL     OW22444   1.817   1.504   3.248
 7182SOL    HW122445   1.846   1.581   3.306
 7182SOL    HW222446   1.718   1.492   3.257
 7183SOL     OW22447   1.426   0.071   1.820
 7183SOL    HW122448   1.334   0.031   1.829
 7183SOL    HW222449   1.441   0.136   1.893
 7184SOL     OW22450   6.763   0.723   3.857
 7184SOL    HW122451   6.762   0.817   3.822
 7184SOL    HW222452   6.740   0.723   3.954
 7185SOL     OW22453   3.812   0.343   3.950
 7185SOL    HW122454   3.875   0.419   3.938
 7185SOL    HW222455   3.773   0.346   4.042
 7186SOL     OW22456   6.516   1.060   6.148
 7186SOL    HW122457   6.555   1.060   6.241
 7186SOL    HW222458   6.568   1.123   6.091
 7187SOL     OW22459   3.656   3.332   4.058
 7187SOL    HW122460   3.627   3.418   4.016
 7187SOL    HW222461   3.753   3.339   4.083
 7188SOL     OW22462   4.795   4.529   0.825
 7188SOL    HW122463   4.844   4.590   0.887
 7188SOL    HW222464   4.851   4.447   0.809
 7189SOL     OW22465   0.004   2.304   5.956
 7189SOL    HW122466   7.015   2.273   6.050
 7189SOL    HW222467   0.100   2.306   5.930
 7190SOL     OW22468   6.195   5.605   6.806
 7190SOL    HW122469   6.281   5.591   6.854
 7190SOL    HW222470   6.134   5.659   6.863
 7191SOL     OW22471   6.582   4.815   2.105
 7191SOL    HW122472   6.610   4.759   2.183
 7191SOL    HW222473   6.598   4.764   2.020
 7192SOL     OW22474   2.675   3.914   5.380
 7192SOL    HW122475   2.609   3.915   5.305
 7192SOL    HW222476   2.767   3.902   5.342
 7193SOL     OW22477   3.750   1.759   4.021
 7193SOL    HW122478   3.721   1.842   4.069
 7193SOL    HW222479   3.848   1.765   4.002
 7194SOL     OW22480   2.848   2.360   5.878
 7194SOL    HW122481   2.941   2.346   5.843
 7194SOL    HW222482   2.812   2.446   5.842
 7195SOL     OW22483   1.144   3.322   6.037
 7195SOL    HW122484   1.083   3.255   6.080
 7195SOL    HW222485   1.122   3.329   5.940
 7196SOL     OW22486   3.119   3.871   1.478
 7196SOL    HW122487   3.192   3.917   1.428
 7196SOL    HW222488   3.059   3.823   1.413
 7197SOL     OW22489   3.536   5.139   0.203
 7197SOL    HW122490   3.534   5.231   0.164
 7197SOL    HW222491   3.629   5.117   0.231
 7198SOL     OW22492   0.978   0.553   1.768
 7198SOL    HW122493   1.000   0.550   1.671
 7198SOL    HW222494   0.976   0.460   1.805
 7199SOL     OW22495   6.074   1.030   3.118
 7199SOL    HW122496   6.085   0.932   3.136
 7199SOL    HW222497   6.163   1.074   3.121
 7200SOL     OW22498   1.039   2.679   6.756
 7200SOL    HW122499   1.046   2.661   6.657
 7200SOL    HW222500   0.957   2.734   6.773
 7201SOL     OW22501   6.066   6.096   3.878
 7201SOL    HW122502   6.056   5.997   3.888
 7201SOL    HW222503   6.133   6.116   3.806
 7202SOL     OW22504   4.695   6.986   6.110
 7202SOL    HW122505   4.785   6.943   6.107
 7202SOL    HW222506   4.658   6.993   6.017
 7203SOL     OW22507   0.545   1.936   1.178
 7203SOL    HW122508   0.508   2.028   1.188
 7203SOL    HW222509   0.635   1.940   1.135
 7204SOL     OW22510   6.011   0.906   2.186
 7204SOL    HW122511   5.999   0.907   2.285
 7204SOL    HW222512   6.001   0.999   2.150
 7205SOL     OW22513   3.341   1.539   4.290
 7205SOL    HW122514   3.245   1.525   4.263
 7205SOL    HW222515   3.344   1.594   4.373
 7206SOL     OW22516   2.190   3.356   6.849
 7206SOL    HW122517   2.225   3.385   6.938
 7206SOL    HW222518   2.095   3.328   6.859
 7207SOL     OW22519   1.983   1.561   3.039
 7207SOL    HW122520   1.935   1.504   3.107
 7207SOL    HW222521   1.958   1.657   3.052
 7208SOL     OW22522   3.872   0.619   3.869
 7208SOL    HW122523   3.924   0.687   3.921
 7208SOL    HW222524   3.775   0.642   3.871
 7209SOL     OW22525   3.605   0.922   1.998
 7209SOL    HW122526   3.703   0.908   1.979
 7209SOL    HW222527   3.585   1.019   2.000
 7210SOL     OW22528   3.610   1.372   3.978
 7210SOL    HW122529   3.708   1.366   3.997
 7210SOL    HW222530   3.566   1.431   4.045
 7211SOL     OW22531   4.237   6.317   5.821
 7211SOL    HW122532   4.280   6.230   5.797
 7211SOL    HW222533   4.190   6.309   5.909
 7212SOL     OW22534   0.785   5.364   5.497
 7212SOL    HW122535   0.753   5.270   5.511
 7212SOL    HW222536   0.865   5.381   5.555
 7213SOL     OW22537   4.292   2.641   0.115
 7213SOL    HW122538   4.386   2.628   0.147
 7213SOL    HW222539   4.256   2.726   0.154
 7214SOL     OW22540   6.007   0.838   6.117
 7214SOL    HW122541   5.967   0.871   6.202
 7214SOL    HW222542   6.092   0.887   6.098
 7215SOL     OW22543   6.668   1.691   2.347
 7215SOL    HW122544   6.725   1.657   2.273
 7215SOL    HW222545   6.680   1.790   2.355
 7216SOL     OW22546   5.332   6.715   3.632
 7216SOL    HW122547   5.308   6.770   3.552
 7216SOL    HW222548   5.390   6.769   3.693
 7217SOL     OW22549   1.423   3.168   3.495
 7217SOL    HW122550   1.330   3.199   3.510
 7217SOL    HW222551   1.421   3.078   3.450
 7218SOL     OW22552   6.432   2.382   5.242
 7218SOL    HW122553   6.423   2.283   5.231
 7218SOL    HW222554   6.415   2.428   5.155
 7219SOL     OW22555   2.850   6.197   1.866
 7219SOL    HW122556   2.921   6.193   1.796
 7219SOL    HW222557   2.782   6.126   1.849
 7220SOL     OW22558   6.183   4.169   3.418
 7220SOL    HW122559   6.235   4.152   3.502
 7220SOL    HW222560   6.242   4.153   3.338
 7221SOL     OW22561   4.174   5.170   3.255
 7221SOL    HW122562   4.220   5.252   3.221
 7221SOL    HW222563   4.165   5.176   3.355
 7222SOL     OW22564   6.890   6.386   3.797
 7222SOL    HW122565   6.930   6.473   3.828
 7222SOL    HW222566   6.819   6.358   3.862
 7223SOL     OW22567   6.934   4.767   1.855
 7223SOL    HW122568   0.012   4.757   1.868
 7223SOL    HW222569   6.911   4.753   1.759
 7224SOL     OW22570   4.376   2.219   2.816
 7224SOL    HW122571   4.401   2.125   2.840
 7224SOL    HW222572   4.291   2.219   2.763
 7225SOL     OW22573   0.779   6.122   0.256
 7225SOL    HW122574   0.741   6.083   0.173
 7225SOL    HW222575   0.724   6.201   0.283
 7226SOL     OW22576   6.216   6.540   0.254
 7226SOL    HW122577   6.195   6.447   0.222
 7226SOL    HW222578   6.211   6.543   0.354
 7227SOL     OW22579   1.784   1.567   2.667
 7227SOL    HW122580   1.807   1.649   2.614
 7227SOL    HW222581   1.862   1.539   2.722
 7228SOL     OW22582   5.739   3.002   2.541
 7228SOL    HW122583   5.741   3.028   2.444
 7228SOL    HW222584   5.809   2.932   2.558
 7229SOL     OW22585   5.732   0.533   5.061
 7229SOL    HW122586   5.660   0.516   4.993
 7229SOL    HW222587   5.815   0.565   5.014
 7230SOL     OW22588   2.412   5.634   4.465
 7230SOL    HW122589   2.313   5.648   4.464
 7230SOL    HW222590   2.432   5.537   4.477
 7231SOL     OW22591   3.847   3.280   5.869
 7231SOL    HW122592   3.862   3.310   5.963
 7231SOL    HW222593   3.933   3.247   5.830
 7232SOL     OW22594   4.492   6.076   3.350
 7232SOL    HW122595   4.432   5.999   3.329
 7232SOL    HW222596   4.437   6.159   3.363
 7233SOL     OW22597   0.773   1.133   5.678
 7233SOL    HW122598   0.706   1.123   5.605
 7233SOL    HW222599   0.864   1.108   5.644
 7234SOL     OW22600   5.722   4.590   3.757
 7234SOL    HW122601   5.682   4.593   3.666
 7234SOL    HW222602   5.678   4.518   3.811
 7235SOL     OW22603   6.321   0.175   1.936
 7235SOL    HW122604   6.373   0.254   1.969
 7235SOL    HW222605   6.260   0.204   1.863
 7236SOL     OW22606   1.368   3.991   2.438
 7236SOL    HW122607   1.305   3.916   2.420
 7236SOL    HW222608   1.457   3.971   2.398
 7237SOL     OW22609   5.682   1.122   0.495
 7237SOL    HW122610   5.712   1.217   0.503
 7237SOL    HW222611   5.696   1.091   0.401
 7238SOL     OW22612   3.811   3.657   0.348
 7238SOL    HW122613   3.878   3.591   0.313
 7238SOL    HW222614   3.726   3.649   0.296
 7239SOL     OW22615   5.640   2.437   2.296
 7239SOL    HW122616   5.614   2.515   2.353
 7239SOL    HW222617   5.557   2.392   2.262
 7240SOL     OW22618   0.057   1.635   0.634
 7240SOL    HW122619   0.150   1.648   0.599
 7240SOL    HW222620   7.012   1.646   0.559
 7241SOL     OW22621   2.176   0.645   2.401
 7241SOL    HW122622   2.206   0.661   2.307
 7241SOL    HW222623   2.100   0.706   2.423
 7242SOL     OW22624   6.826   4.544   5.341
 7242SOL    HW122625   6.747   4.584   5.294
 7242SOL    HW222626   6.862   4.468   5.286
 7243SOL     OW22627   5.305   4.584   6.093
 7243SOL    HW122628   5.322   4.662   6.153
 7243SOL    HW222629   5.309   4.500   6.147
 7244SOL     OW22630   0.251   6.018   0.063
 7244SOL    HW122631   0.263   5.940   0.124
 7244SOL    HW222632   0.156   6.020   0.030
 7245SOL     OW22633   1.634   2.960   0.048
 7245SOL    HW122634   1.654   3.000   0.138
 7245SOL    HW222635   1.634   2.860   0.056
 7246SOL     OW22636   4.168   0.055   3.205
 7246SOL    HW122637   4.215   7.003   3.255
 7246SOL    HW222638   4.116   0.016   3.129
 7247SOL     OW22639   2.980   3.780   4.143
 7247SOL    HW122640   2.908   3.790   4.075
 7247SOL    HW222641   3.068   3.767   4.097
 7248SOL     OW22642   2.926   1.319   5.929
 7248SOL    HW122643   2.845   1.374   5.910
 7248SOL    HW222644   2.982   1.313   5.846
 7249SOL     OW22645   3.910   5.030   2.571
 7249SOL    HW122646   3.890   4.933   2.554
 7249SOL    HW222647   3.840   5.086   2.529
 7250SOL     OW22648   5.676   5.338   5.539
 7250SOL    HW122649   5.677   5.435   5.563
 7250SOL    HW222650   5.727   5.323   5.455
 7251SOL     OW22651   0.986   5.137   4.895
 7251SOL    HW122652   1.011   5.215   4.838
 7251SOL    HW222653   0.887   5.132   4.904
 7252SOL     OW22654   4.040   3.416   2.523
 7252SOL    HW122655   4.035   3.319   2.500
 7252SOL    HW222656   4.086   3.465   2.448
 7253SOL     OW22657   2.663   5.241   4.450
 7253SOL    HW122658   2.692   5.297   4.373
 7253SOL    HW222659   2.743   5.206   4.499
 7254SOL     OW22660   6.131   3.489   4.109
 7254SOL    HW122661   6.147   3.392   4.128
 7254SOL    HW222662   6.098   3.534   4.191
 7255SOL     OW22663   4.703   3.852   0.116
 7255SOL    HW122664   4.628   3.900   0.162
 7255SOL    HW222665   4.701   3.872   0.018
 7256SOL     OW22666   3.375   0.226   4.647
 7256SOL    HW122667   3.281   0.195   4.659
 7256SOL    HW222668   3.411   0.259   4.734
 7257SOL     OW22669   1.103   1.532   4.683
 7257SOL    HW122670   1.049   1.457   4.645
 7257SOL    HW222671   1.164   1.498   4.754
 7258SOL     OW22672   5.867   3.188   2.347
 7258SOL    HW122673   5.923   3.201   2.429
 7258SOL    HW222674   5.815   3.271   2.328
 7259SOL     OW22675   1.299   4.452   2.654
 7259SOL    HW122676   1.386   4.484   2.691
 7259SOL    HW222677   1.317   4.385   2.582
 7260SOL     OW22678   5.653   3.067   0.542
 7260SOL    HW122679   5.567   3.112   0.568
 7260SOL    HW222680   5.642   2.968   0.549
 7261SOL     OW22681   6.796   4.485   6.727
 7261SOL    HW122682   6.724   4.417   6.716
 7261SOL    HW222683   6.787   4.531   6.815
 7262SOL     OW22684   5.248   1.290   5.123
 7262SOL    HW122685   5.341   1.294   5.160
 7262SOL    HW222686   5.241   1.215   5.058
 7263SOL     OW22687   6.833   5.477   5.947
 7263SOL    HW122688   6.914   5.461   6.004
 7263SOL    HW222689   6.763   5.523   6.001
 7264SOL     OW22690   5.650   1.007   1.187
 7264SOL    HW122691   5.687   1.031   1.277
 7264SOL    HW222692   5.713   0.945   1.141
 7265SOL     OW22693   4.179   0.815   5.745
 7265SOL    HW122694   4.081   0.819   5.762
 7265SOL    HW222695   4.196   0.816   5.647
 7266SOL     OW22696   0.312   1.015   3.028
 7266SOL    HW122697   0.390   1.012   2.965
 7266SOL    HW222698   0.294   0.923   3.064
 7267SOL     OW22699   6.224   4.199   4.457
 7267SOL    HW122700   6.261   4.159   4.373
 7267SOL    HW222701   6.299   4.233   4.514
 7268SOL     OW22702   6.207   6.376   4.698
 7268SOL    HW122703   6.131   6.440   4.709
 7268SOL    HW222704   6.201   6.334   4.607
 7269SOL     OW22705   2.516   4.505   4.607
 7269SOL    HW122706   2.573   4.575   4.650
 7269SOL    HW222707   2.564   4.417   4.610
 7270SOL     OW22708   0.675   0.878   5.170
 7270SOL    HW122709   0.609   0.862   5.096
 7270SOL    HW222710   0.740   0.948   5.142
 7271SOL     OW22711   0.558   4.677   3.167
 7271SOL    HW122712   0.469   4.674   3.211
 7271SOL    HW222713   0.618   4.608   3.208
 7272SOL     OW22714   6.237   3.944   1.606
 7272SOL    HW122715   6.219   3.870   1.542
 7272SOL    HW222716   6.295   3.911   1.681
 7273SOL     OW22717   0.765   1.959   5.646
 7273SOL    HW122718   0.831   2.029   5.674
 7273SOL    HW222719   0.695   1.949   5.716
 7274SOL     OW22720   0.473   4.864   6.136
 7274SOL    HW122721   0.491   4.962   6.150
 7274SOL    HW222722   0.477   4.843   6.039
 7275SOL     OW22723   0.821   6.015   3.494
 7275SOL    HW122724   0.744   5.985   3.438
 7275SOL    HW222725   0.899   6.035   3.434
 7276SOL     OW22726   5.236   5.941   3.553
 7276SOL    HW122727   5.243   5.842   3.565
 7276SOL    HW222728   5.141   5.969   3.564
 7277SOL     OW22729   4.771   0.321   0.277
 7277SOL    HW122730   4.741   0.232   0.312
 7277SOL    HW222731   4.723   0.343   0.193
 7278SOL     OW22732   3.216   2.969   2.395
 7278SOL    HW122733   3.212   3.065   2.368
 7278SOL    HW222734   3.290   2.923   2.346
 7279SOL     OW22735   3.310   6.701   6.316
 7279SOL    HW122736   3.323   6.796   6.287
 7279SOL    HW222737   3.218   6.671   6.292
 7280SOL     OW22738   4.490   1.664   5.810
 7280SOL    HW122739   4.507   1.580   5.759
 7280SOL    HW222740   4.543   1.663   5.895
 7281SOL     OW22741   5.068   0.907   6.154
 7281SOL    HW122742   5.086   0.821   6.202
 7281SOL    HW222743   5.145   0.927   6.093
 7282SOL     OW22744   5.288   5.537   2.003
 7282SOL    HW122745   5.265   5.633   1.989
 7282SOL    HW222746   5.369   5.531   2.062
 7283SOL     OW22747   2.065   0.823   4.365
 7283SOL    HW122748   2.150   0.774   4.344
 7283SOL    HW222749   2.067   0.912   4.319
 7284SOL     OW22750   0.728   2.292   5.044
 7284SOL    HW122751   0.729   2.351   5.125
 7284SOL    HW222752   0.809   2.234   5.045
 7285SOL     OW22753   5.471   4.893   1.317
 7285SOL    HW122754   5.524   4.838   1.383
 7285SOL    HW222755   5.490   4.861   1.224
 7286SOL     OW22756   2.287   4.456   0.975
 7286SOL    HW122757   2.256   4.421   0.887
 7286SOL    HW222758   2.216   4.440   1.044
 7287SOL     OW22759   5.641   1.344   5.889
 7287SOL    HW122760   5.652   1.319   5.985
 7287SOL    HW222761   5.731   1.362   5.849
 7288SOL     OW22762   3.004   6.575   6.662
 7288SOL    HW122763   3.032   6.598   6.755
 7288SOL    HW222764   3.029   6.649   6.600
 7289SOL     OW22765   5.505   2.160   3.913
 7289SOL    HW122766   5.474   2.075   3.956
 7289SOL    HW222767   5.500   2.151   3.814
 7290SOL     OW22768   2.894   4.802   4.203
 7290SOL    HW122769   2.852   4.765   4.119
 7290SOL    HW222770   2.822   4.822   4.269
 7291SOL     OW22771   3.324   5.219   1.890
 7291SOL    HW122772   3.404   5.160   1.885
 7291SOL    HW222773   3.241   5.163   1.890
 7292SOL     OW22774   3.429   6.865   4.645
 7292SOL    HW122775   3.479   6.779   4.649
 7292SOL    HW222776   3.446   6.909   4.556
 7293SOL     OW22777   1.809   2.257   6.184
 7293SOL    HW122778   1.845   2.287   6.273
 7293SOL    HW222779   1.754   2.175   6.196
 7294SOL     OW22780   4.181   5.903   0.593
 7294SOL    HW122781   4.276   5.929   0.605
 7294SOL    HW222782   4.147   5.938   0.505
 7295SOL     OW22783   5.541   0.220   1.569
 7295SOL    HW122784   5.572   0.146   1.509
 7295SOL    HW222785   5.610   0.237   1.640
 7296SOL     OW22786   4.289   5.135   1.976
 7296SOL    HW122787   4.200   5.181   1.973
 7296SOL    HW222788   4.361   5.202   1.993
 7297SOL     OW22789   5.188   6.646   2.205
 7297SOL    HW122790   5.194   6.621   2.301
 7297SOL    HW222791   5.279   6.645   2.164
 7298SOL     OW22792   6.445   3.885   3.851
 7298SOL    HW122793   6.346   3.870   3.859
 7298SOL    HW222794   6.493   3.797   3.863
 7299SOL     OW22795   5.123   3.454   6.414
 7299SOL    HW122796   5.193   3.523   6.397
 7299SOL    HW222797   5.143   3.372   6.359
 7300SOL     OW22798   4.489   5.112   1.382
 7300SOL    HW122799   4.418   5.073   1.441
 7300SOL    HW222800   4.478   5.211   1.376
 7301SOL     OW22801   6.845   0.907   5.787
 7301SOL    HW122802   6.921   0.911   5.852
 7301SOL    HW222803   6.761   0.884   5.835
 7302SOL     OW22804   5.183   0.701   6.315
 7302SOL    HW122805   5.230   0.788   6.334
 7302SOL    HW222806   5.250   0.633   6.285
 7303SOL     OW22807   3.335   1.032   0.882
 7303SOL    HW122808   3.434   1.023   0.888
 7303SOL    HW222809   3.308   1.031   0.785
 7304SOL     OW22810   3.636   3.951   4.984
 7304SOL    HW122811   3.642   3.855   4.957
 7304SOL    HW222812   3.727   3.993   4.977
 7305SOL     OW22813   5.633   1.189   0.215
 7305SOL    HW122814   5.569   1.264   0.207
 7305SOL    HW222815   5.627   1.130   0.134
 7306SOL     OW22816   4.802   5.000   1.662
 7306SOL    HW122817   4.754   4.914   1.677
 7306SOL    HW222818   4.891   4.981   1.620
 7307SOL     OW22819   4.170   6.687   2.612
 7307SOL    HW122820   4.072   6.667   2.615
 7307SOL    HW222821   4.200   6.695   2.517
 7308SOL     OW22822   6.171   1.540   4.807
 7308SOL    HW122823   6.211   1.597   4.735
 7308SOL    HW222824   6.235   1.467   4.831
 7309SOL     OW22825   4.338   5.650   2.304
 7309SOL    HW122826   4.369   5.724   2.363
 7309SOL    HW222827   4.258   5.681   2.251
 7310SOL     OW22828   1.895   5.544   1.458
 7310SOL    HW122829   1.961   5.533   1.532
 7310SOL    HW222830   1.912   5.476   1.387
 7311SOL     OW22831   2.719   2.279   2.211
 7311SOL    HW122832   2.774   2.319   2.139
 7311SOL    HW222833   2.768   2.286   2.298
 7312SOL     OW22834   6.830   1.870   5.685
 7312SOL    HW122835   6.873   1.825   5.607
 7312SOL    HW222836   6.898   1.926   5.733
 7313SOL     OW22837   3.844   2.519   0.019
 7313SOL    HW122838   3.811   2.613   0.018
 7313SOL    HW222839   3.826   2.477   6.950
 7314SOL     OW22840   0.787   2.971   4.311
 7314SOL    HW122841   0.807   2.883   4.354
 7314SOL    HW222842   0.692   2.972   4.280
 7315SOL     OW22843   0.025   0.459   5.489
 7315SOL    HW122844   0.067   0.507   5.566
 7315SOL    HW222845   7.018   0.525   5.420
 7316SOL     OW22846   3.768   3.850   5.331
 7316SOL    HW122847   3.692   3.835   5.395
 7316SOL    HW222848   3.734   3.898   5.250
 7317SOL     OW22849   2.892   1.272   3.592
 7317SOL    HW122850   2.958   1.307   3.526
 7317SOL    HW222851   2.924   1.293   3.685
 7318SOL     OW22852   1.303   2.130   1.368
 7318SOL    HW122853   1.363   2.116   1.447
 7318SOL    HW222854   1.294   2.229   1.351
 7319SOL     OW22855   6.845   4.143   6.389
 7319SOL    HW122856   6.934   4.147   6.435
 7319SOL    HW222857   6.816   4.048   6.379
 7320SOL     OW22858   6.566   2.399   2.247
 7320SOL    HW122859   6.483   2.435   2.290
 7320SOL    HW222860   6.595   2.460   2.174
 7321SOL     OW22861   3.057   1.671   4.650
 7321SOL    HW122862   3.133   1.607   4.661
 7321SOL    HW222863   3.024   1.700   4.740
 7322SOL     OW22864   0.277   3.242   1.790
 7322SOL    HW122865   0.258   3.197   1.877
 7322SOL    HW222866   0.376   3.242   1.773
 7323SOL     OW22867   2.110   3.691   3.093
 7323SOL    HW122868   2.149   3.729   3.176
 7323SOL    HW222869   2.076   3.598   3.110
 7324SOL     OW22870   5.229   5.967   2.170
 7324SOL    HW122871   5.184   6.051   2.201
 7324SOL    HW222872   5.328   5.976   2.181
 7325SOL     OW22873   3.323   6.528   0.423
 7325SOL    HW122874   3.245   6.466   0.410
 7325SOL    HW222875   3.393   6.482   0.479
 7326SOL     OW22876   2.977   0.260   4.401
 7326SOL    HW122877   2.967   0.251   4.302
 7326SOL    HW222878   2.897   0.309   4.437
 7327SOL     OW22879   1.525   2.506   5.171
 7327SOL    HW122880   1.584   2.574   5.215
 7327SOL    HW222881   1.556   2.492   5.077
 7328SOL     OW22882   2.536   6.648   0.111
 7328SOL    HW122883   2.467   6.708   0.070
 7328SOL    HW222884   2.577   6.693   0.190
 7329SOL     OW22885   4.310   3.376   1.355
 7329SOL    HW122886   4.396   3.357   1.403
 7329SOL    HW222887   4.276   3.291   1.314
 7330SOL     OW22888   4.836   1.947   0.818
 7330SOL    HW122889   4.766   1.963   0.749
 7330SOL    HW222890   4.912   2.012   0.805
 7331SOL     OW22891   5.374   1.415   1.957
 7331SOL    HW122892   5.305   1.354   1.917
 7331SOL    HW222893   5.328   1.493   1.999
 7332SOL     OW22894   3.610   5.233   1.239
 7332SOL    HW122895   3.664   5.314   1.218
 7332SOL    HW222896   3.525   5.261   1.284
 7333SOL     OW22897   0.327   4.874   2.321
 7333SOL    HW122898   0.425   4.891   2.333
 7333SOL    HW222899   0.278   4.912   2.399
 7334SOL     OW22900   3.902   6.787   4.500
 7334SOL    HW122901   3.864   6.735   4.576
 7334SOL    HW222902   4.001   6.780   4.500
 7335SOL     OW22903   1.928   2.903   2.621
 7335SOL    HW122904   2.005   2.863   2.572
 7335SOL    HW222905   1.904   2.844   2.698
 7336SOL     OW22906   1.953   5.954   4.254
 7336SOL    HW122907   1.858   5.981   4.272
 7336SOL    HW222908   1.971   5.866   4.298
 7337SOL     OW22909   5.015   2.448   2.038
 7337SOL    HW122910   5.108   2.484   2.032
 7337SOL    HW222911   5.018   2.352   2.066
 7338SOL     OW22912   6.284   3.668   6.936
 7338SOL    HW122913   6.244   3.700   6.850
 7338SOL    HW222914   6.325   3.746   6.984
 7339SOL     OW22915   1.361   5.676   4.688
 7339SOL    HW122916   1.362   5.651   4.592
 7339SOL    HW222917   1.267   5.678   4.721
 7340SOL     OW22918   1.982   6.858   6.376
 7340SOL    HW122919   2.033   6.864   6.290
 7340SOL    HW222920   2.022   6.921   6.443
 7341SOL     OW22921   6.532   2.109   0.288
 7341SOL    HW122922   6.489   2.071   0.206
 7341SOL    HW222923   6.590   2.039   0.331
 7342SOL     OW22924   0.120   6.659   2.203
 7342SOL    HW122925   0.076   6.611   2.278
 7342SOL    HW222926   0.161   6.594   2.140
 7343SOL     OW22927   5.406   3.170   0.653
 7343SOL    HW122928   5.374   3.250   0.602
 7343SOL    HW222929   5.331   3.133   0.708
 7344SOL     OW22930   1.652   6.238   6.336
 7344SOL    HW122931   1.598   6.198   6.261
 7344SOL    HW222932   1.606   6.321   6.369
 7345SOL     OW22933   3.532   5.006   6.456
 7345SOL    HW122934   3.505   4.963   6.370
 7345SOL    HW222935   3.450   5.033   6.508
 7346SOL     OW22936   4.293   4.825   2.593
 7346SOL    HW122937   4.303   4.798   2.689
 7346SOL    HW222938   4.319   4.921   2.583
 7347SOL     OW22939   6.289   1.754   0.009
 7347SOL    HW122940   6.250   1.663   0.023
 7347SOL    HW222941   6.359   1.771   0.078
 7348SOL     OW22942   6.151   4.434   0.638
 7348SOL    HW122943   6.118   4.340   0.629
 7348SOL    HW222944   6.208   4.441   0.720
 7349SOL     OW22945   3.696   1.762   2.010
 7349SOL    HW122946   3.648   1.678   1.985
 7349SOL    HW222947   3.684   1.829   1.937
 7350SOL     OW22948   3.493   0.823   4.162
 7350SOL    HW122949   3.545   0.796   4.081
 7350SOL    HW222950   3.531   0.908   4.199
 7351SOL     OW22951   2.596   4.556   3.714
 7351SOL    HW122952   2.599   4.528   3.810
 7351SOL    HW222953   2.521   4.510   3.668
 7352SOL     OW22954   5.922   3.329   4.667
 7352SOL    HW122955   5.932   3.233   4.690
 7352SOL    HW222956   5.854   3.339   4.594
 7353SOL     OW22957   6.653   0.654   5.668
 7353SOL    HW122958   6.751   0.644   5.649
 7353SOL    HW222959   6.620   0.573   5.716
 7354SOL     OW22960   0.322   1.476   3.344
 7354SOL    HW122961   0.364   1.387   3.326
 7354SOL    HW222962   0.225   1.473   3.320
 7355SOL     OW22963   2.826   1.498   0.258
 7355SOL    HW122964   2.771   1.431   0.207
 7355SOL    HW222965   2.838   1.580   0.203
 7356SOL     OW22966   4.137   4.057   6.202
 7356SOL    HW122967   4.066   3.986   6.202
 7356SOL    HW222968   4.122   4.119   6.125
 7357SOL     OW22969   4.936   5.895   2.069
 7357SOL    HW122970   5.026   5.898   2.113
 7357SOL    HW222971   4.915   5.801   2.042
 7358SOL     OW22972   5.659   0.912   3.176
 7358SOL    HW122973   5.636   0.861   3.093
 7358SOL    HW222974   5.675   0.847   3.251
 7359SOL     OW22975   4.799   0.241   1.784
 7359SOL    HW122976   4.712   0.218   1.829
 7359SOL    HW222977   4.871   0.184   1.824
 7360SOL     OW22978   2.887   3.626   4.944
 7360SOL    HW122979   2.831   3.629   4.862
 7360SOL    HW222980   2.943   3.708   4.949
 7361SOL     OW22981   6.951   0.269   3.068
 7361SOL    HW122982   6.875   0.296   3.128
 7361SOL    HW222983   0.005   0.335   3.077
 7362SOL     OW22984   3.389   5.638   0.330
 7362SOL    HW122985   3.486   5.662   0.320
 7362SOL    HW222986   3.381   5.557   0.388
 7363SOL     OW22987   3.797   0.741   0.334
 7363SOL    HW122988   3.753   0.808   0.394
 7363SOL    HW222989   3.735   0.664   0.318
 7364SOL     OW22990   5.698   6.485   1.584
 7364SOL    HW122991   5.652   6.403   1.619
 7364SOL    HW222992   5.768   6.514   1.649
 7365SOL     OW22993   5.192   3.830   2.144
 7365SOL    HW122994   5.137   3.750   2.122
 7365SOL    HW222995   5.131   3.904   2.174
 7366SOL     OW22996   1.794   0.509   3.939
 7366SOL    HW122997   1.743   0.428   3.967
 7366SOL    HW222998   1.750   0.549   3.858
 7367SOL     OW22999   3.750   1.286   0.226
 7367SOL    HW123000   3.735   1.192   0.257
 7367SOL    HW223001   3.664   1.326   0.196
 7368SOL     OW23002   3.655   3.189   3.506
 7368SOL    HW123003   3.745   3.201   3.547
 7368SOL    HW223004   3.632   3.271   3.453
 7369SOL     OW23005   4.983   2.885   0.431
 7369SOL    HW123006   4.907   2.821   0.444
 7369SOL    HW223007   5.056   2.863   0.495
 7370SOL     OW23008   1.957   1.117   4.455
 7370SOL    HW123009   1.951   1.062   4.372
 7370SOL    HW223010   2.050   1.115   4.491
 7371SOL     OW23011   4.121   1.250   3.946
 7371SOL    HW123012   4.204   1.261   4.000
 7371SOL    HW223013   4.129   1.167   3.890
 7372SOL     OW23014   5.683   1.149   5.172
 7372SOL    HW123015   5.685   1.056   5.207
 7372SOL    HW223016   5.762   1.165   5.113
 7373SOL     OW23017   6.254   3.214   4.897
 7373SOL    HW123018   6.298   3.143   4.953
 7373SOL    HW223019   6.269   3.194   4.801
 7374SOL     OW23020   6.536   2.252   6.053
 7374SOL    HW123021   6.547   2.257   6.152
 7374SOL    HW223022   6.609   2.194   6.015
 7375SOL     OW23023   1.641   3.963   1.323
 7375SOL    HW123024   1.709   3.911   1.273
 7375SOL    HW223025   1.686   4.017   1.395
 7376SOL     OW23026   6.948   3.684   0.670
 7376SOL    HW123027   7.004   3.614   0.714
 7376SOL    HW223028   7.007   3.759   0.639
 7377SOL     OW23029   2.269   5.893   1.228
 7377SOL    HW123030   2.248   5.987   1.253
 7377SOL    HW223031   2.207   5.831   1.276
 7378SOL     OW23032   1.837   5.389   4.341
 7378SOL    HW123033   1.935   5.384   4.324
 7378SOL    HW223034   1.818   5.367   4.437
 7379SOL     OW23035   4.202   1.289   2.523
 7379SOL    HW123036   4.147   1.231   2.584
 7379SOL    HW223037   4.279   1.236   2.488
 7380SOL     OW23038   5.173   3.795   1.628
 7380SOL    HW123039   5.262   3.776   1.587
 7380SOL    HW223040   5.164   3.746   1.715
 7381SOL     OW23041   3.867   6.982   1.924
 7381SOL    HW123042   3.773   7.007   1.901
 7381SOL    HW223043   3.911   6.941   1.844
 7382SOL     OW23044   6.572   1.480   5.901
 7382SOL    HW123045   6.621   1.559   5.938
 7382SOL    HW223046   6.595   1.398   5.955
 7383SOL     OW23047   1.973   0.386   1.030
 7383SOL    HW123048   1.969   0.431   0.941
 7383SOL    HW223049   2.035   0.437   1.091
 7384SOL     OW23050   6.550   6.833   0.802
 7384SOL    HW123051   6.642   6.868   0.819
 7384SOL    HW223052   6.524   6.769   0.874
 7385SOL     OW23053   6.297   4.338   2.753
 7385SOL    HW123054   6.222   4.323   2.689
 7385SOL    HW223055   6.352   4.254   2.761
 7386SOL     OW23056   5.233   3.885   0.093
 7386SOL    HW123057   5.281   3.872   0.180
 7386SOL    HW223058   5.139   3.854   0.101
 7387SOL     OW23059   6.645   5.513   4.557
 7387SOL    HW123060   6.678   5.592   4.610
 7387SOL    HW223061   6.651   5.534   4.459
 7388SOL     OW23062   2.252   4.213   2.734
 7388SOL    HW123063   2.287   4.244   2.646
 7388SOL    HW223064   2.203   4.127   2.722
 7389SOL     OW23065   6.377   2.917   0.276
 7389SOL    HW123066   6.395   2.875   0.187
 7389SOL    HW223067   6.284   2.953   0.278
 7390SOL     OW23068   2.437   2.475   3.814
 7390SOL    HW123069   2.384   2.511   3.891
 7390SOL    HW223070   2.527   2.446   3.846
 7391SOL     OW23071   3.705   3.949   2.974
 7391SOL    HW123072   3.645   3.878   2.936
 7391SOL    HW223073   3.791   3.907   3.005
 7392SOL     OW23074   3.082   6.659   6.924
 7392SOL    HW123075   3.116   6.663   7.017
 7392SOL    HW223076   2.989   6.622   6.924
 7393SOL     OW23077   5.159   5.462   3.969
 7393SOL    HW123078   5.119   5.552   3.986
 7393SOL    HW223079   5.109   5.416   3.895
 7394SOL     OW23080   2.234   1.836   5.573
 7394SOL    HW123081   2.287   1.762   5.531
 7394SOL    HW223082   2.151   1.852   5.520
 7395SOL     OW23083   2.655   6.021   1.063
 7395SOL    HW123084   2.711   6.058   1.136
 7395SOL    HW223085   2.605   5.941   1.096
 7396SOL     OW23086   1.965   5.311   2.270
 7396SOL    HW123087   1.886   5.315   2.331
 7396SOL    HW223088   1.981   5.401   2.229
 7397SOL     OW23089   6.064   4.520   3.895
 7397SOL    HW123090   6.022   4.569   3.819
 7397SOL    HW223091   6.013   4.538   3.979
 7398SOL     OW23092   3.102   4.978   2.551
 7398SOL    HW123093   3.042   4.899   2.548
 7398SOL    HW223094   3.104   5.022   2.461
 7399SOL     OW23095   5.177   1.586   5.918
 7399SOL    HW123096   5.107   1.647   5.879
 7399SOL    HW223097   5.255   1.640   5.948
 7400SOL     OW23098   4.849   3.070   5.996
 7400SOL    HW123099   4.938   3.068   5.950
 7400SOL    HW223100   4.781   3.110   5.936
 7401SOL     OW23101   1.319   2.457   4.381
 7401SOL    HW123102   1.236   2.417   4.421
 7401SOL    HW223103   1.331   2.422   4.288
 7402SOL     OW23104   3.617   5.380   4.595
 7402SOL    HW123105   3.712   5.364   4.621
 7402SOL    HW223106   3.603   5.478   4.581
 7403SOL     OW23107   1.982   4.273   4.450
 7403SOL    HW123108   1.941   4.360   4.422
 7403SOL    HW223109   2.077   4.289   4.479
 7404SOL     OW23110   3.265   3.550   0.599
 7404SOL    HW123111   3.357   3.525   0.629
 7404SOL    HW223112   3.198   3.520   0.667
 7405SOL     OW23113   3.925   6.804   5.411
 7405SOL    HW123114   3.992   6.730   5.412
 7405SOL    HW223115   3.887   6.813   5.319
 7406SOL     OW23116   0.825   2.244   4.408
 7406SOL    HW123117   0.807   2.238   4.506
 7406SOL    HW223118   0.786   2.165   4.362
 7407SOL     OW23119   0.988   6.003   5.356
 7407SOL    HW123120   0.918   6.062   5.316
 7407SOL    HW223121   1.077   6.025   5.316
 7408SOL     OW23122   4.556   5.326   4.895
 7408SOL    HW123123   4.519   5.383   4.821
 7408SOL    HW223124   4.492   5.326   4.972
 7409SOL     OW23125   0.012   3.770   1.415
 7409SOL    HW123126   0.027   3.840   1.346
 7409SOL    HW223127   6.946   3.722   1.397
 7410SOL     OW23128   0.037   0.733   0.688
 7410SOL    HW123129   0.002   0.823   0.663
 7410SOL    HW223130   0.086   0.739   0.776
 7411SOL     OW23131   2.964   1.621   5.139
 7411SOL    HW123132   3.000   1.553   5.203
 7411SOL    HW223133   2.936   1.702   5.190
 7412SOL     OW23134   3.739   7.004   0.264
 7412SOL    HW123135   3.755   0.048   0.189
 7412SOL    HW223136   3.641   6.983   0.269
 7413SOL     OW23137   4.769   0.937   2.928
 7413SOL    HW123138   4.673   0.931   2.901
 7413SOL    HW223139   4.802   1.030   2.912
 7414SOL     OW23140   2.786   1.079   3.432
 7414SOL    HW123141   2.838   1.111   3.511
 7414SOL    HW223142   2.712   1.143   3.412
 7415SOL     OW23143   3.986   6.804   6.631
 7415SOL    HW123144   4.036   6.821   6.547
 7415SOL    HW223145   3.898   6.762   6.610
 7416SOL     OW23146   1.696   0.973   2.130
 7416SOL    HW123147   1.784   0.951   2.089
 7416SOL    HW223148   1.677   0.910   2.205
 7417SOL     OW23149   0.529   0.708   2.552
 7417SOL    HW123150   0.607   0.745   2.602
 7417SOL    HW223151   0.514   0.613   2.577
 7418SOL     OW23152   1.182   4.005   6.134
 7418SOL    HW123153   1.216   4.090   6.095
 7418SOL    HW223154   1.247   3.971   6.203
 7419SOL     OW23155   6.982   3.598   4.222
 7419SOL    HW123156   0.017   3.670   4.266
 7419SOL    HW223157   6.967   3.523   4.286
 7420SOL     OW23158   6.960   6.640   0.733
 7420SOL    HW123159   6.918   6.549   0.738
 7420SOL    HW223160   6.939   6.681   0.644
 7421SOL     OW23161   6.001   3.882   0.937
 7421SOL    HW123162   6.053   3.797   0.944
 7421SOL    HW223163   6.064   3.958   0.917
 7422SOL     OW23164   5.663   2.645   1.931
 7422SOL    HW123165   5.697   2.739   1.932
 7422SOL    HW223166   5.727   2.586   1.981
 7423SOL     OW23167   4.850   2.319   5.693
 7423SOL    HW123168   4.785   2.364   5.755
 7423SOL    HW223169   4.918   2.386   5.663
 7424SOL     OW23170   0.055   2.619   3.212
 7424SOL    HW123171   0.090   2.701   3.256
 7424SOL    HW223172   6.975   2.623   3.209
 7425SOL     OW23173   5.729   1.009   0.757
 7425SOL    HW123174   5.690   1.039   0.670
 7425SOL    HW223175   5.821   0.973   0.742
 7426SOL     OW23176   3.148   2.622   5.824
 7426SOL    HW123177   3.119   2.527   5.836
 7426SOL    HW223178   3.153   2.667   5.913
 7427SOL     OW23179   3.118   0.748   3.523
 7427SOL    HW123180   3.073   0.702   3.447
 7427SOL    HW223181   3.074   0.721   3.609
 7428SOL     OW23182   3.611   6.506   5.062
 7428SOL    HW123183   3.678   6.440   5.026
 7428SOL    HW223184   3.643   6.599   5.045
 7429SOL     OW23185   0.857   0.127   2.223
 7429SOL    HW123186   0.858   0.184   2.305
 7429SOL    HW223187   0.896   0.037   2.244
 7430SOL     OW23188   6.502   4.719   3.211
 7430SOL    HW123189   6.510   4.739   3.113
 7430SOL    HW223190   6.567   4.775   3.262
 7431SOL     OW23191   0.871   1.532   3.564
 7431SOL    HW123192   0.934   1.506   3.638
 7431SOL    HW223193   0.872   1.460   3.494
 7432SOL     OW23194   2.094   1.270   3.115
 7432SOL    HW123195   2.016   1.228   3.068
 7432SOL    HW223196   2.116   1.357   3.071
 7433SOL     OW23197   2.936   6.389   6.454
 7433SOL    HW123198   2.875   6.315   6.484
 7433SOL    HW223199   2.964   6.444   6.532
 7434SOL     OW23200   4.659   6.918   3.725
 7434SOL    HW123201   4.740   6.975   3.728
 7434SOL    HW223202   4.578   6.973   3.743
 7435SOL     OW23203   4.748   4.136   3.092
 7435SOL    HW123204   4.663   4.146   3.144
 7435SOL    HW223205   4.728   4.130   2.994
 7436SOL     OW23206   5.500   3.118   6.111
 7436SOL    HW123207   5.570   3.069   6.061
 7436SOL    HW223208   5.412   3.109   6.064
 7437SOL     OW23209   3.501   0.386   1.114
 7437SOL    HW123210   3.412   0.348   1.140
 7437SOL    HW223211   3.566   0.312   1.099
 7438SOL     OW23212   1.926   0.045   6.866
 7438SOL    HW123213   1.926   0.090   6.777
 7438SOL    HW223214   1.836   0.056   6.908
 7439SOL     OW23215   0.802   4.726   6.027
 7439SOL    HW123216   0.740   4.660   6.069
 7439SOL    HW223217   0.882   4.678   5.991
 7440SOL     OW23218   5.654   4.003   3.878
 7440SOL    HW123219   5.575   4.058   3.903
 7440SOL    HW223220   5.688   4.032   3.789
 7441SOL     OW23221   5.070   5.979   0.821
 7441SOL    HW123222   5.095   5.902   0.880
 7441SOL    HW223223   5.021   5.945   0.741
 7442SOL     OW23224   5.260   0.469   6.748
 7442SOL    HW123225   5.286   0.566   6.747
 7442SOL    HW223226   5.281   0.428   6.660
 7443SOL     OW23227   0.313   0.550   1.161
 7443SOL    HW123228   0.374   0.485   1.207
 7443SOL    HW223229   0.365   0.633   1.138
 7444SOL     OW23230   1.541   6.525   0.216
 7444SOL    HW123231   1.453   6.504   0.172
 7444SOL    HW223232   1.595   6.441   0.223
 7445SOL     OW23233   3.956   5.646   1.916
 7445SOL    HW123234   4.004   5.584   1.854
 7445SOL    HW223235   3.899   5.709   1.863
 7446SOL     OW23236   5.964   4.310   6.872
 7446SOL    HW123237   5.866   4.314   6.891
 7446SOL    HW223238   6.015   4.352   6.947
 7447SOL     OW23239   0.564   4.663   0.450
 7447SOL    HW123240   0.491   4.685   0.385
 7447SOL    HW223241   0.646   4.716   0.428
 7448SOL     OW23242   4.811   5.443   6.939
 7448SOL    HW123243   4.896   5.415   6.894
 7448SOL    HW223244   4.826   5.529   6.988
 7449SOL     OW23245   6.596   4.582   5.848
 7449SOL    HW123246   6.640   4.612   5.933
 7449SOL    HW223247   6.500   4.560   5.867
 7450SOL     OW23248   5.320   2.370   6.307
 7450SOL    HW123249   5.379   2.420   6.369
 7450SOL    HW223250   5.333   2.404   6.214
 7451SOL     OW23251   4.447   4.571   2.922
 7451SOL    HW123252   4.390   4.548   3.000
 7451SOL    HW223253   4.435   4.668   2.900
 7452SOL     OW23254   6.443   5.337   5.753
 7452SOL    HW123255   6.477   5.398   5.681
 7452SOL    HW223256   6.344   5.349   5.763
 7453SOL     OW23257   3.866   5.792   5.886
 7453SOL    HW123258   3.799   5.787   5.960
 7453SOL    HW223259   3.956   5.767   5.921
 7454SOL     OW23260   3.701   2.389   1.412
 7454SOL    HW123261   3.650   2.311   1.449
 7454SOL    HW223262   3.778   2.354   1.358
 7455SOL     OW23263   6.596   1.258   3.306
 7455SOL    HW123264   6.520   1.278   3.244
 7455SOL    HW223265   6.659   1.194   3.261
 7456SOL     OW23266   3.086   2.144   6.035
 7456SOL    HW123267   2.994   2.107   6.025
 7456SOL    HW223268   3.101   2.171   6.130
 7457SOL     OW23269   1.016   1.646   2.322
 7457SOL    HW123270   1.077   1.620   2.398
 7457SOL    HW223271   0.973   1.734   2.343
 7458SOL     OW23272   1.684   5.586   5.592
 7458SOL    HW123273   1.739   5.659   5.633
 7458SOL    HW223274   1.715   5.498   5.626
 7459SOL     OW23275   5.718   0.310   3.317
 7459SOL    HW123276   5.657   0.245   3.272
 7459SOL    HW223277   5.803   0.318   3.264
 7460SOL     OW23278   1.191   0.180   1.314
 7460SOL    HW123279   1.151   0.265   1.282
 7460SOL    HW223280   1.291   0.187   1.311
 7461SOL     OW23281   2.398   4.697   5.304
 7461SOL    HW123282   2.460   4.673   5.228
 7461SOL    HW223283   2.444   4.760   5.365
 7462SOL     OW23284   1.758   3.790   0.976
 7462SOL    HW123285   1.674   3.742   1.002
 7462SOL    HW223286   1.793   3.841   1.055
 7463SOL     OW23287   4.206   5.054   1.254
 7463SOL    HW123288   4.107   5.039   1.258
 7463SOL    HW223289   4.253   4.966   1.254
 7464SOL     OW23290   6.596   6.145   5.239
 7464SOL    HW123291   6.511   6.093   5.230
 7464SOL    HW223292   6.658   6.120   5.164
 7465SOL     OW23293   1.290   4.533   7.015
 7465SOL    HW123294   1.200   4.559   0.029
 7465SOL    HW223295   1.306   4.436   0.015
 7466SOL     OW23296   0.348   0.331   5.099
 7466SOL    HW123297   0.275   0.296   5.041
 7466SOL    HW223298   0.308   0.371   5.182
 7467SOL     OW23299   0.857   3.872   4.607
 7467SOL    HW123300   0.921   3.804   4.574
 7467SOL    HW223301   0.818   3.842   4.694
 7468SOL     OW23302   5.253   2.927   6.079
 7468SOL    HW123303   5.236   2.879   6.165
 7468SOL    HW223304   5.310   2.870   6.020
 7469SOL     OW23305   0.511   2.261   0.418
 7469SOL    HW123306   0.418   2.272   0.383
 7469SOL    HW223307   0.557   2.350   0.417
 7470SOL     OW23308   5.655   2.626   3.587
 7470SOL    HW123309   5.657   2.554   3.656
 7470SOL    HW223310   5.650   2.715   3.631
 7471SOL     OW23311   3.708   0.376   6.715
 7471SOL    HW123312   3.661   0.425   6.789
 7471SOL    HW223313   3.756   0.296   6.752
 7472SOL     OW23314   6.861   0.085   5.835
 7472SOL    HW123315   6.823   0.156   5.894
 7472SOL    HW223316   6.894   0.126   5.750
 7473SOL     OW23317   3.776   5.857   3.659
 7473SOL    HW123318   3.709   5.830   3.590
 7473SOL    HW223319   3.868   5.836   3.626
 7474SOL     OW23320   5.902   2.064   0.586
 7474SOL    HW123321   5.942   2.114   0.509
 7474SOL    HW223322   5.945   2.094   0.671
 7475SOL     OW23323   5.022   2.614   0.720
 7475SOL    HW123324   4.983   2.574   0.803
 7475SOL    HW223325   5.041   2.541   0.654
 7476SOL     OW23326   2.336   0.974   3.192
 7476SOL    HW123327   2.315   0.997   3.287
 7476SOL    HW223328   2.251   0.955   3.142
 7477SOL     OW23329   2.030   3.172   5.476
 7477SOL    HW123330   2.059   3.260   5.514
 7477SOL    HW223331   2.094   3.101   5.505
 7478SOL     OW23332   0.214   1.291   5.841
 7478SOL    HW123333   0.148   1.219   5.817
 7478SOL    HW223334   0.245   1.336   5.757
 7479SOL     OW23335   4.834   2.605   1.248
 7479SOL    HW123336   4.825   2.610   1.348
 7479SOL    HW223337   4.811   2.694   1.209
 7480SOL     OW23338   3.769   5.671   2.556
 7480SOL    HW123339   3.847   5.646   2.614
 7480SOL    HW223340   3.691   5.695   2.613
 7481SOL     OW23341   6.984   4.055   6.708
 7481SOL    HW123342   0.018   4.043   6.625
 7481SOL    HW223343   7.009   4.141   6.752
 7482SOL     OW23344   5.589   2.415   3.776
 7482SOL    HW123345   5.679   2.429   3.816
 7482SOL    HW223346   5.519   2.450   3.839
 7483SOL     OW23347   4.402   1.823   6.274
 7483SOL    HW123348   4.320   1.877   6.294
 7483SOL    HW223349   4.383   1.726   6.289
 7484SOL     OW23350   3.307   0.176   3.595
 7484SOL    HW123351   3.360   0.166   3.679
 7484SOL    HW223352   3.367   0.202   3.520
 7485SOL     OW23353   3.785   0.097   6.419
 7485SOL    HW123354   3.706   0.061   6.470
 7485SOL    HW223355   3.813   0.030   6.350
 7486SOL     OW23356   3.694   0.059   0.729
 7486SOL    HW123357   3.649   0.015   0.651
 7486SOL    HW223358   3.635   0.054   0.809
 7487SOL     OW23359   3.317   6.529   4.158
 7487SOL    HW123360   3.399   6.582   4.134
 7487SOL    HW223361   3.343   6.437   4.185
 7488SOL     OW23362   0.901   5.631   4.031
 7488SOL    HW123363   0.894   5.534   4.054
 7488SOL    HW223364   0.843   5.685   4.092
 7489SOL     OW23365   5.502   2.455   0.097
 7489SOL    HW123366   5.430   2.522   0.115
 7489SOL    HW223367   5.549   2.478   0.012
 7490SOL     OW23368   1.446   2.964   2.509
 7490SOL    HW123369   1.430   2.952   2.411
 7490SOL    HW223370   1.526   2.912   2.536
 7491SOL     OW23371   4.342   4.081   6.924
 7491SOL    HW123372   4.303   3.996   6.889
 7491SOL    HW223373   4.419   4.108   6.866
 7492SOL     OW23374   1.480   0.566   3.922
 7492SOL    HW123375   1.511   0.478   3.889
 7492SOL    HW223376   1.478   0.566   4.022
 7493SOL     OW23377   6.193   4.628   5.054
 7493SOL    HW123378   6.112   4.573   5.034
 7493SOL    HW223379   6.209   4.630   5.153
 7494SOL     OW23380   6.448   1.192   2.760
 7494SOL    HW123381   6.412   1.108   2.719
 7494SOL    HW223382   6.371   1.251   2.789
 7495SOL     OW23383   1.395   3.297   5.185
 7495SOL    HW123384   1.478   3.250   5.155
 7495SOL    HW223385   1.385   3.289   5.284
 7496SOL     OW23386   6.408   4.070   2.752
 7496SOL    HW123387   6.312   4.051   2.771
 7496SOL    HW223388   6.449   3.990   2.709
 7497SOL     OW23389   6.360   6.386   1.270
 7497SOL    HW123390   6.445   6.415   1.226
 7497SOL    HW223391   6.283   6.404   1.209
 7498SOL     OW23392   3.400   6.309   3.183
 7498SOL    HW123393   3.411   6.400   3.142
 7498SOL    HW223394   3.306   6.300   3.217
 7499SOL     OW23395   3.160   1.443   3.326
 7499SOL    HW123396   3.106   1.485   3.399
 7499SOL    HW223397   3.249   1.489   3.319
 7500SOL     OW23398   3.932   1.009   3.630
 7500SOL    HW123399   3.851   1.064   3.610
 7500SOL    HW223400   3.910   0.912   3.621
 7501SOL     OW23401   6.579   2.031   4.917
 7501SOL    HW123402   6.644   1.955   4.920
 7501SOL    HW223403   6.617   2.105   4.862
 7502SOL     OW23404   4.461   0.668   3.687
 7502SOL    HW123405   4.478   0.714   3.774
 7502SOL    HW223406   4.420   0.579   3.704
 7503SOL     OW23407   1.851   5.757   1.965
 7503SOL    HW123408   1.942   5.756   1.922
 7503SOL    HW223409   1.828   5.850   1.992
 7504SOL     OW23410   5.947   6.202   4.295
 7504SOL    HW123411   5.932   6.122   4.236
 7504SOL    HW223412   5.889   6.277   4.264
 7505SOL     OW23413   0.323   6.323   4.997
 7505SOL    HW123414   0.351   6.229   5.017
 7505SOL    HW223415   0.224   6.332   5.013
 7506SOL     OW23416   3.036   1.857   3.594
 7506SOL    HW123417   3.058   1.861   3.691
 7506SOL    HW223418   3.053   1.946   3.552
 7507SOL     OW23419   6.347   4.218   6.501
 7507SOL    HW123420   6.352   4.122   6.473
 7507SOL    HW223421   6.254   4.240   6.528
 7508SOL     OW23422   3.164   6.318   0.570
 7508SOL    HW123423   3.080   6.275   0.603
 7508SOL    HW223424   3.223   6.339   0.648
 7509SOL     OW23425   5.946   4.439   2.025
 7509SOL    HW123426   5.951   4.534   2.057
 7509SOL    HW223427   5.976   4.378   2.099
 7510SOL     OW23428   3.797   4.061   2.374
 7510SOL    HW123429   3.839   4.054   2.465
 7510SOL    HW223430   3.809   4.154   2.340
 7511SOL     OW23431   4.383   5.955   4.021
 7511SOL    HW123432   4.389   6.054   4.032
 7511SOL    HW223433   4.360   5.913   4.108
 7512SOL     OW23434   3.907   1.139   1.126
 7512SOL    HW123435   3.867   1.062   1.175
 7512SOL    HW223436   4.006   1.125   1.116
 7513SOL     OW23437   1.346   1.754   1.962
 7513SOL    HW123438   1.406   1.739   2.041
 7513SOL    HW223439   1.251   1.733   1.987
 7514SOL     OW23440   0.172   6.518   1.723
 7514SOL    HW123441   0.215   6.535   1.812
 7514SOL    HW223442   0.104   6.445   1.732
 7515SOL     OW23443   0.224   3.901   5.406
 7515SOL    HW123444   0.289   3.968   5.371
 7515SOL    HW223445   0.156   3.947   5.463
 7516SOL     OW23446   1.805   6.299   5.468
 7516SOL    HW123447   1.854   6.234   5.526
 7516SOL    HW223448   1.756   6.249   5.397
 7517SOL     OW23449   0.792   1.259   5.910
 7517SOL    HW123450   0.771   1.207   5.827
 7517SOL    HW223451   0.888   1.286   5.909
 7518SOL     OW23452   4.604   1.747   4.502
 7518SOL    HW123453   4.520   1.713   4.544
 7518SOL    HW223454   4.671   1.673   4.497
 7519SOL     OW23455   3.996   6.863   4.020
 7519SOL    HW123456   3.983   6.914   4.105
 7519SOL    HW223457   4.034   6.924   3.950
 7520SOL     OW23458   1.825   1.349   0.432
 7520SOL    HW123459   1.839   1.252   0.451
 7520SOL    HW223460   1.741   1.360   0.379
 7521SOL     OW23461   4.276   1.531   4.522
 7521SOL    HW123462   4.244   1.529   4.617
 7521SOL    HW223463   4.365   1.486   4.515
 7522SOL     OW23464   2.338   6.938   3.373
 7522SOL    HW123465   2.312   6.887   3.454
 7522SOL    HW223466   2.418   6.895   3.331
 7523SOL     OW23467   6.156   0.675   0.735
 7523SOL    HW123468   6.198   0.659   0.646
 7523SOL    HW223469   6.204   0.623   0.805
 7524SOL     OW23470   0.606   4.312   4.369
 7524SOL    HW123471   0.654   4.306   4.457
 7524SOL    HW223472   0.665   4.356   4.302
 7525SOL     OW23473   3.431   4.593   6.215
 7525SOL    HW123474   3.488   4.515   6.192
 7525SOL    HW223475   3.364   4.609   6.143
 7526SOL     OW23476   2.530   4.068   0.964
 7526SOL    HW123477   2.593   4.134   0.923
 7526SOL    HW223478   2.449   4.059   0.906
 7527SOL     OW23479   3.516   5.192   3.337
 7527SOL    HW123480   3.595   5.132   3.326
 7527SOL    HW223481   3.532   5.255   3.413
 7528SOL     OW23482   6.374   2.430   5.954
 7528SOL    HW123483   6.314   2.465   6.026
 7528SOL    HW223484   6.430   2.356   5.991
 7529SOL     OW23485   6.606   3.655   3.902
 7529SOL    HW123486   6.697   3.642   3.941
 7529SOL    HW223487   6.539   3.609   3.960
 7530SOL     OW23488   1.152   2.944   2.954
 7530SOL    HW123489   1.137   2.920   2.858
 7530SOL    HW223490   1.127   2.867   3.012
 7531SOL     OW23491   3.582   1.943   4.161
 7531SOL    HW123492   3.510   1.929   4.229
 7531SOL    HW223493   3.549   2.006   4.090
 7532SOL     OW23494   4.515   5.845   6.316
 7532SOL    HW123495   4.550   5.752   6.306
 7532SOL    HW223496   4.418   5.843   6.340
 7533SOL     OW23497   4.355   4.226   1.654
 7533SOL    HW123498   4.259   4.254   1.657
 7533SOL    HW223499   4.398   4.244   1.743
 7534SOL     OW23500   4.666   6.300   5.326
 7534SOL    HW123501   4.644   6.360   5.249
 7534SOL    HW223502   4.746   6.244   5.302
 7535SOL     OW23503   0.841   6.619   3.886
 7535SOL    HW123504   0.794   6.676   3.819
 7535SOL    HW223505   0.775   6.566   3.937
 7536SOL     OW23506   6.242   6.118   3.683
 7536SOL    HW123507   6.227   6.199   3.627
 7536SOL    HW223508   6.341   6.102   3.693
 7537SOL     OW23509   2.108   6.603   2.808
 7537SOL    HW123510   2.148   6.690   2.779
 7537SOL    HW223511   2.042   6.573   2.739
 7538SOL     OW23512   0.787   4.285   0.348
 7538SOL    HW123513   0.849   4.301   0.271
 7538SOL    HW223514   0.831   4.315   0.433
 7539SOL     OW23515   6.854   0.087   4.631
 7539SOL    HW123516   6.852   0.187   4.642
 7539SOL    HW223517   6.766   0.057   4.594
 7540SOL     OW23518   5.853   4.649   2.973
 7540SOL    HW123519   5.928   4.659   3.038
 7540SOL    HW223520   5.846   4.553   2.946
 7541SOL     OW23521   2.815   4.038   5.838
 7541SOL    HW123522   2.790   4.112   5.776
 7541SOL    HW223523   2.878   3.976   5.792
 7542SOL     OW23524   6.418   5.694   4.491
 7542SOL    HW123525   6.411   5.782   4.537
 7542SOL    HW223526   6.476   5.633   4.544
 7543SOL     OW23527   2.563   1.220   0.236
 7543SOL    HW123528   2.534   1.268   0.319
 7543SOL    HW223529   2.570   1.286   0.161
 7544SOL     OW23530   6.529   1.594   4.579
 7544SOL    HW123531   6.553   1.500   4.554
 7544SOL    HW223532   6.513   1.599   4.678
 7545SOL     OW23533   2.047   5.316   5.491
 7545SOL    HW123534   2.046   5.254   5.413
 7545SOL    HW223535   2.040   5.263   5.576
 7546SOL     OW23536   2.416   2.707   2.092
 7546SOL    HW123537   2.429   2.608   2.085
 7546SOL    HW223538   2.490   2.754   2.043
 7547SOL     OW23539   3.918   0.306   1.872
 7547SOL    HW123540   3.924   0.235   1.802
 7547SOL    HW223541   3.824   0.315   1.903
 7548SOL     OW23542   3.029   2.538   6.164
 7548SOL    HW123543   3.093   2.583   6.226
 7548SOL    HW223544   2.963   2.605   6.130
 7549SOL     OW23545   5.391   0.446   4.735
 7549SOL    HW123546   5.367   0.392   4.815
 7549SOL    HW223547   5.430   0.387   4.664
 7550SOL     OW23548   2.082   5.696   4.306
 7550SOL    HW123549   2.091   5.629   4.233
 7550SOL    HW223550   2.093   5.652   4.395
 7551SOL     OW23551   6.332   1.969   6.541
 7551SOL    HW123552   6.234   1.965   6.523
 7551SOL    HW223553   6.378   2.017   6.465
 7552SOL     OW23554   2.750   6.694   4.662
 7552SOL    HW123555   2.752   6.692   4.562
 7552SOL    HW223556   2.671   6.643   4.695
 7553SOL     OW23557   6.201   6.556   5.973
 7553SOL    HW123558   6.280   6.496   5.972
 7553SOL    HW223559   6.125   6.512   5.926
 7554SOL     OW23560   4.394   1.593   0.783
 7554SOL    HW123561   4.430   1.500   0.784
 7554SOL    HW223562   4.435   1.645   0.858
 7555SOL     OW23563   4.685   4.834   4.269
 7555SOL    HW123564   4.761   4.811   4.330
 7555SOL    HW223565   4.705   4.919   4.220
 7556SOL     OW23566   1.489   6.517   1.519
 7556SOL    HW123567   1.482   6.584   1.593
 7556SOL    HW223568   1.428   6.543   1.444
 7557SOL     OW23569   4.292   6.728   1.301
 7557SOL    HW123570   4.267   6.805   1.242
 7557SOL    HW223571   4.351   6.665   1.251
 7558SOL     OW23572   0.442   1.636   3.673
 7558SOL    HW123573   0.390   1.670   3.595
 7558SOL    HW223574   0.447   1.536   3.668
 7559SOL     OW23575   2.780   1.475   5.032
 7559SOL    HW123576   2.850   1.538   5.066
 7559SOL    HW223577   2.708   1.527   4.985
 7560SOL     OW23578   1.514   1.496   5.836
 7560SOL    HW123579   1.512   1.403   5.873
 7560SOL    HW223580   1.431   1.513   5.783
 7561SOL     OW23581   5.885   1.454   5.533
 7561SOL    HW123582   5.813   1.523   5.535
 7561SOL    HW223583   5.844   1.363   5.528
 7562SOL     OW23584   2.363   5.418   3.125
 7562SOL    HW123585   2.399   5.468   3.204
 7562SOL    HW223586   2.269   5.446   3.106
 7563SOL     OW23587   3.667   6.032   2.750
 7563SOL    HW123588   3.759   5.994   2.748
 7563SOL    HW223589   3.638   6.046   2.845
 7564SOL     OW23590   3.841   1.471   5.209
 7564SOL    HW123591   3.751   1.463   5.167
 7564SOL    HW223592   3.838   1.436   5.302
 7565SOL     OW23593   6.217   3.397   5.633
 7565SOL    HW123594   6.178   3.331   5.697
 7565SOL    HW223595   6.215   3.488   5.674
 7566SOL     OW23596   4.829   4.660   1.706
 7566SOL    HW123597   4.893   4.653   1.782
 7566SOL    HW223598   4.738   4.683   1.741
 7567SOL     OW23599   1.086   6.732   4.382
 7567SOL    HW123600   1.036   6.649   4.358
 7567SOL    HW223601   1.057   6.764   4.472
 7568SOL     OW23602   5.817   5.176   1.708
 7568SOL    HW123603   5.790   5.080   1.703
 7568SOL    HW223604   5.912   5.186   1.676
 7569SOL     OW23605   4.761   3.624   0.411
 7569SOL    HW123606   4.857   3.633   0.438
 7569SOL    HW223607   4.715   3.712   0.423
 7570SOL     OW23608   0.885   3.335   2.087
 7570SOL    HW123609   0.958   3.400   2.108
 7570SOL    HW223610   0.797   3.382   2.093
 7571SOL     OW23611   4.142   1.843   3.183
 7571SOL    HW123612   4.085   1.924   3.188
 7571SOL    HW223613   4.163   1.823   3.087
 7572SOL     OW23614   4.748   6.787   3.940
 7572SOL    HW123615   4.847   6.779   3.937
 7572SOL    HW223616   4.714   6.821   3.852
 7573SOL     OW23617   4.291   6.546   6.158
 7573SOL    HW123618   4.365   6.495   6.114
 7573SOL    HW223619   4.308   6.549   6.257
 7574SOL     OW23620   0.329   2.489   4.039
 7574SOL    HW123621   0.395   2.452   4.104
 7574SOL    HW223622   0.378   2.541   3.969
 7575SOL     OW23623   0.155   6.261   2.322
 7575SOL    HW123624   0.202   6.197   2.384
 7575SOL    HW223625   0.105   6.328   2.376
 7576SOL     OW23626   4.640   2.457   6.641
 7576SOL    HW123627   4.588   2.391   6.694
 7576SOL    HW223628   4.738   2.446   6.660
 7577SOL     OW23629   0.713   0.560   0.050
 7577SOL    HW123630   0.672   0.525   6.986
 7577SOL    HW223631   0.640   0.589   0.113
 7578SOL     OW23632   6.168   6.310   3.466
 7578SOL    HW123633   6.173   6.243   3.392
 7578SOL    HW223634   6.204   6.398   3.433
 7579SOL     OW23635   0.774   1.980   6.556
 7579SOL    HW123636   0.866   1.955   6.588
 7579SOL    HW223637   0.778   2.002   6.459
 7580SOL     OW23638   2.606   5.553   3.237
 7580SOL    HW123639   2.650   5.497   3.166
 7580SOL    HW223640   2.648   5.532   3.325
 7581SOL     OW23641   0.135   0.734   2.017
 7581SOL    HW123642   0.193   0.689   2.086
 7581SOL    HW223643   0.179   0.819   1.988
 7582SOL     OW23644   2.576   1.734   6.288
 7582SOL    HW123645   2.542   1.823   6.319
 7582SOL    HW223646   2.529   1.707   6.204
 7583SOL     OW23647   5.672   3.371   2.292
 7583SOL    HW123648   5.659   3.397   2.388
 7583SOL    HW223649   5.586   3.334   2.256
 7584SOL     OW23650   0.748   1.067   3.444
 7584SOL    HW123651   0.833   1.020   3.468
 7584SOL    HW223652   0.684   1.001   3.403
 7585SOL     OW23653   1.045   1.349   5.928
 7585SOL    HW123654   1.130   1.296   5.929
 7585SOL    HW223655   1.046   1.411   5.849
 7586SOL     OW23656   2.205   6.607   3.281
 7586SOL    HW123657   2.238   6.519   3.313
 7586SOL    HW223658   2.184   6.666   3.359
 7587SOL     OW23659   4.432   0.156   1.564
 7587SOL    HW123660   4.435   0.144   1.664
 7587SOL    HW223661   4.413   0.252   1.543
 7588SOL     OW23662   2.206   2.704   4.526
 7588SOL    HW123663   2.128   2.680   4.584
 7588SOL    HW223664   2.291   2.671   4.568
 7589SOL     OW23665   6.777   0.396   2.879
 7589SOL    HW123666   6.853   0.350   2.924
 7589SOL    HW223667   6.788   0.391   2.780
 7590SOL     OW23668   6.336   0.965   0.466
 7590SOL    HW123669   6.363   1.012   0.382
 7590SOL    HW223670   6.417   0.928   0.511
 7591SOL     OW23671   3.212   3.291   4.895
 7591SOL    HW123672   3.150   3.226   4.850
 7591SOL    HW223673   3.304   3.282   4.857
 7592SOL     OW23674   0.224   6.288   3.782
 7592SOL    HW123675   0.137   6.243   3.803
 7592SOL    HW223676   0.207   6.369   3.727
 7593SOL     OW23677   0.313   0.935   5.444
 7593SOL    HW123678   0.308   0.956   5.541
 7593SOL    HW223679   0.379   0.995   5.400
 7594SOL     OW23680   6.790   3.802   6.079
 7594SOL    HW123681   6.865   3.777   6.018
 7594SOL    HW223682   6.827   3.835   6.166
 7595SOL     OW23683   1.141   3.260   6.885
 7595SOL    HW123684   1.180   3.351   6.871
 7595SOL    HW223685   1.109   3.222   6.798
 7596SOL     OW23686   2.905   1.067   0.031
 7596SOL    HW123687   2.865   1.034   6.966
 7596SOL    HW223688   2.971   1.140   0.011
 7597SOL     OW23689   1.890   4.738   1.246
 7597SOL    HW123690   1.918   4.825   1.287
 7597SOL    HW223691   1.913   4.739   1.149
 7598SOL     OW23692   6.151   0.805   1.973
 7598SOL    HW123693   6.101   0.850   2.047
 7598SOL    HW223694   6.125   0.709   1.969
 7599SOL     OW23695   3.251   4.022   1.121
 7599SOL    HW123696   3.200   3.997   1.039
 7599SOL    HW223697   3.203   4.096   1.169
 7600SOL     OW23698   1.390   6.992   3.902
 7600SOL    HW123699   1.451   0.043   3.866
 7600SOL    HW223700   1.433   6.903   3.890
 7601SOL     OW23701   2.585   6.870   1.698
 7601SOL    HW123702   2.499   6.840   1.739
 7601SOL    HW223703   2.612   6.958   1.738
 7602SOL     OW23704   0.570   1.396   1.248
 7602SOL    HW123705   0.569   1.342   1.332
 7602SOL    HW223706   0.634   1.472   1.258
 7603SOL     OW23707   4.125   1.051   6.008
 7603SOL    HW123708   4.122   1.090   6.100
 7603SOL    HW223709   4.072   0.966   6.007
 7604SOL     OW23710   1.281   2.482   4.903
 7604SOL    HW123711   1.194   2.521   4.933
 7604SOL    HW223712   1.339   2.554   4.865
 7605SOL     OW23713   2.266   6.132   0.164
 7605SOL    HW123714   2.285   6.105   0.069
 7605SOL    HW223715   2.221   6.056   0.211
 7606SOL     OW23716   6.790   0.741   3.186
 7606SOL    HW123717   6.714   0.715   3.246
 7606SOL    HW223718   6.874   0.749   3.241
 7607SOL     OW23719   1.799   6.256   5.913
 7607SOL    HW123720   1.780   6.354   5.922
 7607SOL    HW223721   1.898   6.243   5.904
 7608SOL     OW23722   6.998   2.192   6.515
 7608SOL    HW123723   6.900   2.212   6.517
 7608SOL    HW223724   7.015   2.100   6.550
 7609SOL     OW23725   3.319   1.654   4.532
 7609SOL    HW123726   3.395   1.706   4.569
 7609SOL    HW223727   3.265   1.615   4.606
 7610SOL     OW23728   4.026   5.150   4.608
 7610SOL    HW123729   4.017   5.115   4.701
 7610SOL    HW223730   4.065   5.079   4.550
 7611SOL     OW23731   4.649   2.537   0.483
 7611SOL    HW123732   4.632   2.478   0.563
 7611SOL    HW223733   4.696   2.620   0.513
 7612SOL     OW23734   3.783   2.187   3.272
 7612SOL    HW123735   3.777   2.217   3.367
 7612SOL    HW223736   3.876   2.153   3.255
 7613SOL     OW23737   0.781   0.529   0.368
 7613SOL    HW123738   0.701   0.549   0.313
 7613SOL    HW223739   0.762   0.551   0.464
 7614SOL     OW23740   5.270   4.199   0.346
 7614SOL    HW123741   5.344   4.133   0.332
 7614SOL    HW223742   5.309   4.290   0.362
 7615SOL     OW23743   6.081   3.358   5.301
 7615SOL    HW123744   6.178   3.351   5.324
 7615SOL    HW223745   6.025   3.328   5.378
 7616SOL     OW23746   6.990   6.718   2.860
 7616SOL    HW123747   0.068   6.731   2.873
 7616SOL    HW223748   6.940   6.752   2.940
 7617SOL     OW23749   6.384   4.126   3.235
 7617SOL    HW123750   6.390   4.208   3.178
 7617SOL    HW223751   6.475   4.104   3.271
 7618SOL     OW23752   2.646   2.383   0.290
 7618SOL    HW123753   2.697   2.403   0.206
 7618SOL    HW223754   2.676   2.296   0.328
 7619SOL     OW23755   1.924   1.516   4.664
 7619SOL    HW123756   1.832   1.508   4.626
 7619SOL    HW223757   1.967   1.426   4.666
 7620SOL     OW23758   3.453   4.393   1.059
 7620SOL    HW123759   3.416   4.478   1.095
 7620SOL    HW223760   3.453   4.323   1.130
 7621SOL     OW23761   6.108   4.054   0.165
 7621SOL    HW123762   6.120   3.964   0.208
 7621SOL    HW223763   6.134   4.047   0.068
 7622SOL     OW23764   3.289   3.921   1.698
 7622SOL    HW123765   3.247   3.862   1.767
 7622SOL    HW223766   3.240   3.912   1.612
 7623SOL     OW23767   5.599   4.182   2.027
 7623SOL    HW123768   5.641   4.097   1.997
 7623SOL    HW223769   5.591   4.182   2.126
 7624SOL     OW23770   1.077   3.627   2.405
 7624SOL    HW123771   1.014   3.556   2.435
 7624SOL    HW223772   1.026   3.699   2.358
 7625SOL     OW23773   5.523   0.465   2.333
 7625SOL    HW123774   5.495   0.546   2.283
 7625SOL    HW223775   5.498   0.474   2.429
 7626SOL     OW23776   4.101   6.885   0.084
 7626SOL    HW123777   4.115   6.815   0.154
 7626SOL    HW223778   4.110   6.843   7.014
 7627SOL     OW23779   3.972   2.882   6.551
 7627SOL    HW123780   3.983   2.796   6.601
 7627SOL    HW223781   4.061   2.914   6.519
 7628SOL     OW23782   3.199   2.543   0.492
 7628SOL    HW123783   3.281   2.533   0.548
 7628SOL    HW223784   3.164   2.636   0.501
 7629SOL     OW23785   6.004   2.433   2.995
 7629SOL    HW123786   6.100   2.458   3.009
 7629SOL    HW223787   5.964   2.406   3.082
 7630SOL     OW23788   1.508   6.425   4.026
 7630SOL    HW123789   1.511   6.523   4.006
 7630SOL    HW223790   1.421   6.387   3.994
 7631SOL     OW23791   0.862   0.819   5.525
 7631SOL    HW123792   0.897   0.810   5.431
 7631SOL    HW223793   0.875   0.733   5.574
 7632SOL     OW23794   4.524   5.621   1.269
 7632SOL    HW123795   4.624   5.625   1.266
 7632SOL    HW223796   4.486   5.712   1.251
 7633SOL     OW23797   6.187   0.981   1.291
 7633SOL    HW123798   6.218   1.003   1.383
 7633SOL    HW223799   6.122   1.051   1.261
 7634SOL     OW23800   0.151   2.483   6.335
 7634SOL    HW123801   0.179   2.394   6.371
 7634SOL    HW223802   0.210   2.508   6.258
 7635SOL     OW23803   2.274   2.732   5.205
 7635SOL    HW123804   2.344   2.668   5.235
 7635SOL    HW223805   2.317   2.817   5.175
 7636SOL     OW23806   6.908   3.805   3.940
 7636SOL    HW123807   6.874   3.731   3.998
 7636SOL    HW223808   6.932   3.884   3.996
 7637SOL     OW23809   0.830   4.593   4.915
 7637SOL    HW123810   0.748   4.648   4.928
 7637SOL    HW223811   0.840   4.571   4.817
 7638SOL     OW23812   0.098   5.866   0.992
 7638SOL    HW123813   0.066   5.778   1.027
 7638SOL    HW223814   0.188   5.854   0.949
 7639SOL     OW23815   1.411   0.213   0.514
 7639SOL    HW123816   1.373   0.275   0.446
 7639SOL    HW223817   1.482   0.157   0.473
 7640SOL     OW23818   3.180   1.126   1.096
 7640SOL    HW123819   3.175   1.225   1.111
 7640SOL    HW223820   3.239   1.107   1.018
 7641SOL     OW23821   0.183   4.575   4.662
 7641SOL    HW123822   0.192   4.593   4.565
 7641SOL    HW223823   0.116   4.502   4.677
 7642SOL     OW23824   5.125   0.811   3.287
 7642SOL    HW123825   5.195   0.881   3.276
 7642SOL    HW223826   5.053   0.825   3.218
 7643SOL     OW23827   5.308   3.619   4.798
 7643SOL    HW123828   5.217   3.622   4.840
 7643SOL    HW223829   5.375   3.595   4.868
 7644SOL     OW23830   4.871   3.818   1.111
 7644SOL    HW123831   4.935   3.786   1.041
 7644SOL    HW223832   4.895   3.912   1.137
 7645SOL     OW23833   4.272   4.912   0.202
 7645SOL    HW123834   4.287   4.969   0.282
 7645SOL    HW223835   4.286   4.967   0.119
 7646SOL     OW23836   0.172   1.877   0.373
 7646SOL    HW123837   0.168   1.849   0.277
 7646SOL    HW223838   0.120   1.962   0.385
 7647SOL     OW23839   6.751   2.606   4.135
 7647SOL    HW123840   6.684   2.555   4.081
 7647SOL    HW223841   6.831   2.625   4.078
 7648SOL     OW23842   2.001   2.079   2.082
 7648SOL    HW123843   2.047   2.054   2.167
 7648SOL    HW223844   1.990   1.998   2.024
 7649SOL     OW23845   3.844   0.766   0.009
 7649SOL    HW123846   3.770   0.778   0.075
 7649SOL    HW223847   3.876   0.855   6.998
 7650SOL     OW23848   3.594   2.093   0.236
 7650SOL    HW123849   3.607   2.178   0.186
 7650SOL    HW223850   3.570   2.020   0.172
 7651SOL     OW23851   3.427   5.357   6.396
 7651SOL    HW123852   3.525   5.350   6.379
 7651SOL    HW223853   3.398   5.451   6.380
 7652SOL     OW23854   0.813   1.049   4.388
 7652SOL    HW123855   0.879   1.035   4.463
 7652SOL    HW223856   0.839   1.130   4.336
 7653SOL     OW23857   2.377   0.463   0.264
 7653SOL    HW123858   2.291   0.460   0.214
 7653SOL    HW223859   2.443   0.519   0.214
 7654SOL     OW23860   6.583   1.895   6.036
 7654SOL    HW123861   6.637   1.973   6.005
 7654SOL    HW223862   6.500   1.888   5.980
 7655SOL     OW23863   3.671   2.057   4.795
 7655SOL    HW123864   3.571   2.047   4.801
 7655SOL    HW223865   3.694   2.095   4.705
 7656SOL     OW23866   5.764   4.191   0.135
 7656SOL    HW123867   5.796   4.105   0.095
 7656SOL    HW223868   5.753   4.259   0.062
 7657SOL     OW23869   0.918   4.253   4.851
 7657SOL    HW123870   0.930   4.324   4.920
 7657SOL    HW223871   0.999   4.249   4.793
 7658SOL     OW23872   2.768   0.404   0.915
 7658SOL    HW123873   2.766   0.313   0.872
 7658SOL    HW223874   2.853   0.414   0.967
 7659SOL     OW23875   5.028   4.333   5.667
 7659SOL    HW123876   4.977   4.251   5.691
 7659SOL    HW223877   4.990   4.373   5.584
 7660SOL     OW23878   6.692   6.098   5.759
 7660SOL    HW123879   6.696   6.096   5.659
 7660SOL    HW223880   6.762   6.160   5.794
 7661SOL     OW23881   3.848   0.876   5.425
 7661SOL    HW123882   3.897   0.864   5.511
 7661SOL    HW223883   3.809   0.968   5.421
 7662SOL     OW23884   6.822   5.724   1.123
 7662SOL    HW123885   6.835   5.796   1.191
 7662SOL    HW223886   6.911   5.682   1.102
 7663SOL     OW23887   1.077   5.384   5.066
 7663SOL    HW123888   1.085   5.285   5.079
 7663SOL    HW223889   1.011   5.403   4.994
 7664SOL     OW23890   4.110   2.259   2.459
 7664SOL    HW123891   4.046   2.333   2.436
 7664SOL    HW223892   4.070   2.171   2.433
 7665SOL     OW23893   3.510   0.760   5.650
 7665SOL    HW123894   3.567   0.742   5.570
 7665SOL    HW223895   3.523   0.687   5.717
 7666SOL     OW23896   5.345   4.964   4.143
 7666SOL    HW123897   5.377   5.032   4.209
 7666SOL    HW223898   5.417   4.946   4.076
 7667SOL     OW23899   4.499   6.424   2.402
 7667SOL    HW123900   4.598   6.435   2.415
 7667SOL    HW223901   4.476   6.441   2.306
 7668SOL     OW23902   1.263   5.704   0.693
 7668SOL    HW123903   1.206   5.707   0.612
 7668SOL    HW223904   1.313   5.617   0.696
 7669SOL     OW23905   2.778   1.555   6.837
 7669SOL    HW123906   2.696   1.531   6.785
 7669SOL    HW223907   2.762   1.642   6.885
 7670SOL     OW23908   0.839   0.609   0.773
 7670SOL    HW123909   0.834   0.654   0.862
 7670SOL    HW223910   0.933   0.611   0.740
 7671SOL     OW23911   3.105   0.043   1.425
 7671SOL    HW123912   3.140   6.986   1.477
 7671SOL    HW223913   3.110   0.126   1.480
 7672SOL     OW23914   5.375   3.503   2.165
 7672SOL    HW123915   5.438   3.549   2.104
 7672SOL    HW223916   5.396   3.405   2.167
 7673SOL     OW23917   1.413   6.700   4.749
 7673SOL    HW123918   1.471   6.619   4.741
 7673SOL    HW223919   1.342   6.685   4.817
 7674SOL     OW23920   3.777   5.789   4.435
 7674SOL    HW123921   3.790   5.775   4.337
 7674SOL    HW223922   3.864   5.772   4.483
 7675SOL     OW23923   4.619   6.114   3.118
 7675SOL    HW123924   4.641   6.211   3.107
 7675SOL    HW223925   4.604   6.094   3.215
 7676SOL     OW23926   3.649   3.038   5.063
 7676SOL    HW123927   3.661   3.135   5.041
 7676SOL    HW223928   3.584   3.030   5.139
 7677SOL     OW23929   6.625   4.735   6.735
 7677SOL    HW123930   6.696   4.688   6.683
 7677SOL    HW223931   6.662   4.768   6.821
 7678SOL     OW23932   3.560   1.792   5.622
 7678SOL    HW123933   3.631   1.747   5.677
 7678SOL    HW223934   3.499   1.723   5.583
 7679SOL     OW23935   3.571   5.683   4.547
 7679SOL    HW123936   3.646   5.734   4.506
 7679SOL    HW223937   3.485   5.712   4.505
 7680SOL     OW23938   2.082   6.782   3.978
 7680SOL    HW123939   2.046   6.798   4.070
 7680SOL    HW223940   2.043   6.698   3.941
 7681SOL     OW23941   1.946   2.468   5.505
 7681SOL    HW123942   2.014   2.501   5.440
 7681SOL    HW223943   1.980   2.482   5.598
 7682SOL     OW23944   3.204   0.636   2.435
 7682SOL    HW123945   3.160   0.725   2.438
 7682SOL    HW223946   3.205   0.595   2.526
 7683SOL     OW23947   0.923   4.538   4.659
 7683SOL    HW123948   0.891   4.603   4.590
 7683SOL    HW223949   0.863   4.458   4.661
 7684SOL     OW23950   5.237   2.950   1.202
 7684SOL    HW123951   5.252   2.853   1.183
 7684SOL    HW223952   5.188   2.960   1.289
 7685SOL     OW23953   2.800   0.266   0.637
 7685SOL    HW123954   2.742   0.186   0.654
 7685SOL    HW223955   2.777   0.305   0.548
 7686SOL     OW23956   6.624   7.017   4.494
 7686SOL    HW123957   6.667   6.930   4.472
 7686SOL    HW223958   6.550   0.015   4.429
 7687SOL     OW23959   5.126   3.034   6.431
 7687SOL    HW123960   5.152   3.111   6.372
 7687SOL    HW223961   5.058   2.977   6.383
 7688SOL     OW23962   5.703   2.763   6.523
 7688SOL    HW123963   5.651   2.787   6.606
 7688SOL    HW223964   5.741   2.672   6.533
 7689SOL     OW23965   5.586   6.806   1.880
 7689SOL    HW123966   5.657   6.754   1.928
 7689SOL    HW223967   5.594   6.902   1.904
 7690SOL     OW23968   5.700   4.961   2.229
 7690SOL    HW123969   5.690   4.865   2.205
 7690SOL    HW223970   5.610   5.004   2.234
 7691SOL     OW23971   4.790   2.988   3.894
 7691SOL    HW123972   4.779   2.931   3.975
 7691SOL    HW223973   4.752   2.941   3.814
 7692SOL     OW23974   2.839   6.622   2.201
 7692SOL    HW123975   2.772   6.691   2.230
 7692SOL    HW223976   2.905   6.607   2.275
 7693SOL     OW23977   3.390   1.402   1.760
 7693SOL    HW123978   3.424   1.320   1.715
 7693SOL    HW223979   3.456   1.434   1.828
 7694SOL     OW23980   4.389   2.106   6.713
 7694SOL    HW123981   4.351   2.112   6.621
 7694SOL    HW223982   4.429   2.016   6.727
 7695SOL     OW23983   5.091   6.852   3.785
 7695SOL    HW123984   5.056   6.760   3.768
 7695SOL    HW223985   5.125   6.891   3.699
 7696SOL     OW23986   2.513   2.312   5.707
 7696SOL    HW123987   2.476   2.337   5.796
 7696SOL    HW223988   2.457   2.240   5.667
 7697SOL     OW23989   6.028   6.863   3.557
 7697SOL    HW123990   5.946   6.835   3.607
 7697SOL    HW223991   6.032   6.963   3.554
 7698SOL     OW23992   6.371   3.027   0.894
 7698SOL    HW123993   6.448   3.088   0.876
 7698SOL    HW223994   6.347   2.977   0.811
 7699SOL     OW23995   4.387   6.123   5.698
 7699SOL    HW123996   4.297   6.109   5.655
 7699SOL    HW223997   4.449   6.166   5.633
 7700SOL     OW23998   5.660   5.402   1.210
 7700SOL    HW123999   5.635   5.329   1.273
 7700SOL    HW224000   5.759   5.401   1.194
 7701SOL     OW24001   1.926   1.953   6.541
 7701SOL    HW124002   1.926   1.900   6.455
 7701SOL    HW224003   2.017   1.949   6.582
 7702SOL     OW24004   5.262   6.610   5.048
 7702SOL    HW124005   5.193   6.541   5.070
 7702SOL    HW224006   5.223   6.677   4.985
 7703SOL     OW24007   0.034   6.515   5.434
 7703SOL    HW124008   7.018   6.539   5.525
 7703SOL    HW224009   0.096   6.437   5.443
 7704SOL     OW24010   1.591   1.587   4.944
 7704SOL    HW124011   1.600   1.489   4.961
 7704SOL    HW224012   1.572   1.603   4.847
 7705SOL     OW24013   1.053   4.665   0.111
 7705SOL    HW124014   0.982   4.694   0.048
 7705SOL    HW224015   1.011   4.629   0.195
 7706SOL     OW24016   3.252   3.271   2.376
 7706SOL    HW124017   3.348   3.276   2.404
 7706SOL    HW224018   3.229   3.349   2.318
 7707SOL     OW24019   6.527   4.399   6.335
 7707SOL    HW124020   6.456   4.446   6.284
 7707SOL    HW224021   6.490   4.314   6.373
 7708SOL     OW24022   1.630   0.270   4.065
 7708SOL    HW124023   1.536   0.242   4.085
 7708SOL    HW224024   1.666   0.323   4.142
 7709SOL     OW24025   6.659   4.624   1.246
 7709SOL    HW124026   6.615   4.646   1.333
 7709SOL    HW224027   6.652   4.702   1.184
 7710SOL     OW24028   6.330   2.859   1.674
 7710SOL    HW124029   6.262   2.852   1.601
 7710SOL    HW224030   6.307   2.937   1.732
 7711SOL     OW24031   0.635   4.716   4.004
 7711SOL    HW124032   0.721   4.666   4.014
 7711SOL    HW224033   0.578   4.671   3.934
 7712SOL     OW24034   0.439   4.953   4.573
 7712SOL    HW124035   0.473   5.047   4.575
 7712SOL    HW224036   0.389   4.934   4.658
 7713SOL     OW24037   0.988   4.720   0.682
 7713SOL    HW124038   1.039   4.678   0.758
 7713SOL    HW224039   1.020   4.814   0.669
 7714SOL     OW24040   6.160   1.652   5.474
 7714SOL    HW124041   6.108   1.580   5.429
 7714SOL    HW224042   6.106   1.690   5.550
 7715SOL     OW24043   3.407   3.025   6.200
 7715SOL    HW124044   3.465   2.963   6.253
 7715SOL    HW224045   3.459   3.107   6.176
 7716SOL     OW24046   1.267   6.798   6.284
 7716SOL    HW124047   1.201   6.795   6.209
 7716SOL    HW224048   1.293   6.705   6.309
 7717SOL     OW24049   0.389   2.229   6.119
 7717SOL    HW124050   0.355   2.271   6.034
 7717SOL    HW224051   0.313   2.198   6.175
 7718SOL     OW24052   0.180   2.802   2.923
 7718SOL    HW124053   0.241   2.813   2.845
 7718SOL    HW224054   0.090   2.840   2.900
 7719SOL     OW24055   2.013   5.415   4.978
 7719SOL    HW124056   2.001   5.486   5.048
 7719SOL    HW224057   2.087   5.441   4.917
 7720SOL     OW24058   4.408   1.131   6.868
 7720SOL    HW124059   4.438   1.226   6.874
 7720SOL    HW224060   4.386   1.108   6.773
 7721SOL     OW24061   6.086   5.910   2.414
 7721SOL    HW124062   6.141   5.843   2.462
 7721SOL    HW224063   6.006   5.865   2.374
 7722SOL     OW24064   0.689   6.063   3.922
 7722SOL    HW124065   0.758   6.135   3.933
 7722SOL    HW224066   0.648   6.070   3.832
 7723SOL     OW24067   4.657   4.455   6.972
 7723SOL    HW124068   4.557   4.448   6.968
 7723SOL    HW224069   4.687   4.452   0.047
 7724SOL     OW24070   1.750   4.033   0.288
 7724SOL    HW124071   1.715   3.958   0.345
 7724SOL    HW224072   1.780   3.996   0.200
 7725SOL     OW24073   5.601   3.216   4.589
 7725SOL    HW124074   5.583   3.205   4.492
 7725SOL    HW224075   5.669   3.148   4.618
 7726SOL     OW24076   2.063   3.625   6.782
 7726SOL    HW124077   2.107   3.536   6.769
 7726SOL    HW224078   2.054   3.671   6.693
 7727SOL     OW24079   4.851   0.415   2.116
 7727SOL    HW124080   4.772   0.460   2.075
 7727SOL    HW224081   4.914   0.484   2.152
 7728SOL     OW24082   1.838   3.737   4.732
 7728SOL    HW124083   1.905   3.680   4.686
 7728SOL    HW224084   1.850   3.729   4.831
 7729SOL     OW24085   6.929   0.717   2.489
 7729SOL    HW124086   6.831   0.699   2.480
 7729SOL    HW224087   6.957   0.703   2.584
 7730SOL     OW24088   6.227   4.845   5.577
 7730SOL    HW124089   6.194   4.938   5.565
 7730SOL    HW224090   6.236   4.826   5.675
 7731SOL     OW24091   6.566   0.125   5.360
 7731SOL    HW124092   6.509   0.091   5.285
 7731SOL    HW224093   6.579   0.054   5.428
 7732SOL     OW24094   4.555   1.046   0.065
 7732SOL    HW124095   4.514   1.051   6.994
 7732SOL    HW224096   4.503   1.104   0.128
 7733SOL     OW24097   0.035   5.308   1.148
 7733SOL    HW124098   0.058   5.310   1.246
 7733SOL    HW224099   0.117   5.286   1.095
 7734SOL     OW24100   4.074   3.732   3.306
 7734SOL    HW124101   3.988   3.685   3.326
 7734SOL    HW224102   4.095   3.796   3.379
 7735SOL     OW24103   0.683   5.908   0.993
 7735SOL    HW124104   0.760   5.865   0.946
 7735SOL    HW224105   0.649   5.984   0.939
 7736SOL     OW24106   1.736   2.144   6.907
 7736SOL    HW124107   1.830   2.126   6.935
 7736SOL    HW224108   1.681   2.165   6.988
 7737SOL     OW24109   4.342   4.500   6.943
 7737SOL    HW124110   4.295   4.578   6.982
 7737SOL    HW224111   4.288   4.417   6.956
 7738SOL     OW24112   1.802   0.389   4.834
 7738SOL    HW124113   1.767   0.399   4.741
 7738SOL    HW224114   1.897   0.357   4.831
 7739SOL     OW24115   1.677   2.665   0.360
 7739SOL    HW124116   1.701   2.683   0.265
 7739SOL    HW224117   1.590   2.709   0.382
 7740SOL     OW24118   2.421   1.086   4.443
 7740SOL    HW124119   2.473   1.051   4.521
 7740SOL    HW224120   2.417   1.016   4.372
 7741SOL     OW24121   0.205   4.482   6.067
 7741SOL    HW124122   0.241   4.563   6.022
 7741SOL    HW224123   0.260   4.462   6.149
 7742SOL     OW24124   4.855   2.355   4.163
 7742SOL    HW124125   4.877   2.430   4.100
 7742SOL    HW224126   4.881   2.268   4.122
 7743SOL     OW24127   4.007   1.206   5.801
 7743SOL    HW124128   4.070   1.152   5.856
 7743SOL    HW224129   4.056   1.284   5.762
 7744SOL     OW24130   0.861   7.011   4.576
 7744SOL    HW124131   0.776   6.971   4.608
 7744SOL    HW224132   0.863   7.013   4.476
 7745SOL     OW24133   2.640   6.687   1.046
 7745SOL    HW124134   2.682   6.716   0.960
 7745SOL    HW224135   2.570   6.618   1.028
 7746SOL     OW24136   0.075   6.207   1.397
 7746SOL    HW124137   0.115   6.297   1.410
 7746SOL    HW224138   0.005   6.190   1.467
 7747SOL     OW24139   0.111   5.651   0.766
 7747SOL    HW124140   0.182   5.591   0.728
 7747SOL    HW224141   0.038   5.663   0.699
 7748SOL     OW24142   4.273   1.145   6.267
 7748SOL    HW124143   4.307   1.206   6.339
 7748SOL    HW224144   4.338   1.070   6.253
 7749SOL     OW24145   3.605   2.951   3.404
 7749SOL    HW124146   3.638   3.034   3.450
 7749SOL    HW224147   3.507   2.942   3.419
 7750SOL     OW24148   5.336   5.068   5.998
 7750SOL    HW124149   5.275   5.052   6.075
 7750SOL    HW224150   5.298   5.025   5.916
 7751SOL     OW24151   6.391   1.325   4.693
 7751SOL    HW124152   6.395   1.334   4.793
 7751SOL    HW224153   6.480   1.294   4.659
 7752SOL     OW24154   6.394   4.888   5.149
 7752SOL    HW124155   6.327   4.816   5.131
 7752SOL    HW224156   6.416   4.890   5.246
 7753SOL     OW24157   2.891   0.627   4.872
 7753SOL    HW124158   2.926   0.608   4.780
 7753SOL    HW224159   2.936   0.567   4.938
 7754SOL     OW24160   5.966   0.517   1.168
 7754SOL    HW124161   5.897   0.500   1.238
 7754SOL    HW224162   6.027   0.590   1.199
 7755SOL     OW24163   1.641   5.904   5.013
 7755SOL    HW124164   1.682   5.918   5.102
 7755SOL    HW224165   1.593   5.987   4.985
 7756SOL     OW24166   3.930   5.672   2.799
 7756SOL    HW124167   4.016   5.631   2.828
 7756SOL    HW224168   3.943   5.770   2.784
 7757SOL     OW24169   3.582   0.127   6.201
 7757SOL    HW124170   3.648   0.140   6.127
 7757SOL    HW224171   3.628   0.137   6.289
 7758SOL     OW24172   3.284   2.688   6.354
 7758SOL    HW124173   3.293   2.786   6.338
 7758SOL    HW224174   3.373   2.644   6.344
 7759SOL     OW24175   1.705   0.527   4.589
 7759SOL    HW124176   1.625   0.473   4.563
 7759SOL    HW224177   1.747   0.567   4.507
 7760SOL     OW24178   5.236   2.218   3.682
 7760SOL    HW124179   5.241   2.313   3.650
 7760SOL    HW224180   5.311   2.166   3.643
 7761SOL     OW24181   4.429   0.554   6.822
 7761SOL    HW124182   4.347   0.586   6.870
 7761SOL    HW224183   4.504   0.545   6.887
 7762SOL     OW24184   1.959   2.438   0.325
 7762SOL    HW124185   1.988   2.449   0.230
 7762SOL    HW224186   2.029   2.475   0.386
 7763SOL     OW24187   2.393   2.155   1.487
 7763SOL    HW124188   2.440   2.109   1.562
 7763SOL    HW224189   2.384   2.252   1.508
 7764SOL     OW24190   4.061   3.256   2.208
 7764SOL    HW124191   4.083   3.224   2.301
 7764SOL    HW224192   4.099   3.348   2.195
 7765SOL     OW24193   6.963   1.830   2.525
 7765SOL    HW124194   6.953   1.771   2.605
 7765SOL    HW224195   6.873   1.853   2.488
 7766SOL     OW24196   6.953   3.638   0.317
 7766SOL    HW124197   6.895   3.627   0.236
 7766SOL    HW224198   6.911   3.704   0.379
 7767SOL     OW24199   5.774   4.101   5.574
 7767SOL    HW124200   5.765   4.032   5.502
 7767SOL    HW224201   5.684   4.118   5.615
 7768SOL     OW24202   4.081   5.291   1.939
 7768SOL    HW124203   4.008   5.232   1.906
 7768SOL    HW224204   4.091   5.369   1.877
 7769SOL     OW24205   6.174   1.934   2.471
 7769SOL    HW124206   6.109   1.900   2.403
 7769SOL    HW224207   6.158   2.031   2.488
 7770SOL     OW24208   3.494   6.178   1.036
 7770SOL    HW124209   3.530   6.270   1.022
 7770SOL    HW224210   3.398   6.183   1.064
 7771SOL     OW24211   2.018   1.277   4.706
 7771SOL    HW124212   1.932   1.227   4.692
 7771SOL    HW224213   2.087   1.214   4.742
 7772SOL     OW24214   5.550   0.620   4.845
 7772SOL    HW124215   5.487   0.574   4.782
 7772SOL    HW224216   5.500   0.644   4.928
 7773SOL     OW24217   3.763   4.096   5.936
 7773SOL    HW124218   3.728   4.008   5.901
 7773SOL    HW224219   3.713   4.171   5.892
 7774SOL     OW24220   5.114   1.769   6.979
 7774SOL    HW124221   5.186   1.703   6.955
 7774SOL    HW224222   5.097   1.829   6.900
 7775SOL     OW24223   1.695   0.308   1.784
 7775SOL    HW124224   1.638   0.288   1.863
 7775SOL    HW224225   1.673   0.245   1.709
 7776SOL     OW24226   3.715   3.878   0.900
 7776SOL    HW124227   3.734   3.953   0.964
 7776SOL    HW224228   3.640   3.822   0.936
 7777SOL     OW24229   1.002   0.036   6.452
 7777SOL    HW124230   1.050   6.981   6.496
 7777SOL    HW224231   1.065   0.086   6.393
 7778SOL     OW24232   4.906   1.279   1.855
 7778SOL    HW124233   4.914   1.359   1.914
 7778SOL    HW224234   4.889   1.309   1.761
 7779SOL     OW24235   4.566   2.940   0.506
 7779SOL    HW124236   4.566   2.904   0.600
 7779SOL    HW224237   4.634   2.891   0.452
 7780SOL     OW24238   0.974   0.567   5.067
 7780SOL    HW124239   0.981   0.562   4.968
 7780SOL    HW224240   1.027   0.492   5.108
 7781SOL     OW24241   1.752   4.498   5.376
 7781SOL    HW124242   1.669   4.538   5.414
 7781SOL    HW224243   1.751   4.507   5.276
 7782SOL     OW24244   4.567   4.705   0.282
 7782SOL    HW124245   4.629   4.773   0.319
 7782SOL    HW224246   4.526   4.739   0.197
 7783SOL     OW24247   2.334   5.561   0.054
 7783SOL    HW124248   2.382   5.631   0.106
 7783SOL    HW224249   2.361   5.470   0.087
 7784SOL     OW24250   6.906   3.117   0.372
 7784SOL    HW124251   6.934   3.185   0.439
 7784SOL    HW224252   6.950   3.030   0.393
 7785SOL     OW24253   2.195   5.561   5.622
 7785SOL    HW124254   2.138   5.501   5.566
 7785SOL    HW224255   2.196   5.653   5.584
 7786SOL     OW24256   3.576   4.086   4.326
 7786SOL    HW124257   3.590   4.161   4.391
 7786SOL    HW224258   3.611   4.113   4.236
 7787SOL     OW24259   2.862   2.287   5.042
 7787SOL    HW124260   2.954   2.253   5.018
 7787SOL    HW224261   2.829   2.345   4.968
 7788SOL     OW24262   0.734   1.852   0.807
 7788SOL    HW124263   0.717   1.754   0.809
 7788SOL    HW224264   0.779   1.880   0.892
 7789SOL     OW24265   2.226   0.608   1.398
 7789SOL    HW124266   2.274   0.689   1.365
 7789SOL    HW224267   2.281   0.562   1.467
 7790SOL     OW24268   6.047   3.777   3.004
 7790SOL    HW124269   5.973   3.745   3.064
 7790SOL    HW224270   6.069   3.872   3.027
 7791SOL     OW24271   0.550   4.335   5.130
 7791SOL    HW124272   0.504   4.362   5.214
 7791SOL    HW224273   0.584   4.416   5.083
 7792SOL     OW24274   2.066   5.626   6.709
 7792SOL    HW124275   2.008   5.558   6.662
 7792SOL    HW224276   2.142   5.652   6.649
 7793SOL     OW24277   1.737   0.998   6.399
 7793SOL    HW124278   1.797   1.059   6.348
 7793SOL    HW224279   1.785   0.913   6.420
 7794SOL     OW24280   5.223   5.558   2.665
 7794SOL    HW124281   5.173   5.471   2.667
 7794SOL    HW224282   5.160   5.631   2.638
 7795SOL     OW24283   1.325   4.727   6.018
 7795SOL    HW124284   1.301   4.712   6.113
 7795SOL    HW224285   1.241   4.733   5.963
 7796SOL     OW24286   4.067   3.557   4.710
 7796SOL    HW124287   4.075   3.491   4.635
 7796SOL    HW224288   4.046   3.647   4.673
 7797SOL     OW24289   1.078   6.968   3.199
 7797SOL    HW124290   1.149   6.910   3.238
 7797SOL    HW224291   1.047   6.930   3.112
 7798SOL     OW24292   4.099   6.316   6.046
 7798SOL    HW124293   4.087   6.387   6.116
 7798SOL    HW224294   4.159   6.244   6.082
 7799SOL     OW24295   6.284   4.811   1.315
 7799SOL    HW124296   6.231   4.842   1.236
 7799SOL    HW224297   6.284   4.711   1.317
 7800SOL     OW24298   0.634   6.381   2.362
 7800SOL    HW124299   0.607   6.382   2.265
 7800SOL    HW224300   0.731   6.401   2.370
 7801SOL     OW24301   3.923   2.255   5.299
 7801SOL    HW124302   3.972   2.183   5.250
 7801SOL    HW224303   3.825   2.233   5.302
 7802SOL     OW24304   5.485   1.915   0.158
 7802SOL    HW124305   5.426   1.931   0.237
 7802SOL    HW224306   5.575   1.884   0.188
 7803SOL     OW24307   2.718   4.201   5.346
 7803SOL    HW124308   2.673   4.281   5.386
 7803SOL    HW224309   2.682   4.118   5.387
 7804SOL     OW24310   4.670   0.987   6.457
 7804SOL    HW124311   4.630   1.013   6.546
 7804SOL    HW224312   4.770   0.991   6.463
 7805SOL     OW24313   5.262   3.257   1.818
 7805SOL    HW124314   5.177   3.303   1.794
 7805SOL    HW224315   5.276   3.179   1.757
 7806SOL     OW24316   4.953   3.344   6.759
 7806SOL    HW124317   4.855   3.344   6.781
 7806SOL    HW224318   4.982   3.436   6.733
 7807SOL     OW24319   0.072   3.602   6.553
 7807SOL    HW124320   0.147   3.539   6.536
 7807SOL    HW224321   7.019   3.587   6.486
 7808SOL     OW24322   1.178   1.368   5.485
 7808SOL    HW124323   1.136   1.298   5.543
 7808SOL    HW224324   1.109   1.435   5.458
 7809SOL     OW24325   1.660   5.300   5.655
 7809SOL    HW124326   1.672   5.212   5.701
 7809SOL    HW224327   1.607   5.286   5.571
 7810SOL     OW24328   1.965   1.173   6.853
 7810SOL    HW124329   2.005   1.224   6.776
 7810SOL    HW224330   1.932   1.237   6.922
 7811SOL     OW24331   0.599   4.684   4.581
 7811SOL    HW124332   0.674   4.667   4.517
 7811SOL    HW224333   0.550   4.767   4.554
 7812SOL     OW24334   0.594   2.255   3.905
 7812SOL    HW124335   0.529   2.192   3.862
 7812SOL    HW224336   0.581   2.347   3.867
 7813SOL     OW24337   6.811   2.483   1.177
 7813SOL    HW124338   6.794   2.403   1.235
 7813SOL    HW224339   6.729   2.540   1.174
 7814SOL     OW24340   2.326   4.192   4.057
 7814SOL    HW124341   2.316   4.113   3.996
 7814SOL    HW224342   2.267   4.266   4.025
 7815SOL     OW24343   0.118   1.861   5.969
 7815SOL    HW124344   0.127   1.946   5.916
 7815SOL    HW224345   0.193   1.799   5.945
 7816SOL     OW24346   1.354   4.220   5.092
 7816SOL    HW124347   1.428   4.269   5.047
 7816SOL    HW224348   1.384   4.190   5.183
 7817SOL     OW24349   5.227   3.177   5.280
 7817SOL    HW124350   5.280   3.093   5.278
 7817SOL    HW224351   5.129   3.155   5.279
 7818SOL     OW24352   5.124   4.338   2.667
 7818SOL    HW124353   5.141   4.420   2.614
 7818SOL    HW224354   5.028   4.310   2.656
 7819SOL     OW24355   0.401   1.831   1.383
 7819SOL    HW124356   0.463   1.833   1.461
 7819SOL    HW224357   0.450   1.862   1.301
 7820SOL     OW24358   2.104   0.031   6.551
 7820SOL    HW124359   2.171   0.073   6.490
 7820SOL    HW224360   2.149   0.003   6.636
 7821SOL     OW24361   3.058   5.239   1.128
 7821SOL    HW124362   3.115   5.287   1.062
 7821SOL    HW224363   2.985   5.299   1.160
 7822SOL     OW24364   1.866   6.550   5.606
 7822SOL    HW124365   1.829   6.612   5.537
 7822SOL    HW224366   1.819   6.462   5.600
 7823SOL     OW24367   1.830   4.133   5.192
 7823SOL    HW124368   1.921   4.094   5.180
 7823SOL    HW224369   1.836   4.232   5.196
 7824SOL     OW24370   0.689   3.269   5.406
 7824SOL    HW124371   0.764   3.229   5.352
 7824SOL    HW224372   0.606   3.216   5.391
 7825SOL     OW24373   3.283   0.651   6.959
 7825SOL    HW124374   3.243   0.602   0.016
 7825SOL    HW224375   3.225   0.729   6.935
 7826SOL     OW24376   0.437   3.141   5.421
 7826SOL    HW124377   0.365   3.100   5.365
 7826SOL    HW224378   0.397   3.206   5.485
 7827SOL     OW24379   6.254   5.299   4.879
 7827SOL    HW124380   6.163   5.313   4.918
 7827SOL    HW224381   6.316   5.266   4.951
 7828SOL     OW24382   0.715   4.982   6.577
 7828SOL    HW124383   0.742   4.925   6.655
 7828SOL    HW224384   0.626   4.952   6.543
 7829SOL     OW24385   3.858   4.249   0.690
 7829SOL    HW124386   3.890   4.251   0.595
 7829SOL    HW224387   3.760   4.230   0.692
 7830SOL     OW24388   2.892   5.918   3.915
 7830SOL    HW124389   2.906   5.825   3.881
 7830SOL    HW224390   2.947   5.981   3.860
 7831SOL     OW24391   1.675   6.915   6.187
 7831SOL    HW124392   1.581   6.943   6.210
 7831SOL    HW224393   1.740   6.975   6.235
 7832SOL     OW24394   6.537   1.073   4.863
 7832SOL    HW124395   6.468   1.007   4.835
 7832SOL    HW224396   6.495   1.145   4.917
 7833SOL     OW24397   1.086   0.740   2.924
 7833SOL    HW124398   1.109   0.674   2.852
 7833SOL    HW224399   1.103   0.832   2.891
 7834SOL     OW24400   6.539   3.020   5.391
 7834SOL    HW124401   6.566   3.112   5.420
 7834SOL    HW224402   6.615   2.957   5.405
 7835SOL     OW24403   3.868   2.162   5.629
 7835SOL    HW124404   3.964   2.135   5.634
 7835SOL    HW224405   3.856   2.228   5.554
 7836SOL     OW24406   3.061   3.930   4.366
 7836SOL    HW124407   3.041   3.903   4.271
 7836SOL    HW224408   3.017   3.866   4.429
 7837SOL     OW24409   0.691   5.862   6.482
 7837SOL    HW124410   0.670   5.835   6.388
 7837SOL    HW224411   0.692   5.781   6.540
 7838SOL     OW24412   4.180   5.367   2.184
 7838SOL    HW124413   4.131   5.336   2.102
 7838SOL    HW224414   4.207   5.462   2.173
 7839SOL     OW24415   6.061   3.579   4.735
 7839SOL    HW124416   6.150   3.554   4.774
 7839SOL    HW224417   6.005   3.497   4.724
 7840SOL     OW24418   2.154   3.029   3.605
 7840SOL    HW124419   2.247   3.001   3.628
 7840SOL    HW224420   2.089   2.976   3.660
 7841SOL     OW24421   3.815   2.025   6.450
 7841SOL    HW124422   3.716   2.035   6.438
 7841SOL    HW224423   3.852   2.109   6.487
 7842SOL     OW24424   1.000   1.066   1.653
 7842SOL    HW124425   1.004   1.116   1.567
 7842SOL    HW224426   0.909   1.026   1.665
 7843SOL     OW24427   0.036   6.382   2.598
 7843SOL    HW124428   0.006   6.302   2.649
 7843SOL    HW224429   6.979   6.442   2.581
 7844SOL     OW24430   4.012   6.788   2.974
 7844SOL    HW124431   3.931   6.781   3.033
 7844SOL    HW224432   4.011   6.875   2.926
 7845SOL     OW24433   6.294   3.035   1.282
 7845SOL    HW124434   6.244   2.997   1.360
 7845SOL    HW224435   6.230   3.059   1.209
 7846SOL     OW24436   1.209   1.038   0.971
 7846SOL    HW124437   1.115   1.027   0.938
 7846SOL    HW224438   1.246   1.124   0.936
 7847SOL     OW24439   5.351   4.339   6.268
 7847SOL    HW124440   5.380   4.272   6.200
 7847SOL    HW224441   5.353   4.297   6.359
 7848SOL     OW24442   3.795   4.464   0.330
 7848SOL    HW124443   3.850   4.482   0.249
 7848SOL    HW224444   3.812   4.371   0.362
 7849SOL     OW24445   4.182   5.184   6.946
 7849SOL    HW124446   4.084   5.164   6.939
 7849SOL    HW224447   4.196   5.261   7.007
 7850SOL     OW24448   6.943   0.307   4.026
 7850SOL    HW124449   6.900   0.224   4.063
 7850SOL    HW224450   6.984   0.287   3.937
 7851SOL     OW24451   6.864   4.790   0.850
 7851SOL    HW124452   6.933   4.792   0.922
 7851SOL    HW224453   6.822   4.881   0.843
 7852SOL     OW24454   1.297   2.971   6.331
 7852SOL    HW124455   1.298   2.901   6.402
 7852SOL    HW224456   1.236   2.943   6.257
 7853SOL     OW24457   4.094   2.866   1.754
 7853SOL    HW124458   4.048   2.947   1.719
 7853SOL    HW224459   4.031   2.813   1.811
 7854SOL     OW24460   4.749   1.186   0.737
 7854SOL    HW124461   4.842   1.189   0.773
 7854SOL    HW224462   4.752   1.160   0.641
 7855SOL     OW24463   5.472   6.439   3.905
 7855SOL    HW124464   5.384   6.477   3.874
 7855SOL    HW224465   5.455   6.364   3.969
 7856SOL     OW24466   2.141   6.510   5.461
 7856SOL    HW124467   2.051   6.500   5.503
 7856SOL    HW224468   2.211   6.490   5.529
 7857SOL     OW24469   6.163   4.442   0.999
 7857SOL    HW124470   6.186   4.409   1.091
 7857SOL    HW224471   6.244   4.481   0.957
 7858SOL     OW24472   6.826   3.821   6.344
 7858SOL    HW124473   6.749   3.777   6.391
 7858SOL    HW224474   6.894   3.752   6.321
 7859SOL     OW24475   5.062   1.772   0.800
 7859SOL    HW124476   4.982   1.831   0.804
 7859SOL    HW224477   5.033   1.677   0.811
 7860SOL     OW24478   3.057   1.458   4.306
 7860SOL    HW124479   3.051   1.397   4.384
 7860SOL    HW224480   3.005   1.542   4.325
 7861SOL     OW24481   1.987   6.119   1.049
 7861SOL    HW124482   2.042   6.146   0.970
 7861SOL    HW224483   2.029   6.154   1.132
 7862SOL     OW24484   1.358   6.796   0.053
 7862SOL    HW124485   1.458   6.802   0.058
 7862SOL    HW224486   1.332   6.704   0.022
 7863SOL     OW24487   1.175   4.518   3.982
 7863SOL    HW124488   1.185   4.517   4.081
 7863SOL    HW224489   1.242   4.456   3.941
 7864SOL     OW24490   2.864   5.888   4.877
 7864SOL    HW124491   2.790   5.820   4.874
 7864SOL    HW224492   2.924   5.868   4.955
 7865SOL     OW24493   5.759   4.031   3.604
 7865SOL    HW124494   5.663   4.004   3.599
 7865SOL    HW224495   5.767   4.128   3.580
 7866SOL     OW24496   0.853   0.629   5.772
 7866SOL    HW124497   0.914   0.595   5.843
 7866SOL    HW224498   0.768   0.576   5.773
 7867SOL     OW24499   4.291   5.102   4.084
 7867SOL    HW124500   4.375   5.102   4.139
 7867SOL    HW224501   4.266   5.008   4.062
 7868SOL     OW24502   3.112   6.298   1.475
 7868SOL    HW124503   3.036   6.233   1.472
 7868SOL    HW224504   3.152   6.307   1.384
 7869SOL     OW24505   6.491   5.157   0.232
 7869SOL    HW124506   6.491   5.058   0.228
 7869SOL    HW224507   6.584   5.190   0.249
 7870SOL     OW24508   6.033   6.611   3.380
 7870SOL    HW124509   6.017   6.623   3.478
 7870SOL    HW224510   6.130   6.620   3.361
 7871SOL     OW24511   4.432   1.036   0.635
 7871SOL    HW124512   4.413   0.951   0.586
 7871SOL    HW224513   4.393   1.113   0.585
 7872SOL     OW24514   0.296   5.573   3.057
 7872SOL    HW124515   0.296   5.479   3.022
 7872SOL    HW224516   0.391   5.603   3.070
 7873SOL     OW24517   4.839   2.027   6.891
 7873SOL    HW124518   4.760   1.967   6.903
 7873SOL    HW224519   4.842   2.094   6.965
 7874SOL     OW24520   5.767   2.666   0.295
 7874SOL    HW124521   5.811   2.729   0.230
 7874SOL    HW224522   5.788   2.572   0.270
 7875SOL     OW24523   6.346   4.758   6.645
 7875SOL    HW124524   6.435   4.745   6.689
 7875SOL    HW224525   6.282   4.690   6.679
 7876SOL     OW24526   1.637   6.804   3.505
 7876SOL    HW124527   1.628   6.736   3.432
 7876SOL    HW224528   1.547   6.826   3.542
 7877SOL     OW24529   0.038   3.086   2.628
 7877SOL    HW124530   7.011   3.147   2.565
 7877SOL    HW224531   0.133   3.115   2.638
 7878SOL     OW24532   3.920   6.591   2.616
 7878SOL    HW124533   3.843   6.538   2.654
 7878SOL    HW224534   3.935   6.565   2.521
 7879SOL     OW24535   3.382   5.837   3.035
 7879SOL    HW124536   3.316   5.870   3.103
 7879SOL    HW224537   3.445   5.911   3.011
 7880SOL     OW24538   0.843   4.807   2.378
 7880SOL    HW124539   0.939   4.807   2.407
 7880SOL    HW224540   0.810   4.713   2.372
 7881SOL     OW24541   4.778   4.011   3.409
 7881SOL    HW124542   4.805   3.924   3.367
 7881SOL    HW224543   4.766   3.998   3.508
 7882SOL     OW24544   0.527   3.313   6.859
 7882SOL    HW124545   0.436   3.285   6.828
 7882SOL    HW224546   0.597   3.263   6.808
 7883SOL     OW24547   1.129   0.355   5.150
 7883SOL    HW124548   1.126   0.299   5.067
 7883SOL    HW224549   1.135   0.296   5.231
 7884SOL     OW24550   1.093   3.146   4.389
 7884SOL    HW124551   0.999   3.154   4.422
 7884SOL    HW224552   1.132   3.237   4.376
 7885SOL     OW24553   0.405   6.153   6.660
 7885SOL    HW124554   0.431   6.235   6.609
 7885SOL    HW224555   0.306   6.150   6.669
 7886SOL     OW24556   5.409   4.199   1.037
 7886SOL    HW124557   5.456   4.112   1.019
 7886SOL    HW224558   5.333   4.182   1.099
 7887SOL     OW24559   4.855   3.148   6.602
 7887SOL    HW124560   4.907   3.215   6.655
 7887SOL    HW224561   4.870   3.164   6.505
 7888SOL     OW24562   4.678   5.985   4.854
 7888SOL    HW124563   4.610   5.938   4.798
 7888SOL    HW224564   4.697   5.932   4.936
 7889SOL     OW24565   6.675   5.286   3.261
 7889SOL    HW124566   6.652   5.255   3.169
 7889SOL    HW224567   6.664   5.385   3.267
 7890SOL     OW24568   1.899   3.437   2.275
 7890SOL    HW124569   1.860   3.521   2.239
 7890SOL    HW224570   1.827   3.370   2.291
 7891SOL     OW24571   0.883   5.072   2.901
 7891SOL    HW124572   0.903   5.030   2.812
 7891SOL    HW224573   0.969   5.093   2.947
 7892SOL     OW24574   2.367   2.234   5.029
 7892SOL    HW124575   2.268   2.239   5.014
 7892SOL    HW224576   2.388   2.154   5.085
 7893SOL     OW24577   5.924   6.742   1.381
 7893SOL    HW124578   5.989   6.799   1.433
 7893SOL    HW224579   5.831   6.763   1.411
 7894SOL     OW24580   2.886   0.499   1.825
 7894SOL    HW124581   2.865   0.596   1.816
 7894SOL    HW224582   2.920   0.480   1.917
 7895SOL     OW24583   0.148   1.419   3.629
 7895SOL    HW124584   0.109   1.408   3.538
 7895SOL    HW224585   0.118   1.506   3.668
 7896SOL     OW24586   3.921   1.772   6.491
 7896SOL    HW124587   3.889   1.863   6.464
 7896SOL    HW224588   3.853   1.703   6.465
 7897SOL     OW24589   3.080   2.738   6.534
 7897SOL    HW124590   2.997   2.686   6.513
 7897SOL    HW224591   3.137   2.744   6.453
 7898SOL     OW24592   4.917   1.231   4.164
 7898SOL    HW124593   4.879   1.176   4.238
 7898SOL    HW224594   4.878   1.200   4.077
 7899SOL     OW24595   4.054   1.370   2.020
 7899SOL    HW124596   4.083   1.430   1.946
 7899SOL    HW224597   4.089   1.404   2.107
 7900SOL     OW24598   1.131   5.683   1.325
 7900SOL    HW124599   1.219   5.640   1.344
 7900SOL    HW224600   1.060   5.612   1.318
 7901SOL     OW24601   6.226   5.374   0.663
 7901SOL    HW124602   6.246   5.310   0.737
 7901SOL    HW224603   6.152   5.338   0.606
 7902SOL     OW24604   5.031   4.608   5.744
 7902SOL    HW124605   5.039   4.514   5.712
 7902SOL    HW224606   4.941   4.645   5.717
 7903SOL     OW24607   0.013   2.885   0.481
 7903SOL    HW124608   0.032   2.827   0.560
 7903SOL    HW224609   0.086   2.873   0.413
 7904SOL     OW24610   6.046   2.115   2.783
 7904SOL    HW124611   5.975   2.168   2.737
 7904SOL    HW224612   6.045   2.021   2.749
 7905SOL     OW24613   1.892   2.236   1.804
 7905SOL    HW124614   1.877   2.224   1.902
 7905SOL    HW224615   1.978   2.194   1.778
 7906SOL     OW24616   0.397   4.410   6.951
 7906SOL    HW124617   0.362   4.386   6.860
 7906SOL    HW224618   0.497   4.407   6.949
 7907SOL     OW24619   6.653   2.581   2.075
 7907SOL    HW124620   6.698   2.557   1.989
 7907SOL    HW224621   6.700   2.659   2.116
 7908SOL     OW24622   6.813   1.120   2.981
 7908SOL    HW124623   6.769   1.195   2.933
 7908SOL    HW224624   6.889   1.085   2.925
 7909SOL     OW24625   4.122   6.318   4.998
 7909SOL    HW124626   4.220   6.301   5.003
 7909SOL    HW224627   4.090   6.353   5.086
 7910SOL     OW24628   6.313   2.949   6.074
 7910SOL    HW124629   6.302   3.018   6.003
 7910SOL    HW224630   6.346   2.864   6.034
 7911SOL     OW24631   6.674   5.547   6.814
 7911SOL    HW124632   6.746   5.592   6.866
 7911SOL    HW224633   6.714   5.492   6.741
 7912SOL     OW24634   0.394   4.871   5.473
 7912SOL    HW124635   0.359   4.790   5.425
 7912SOL    HW224636   0.436   4.842   5.560
 7913SOL     OW24637   1.233   6.233   6.418
 7913SOL    HW124638   1.268   6.146   6.384
 7913SOL    HW224639   1.266   6.248   6.511
 7914SOL     OW24640   6.384   4.140   1.171
 7914SOL    HW124641   6.363   4.167   1.265
 7914SOL    HW224642   6.379   4.041   1.163
 7915SOL     OW24643   3.441   1.247   2.721
 7915SOL    HW124644   3.530   1.291   2.714
 7915SOL    HW224645   3.437   1.192   2.805
 7916SOL     OW24646   4.370   3.914   5.669
 7916SOL    HW124647   4.390   3.824   5.708
 7916SOL    HW224648   4.292   3.954   5.716
 7917SOL     OW24649   4.030   3.487   3.864
 7917SOL    HW124650   4.047   3.561   3.929
 7917SOL    HW224651   3.946   3.505   3.814
 7918SOL     OW24652   6.280   2.230   2.949
 7918SOL    HW124653   6.199   2.200   2.897
 7918SOL    HW224654   6.318   2.312   2.906
 7919SOL     OW24655   5.482   4.491   1.929
 7919SOL    HW124656   5.484   4.428   1.851
 7919SOL    HW224657   5.390   4.531   1.937
 7920SOL     OW24658   0.057   7.018   1.769
 7920SOL    HW124659   7.007   6.947   1.770
 7920SOL    HW224660   0.127   6.995   1.837
 7921SOL     OW24661   2.069   6.045   1.938
 7921SOL    HW124662   2.005   6.009   1.870
 7921SOL    HW224663   2.052   6.142   1.954
 7922SOL     OW24664   0.750   4.869   5.731
 7922SOL    HW124665   0.823   4.913   5.782
 7922SOL    HW224666   0.739   4.914   5.643
 7923SOL     OW24667   0.378   1.854   3.175
 7923SOL    HW124668   0.415   1.805   3.097
 7923SOL    HW224669   0.317   1.927   3.143
 7924SOL     OW24670   1.771   1.287   3.612
 7924SOL    HW124671   1.782   1.190   3.587
 7924SOL    HW224672   1.860   1.325   3.636
 7925SOL     OW24673   0.146   1.516   6.707
 7925SOL    HW124674   0.119   1.582   6.637
 7925SOL    HW224675   0.184   1.564   6.786
 7926SOL     OW24676   3.176   6.991   1.922
 7926SOL    HW124677   3.104   6.946   1.870
 7926SOL    HW224678   3.138   0.008   2.007
 7927SOL     OW24679   4.790   4.198   4.550
 7927SOL    HW124680   4.850   4.163   4.622
 7927SOL    HW224681   4.739   4.276   4.586
 7928SOL     OW24682   0.666   4.518   6.896
 7928SOL    HW124683   0.733   4.506   6.823
 7928SOL    HW224684   0.594   4.581   6.865
 7929SOL     OW24685   3.998   3.785   4.578
 7929SOL    HW124686   4.031   3.816   4.489
 7929SOL    HW224687   3.898   3.789   4.580
 7930SOL     OW24688   5.082   6.327   3.061
 7930SOL    HW124689   5.068   6.229   3.075
 7930SOL    HW224690   5.021   6.360   2.989
 7931SOL     OW24691   2.976   3.501   6.425
 7931SOL    HW124692   2.986   3.414   6.376
 7931SOL    HW224693   3.063   3.525   6.469
 7932SOL     OW24694   3.056   0.254   0.747
 7932SOL    HW124695   2.961   0.260   0.715
 7932SOL    HW224696   3.111   0.323   0.700
 7933SOL     OW24697   1.427   0.736   6.059
 7933SOL    HW124698   1.414   0.644   6.022
 7933SOL    HW224699   1.518   0.770   6.035
 7934SOL     OW24700   4.045   2.436   5.809
 7934SOL    HW124701   3.965   2.393   5.765
 7934SOL    HW224702   4.018   2.473   5.897
 7935SOL     OW24703   4.479   5.325   2.005
 7935SOL    HW124704   4.512   5.389   2.074
 7935SOL    HW224705   4.426   5.375   1.936
 7936SOL     OW24706   4.479   5.925   2.712
 7936SOL    HW124707   4.528   5.849   2.757
 7936SOL    HW224708   4.456   5.994   2.781
 7937SOL     OW24709   6.024   0.814   5.725
 7937SOL    HW124710   6.092   0.743   5.742
 7937SOL    HW224711   5.947   0.774   5.675
 7938SOL     OW24712   6.050   4.646   4.144
 7938SOL    HW124713   6.131   4.598   4.179
 7938SOL    HW224714   6.079   4.718   4.081
 7939SOL     OW24715   0.485   6.791   4.010
 7939SOL    HW124716   0.503   6.824   4.102
 7939SOL    HW224717   0.552   6.830   3.947
 7940SOL     OW24718   1.477   5.509   0.693
 7940SOL    HW124719   1.516   5.417   0.696
 7940SOL    HW224720   1.505   5.559   0.775
 7941SOL     OW24721   0.476   0.734   0.802
 7941SOL    HW124722   0.529   0.818   0.802
 7941SOL    HW224723   0.535   0.657   0.778
 7942SOL     OW24724   1.376   0.887   1.097
 7942SOL    HW124725   1.340   0.980   1.092
 7942SOL    HW224726   1.344   0.835   1.017
 7943SOL     OW24727   6.388   2.410   0.266
 7943SOL    HW124728   6.389   2.484   0.333
 7943SOL    HW224729   6.481   2.392   0.234
 7944SOL     OW24730   6.955   3.525   1.924
 7944SOL    HW124731   0.021   3.524   1.873
 7944SOL    HW224732   6.958   3.457   1.997
 7945SOL     OW24733   5.038   0.052   1.078
 7945SOL    HW124734   5.052   7.015   0.997
 7945SOL    HW224735   4.958   0.110   1.064
 7946SOL     OW24736   1.575   1.218   5.917
 7946SOL    HW124737   1.657   1.160   5.917
 7946SOL    HW224738   1.531   1.212   6.006
 7947SOL     OW24739   4.577   5.570   6.250
 7947SOL    HW124740   4.593   5.508   6.173
 7947SOL    HW224741   4.632   5.541   6.328
 7948SOL     OW24742   0.899   4.975   6.049
 7948SOL    HW124743   0.871   4.881   6.028
 7948SOL    HW224744   0.837   5.013   6.118
 7949SOL     OW24745   6.655   4.042   3.720
 7949SOL    HW124746   6.619   4.134   3.731
 7949SOL    HW224747   6.594   3.976   3.764
 7950SOL     OW24748   3.690   5.172   4.069
 7950SOL    HW124749   3.748   5.219   4.002
 7950SOL    HW224750   3.594   5.196   4.051
 7951SOL     OW24751   2.941   3.433   0.542
 7951SOL    HW124752   2.853   3.386   0.539
 7951SOL    HW224753   2.939   3.501   0.616
 7952SOL     OW24754   5.470   4.517   0.598
 7952SOL    HW124755   5.418   4.599   0.573
 7952SOL    HW224756   5.413   4.458   0.655
 7953SOL     OW24757   2.133   3.550   2.763
 7953SOL    HW124758   2.206   3.608   2.798
 7953SOL    HW224759   2.048   3.601   2.758
 7954SOL     OW24760   5.398   5.526   4.737
 7954SOL    HW124761   5.451   5.563   4.661
 7954SOL    HW224762   5.404   5.588   4.815
 7955SOL     OW24763   2.070   6.181   5.870
 7955SOL    HW124764   2.064   6.082   5.883
 7955SOL    HW224765   2.151   6.217   5.916
 7956SOL     OW24766   6.518   6.439   3.086
 7956SOL    HW124767   6.455   6.365   3.065
 7956SOL    HW224768   6.506   6.513   3.019
 7957SOL     OW24769   0.919   2.197   0.880
 7957SOL    HW124770   0.830   2.161   0.854
 7957SOL    HW224771   0.932   2.287   0.839
 7958SOL     OW24772   2.923   6.216   3.551
 7958SOL    HW124773   2.865   6.161   3.492
 7958SOL    HW224774   2.970   6.286   3.497
 7959SOL     OW24775   4.999   5.461   1.061
 7959SOL    HW124776   4.983   5.377   1.009
 7959SOL    HW224777   5.075   5.512   1.020
 7960SOL     OW24778   2.057   2.378   1.151
 7960SOL    HW124779   2.033   2.291   1.195
 7960SOL    HW224780   2.156   2.382   1.138
 7961SOL     OW24781   1.339   5.797   0.234
 7961SOL    HW124782   1.434   5.775   0.212
 7961SOL    HW224783   1.282   5.780   0.153
 7962SOL     OW24784   1.668   6.714   2.234
 7962SOL    HW124785   1.593   6.732   2.297
 7962SOL    HW224786   1.674   6.788   2.167
 7963SOL     OW24787   0.838   6.639   4.569
 7963SOL    HW124788   0.759   6.621   4.626
 7963SOL    HW224789   0.832   6.585   4.485
 7964SOL     OW24790   6.380   5.792   3.681
 7964SOL    HW124791   6.365   5.815   3.777
 7964SOL    HW224792   6.294   5.763   3.639
 7965SOL     OW24793   5.309   1.843   0.705
 7965SOL    HW124794   5.307   1.852   0.605
 7965SOL    HW224795   5.227   1.795   0.735
 7966SOL     OW24796   0.001   0.178   3.492
 7966SOL    HW124797   7.019   0.185   3.592
 7966SOL    HW224798   7.019   0.270   3.453
 7967SOL     OW24799   3.156   0.393   3.469
 7967SOL    HW124800   3.218   0.358   3.540
 7967SOL    HW224801   3.066   0.410   3.509
 7968SOL     OW24802   2.463   0.775   1.577
 7968SOL    HW124803   2.562   0.765   1.587
 7968SOL    HW224804   2.437   0.761   1.481
 7969SOL     OW24805   3.433   1.606   3.231
 7969SOL    HW124806   3.506   1.675   3.234
 7969SOL    HW224807   3.385   1.612   3.144
 7970SOL     OW24808   0.293   4.982   3.203
 7970SOL    HW124809   0.220   4.984   3.134
 7970SOL    HW224810   0.315   4.886   3.224
 7971SOL     OW24811   3.135   1.601   2.417
 7971SOL    HW124812   3.073   1.526   2.440
 7971SOL    HW224813   3.229   1.568   2.417
 7972SOL     OW24814   6.589   5.113   1.536
 7972SOL    HW124815   6.523   5.083   1.467
 7972SOL    HW224816   6.563   5.204   1.569
 7973SOL     OW24817   4.888   2.097   3.078
 7973SOL    HW124818   4.790   2.091   3.060
 7973SOL    HW224819   4.922   2.186   3.049
 7974SOL     OW24820   5.586   6.270   3.641
 7974SOL    HW124821   5.542   6.306   3.723
 7974SOL    HW224822   5.638   6.188   3.664
 7975SOL     OW24823   1.515   1.604   2.625
 7975SOL    HW124824   1.523   1.545   2.544
 7975SOL    HW224825   1.605   1.639   2.650
 7976SOL     OW24826   1.146   6.509   5.841
 7976SOL    HW124827   1.208   6.431   5.837
 7976SOL    HW224828   1.181   6.576   5.906
 7977SOL     OW24829   4.798   6.470   1.420
 7977SOL    HW124830   4.846   6.428   1.343
 7977SOL    HW224831   4.865   6.505   1.485
 7978SOL     OW24832   3.643   2.226   5.368
 7978SOL    HW124833   3.609   2.225   5.462
 7978SOL    HW224834   3.572   2.261   5.307
 7979SOL     OW24835   5.121   6.512   4.045
 7979SOL    HW124836   5.159   6.509   3.953
 7979SOL    HW224837   5.196   6.510   4.112
 7980SOL     OW24838   2.826   0.624   2.620
 7980SOL    HW124839   2.836   0.639   2.521
 7980SOL    HW224840   2.750   0.561   2.636
 7981SOL     OW24841   0.719   5.925   2.614
 7981SOL    HW124842   0.686   5.981   2.538
 7981SOL    HW224843   0.692   5.830   2.599
 7982SOL     OW24844   6.868   2.730   0.200
 7982SOL    HW124845   6.798   2.800   0.184
 7982SOL    HW224846   6.824   2.643   0.221
 7983SOL     OW24847   4.717   2.753   1.862
 7983SOL    HW124848   4.640   2.742   1.800
 7983SOL    HW224849   4.720   2.847   1.896
 7984SOL     OW24850   6.789   0.207   0.264
 7984SOL    HW124851   6.770   0.112   0.287
 7984SOL    HW224852   6.721   0.266   0.307
 7985SOL     OW24853   0.782   1.188   1.178
 7985SOL    HW124854   0.836   1.219   1.100
 7985SOL    HW224855   0.697   1.241   1.184
 7986SOL     OW24856   4.897   3.245   0.200
 7986SOL    HW124857   4.869   3.166   0.146
 7986SOL    HW224858   4.825   3.267   0.267
 7987SOL     OW24859   1.376   2.890   4.943
 7987SOL    HW124860   1.422   2.958   5.000
 7987SOL    HW224861   1.279   2.912   4.936
 7988SOL     OW24862   2.737   1.564   5.505
 7988SOL    HW124863   2.788   1.618   5.572
 7988SOL    HW224864   2.653   1.612   5.480
 7989SOL     OW24865   3.684   3.218   6.343
 7989SOL    HW124866   3.664   3.211   6.245
 7989SOL    HW224867   3.773   3.176   6.362
 7990SOL     OW24868   2.176   2.945   4.757
 7990SOL    HW124869   2.227   2.917   4.839
 7990SOL    HW224870   2.125   2.867   4.721
 7991SOL     OW24871   1.842   3.105   6.101
 7991SOL    HW124872   1.754   3.150   6.119
 7991SOL    HW224873   1.916   3.171   6.116
 7992SOL     OW24874   2.801   1.605   0.783
 7992SOL    HW124875   2.728   1.668   0.812
 7992SOL    HW224876   2.877   1.611   0.848
 7993SOL     OW24877   2.476   6.324   6.447
 7993SOL    HW124878   2.519   6.243   6.406
 7993SOL    HW224879   2.431   6.297   6.533
 7994SOL     OW24880   5.752   0.956   4.314
 7994SOL    HW124881   5.723   1.008   4.233
 7994SOL    HW224882   5.743   0.858   4.296
 7995SOL     OW24883   4.222   5.399   3.098
 7995SOL    HW124884   4.191   5.490   3.125
 7995SOL    HW224885   4.315   5.406   3.061
 7996SOL     OW24886   4.623   1.068   5.102
 7996SOL    HW124887   4.716   1.061   5.065
 7996SOL    HW224888   4.605   1.162   5.129
 7997SOL     OW24889   5.228   2.897   2.047
 7997SOL    HW124890   5.149   2.838   2.063
 7997SOL    HW224891   5.298   2.879   2.116
 7998SOL     OW24892   6.353   4.588   6.211
 7998SOL    HW124893   6.395   4.675   6.235
 7998SOL    HW224894   6.276   4.570   6.272
 7999SOL     OW24895   1.816   0.910   5.805
 7999SOL    HW124896   1.748   0.956   5.748
 7999SOL    HW224897   1.907   0.948   5.787
 8000SOL     OW24898   5.133   0.353   5.703
 8000SOL    HW124899   5.215   0.307   5.670
 8000SOL    HW224900   5.133   0.356   5.803
 8001SOL     OW24901   2.387   5.398   0.999
 8001SOL    HW124902   2.384   5.365   0.905
 8001SOL    HW224903   2.302   5.447   1.020
 8002SOL     OW24904   5.221   2.312   5.593
 8002SOL    HW124905   5.256   2.266   5.511
 8002SOL    HW224906   5.154   2.382   5.567
 8003SOL     OW24907   4.228   5.906   3.378
 8003SOL    HW124908   4.208   6.004   3.373
 8003SOL    HW224909   4.179   5.858   3.306
 8004SOL     OW24910   1.142   4.325   3.126
 8004SOL    HW124911   1.167   4.254   3.192
 8004SOL    HW224912   1.180   4.302   3.037
 8005SOL     OW24913   1.959   0.797   2.458
 8005SOL    HW124914   1.916   0.844   2.535
 8005SOL    HW224915   1.914   0.824   2.373
 8006SOL     OW24916   3.450   6.422   2.020
 8006SOL    HW124917   3.390   6.346   2.043
 8006SOL    HW224918   3.401   6.508   2.032
 8007SOL     OW24919   0.383   1.159   3.856
 8007SOL    HW124920   0.396   1.184   3.760
 8007SOL    HW224921   0.417   1.066   3.871
 8008SOL     OW24922   5.699   5.438   0.919
 8008SOL    HW124923   5.625   5.448   0.986
 8008SOL    HW224924   5.706   5.343   0.891
 8009SOL     OW24925   6.908   7.011   4.076
 8009SOL    HW124926   6.996   0.010   4.120
 8009SOL    HW224927   6.836   7.008   4.146
 8010SOL     OW24928   1.684   2.913   6.639
 8010SOL    HW124929   1.671   2.825   6.685
 8010SOL    HW224930   1.700   2.897   6.542
 8011SOL     OW24931   1.943   2.847   0.454
 8011SOL    HW124932   1.995   2.855   0.540
 8011SOL    HW224933   1.879   2.771   0.462
 8012SOL     OW24934   3.161   0.268   3.193
 8012SOL    HW124935   3.160   0.307   3.285
 8012SOL    HW224936   3.206   0.330   3.130
 8013SOL     OW24937   5.727   5.539   4.773
 8013SOL    HW124938   5.818   5.578   4.791
 8013SOL    HW224939   5.663   5.571   4.843
 8014SOL     OW24940   2.092   6.855   0.165
 8014SOL    HW124941   2.085   6.813   0.075
 8014SOL    HW224942   2.060   6.791   0.235
 8015SOL     OW24943   1.812   1.987   5.938
 8015SOL    HW124944   1.826   2.079   5.903
 8015SOL    HW224945   1.779   1.992   6.033
 8016SOL     OW24946   4.203   6.003   1.957
 8016SOL    HW124947   4.119   6.016   2.010
 8016SOL    HW224948   4.282   6.004   2.018
 8017SOL     OW24949   6.294   3.023   5.521
 8017SOL    HW124950   6.369   3.021   5.455
 8017SOL    HW224951   6.270   2.930   5.548
 8018SOL     OW24952   5.874   2.722   4.960
 8018SOL    HW124953   5.827   2.806   4.934
 8018SOL    HW224954   5.824   2.643   4.924
 8019SOL     OW24955   2.404   5.243   1.277
 8019SOL    HW124956   2.311   5.212   1.261
 8019SOL    HW224957   2.432   5.307   1.206
 8020SOL     OW24958   5.838   6.362   6.528
 8020SOL    HW124959   5.837   6.411   6.441
 8020SOL    HW224960   5.746   6.363   6.568
 8021SOL     OW24961   6.924   0.979   0.630
 8021SOL    HW124962   6.952   1.068   0.665
 8021SOL    HW224963   6.825   0.977   0.619
 8022SOL     OW24964   4.274   5.130   3.603
 8022SOL    HW124965   4.318   5.095   3.685
 8022SOL    HW224966   4.258   5.056   3.539
 8023SOL     OW24967   6.912   6.179   3.073
 8023SOL    HW124968   6.820   6.209   3.099
 8023SOL    HW224969   6.912   6.080   3.058
 8024SOL     OW24970   4.742   5.724   5.116
 8024SOL    HW124971   4.822   5.688   5.164
 8024SOL    HW224972   4.706   5.804   5.165
 8025SOL     OW24973   2.974   5.660   0.669
 8025SOL    HW124974   2.989   5.675   0.767
 8025SOL    HW224975   2.895   5.600   0.656
 8026SOL     OW24976   2.544   3.272   0.127
 8026SOL    HW124977   2.625   3.295   0.180
 8026SOL    HW224978   2.571   3.245   0.035
 8027SOL     OW24979   4.647   3.505   5.690
 8027SOL    HW124980   4.675   3.455   5.608
 8027SOL    HW224981   4.691   3.595   5.690
 8028SOL     OW24982   5.130   5.653   0.702
 8028SOL    HW124983   5.214   5.599   0.696
 8028SOL    HW224984   5.121   5.692   0.793
 8029SOL     OW24985   2.846   4.189   0.045
 8029SOL    HW124986   2.932   4.138   0.038
 8029SOL    HW224987   2.840   4.252   6.988
 8030SOL     OW24988   6.144   3.252   0.709
 8030SOL    HW124989   6.128   3.177   0.645
 8030SOL    HW224990   6.220   3.308   0.675
 8031SOL     OW24991   3.559   6.450   1.254
 8031SOL    HW124992   3.462   6.435   1.274
 8031SOL    HW224993   3.615   6.393   1.313
 8032SOL     OW24994   4.821   4.728   5.612
 8032SOL    HW124995   4.725   4.728   5.583
 8032SOL    HW224996   4.846   4.818   5.647
 8033SOL     OW24997   6.102   2.134   0.766
 8033SOL    HW124998   6.163   2.077   0.821
 8033SOL    HW224999   6.105   2.228   0.799
 8034SOL     OW25000   6.654   1.363   4.964
 8034SOL    HW125001   6.630   1.350   5.060
 8034SOL    HW225002   6.752   1.349   4.951
 8035SOL     OW25003   5.567   5.635   6.764
 8035SOL    HW125004   5.606   5.707   6.821
 8035SOL    HW225005   5.485   5.598   6.807
 8036SOL     OW25006   1.276   4.551   1.377
 8036SOL    HW125007   1.217   4.484   1.332
 8036SOL    HW225008   1.293   4.522   1.471
 8037SOL     OW25009   1.990   3.239   1.627
 8037SOL    HW125010   2.009   3.304   1.554
 8037SOL    HW225011   2.062   3.169   1.629
 8038SOL     OW25012   6.017   1.169   4.113
 8038SOL    HW125013   6.029   1.088   4.055
 8038SOL    HW225014   5.968   1.239   4.063
 8039SOL     OW25015   2.751   6.323   4.641
 8039SOL    HW125016   2.768   6.342   4.544
 8039SOL    HW225017   2.684   6.387   4.677
 8040SOL     OW25018   5.769   5.989   0.302
 8040SOL    HW125019   5.778   5.931   0.383
 8040SOL    HW225020   5.786   6.084   0.328
 8041SOL     OW25021   3.996   2.111   1.073
 8041SOL    HW125022   3.907   2.099   1.028
 8041SOL    HW225023   3.990   2.080   1.168
 8042SOL     OW25024   2.631   4.429   0.520
 8042SOL    HW125025   2.686   4.467   0.595
 8042SOL    HW225026   2.692   4.398   0.447
 8043SOL     OW25027   2.604   0.511   1.104
 8043SOL    HW125028   2.517   0.554   1.077
 8043SOL    HW225029   2.645   0.466   1.025
 8044SOL     OW25030   3.321   3.620   1.609
 8044SOL    HW125031   3.231   3.587   1.640
 8044SOL    HW225032   3.315   3.717   1.587
 8045SOL     OW25033   6.300   3.262   3.761
 8045SOL    HW125034   6.346   3.223   3.682
 8045SOL    HW225035   6.292   3.192   3.833
 8046SOL     OW25036   0.468   5.431   5.391
 8046SOL    HW125037   0.535   5.504   5.408
 8046SOL    HW225038   0.411   5.457   5.313
 8047SOL     OW25039   2.907   0.177   4.118
 8047SOL    HW125040   2.866   0.253   4.068
 8047SOL    HW225041   2.912   0.097   4.058
 8048SOL     OW25042   6.374   0.954   5.683
 8048SOL    HW125043   6.328   0.971   5.596
 8048SOL    HW225044   6.346   1.023   5.749
 8049SOL     OW25045   1.106   6.938   0.516
 8049SOL    HW125046   1.109   6.930   0.615
 8049SOL    HW225047   1.140   6.854   0.474
 8050SOL     OW25048   0.338   3.041   1.103
 8050SOL    HW125049   0.340   2.942   1.120
 8050SOL    HW225050   0.389   3.062   1.020
 8051SOL     OW25051   3.391   1.855   3.499
 8051SOL    HW125052   3.318   1.791   3.522
 8051SOL    HW225053   3.463   1.851   3.569
 8052SOL     OW25054   3.555   2.098   3.180
 8052SOL    HW125055   3.557   2.112   3.081
 8052SOL    HW225056   3.637   2.137   3.221
 8053SOL     OW25057   4.235   3.488   1.806
 8053SOL    HW125058   4.150   3.491   1.858
 8053SOL    HW225059   4.249   3.395   1.772
 8054SOL     OW25060   4.645   6.014   3.857
 8054SOL    HW125061   4.565   5.966   3.892
 8054SOL    HW225062   4.681   5.965   3.778
 8055SOL     OW25063   0.670   7.009   5.217
 8055SOL    HW125064   0.720   6.981   5.298
 8055SOL    HW225065   0.572   7.014   5.238
 8056SOL     OW25066   4.157   1.434   2.276
 8056SOL    HW125067   4.163   1.365   2.349
 8056SOL    HW225068   4.229   1.502   2.288
 8057SOL     OW25069   2.978   0.134   3.623
 8057SOL    HW125070   2.991   0.194   3.544
 8057SOL    HW225071   3.038   0.055   3.616
 8058SOL     OW25072   2.512   0.155   3.288
 8058SOL    HW125073   2.482   0.160   3.193
 8058SOL    HW225074   2.521   0.059   3.316
 8059SOL     OW25075   2.562   1.201   3.359
 8059SOL    HW125076   2.474   1.160   3.381
 8059SOL    HW225077   2.561   1.232   3.263
 8060SOL     OW25078   1.048   2.849   5.177
 8060SOL    HW125079   1.039   2.879   5.081
 8060SOL    HW225080   0.957   2.840   5.218
 8061SOL     OW25081   6.496   5.867   2.251
 8061SOL    HW125082   6.507   5.905   2.159
 8061SOL    HW225083   6.485   5.942   2.316
 8062SOL     OW25084   1.762   3.567   1.835
 8062SOL    HW125085   1.716   3.479   1.832
 8062SOL    HW225086   1.860   3.553   1.819
 8063SOL     OW25087   2.521   3.035   6.239
 8063SOL    HW125088   2.603   2.978   6.242
 8063SOL    HW225089   2.477   3.034   6.329
 8064SOL     OW25090   6.613   2.472   6.682
 8064SOL    HW125091   6.667   2.531   6.743
 8064SOL    HW225092   6.560   2.407   6.737
 8065SOL     OW25093   4.479   6.963   6.468
 8065SOL    HW125094   4.405   6.907   6.432
 8065SOL    HW225095   4.530   6.912   6.538
 8066SOL     OW25096   2.220   0.017   1.742
 8066SOL    HW125097   2.141   6.989   1.704
 8066SOL    HW225098   2.218   0.112   1.711
 8067SOL     OW25099   4.776   2.272   2.327
 8067SOL    HW125100   4.755   2.205   2.256
 8067SOL    HW225101   4.756   2.364   2.294
 8068SOL     OW25102   6.290   4.536   4.241
 8068SOL    HW125103   6.382   4.567   4.220
 8068SOL    HW225104   6.289   4.493   4.332
 8069SOL     OW25105   1.461   6.727   2.427
 8069SOL    HW125106   1.423   6.656   2.486
 8069SOL    HW225107   1.510   6.795   2.483
 8070SOL     OW25108   3.910   0.221   2.637
 8070SOL    HW125109   3.873   0.295   2.693
 8070SOL    HW225110   3.843   0.194   2.569
 8071SOL     OW25111   4.233   6.330   0.063
 8071SOL    HW125112   4.162   6.342   7.014
 8071SOL    HW225113   4.228   6.404   0.130
 8072SOL     OW25114   4.969   0.280   2.427
 8072SOL    HW125115   4.914   0.202   2.397
 8072SOL    HW225116   4.911   0.342   2.481
 8073SOL     OW25117   4.936   0.123   5.928
 8073SOL    HW125118   4.878   0.196   5.962
 8073SOL    HW225119   4.919   0.040   5.981
 8074SOL     OW25120   3.350   4.296   6.662
 8074SOL    HW125121   3.252   4.280   6.650
 8074SOL    HW225122   3.369   4.315   6.758
 8075SOL     OW25123   5.686   2.613   3.116
 8075SOL    HW125124   5.734   2.687   3.162
 8075SOL    HW225125   5.651   2.548   3.184
 8076SOL     OW25126   4.508   2.686   6.287
 8076SOL    HW125127   4.547   2.700   6.379
 8076SOL    HW225128   4.503   2.774   6.240
 8077SOL     OW25129   1.109   0.090   0.010
 8077SOL    HW125130   1.178   0.144   6.983
 8077SOL    HW225131   1.075   0.141   0.089
 8078SOL     OW25132   6.181   2.791   0.993
 8078SOL    HW125133   6.119   2.717   0.970
 8078SOL    HW225134   6.249   2.802   0.920
 8079SOL     OW25135   1.095   2.113   1.724
 8079SOL    HW125136   1.080   2.037   1.787
 8079SOL    HW225137   1.107   2.078   1.631
 8080SOL     OW25138   4.124   5.061   0.599
 8080SOL    HW125139   4.058   5.130   0.569
 8080SOL    HW225140   4.076   4.988   0.647
 8081SOL     OW25141   5.860   1.851   5.047
 8081SOL    HW125142   5.957   1.875   5.052
 8081SOL    HW225143   5.828   1.858   4.952
 8082SOL     OW25144   6.461   3.496   4.659
 8082SOL    HW125145   6.498   3.511   4.750
 8082SOL    HW225146   6.419   3.580   4.625
 8083SOL     OW25147   6.302   2.414   5.007
 8083SOL    HW125148   6.215   2.436   5.052
 8083SOL    HW225149   6.283   2.372   4.918
 8084SOL     OW25150   6.825   0.270   0.841
 8084SOL    HW125151   6.726   0.280   0.836
 8084SOL    HW225152   6.868   0.361   0.834
 8085SOL     OW25153   5.649   2.229   0.677
 8085SOL    HW125154   5.664   2.307   0.738
 8085SOL    HW225155   5.734   2.178   0.667
 8086SOL     OW25156   2.430   5.922   5.838
 8086SOL    HW125157   2.481   5.980   5.901
 8086SOL    HW225158   2.432   5.963   5.746
 8087SOL     OW25159   3.029   4.015   0.602
 8087SOL    HW125160   3.090   3.943   0.570
 8087SOL    HW225161   2.974   3.981   0.679
 8088SOL     OW25162   4.417   0.699   2.733
 8088SOL    HW125163   4.497   0.642   2.751
 8088SOL    HW225164   4.353   0.648   2.676
 8089SOL     OW25165   6.331   2.653   0.418
 8089SOL    HW125166   6.251   2.695   0.462
 8089SOL    HW225167   6.366   2.715   0.348
 8090SOL     OW25168   4.180   2.160   5.168
 8090SOL    HW125169   4.154   2.245   5.123
 8090SOL    HW225170   4.280   2.156   5.178
 8091SOL     OW25171   2.522   4.920   5.415
 8091SOL    HW125172   2.513   4.988   5.342
 8091SOL    HW225173   2.602   4.862   5.396
 8092SOL     OW25174   6.485   2.218   4.297
 8092SOL    HW125175   6.485   2.190   4.201
 8092SOL    HW225176   6.494   2.137   4.356
 8093SOL     OW25177   5.646   5.515   0.579
 8093SOL    HW125178   5.690   5.448   0.639
 8093SOL    HW225179   5.702   5.529   0.498
 8094SOL     OW25180   0.736   3.847   4.226
 8094SOL    HW125181   0.772   3.755   4.213
 8094SOL    HW225182   0.636   3.845   4.231
 8095SOL     OW25183   6.333   3.291   5.396
 8095SOL    HW125184   6.275   3.211   5.411
 8095SOL    HW225185   6.328   3.351   5.476
 8096SOL     OW25186   3.878   0.839   0.777
 8096SOL    HW125187   3.863   0.935   0.799
 8096SOL    HW225188   3.877   0.827   0.677
 8097SOL     OW25189   4.817   1.539   4.494
 8097SOL    HW125190   4.867   1.466   4.541
 8097SOL    HW225191   4.799   1.511   4.399
 8098SOL     OW25192   2.252   1.256   4.348
 8098SOL    HW125193   2.239   1.334   4.410
 8098SOL    HW225194   2.308   1.186   4.393
 8099SOL     OW25195   4.115   6.046   5.135
 8099SOL    HW125196   4.042   6.029   5.202
 8099SOL    HW225197   4.076   6.094   5.056
 8100SOL     OW25198   6.853   6.349   0.712
 8100SOL    HW125199   6.845   6.295   0.796
 8100SOL    HW225200   6.774   6.331   0.654
 8101SOL     OW25201   0.399   4.590   2.413
 8101SOL    HW125202   0.350   4.662   2.363
 8101SOL    HW225203   0.475   4.631   2.463
 8102SOL     OW25204   6.544   0.518   5.873
 8102SOL    HW125205   6.499   0.537   5.960
 8102SOL    HW225206   6.558   0.420   5.862
 8103SOL     OW25207   1.801   2.247   2.050
 8103SOL    HW125208   1.719   2.236   2.107
 8103SOL    HW225209   1.870   2.181   2.078
 8104SOL     OW25210   3.162   6.919   5.952
 8104SOL    HW125211   3.063   6.917   5.963
 8104SOL    HW225212   3.185   6.954   5.861
 8105SOL     OW25213   2.164   3.033   2.791
 8105SOL    HW125214   2.181   3.110   2.730
 8105SOL    HW225215   2.100   3.060   2.863
 8106SOL     OW25216   0.098   3.671   5.330
 8106SOL    HW125217   0.136   3.763   5.345
 8106SOL    HW225218   7.018   3.678   5.325
 8107SOL     OW25219   1.058   5.429   6.614
 8107SOL    HW125220   1.074   5.382   6.527
 8107SOL    HW225221   0.999   5.374   6.672
 8108SOL     OW25222   2.156   3.618   5.152
 8108SOL    HW125223   2.147   3.555   5.075
 8108SOL    HW225224   2.111   3.580   5.232
 8109SOL     OW25225   1.462   5.463   5.193
 8109SOL    HW125226   1.385   5.468   5.256
 8109SOL    HW225227   1.428   5.456   5.099
 8110SOL     OW25228   1.481   4.431   0.944
 8110SOL    HW125229   1.468   4.475   0.855
 8110SOL    HW225230   1.573   4.393   0.949
 8111SOL     OW25231   3.342   5.748   4.407
 8111SOL    HW125232   3.363   5.844   4.386
 8111SOL    HW225233   3.246   5.741   4.436
 8112SOL     OW25234   4.765   1.135   4.369
 8112SOL    HW125235   4.849   1.128   4.422
 8112SOL    HW225236   4.692   1.086   4.416
 8113SOL     OW25237   3.267   3.040   5.690
 8113SOL    HW125238   3.196   2.984   5.733
 8113SOL    HW225239   3.229   3.129   5.664
 8114SOL     OW25240   3.096   3.590   1.782
 8114SOL    HW125241   3.046   3.667   1.821
 8114SOL    HW225242   3.037   3.508   1.782
 8115SOL     OW25243   3.474   2.573   1.446
 8115SOL    HW125244   3.438   2.665   1.427
 8115SOL    HW225245   3.551   2.554   1.385
 8116SOL     OW25246   4.984   1.213   5.185
 8116SOL    HW125247   5.067   1.265   5.168
 8116SOL    HW225248   4.981   1.185   5.281
 8117SOL     OW25249   2.846   1.746   5.690
 8117SOL    HW125250   2.752   1.781   5.695
 8117SOL    HW225251   2.909   1.817   5.721
 8118SOL     OW25252   1.683   2.455   4.075
 8118SOL    HW125253   1.595   2.495   4.050
 8118SOL    HW225254   1.728   2.421   3.993
 8119SOL     OW25255   0.966   6.364   1.657
 8119SOL    HW125256   0.992   6.282   1.708
 8119SOL    HW225257   0.869   6.361   1.634
 8120SOL     OW25258   4.748   4.154   2.202
 8120SOL    HW125259   4.732   4.136   2.298
 8120SOL    HW225260   4.665   4.191   2.160
 8121SOL     OW25261   6.638   6.207   3.116
 8121SOL    HW125262   6.626   6.146   3.038
 8121SOL    HW225263   6.610   6.299   3.091
 8122SOL     OW25264   0.088   5.357   1.424
 8122SOL    HW125265   0.004   5.408   1.441
 8122SOL    HW225266   0.141   5.351   1.509
 8123SOL     OW25267   1.358   5.224   0.023
 8123SOL    HW125268   1.369   5.217   0.122
 8123SOL    HW225269   1.317   5.139   7.009
 8124SOL     OW25270   1.191   6.363   3.444
 8124SOL    HW125271   1.195   6.269   3.479
 8124SOL    HW225272   1.138   6.419   3.507
 8125SOL     OW25273   5.668   4.975   3.119
 8125SOL    HW125274   5.704   4.988   3.212
 8125SOL    HW225275   5.614   4.891   3.116
 8126SOL     OW25276   6.728   4.370   2.621
 8126SOL    HW125277   6.730   4.367   2.521
 8126SOL    HW225278   6.768   4.286   2.658
 8127SOL     OW25279   3.898   5.552   1.555
 8127SOL    HW125280   3.993   5.524   1.542
 8127SOL    HW225281   3.866   5.518   1.644
 8128SOL     OW25282   3.479   2.188   5.603
 8128SOL    HW125283   3.389   2.172   5.562
 8128SOL    HW225284   3.489   2.133   5.686
 8129SOL     OW25285   4.947   6.073   6.432
 8129SOL    HW125286   4.907   5.983   6.449
 8129SOL    HW225287   4.969   6.083   6.335
 8130SOL     OW25288   0.412   0.011   6.730
 8130SOL    HW125289   0.506   7.007   6.755
 8130SOL    HW225290   0.411   0.102   6.688
 8131SOL     OW25291   2.357   1.304   0.656
 8131SOL    HW125292   2.407   1.295   0.743
 8131SOL    HW225293   2.286   1.234   0.652
 8132SOL     OW25294   5.822   4.359   2.794
 8132SOL    HW125295   5.908   4.338   2.749
 8132SOL    HW225296   5.751   4.295   2.764
 8133SOL     OW25297   0.552   6.131   1.880
 8133SOL    HW125298   0.631   6.116   1.820
 8133SOL    HW225299   0.470   6.146   1.825
 8134SOL     OW25300   1.951   2.747   2.264
 8134SOL    HW125301   1.857   2.729   2.234
 8134SOL    HW225302   2.014   2.734   2.188
 8135SOL     OW25303   3.914   6.237   2.545
 8135SOL    HW125304   3.988   6.171   2.535
 8135SOL    HW225305   3.843   6.219   2.477
 8136SOL     OW25306   2.064   5.896   1.621
 8136SOL    HW125307   2.080   5.811   1.671
 8136SOL    HW225308   2.013   5.959   1.678
 8137SOL     OW25309   2.944   3.906   4.991
 8137SOL    HW125310   2.846   3.890   4.977
 8137SOL    HW225311   2.984   3.939   4.906
 8138SOL     OW25312   4.556   1.490   3.286
 8138SOL    HW125313   4.466   1.501   3.246
 8138SOL    HW225314   4.626   1.492   3.214
 8139SOL     OW25315   1.561   3.254   5.436
 8139SOL    HW125316   1.587   3.157   5.430
 8139SOL    HW225317   1.639   3.308   5.466
 8140SOL     OW25318   4.365   0.698   0.727
 8140SOL    HW125319   4.305   0.670   0.802
 8140SOL    HW225320   4.453   0.650   0.735
 8141SOL     OW25321   5.798   0.673   5.637
 8141SOL    HW125322   5.731   0.664   5.711
 8141SOL    HW225323   5.755   0.721   5.560
 8142SOL     OW25324   2.515   5.767   0.869
 8142SOL    HW125325   2.540   5.760   0.966
 8142SOL    HW225326   2.559   5.693   0.818
 8143SOL     OW25327   6.245   4.640   0.477
 8143SOL    HW125328   6.193   4.723   0.496
 8143SOL    HW225329   6.204   4.563   0.527
 8144SOL     OW25330   1.145   5.785   0.034
 8144SOL    HW125331   1.130   5.742   6.965
 8144SOL    HW225332   1.081   5.746   0.100
 8145SOL     OW25333   5.374   5.393   6.614
 8145SOL    HW125334   5.325   5.307   6.597
 8145SOL    HW225335   5.360   5.420   6.709
 8146SOL     OW25336   6.725   6.213   4.829
 8146SOL    HW125337   6.640   6.171   4.798
 8146SOL    HW225338   6.704   6.293   4.885
 8147SOL     OW25339   2.462   0.616   5.560
 8147SOL    HW125340   2.498   0.604   5.653
 8147SOL    HW225341   2.446   0.713   5.543
 8148SOL     OW25342   5.266   4.384   0.702
 8148SOL    HW125343   5.209   4.314   0.658
 8148SOL    HW225344   5.241   4.391   0.798
 8149SOL     OW25345   1.628   0.113   5.334
 8149SOL    HW125346   1.539   0.098   5.292
 8149SOL    HW225347   1.618   0.113   5.434
 8150SOL     OW25348   0.367   3.700   0.527
 8150SOL    HW125349   0.308   3.666   0.453
 8150SOL    HW225350   0.424   3.775   0.492
 8151SOL     OW25351   6.547   5.146   3.030
 8151SOL    HW125352   6.469   5.118   3.086
 8151SOL    HW225353   6.539   5.107   2.939
 8152SOL     OW25354   5.417   1.470   3.105
 8152SOL    HW125355   5.365   1.523   3.172
 8152SOL    HW225356   5.469   1.532   3.047
 8153SOL     OW25357   0.126   1.834   1.672
 8153SOL    HW125358   0.209   1.779   1.673
 8153SOL    HW225359   0.081   1.826   1.583
 8154SOL     OW25360   1.271   0.776   3.117
 8154SOL    HW125361   1.278   0.876   3.112
 8154SOL    HW225362   1.186   0.747   3.073
 8155SOL     OW25363   1.614   5.244   4.222
 8155SOL    HW125364   1.614   5.144   4.233
 8155SOL    HW225365   1.682   5.284   4.283
 8156SOL     OW25366   1.314   3.993   0.797
 8156SOL    HW125367   1.256   3.943   0.733
 8156SOL    HW225368   1.317   3.944   0.884
 8157SOL     OW25369   6.325   4.763   4.865
 8157SOL    HW125370   6.265   4.717   4.929
 8157SOL    HW225371   6.405   4.705   4.846
 8158SOL     OW25372   5.987   4.917   6.207
 8158SOL    HW125373   6.040   4.992   6.167
 8158SOL    HW225374   6.031   4.888   6.292
 8159SOL     OW25375   2.702   0.038   4.950
 8159SOL    HW125376   2.767   0.048   5.025
 8159SOL    HW225377   2.679   0.128   4.913
 8160SOL     OW25378   5.669   1.985   2.738
 8160SOL    HW125379   5.744   1.925   2.765
 8160SOL    HW225380   5.649   2.048   2.813
 8161SOL     OW25381   6.381   2.767   1.946
 8161SOL    HW125382   6.366   2.675   1.980
 8161SOL    HW225383   6.392   2.765   1.846
 8162SOL     OW25384   1.281   6.042   5.299
 8162SOL    HW125385   1.338   5.989   5.361
 8162SOL    HW225386   1.285   6.002   5.207
 8163SOL     OW25387   4.029   4.712   5.400
 8163SOL    HW125388   3.972   4.631   5.393
 8163SOL    HW225389   3.987   4.788   5.350
 8164SOL     OW25390   5.403   2.095   0.798
 8164SOL    HW125391   5.368   2.002   0.807
 8164SOL    HW225392   5.492   2.093   0.754
 8165SOL     OW25393   0.554   1.436   5.837
 8165SOL    HW125394   0.577   1.511   5.899
 8165SOL    HW225395   0.637   1.389   5.809
 8166SOL     OW25396   2.587   1.760   4.937
 8166SOL    HW125397   2.519   1.769   5.010
 8166SOL    HW225398   2.652   1.836   4.942
 8167SOL     OW25399   2.113   2.653   3.303
 8167SOL    HW125400   2.145   2.597   3.227
 8167SOL    HW225401   2.153   2.744   3.297
 8168SOL     OW25402   1.548   6.818   2.774
 8168SOL    HW125403   1.571   6.722   2.756
 8168SOL    HW225404   1.574   6.873   2.694
 8169SOL     OW25405   4.526   3.529   0.940
 8169SOL    HW125406   4.481   3.606   0.894
 8169SOL    HW225407   4.536   3.550   1.037
 8170SOL     OW25408   0.200   4.096   2.624
 8170SOL    HW125409   0.141   4.115   2.702
 8170SOL    HW225410   0.268   4.169   2.614
 8171SOL     OW25411   2.399   1.911   1.300
 8171SOL    HW125412   2.465   1.894   1.373
 8171SOL    HW225413   2.423   1.994   1.251
 8172SOL     OW25414   1.586   3.657   1.196
 8172SOL    HW125415   1.603   3.571   1.244
 8172SOL    HW225416   1.582   3.732   1.262
 8173SOL     OW25417   5.948   0.626   1.688
 8173SOL    HW125418   5.932   0.638   1.590
 8173SOL    HW225419   5.884   0.682   1.739
 8174SOL     OW25420   2.148   6.585   3.750
 8174SOL    HW125421   2.082   6.519   3.786
 8174SOL    HW225422   2.234   6.539   3.729
 8175SOL     OW25423   0.421   2.163   5.533
 8175SOL    HW125424   0.511   2.169   5.489
 8175SOL    HW225425   0.400   2.068   5.554
 8176SOL     OW25426   2.640   4.800   0.371
 8176SOL    HW125427   2.601   4.774   0.459
 8176SOL    HW225428   2.735   4.769   0.366
 8177SOL     OW25429   2.553   1.260   2.951
 8177SOL    HW125430   2.591   1.314   3.026
 8177SOL    HW225431   2.554   1.163   2.977
 8178SOL     OW25432   2.017   6.419   0.843
 8178SOL    HW125433   1.927   6.405   0.883
 8178SOL    HW225434   2.020   6.509   0.798
 8179SOL     OW25435   5.504   0.253   3.521
 8179SOL    HW125436   5.535   0.321   3.587
 8179SOL    HW225437   5.583   0.219   3.469
 8180SOL     OW25438   4.730   5.661   0.511
 8180SOL    HW125439   4.675   5.657   0.428
 8180SOL    HW225440   4.827   5.669   0.488
 8181SOL     OW25441   6.550   0.744   6.352
 8181SOL    HW125442   6.451   0.731   6.338
 8181SOL    HW225443   6.600   0.682   6.292
 8182SOL     OW25444   3.378   3.744   3.211
 8182SOL    HW125445   3.444   3.715   3.142
 8182SOL    HW225446   3.319   3.816   3.175
 8183SOL     OW25447   6.497   0.307   5.587
 8183SOL    HW125448   6.498   0.265   5.678
 8183SOL    HW225449   6.508   0.236   5.517
 8184SOL     OW25450   0.420   5.754   5.376
 8184SOL    HW125451   0.485   5.727   5.447
 8184SOL    HW225452   0.471   5.786   5.296
 8185SOL     OW25453   0.594   5.847   5.205
 8185SOL    HW125454   0.644   5.832   5.119
 8185SOL    HW225455   0.658   5.846   5.281
 8186SOL     OW25456   1.542   5.280   0.498
 8186SOL    HW125457   1.631   5.291   0.453
 8186SOL    HW225458   1.555   5.233   0.585
 8187SOL     OW25459   1.656   6.885   4.881
 8187SOL    HW125460   1.593   6.856   4.810
 8187SOL    HW225461   1.701   6.970   4.854
 8188SOL     OW25462   1.886   3.352   2.649
 8188SOL    HW125463   1.978   3.345   2.611
 8188SOL    HW225464   1.857   3.448   2.649
 8189SOL     OW25465   5.823   4.971   4.056
 8189SOL    HW125466   5.732   4.948   4.022
 8189SOL    HW225467   5.816   5.004   4.150
 8190SOL     OW25468   6.432   3.778   2.945
 8190SOL    HW125469   6.347   3.728   2.927
 8190SOL    HW225470   6.478   3.800   2.859
 8191SOL     OW25471   4.114   4.682   0.698
 8191SOL    HW125472   4.179   4.610   0.722
 8191SOL    HW225473   4.029   4.640   0.665
 8192SOL     OW25474   0.641   6.143   3.654
 8192SOL    HW125475   0.705   6.095   3.594
 8192SOL    HW225476   0.664   6.241   3.656
 8193SOL     OW25477   0.475   5.069   3.807
 8193SOL    HW125478   0.542   5.039   3.874
 8193SOL    HW225479   0.429   4.990   3.767
 8194SOL     OW25480   4.979   0.368   1.369
 8194SOL    HW125481   5.014   0.375   1.462
 8194SOL    HW225482   4.979   0.459   1.326
 8195SOL     OW25483   6.058   0.026   3.851
 8195SOL    HW125484   6.111   0.104   3.884
 8195SOL    HW225485   6.113   6.994   3.785
 8196SOL     OW25486   4.896   1.083   2.139
 8196SOL    HW125487   4.861   0.997   2.101
 8196SOL    HW225488   4.876   1.158   2.075
 8197SOL     OW25489   4.435   1.923   3.496
 8197SOL    HW125490   4.454   2.011   3.540
 8197SOL    HW225491   4.448   1.849   3.562
 8198SOL     OW25492   1.396   5.923   1.571
 8198SOL    HW125493   1.402   5.906   1.669
 8198SOL    HW225494   1.303   5.903   1.540
 8199SOL     OW25495   5.806   2.089   0.257
 8199SOL    HW125496   5.752   2.047   0.329
 8199SOL    HW225497   5.758   2.079   0.170
 8200SOL     OW25498   4.940   3.864   0.693
 8200SOL    HW125499   4.927   3.924   0.772
 8200SOL    HW225500   4.947   3.769   0.724
 8201SOL     OW25501   5.572   6.921   5.225
 8201SOL    HW125502   5.640   6.979   5.179
 8201SOL    HW225503   5.490   6.975   5.243
 8202SOL     OW25504   1.320   6.257   1.654
 8202SOL    HW125505   1.274   6.202   1.584
 8202SOL    HW225506   1.389   6.315   1.611
 8203SOL     OW25507   2.039   3.440   1.048
 8203SOL    HW125508   2.038   3.393   1.136
 8203SOL    HW225509   1.946   3.441   1.010
 8204SOL     OW25510   2.208   3.443   0.803
 8204SOL    HW125511   2.296   3.396   0.802
 8204SOL    HW225512   2.156   3.415   0.883
 8205SOL     OW25513   0.699   4.214   6.775
 8205SOL    HW125514   0.781   4.216   6.718
 8205SOL    HW225515   0.725   4.201   6.870
 8206SOL     OW25516   3.146   1.555   1.393
 8206SOL    HW125517   3.227   1.564   1.452
 8206SOL    HW225518   3.064   1.571   1.447
 8207SOL     OW25519   3.933   3.955   3.986
 8207SOL    HW125520   3.874   3.979   4.063
 8207SOL    HW225521   3.879   3.912   3.914
 8208SOL     OW25522   1.840   0.456   6.981
 8208SOL    HW125523   1.752   0.486   7.018
 8208SOL    HW225524   1.913   0.510   0.001
 8209SOL     OW25525   5.895   1.935   4.501
 8209SOL    HW125526   5.855   1.852   4.540
 8209SOL    HW225527   5.942   1.912   4.416
 8210SOL     OW25528   2.286   2.647   6.190
 8210SOL    HW125529   2.220   2.617   6.121
 8210SOL    HW225530   2.324   2.735   6.163
 8211SOL     OW25531   4.631   4.375   1.319
 8211SOL    HW125532   4.531   4.379   1.324
 8211SOL    HW225533   4.666   4.322   1.396
 8212SOL     OW25534   2.106   2.609   2.800
 8212SOL    HW125535   2.090   2.581   2.894
 8212SOL    HW225536   2.176   2.681   2.797
 8213SOL     OW25537   5.991   4.647   1.248
 8213SOL    HW125538   6.020   4.666   1.154
 8213SOL    HW225539   6.068   4.608   1.299
 8214SOL     OW25540   5.490   3.492   2.790
 8214SOL    HW125541   5.433   3.441   2.725
 8214SOL    HW225542   5.498   3.441   2.875
 8215SOL     OW25543   3.152   5.213   2.675
 8215SOL    HW125544   3.245   5.219   2.711
 8215SOL    HW225545   3.139   5.123   2.632
 8216SOL     OW25546   5.443   3.387   3.293
 8216SOL    HW125547   5.468   3.463   3.353
 8216SOL    HW225548   5.349   3.359   3.314
 8217SOL     OW25549   1.755   6.340   0.984
 8217SOL    HW125550   1.716   6.416   1.036
 8217SOL    HW225551   1.738   6.254   1.032
 8218SOL     OW25552   6.051   2.184   0.329
 8218SOL    HW125553   5.963   2.151   0.294
 8218SOL    HW225554   6.119   2.177   0.256
 8219SOL     OW25555   5.331   1.737   6.819
 8219SOL    HW125556   5.284   1.788   6.746
 8219SOL    HW225557   5.334   1.640   6.794
 8220SOL     OW25558   4.058   3.631   1.642
 8220SOL    HW125559   3.985   3.586   1.693
 8220SOL    HW225560   4.142   3.632   1.696
 8221SOL     OW25561   5.159   4.390   2.958
 8221SOL    HW125562   5.070   4.384   3.003
 8221SOL    HW225563   5.151   4.356   2.864
 8222SOL     OW25564   6.431   1.547   2.700
 8222SOL    HW125565   6.361   1.481   2.728
 8222SOL    HW225566   6.390   1.638   2.695
 8223SOL     OW25567   6.902   5.154   6.200
 8223SOL    HW125568   6.809   5.186   6.181
 8223SOL    HW225569   6.925   5.079   6.139
 8224SOL     OW25570   1.276   3.751   2.885
 8224SOL    HW125571   1.198   3.716   2.833
 8224SOL    HW225572   1.307   3.681   2.949
 8225SOL     OW25573   4.428   0.819   0.466
 8225SOL    HW125574   4.401   0.749   0.532
 8225SOL    HW225575   4.516   0.795   0.426
 8226SOL     OW25576   3.859   0.422   0.419
 8226SOL    HW125577   3.860   0.357   0.495
 8226SOL    HW225578   3.953   0.438   0.388
 8227SOL     OW25579   5.551   3.715   3.070
 8227SOL    HW125580   5.503   3.765   2.998
 8227SOL    HW225581   5.612   3.647   3.029
 8228SOL     OW25582   6.902   1.928   4.443
 8228SOL    HW125583   6.945   1.961   4.528
 8228SOL    HW225584   6.903   2.001   4.375
 8229SOL     OW25585   3.932   5.527   0.938
 8229SOL    HW125586   3.898   5.488   1.024
 8229SOL    HW225587   3.928   5.627   0.943
 8230SOL     OW25588   4.946   6.965   4.004
 8230SOL    HW125589   4.896   0.019   3.959
 8230SOL    HW225590   5.025   6.940   3.948
 8231SOL     OW25591   3.909   5.906   1.724
 8231SOL    HW125592   4.006   5.880   1.726
 8231SOL    HW225593   3.901   6.004   1.743
 8232SOL     OW25594   2.470   1.792   6.709
 8232SOL    HW125595   2.526   1.829   6.783
 8232SOL    HW225596   2.467   1.692   6.717
 8233SOL     OW25597   0.187   4.922   6.088
 8233SOL    HW125598   0.282   4.895   6.101
 8233SOL    HW225599   0.158   4.982   6.163
 8234SOL     OW25600   2.997   3.605   0.310
 8234SOL    HW125601   2.985   3.545   0.390
 8234SOL    HW225602   3.074   3.572   0.256
 8235SOL     OW25603   4.517   2.453   0.088
 8235SOL    HW125604   4.575   2.531   0.110
 8235SOL    HW225605   4.455   2.476   0.014
 8236SOL     OW25606   5.647   2.404   0.901
 8236SOL    HW125607   5.689   2.462   0.971
 8236SOL    HW225608   5.548   2.413   0.905
 8237SOL     OW25609   4.076   6.517   5.666
 8237SOL    HW125610   4.004   6.449   5.658
 8237SOL    HW225611   4.150   6.481   5.722
 8238SOL     OW25612   1.949   0.829   0.295
 8238SOL    HW125613   2.035   0.799   0.254
 8238SOL    HW225614   1.968   0.891   0.371
 8239SOL     OW25615   6.547   1.162   6.784
 8239SOL    HW125616   6.517   1.070   6.758
 8239SOL    HW225617   6.613   1.156   6.859
 8240SOL     OW25618   4.137   3.395   3.484
 8240SOL    HW125619   4.065   3.397   3.554
 8240SOL    HW225620   4.208   3.330   3.512
 8241SOL     OW25621   4.644   6.432   1.675
 8241SOL    HW125622   4.672   6.499   1.743
 8241SOL    HW225623   4.691   6.450   1.589
 8242SOL     OW25624   1.099   3.391   5.417
 8242SOL    HW125625   1.054   3.404   5.506
 8242SOL    HW225626   1.045   3.327   5.362
 8243SOL     OW25627   1.021   3.530   4.901
 8243SOL    HW125628   1.082   3.464   4.944
 8243SOL    HW225629   1.074   3.610   4.872
 8244SOL     OW25630   1.688   5.365   4.596
 8244SOL    HW125631   1.595   5.400   4.590
 8244SOL    HW225632   1.748   5.438   4.629
 8245SOL     OW25633   3.736   3.478   0.666
 8245SOL    HW125634   3.797   3.416   0.715
 8245SOL    HW225635   3.698   3.432   0.586
 8246SOL     OW25636   4.715   3.857   5.250
 8246SOL    HW125637   4.646   3.860   5.322
 8246SOL    HW225638   4.730   3.761   5.223
 8247SOL     OW25639   1.066   6.779   1.034
 8247SOL    HW125640   1.111   6.708   0.981
 8247SOL    HW225641   0.988   6.814   0.983
 8248SOL     OW25642   0.126   4.587   3.777
 8248SOL    HW125643   0.062   4.535   3.720
 8248SOL    HW225644   0.078   4.621   3.858
 8249SOL     OW25645   1.425   5.528   3.063
 8249SOL    HW125646   1.331   5.500   3.079
 8249SOL    HW225647   1.440   5.618   3.105
 8250SOL     OW25648   3.937   3.651   2.109
 8250SOL    HW125649   3.963   3.747   2.109
 8250SOL    HW225650   3.844   3.642   2.147
 8251SOL     OW25651   5.930   1.522   4.898
 8251SOL    HW125652   5.928   1.558   4.992
 8251SOL    HW225653   6.018   1.544   4.856
 8252SOL     OW25654   1.324   3.631   4.221
 8252SOL    HW125655   1.335   3.712   4.278
 8252SOL    HW225656   1.414   3.597   4.195
 8253SOL     OW25657   2.560   2.764   5.293
 8253SOL    HW125658   2.658   2.776   5.311
 8253SOL    HW225659   2.529   2.835   5.230
 8254SOL     OW25660   4.414   5.595   3.249
 8254SOL    HW125661   4.331   5.652   3.248
 8254SOL    HW225662   4.427   5.558   3.341
 8255SOL     OW25663   3.862   4.972   3.608
 8255SOL    HW125664   3.834   5.052   3.555
 8255SOL    HW225665   3.938   4.996   3.668
 8256SOL     OW25666   6.096   2.983   4.161
 8256SOL    HW125667   6.025   2.954   4.225
 8256SOL    HW225668   6.182   2.937   4.183
 8257SOL     OW25669   6.123   4.629   4.687
 8257SOL    HW125670   6.126   4.689   4.767
 8257SOL    HW225671   6.214   4.624   4.646
 8258SOL     OW25672   5.079   1.524   0.243
 8258SOL    HW125673   5.026   1.598   0.202
 8258SOL    HW225674   5.129   1.560   0.322
 8259SOL     OW25675   4.089   1.085   1.599
 8259SOL    HW125676   3.997   1.045   1.607
 8259SOL    HW225677   4.153   1.015   1.569
 8260SOL     OW25678   2.710   5.802   0.246
 8260SOL    HW125679   2.758   5.875   0.293
 8260SOL    HW225680   2.773   5.754   0.185
 8261SOL     OW25681   5.445   0.892   1.754
 8261SOL    HW125682   5.368   0.832   1.728
 8261SOL    HW225683   5.420   0.987   1.736
 8262SOL     OW25684   0.951   2.200   0.490
 8262SOL    HW125685   0.939   2.293   0.456
 8262SOL    HW225686   1.034   2.194   0.545
 8263SOL     OW25687   6.147   1.475   0.681
 8263SOL    HW125688   6.098   1.549   0.726
 8263SOL    HW225689   6.110   1.387   0.709
 8264SOL     OW25690   1.653   4.709   2.483
 8264SOL    HW125691   1.610   4.660   2.559
 8264SOL    HW225692   1.665   4.646   2.406
 8265SOL     OW25693   1.806   1.079   2.417
 8265SOL    HW125694   1.863   1.083   2.335
 8265SOL    HW225695   1.861   1.105   2.497
 8266SOL     OW25696   3.048   0.600   3.115
 8266SOL    HW125697   3.131   0.565   3.071
 8266SOL    HW225698   2.973   0.602   3.049
 8267SOL     OW25699   0.458   3.527   0.739
 8267SOL    HW125700   0.464   3.624   0.718
 8267SOL    HW225701   0.388   3.485   0.681
 8268SOL     OW25702   3.521   6.073   6.414
 8268SOL    HW125703   3.511   6.001   6.482
 8268SOL    HW225704   3.512   6.162   6.459
 8269SOL     OW25705   6.268   2.143   0.985
 8269SOL    HW125706   6.313   2.072   1.039
 8269SOL    HW225707   6.334   2.214   0.962
 8270SOL     OW25708   3.559   6.538   4.363
 8270SOL    HW125709   3.564   6.608   4.292
 8270SOL    HW225710   3.525   6.453   4.323
 8271SOL     OW25711   6.332   2.378   2.404
 8271SOL    HW125712   6.410   2.320   2.426
 8271SOL    HW225713   6.248   2.333   2.434
 8272SOL     OW25714   4.202   1.308   4.321
 8272SOL    HW125715   4.207   1.392   4.266
 8272SOL    HW225716   4.139   1.322   4.397
 8273SOL     OW25717   2.069   6.881   1.262
 8273SOL    HW125718   2.124   6.936   1.326
 8273SOL    HW225719   1.983   6.929   1.244
 8274SOL     OW25720   5.304   4.254   3.628
 8274SOL    HW125721   5.217   4.240   3.581
 8274SOL    HW225722   5.379   4.250   3.562
 8275SOL     OW25723   4.752   1.993   6.541
 8275SOL    HW125724   4.736   2.082   6.497
 8275SOL    HW225725   4.714   1.994   6.633
 8276SOL     OW25726   0.148   1.867   2.894
 8276SOL    HW125727   0.053   1.841   2.910
 8276SOL    HW225728   0.201   1.787   2.866
 8277SOL     OW25729   6.413   0.685   6.883
 8277SOL    HW125730   6.502   0.641   6.896
 8277SOL    HW225731   6.363   0.638   6.810
 8278SOL     OW25732   1.847   2.607   6.493
 8278SOL    HW125733   1.811   2.579   6.582
 8278SOL    HW225734   1.796   2.686   6.459
 8279SOL     OW25735   6.996   6.117   3.777
 8279SOL    HW125736   6.989   6.038   3.716
 8279SOL    HW225737   6.937   6.191   3.742
 8280SOL     OW25738   3.258   1.922   5.938
 8280SOL    HW125739   3.182   1.987   5.933
 8280SOL    HW225740   3.310   1.925   5.852
 8281SOL     OW25741   5.607   5.747   2.593
 8281SOL    HW125742   5.572   5.782   2.679
 8281SOL    HW225743   5.648   5.822   2.540
 8282SOL     OW25744   5.557   2.703   6.203
 8282SOL    HW125745   5.542   2.759   6.122
 8282SOL    HW225746   5.479   2.714   6.266
 8283SOL     OW25747   2.042   2.569   5.722
 8283SOL    HW125748   2.137   2.560   5.693
 8283SOL    HW225749   2.005   2.656   5.691
 8284SOL     OW25750   6.477   3.968   1.830
 8284SOL    HW125751   6.447   3.884   1.875
 8284SOL    HW225752   6.465   4.045   1.893
 8285SOL     OW25753   4.103   3.571   4.270
 8285SOL    HW125754   4.099   3.668   4.295
 8285SOL    HW225755   4.095   3.515   4.352
 8286SOL     OW25756   7.010   1.660   6.339
 8286SOL    HW125757   6.970   1.742   6.298
 8286SOL    HW225758   0.038   1.685   6.422
 8287SOL     OW25759   1.294   6.037   4.239
 8287SOL    HW125760   1.257   5.952   4.201
 8287SOL    HW225761   1.375   6.064   4.187
 8288SOL     OW25762   2.965   2.143   3.148
 8288SOL    HW125763   2.921   2.129   3.237
 8288SOL    HW225764   3.036   2.074   3.134
 8289SOL     OW25765   0.143   5.906   6.610
 8289SOL    HW125766   0.237   5.915   6.577
 8289SOL    HW225767   0.080   5.916   6.533
 8290SOL     OW25768   6.755   2.548   0.634
 8290SOL    HW125769   6.758   2.640   0.597
 8290SOL    HW225770   6.808   2.487   0.576
 8291SOL     OW25771   4.214   6.889   1.523
 8291SOL    HW125772   4.208   6.982   1.487
 8291SOL    HW225773   4.248   6.827   1.452
 8292SOL     OW25774   2.871   6.993   6.038
 8292SOL    HW125775   2.848   0.007   6.129
 8292SOL    HW225776   2.914   0.045   5.984
 8293SOL     OW25777   5.449   5.492   5.230
 8293SOL    HW125778   5.418   5.491   5.325
 8293SOL    HW225779   5.381   5.448   5.172
 8294SOL     OW25780   5.293   2.627   0.145
 8294SOL    HW125781   5.212   2.584   0.105
 8294SOL    HW225782   5.269   2.718   0.178
 8295SOL     OW25783   4.700   3.568   0.126
 8295SOL    HW125784   4.735   3.579   0.219
 8295SOL    HW225785   4.717   3.651   0.073
 8296SOL     OW25786   1.398   5.031   6.566
 8296SOL    HW125787   1.360   5.020   6.474
 8296SOL    HW225788   1.497   5.035   6.561
 8297SOL     OW25789   1.007   2.418   3.922
 8297SOL    HW125790   0.945   2.492   3.893
 8297SOL    HW225791   0.973   2.378   4.007
 8298SOL     OW25792   4.935   1.499   2.033
 8298SOL    HW125793   5.011   1.518   2.095
 8298SOL    HW225794   4.856   1.466   2.085
 8299SOL     OW25795   6.748   2.227   1.377
 8299SOL    HW125796   6.666   2.169   1.377
 8299SOL    HW225797   6.829   2.169   1.378
 8300SOL     OW25798   0.542   4.920   3.486
 8300SOL    HW125799   0.640   4.903   3.481
 8300SOL    HW225800   0.522   5.010   3.449
 8301SOL     OW25801   3.430   2.802   6.859
 8301SOL    HW125802   3.511   2.846   6.899
 8301SOL    HW225803   3.454   2.765   6.769
 8302SOL     OW25804   5.677   5.710   6.096
 8302SOL    HW125805   5.634   5.758   6.020
 8302SOL    HW225806   5.768   5.749   6.113
 8303SOL     OW25807   0.042   0.547   6.262
 8303SOL    HW125808   0.047   0.496   6.176
 8303SOL    HW225809   0.051   0.645   6.244
 8304SOL     OW25810   6.937   3.166   0.114
 8304SOL    HW125811   6.914   3.249   0.064
 8304SOL    HW225812   6.907   3.175   0.209
 8305SOL     OW25813   3.299   5.806   3.430
 8305SOL    HW125814   3.341   5.724   3.391
 8305SOL    HW225815   3.211   5.782   3.471
 8306SOL     OW25816   0.836   3.634   4.108
 8306SOL    HW125817   0.924   3.661   4.070
 8306SOL    HW225818   0.850   3.565   4.179
 8307SOL     OW25819   2.908   5.519   1.091
 8307SOL    HW125820   2.821   5.474   1.072
 8307SOL    HW225821   2.906   5.612   1.053
 8308SOL     OW25822   3.486   0.354   3.402
 8308SOL    HW125823   3.492   0.400   3.490
 8308SOL    HW225824   3.482   0.422   3.329
 8309SOL     OW25825   5.653   5.951   1.869
 8309SOL    HW125826   5.684   6.009   1.945
 8309SOL    HW225827   5.568   5.988   1.831
 8310SOL     OW25828   6.723   4.460   0.326
 8310SOL    HW125829   6.657   4.398   0.284
 8310SOL    HW225830   6.811   4.452   0.279
 8311SOL     OW25831   6.390   0.531   6.593
 8311SOL    HW125832   6.292   0.555   6.594
 8311SOL    HW225833   6.442   0.605   6.550
 8312SOL     OW25834   5.394   6.691   1.312
 8312SOL    HW125835   5.327   6.700   1.238
 8312SOL    HW225836   5.385   6.769   1.374
 8313SOL     OW25837   3.378   1.486   2.430
 8313SOL    HW125838   3.468   1.514   2.461
 8313SOL    HW225839   3.387   1.414   2.361
 8314SOL     OW25840   7.012   6.657   3.591
 8314SOL    HW125841   6.962   6.577   3.558
 8314SOL    HW225842   0.010   6.648   3.688
 8315SOL     OW25843   5.096   4.850   6.411
 8315SOL    HW125844   5.158   4.772   6.418
 8315SOL    HW225845   5.087   4.894   6.501
 8316SOL     OW25846   2.697   5.835   6.943
 8316SOL    HW125847   2.629   5.842   7.015
 8316SOL    HW225848   2.774   5.778   6.974
 8317SOL     OW25849   2.107   4.538   2.521
 8317SOL    HW125850   2.106   4.456   2.463
 8317SOL    HW225851   2.117   4.619   2.463
 8318SOL     OW25852   3.607   1.009   5.764
 8318SOL    HW125853   3.544   0.952   5.712
 8318SOL    HW225854   3.696   1.009   5.719
 8319SOL     OW25855   3.537   0.757   5.028
 8319SOL    HW125856   3.498   0.738   4.938
 8319SOL    HW225857   3.570   0.672   5.068
 8320SOL     OW25858   3.968   4.558   1.709
 8320SOL    HW125859   4.003   4.464   1.715
 8320SOL    HW225860   3.877   4.557   1.668
 8321SOL     OW25861   0.516   0.965   1.665
 8321SOL    HW125862   0.505   1.062   1.685
 8321SOL    HW225863   0.430   0.917   1.681
 8322SOL     OW25864   5.901   6.550   0.182
 8322SOL    HW125865   5.910   6.517   0.088
 8322SOL    HW225866   5.831   6.621   0.187
 8323SOL     OW25867   1.581   2.200   1.793
 8323SOL    HW125868   1.570   2.113   1.840
 8323SOL    HW225869   1.676   2.209   1.763
 8324SOL     OW25870   6.775   1.376   2.042
 8324SOL    HW125871   6.701   1.443   2.046
 8324SOL    HW225872   6.805   1.354   2.134
 8325SOL     OW25873   3.209   3.739   3.988
 8325SOL    HW125874   3.224   3.668   3.918
 8325SOL    HW225875   3.285   3.804   3.986
 8326SOL     OW25876   3.261   3.427   6.104
 8326SOL    HW125877   3.306   3.448   6.018
 8326SOL    HW225878   3.315   3.463   6.180
 8327SOL     OW25879   4.543   1.923   5.691
 8327SOL    HW125880   4.620   1.972   5.731
 8327SOL    HW225881   4.540   1.830   5.727
 8328SOL     OW25882   2.383   2.108   4.761
 8328SOL    HW125883   2.296   2.121   4.713
 8328SOL    HW225884   2.372   2.131   4.858
 8329SOL     OW25885   6.745   2.370   5.166
 8329SOL    HW125886   6.822   2.323   5.123
 8329SOL    HW225887   6.748   2.355   5.265
 8330SOL     OW25888   2.685   6.764   0.779
 8330SOL    HW125889   2.714   6.859   0.763
 8330SOL    HW225890   2.743   6.702   0.727
 8331SOL     OW25891   2.696   0.033   0.788
 8331SOL    HW125892   2.610   0.065   0.748
 8331SOL    HW225893   2.693   0.047   0.887
 8332SOL     OW25894   4.944   5.632   3.020
 8332SOL    HW125895   5.025   5.656   3.074
 8332SOL    HW225896   4.935   5.532   3.017
 8333SOL     OW25897   1.407   5.743   6.262
 8333SOL    HW125898   1.435   5.663   6.208
 8333SOL    HW225899   1.328   5.718   6.318
 8334SOL     OW25900   5.621   0.456   3.665
 8334SOL    HW125901   5.692   0.511   3.621
 8334SOL    HW225902   5.660   0.410   3.745
 8335SOL     OW25903   5.753   6.812   5.425
 8335SOL    HW125904   5.842   6.846   5.456
 8335SOL    HW225905   5.720   6.870   5.350
 8336SOL     OW25906   0.776   2.091   2.411
 8336SOL    HW125907   0.737   2.073   2.502
 8336SOL    HW225908   0.799   2.005   2.367
 8337SOL     OW25909   0.765   6.335   2.017
 8337SOL    HW125910   0.861   6.315   1.999
 8337SOL    HW225911   0.707   6.283   1.954
 8338SOL     OW25912   1.852   5.098   0.769
 8338SOL    HW125913   1.907   5.037   0.712
 8338SOL    HW225914   1.796   5.156   0.710
 8339SOL     OW25915   5.578   0.749   2.964
 8339SOL    HW125916   5.657   0.716   2.913
 8339SOL    HW225917   5.557   0.685   3.038
 8340SOL     OW25918   4.766   3.418   0.864
 8340SOL    HW125919   4.781   3.329   0.908
 8340SOL    HW225920   4.690   3.465   0.909
 8341SOL     OW25921   2.058   0.109   0.989
 8341SOL    HW125922   2.061   0.206   1.014
 8341SOL    HW225923   2.085   0.053   1.068
 8342SOL     OW25924   4.425   0.567   1.291
 8342SOL    HW125925   4.378   0.654   1.305
 8342SOL    HW225926   4.499   0.557   1.357
 8343SOL     OW25927   1.505   4.943   5.977
 8343SOL    HW125928   1.479   4.848   5.995
 8343SOL    HW225929   1.593   4.962   6.020
 8344SOL     OW25930   3.826   0.442   5.328
 8344SOL    HW125931   3.892   0.370   5.311
 8344SOL    HW225932   3.872   0.531   5.327
 8345SOL     OW25933   6.488   1.493   2.416
 8345SOL    HW125934   6.473   1.526   2.509
 8345SOL    HW225935   6.541   1.562   2.365
 8346SOL     OW25936   3.315   5.383   1.669
 8346SOL    HW125937   3.316   5.345   1.762
 8346SOL    HW225938   3.235   5.349   1.620
 8347SOL     OW25939   3.571   5.551   3.872
 8347SOL    HW125940   3.566   5.521   3.777
 8347SOL    HW225941   3.505   5.625   3.888
 8348SOL     OW25942   1.211   0.348   0.325
 8348SOL    HW125943   1.179   0.441   0.309
 8348SOL    HW225944   1.140   0.282   0.300
 8349SOL     OW25945   6.052   5.303   1.670
 8349SOL    HW125946   6.136   5.312   1.616
 8349SOL    HW225947   6.009   5.393   1.680
 8350SOL     OW25948   6.608   0.533   4.778
 8350SOL    HW125949   6.578   0.583   4.697
 8350SOL    HW225950   6.528   0.507   4.833
 8351SOL     OW25951   3.017   6.249   2.069
 8351SOL    HW125952   2.968   6.221   1.986
 8351SOL    HW225953   2.975   6.332   2.106
 8352SOL     OW25954   6.693   6.192   1.350
 8352SOL    HW125955   6.700   6.280   1.302
 8352SOL    HW225956   6.617   6.140   1.313
 8353SOL     OW25957   0.380   3.660   2.202
 8353SOL    HW125958   0.383   3.639   2.300
 8353SOL    HW225959   0.332   3.746   2.188
 8354SOL     OW25960   2.307   0.642   0.482
 8354SOL    HW125961   2.371   0.586   0.430
 8354SOL    HW225962   2.328   0.634   0.580
 8355SOL     OW25963   3.046   1.425   0.447
 8355SOL    HW125964   3.010   1.477   0.369
 8355SOL    HW225965   2.975   1.417   0.517
 8356SOL     OW25966   2.225   5.517   0.630
 8356SOL    HW125967   2.267   5.556   0.548
 8356SOL    HW225968   2.163   5.584   0.671
 8357SOL     OW25969   5.202   5.877   3.825
 8357SOL    HW125970   5.296   5.872   3.857
 8357SOL    HW225971   5.198   5.932   3.742
 8358SOL     OW25972   2.690   2.075   5.081
 8358SOL    HW125973   2.762   2.138   5.112
 8358SOL    HW225974   2.614   2.077   5.146
 8359SOL     OW25975   4.719   5.048   4.094
 8359SOL    HW125976   4.752   5.139   4.118
 8359SOL    HW225977   4.705   5.042   3.995
 8360SOL     OW25978   4.641   0.445   3.101
 8360SOL    HW125979   4.561   0.429   3.159
 8360SOL    HW225980   4.721   0.462   3.159
 8361SOL     OW25981   1.608   0.898   2.792
 8361SOL    HW125982   1.705   0.910   2.774
 8361SOL    HW225983   1.595   0.862   2.884
 8362SOL     OW25984   2.356   3.162   0.317
 8362SOL    HW125985   2.405   3.159   0.230
 8362SOL    HW225986   2.414   3.205   0.386
 8363SOL     OW25987   0.126   3.426   0.845
 8363SOL    HW125988   0.164   3.363   0.913
 8363SOL    HW225989   0.162   3.403   0.755
 8364SOL     OW25990   6.336   4.795   4.350
 8364SOL    HW125991   6.330   4.743   4.265
 8364SOL    HW225992   6.280   4.878   4.343
 8365SOL     OW25993   1.144   3.826   5.910
 8365SOL    HW125994   1.141   3.894   5.984
 8365SOL    HW225995   1.210   3.755   5.934
 8366SOL     OW25996   3.003   6.922   3.296
 8366SOL    HW125997   3.001   6.824   3.316
 8366SOL    HW225998   3.072   6.966   3.353
 8367SOL     OW25999   5.470   5.796   3.931
 8367SOL    HW126000   5.429   5.737   4.001
 8367SOL    HW226001   5.541   5.853   3.973
 8368SOL     OW26002   3.268   5.383   6.612
 8368SOL    HW126003   3.194   5.447   6.594
 8368SOL    HW226004   3.334   5.387   6.537
 8369SOL     OW26005   2.636   1.504   1.352
 8369SOL    HW126006   2.685   1.498   1.265
 8369SOL    HW226007   2.570   1.580   1.348
 8370SOL     OW26008   1.480   1.538   6.953
 8370SOL    HW126009   1.407   1.601   6.979
 8370SOL    HW226010   1.462   1.501   6.862
 8371SOL     OW26011   2.332   2.894   0.194
 8371SOL    HW126012   2.322   2.801   0.231
 8371SOL    HW226013   2.363   2.956   0.265
 8372SOL     OW26014   0.252   0.746   1.488
 8372SOL    HW126015   0.164   0.704   1.509
 8372SOL    HW226016   0.238   0.829   1.435
 8373SOL     OW26017   1.596   6.740   5.106
 8373SOL    HW126018   1.629   6.786   5.024
 8373SOL    HW226019   1.649   6.657   5.121
 8374SOL     OW26020   6.493   0.279   6.255
 8374SOL    HW126021   6.416   0.339   6.236
 8374SOL    HW226022   6.516   0.284   6.352
 8375SOL     OW26023   3.876   1.030   6.611
 8375SOL    HW126024   3.946   1.018   6.541
 8375SOL    HW226025   3.816   0.950   6.612
 8376SOL     OW26026   4.242   0.416   4.571
 8376SOL    HW126027   4.143   0.415   4.583
 8376SOL    HW226028   4.286   0.374   4.650
 8377SOL     OW26029   5.731   4.583   0.705
 8377SOL    HW126030   5.762   4.584   0.800
 8377SOL    HW226031   5.639   4.544   0.700
 8378SOL     OW26032   5.047   3.005   3.736
 8378SOL    HW126033   5.061   2.943   3.813
 8378SOL    HW226034   5.127   3.064   3.726
 8379SOL     OW26035   5.148   2.336   2.479
 8379SOL    HW126036   5.079   2.298   2.418
 8379SOL    HW226037   5.120   2.427   2.510
 8380SOL     OW26038   5.435   1.874   3.643
 8380SOL    HW126039   5.494   1.940   3.689
 8380SOL    HW226040   5.462   1.866   3.547
 8381SOL     OW26041   2.098   5.426   4.181
 8381SOL    HW126042   2.058   5.418   4.090
 8381SOL    HW226043   2.166   5.354   4.194
 8382SOL     OW26044   0.748   4.104   2.510
 8382SOL    HW126045   0.755   4.198   2.476
 8382SOL    HW226046   0.699   4.105   2.597
 8383SOL     OW26047   3.565   1.689   6.392
 8383SOL    HW126048   3.480   1.638   6.380
 8383SOL    HW226049   3.641   1.625   6.402
 8384SOL     OW26050   0.594   6.590   1.826
 8384SOL    HW126051   0.629   6.586   1.733
 8384SOL    HW226052   0.495   6.579   1.825
 8385SOL     OW26053   4.932   2.218   0.962
 8385SOL    HW126054   4.867   2.266   1.021
 8385SOL    HW226055   4.981   2.149   1.015
 8386SOL     OW26056   0.968   4.297   2.867
 8386SOL    HW126057   0.963   4.317   2.769
 8386SOL    HW226058   0.984   4.199   2.881
 8387SOL     OW26059   0.802   1.923   1.067
 8387SOL    HW126060   0.819   1.830   1.101
 8387SOL    HW226061   0.874   1.984   1.101
 8388SOL     OW26062   0.822   6.707   3.021
 8388SOL    HW126063   0.791   6.616   3.049
 8388SOL    HW226064   0.862   6.702   2.929
 8389SOL     OW26065   5.580   2.188   2.926
 8389SOL    HW126066   5.660   2.240   2.896
 8389SOL    HW226067   5.510   2.252   2.957
 8390SOL     OW26068   5.613   1.647   5.853
 8390SOL    HW126069   5.518   1.675   5.867
 8390SOL    HW226070   5.641   1.584   5.925
 8391SOL     OW26071   6.643   6.689   1.533
 8391SOL    HW126072   6.689   6.611   1.575
 8391SOL    HW226073   6.676   6.701   1.439
 8392SOL     OW26074   4.583   3.060   5.793
 8392SOL    HW126075   4.511   3.096   5.734
 8392SOL    HW226076   4.543   3.001   5.863
 8393SOL     OW26077   5.374   6.991   1.430
 8393SOL    HW126078   5.375   0.018   1.341
 8393SOL    HW226079   5.291   7.015   1.480
 8394SOL     OW26080   5.565   2.685   2.415
 8394SOL    HW126081   5.595   2.721   2.503
 8394SOL    HW226082   5.513   2.755   2.367
 8395SOL     OW26083   2.347   1.121   5.326
 8395SOL    HW126084   2.292   1.166   5.256
 8395SOL    HW226085   2.361   1.184   5.402
 8396SOL     OW26086   4.728   5.602   4.867
 8396SOL    HW126087   4.696   5.667   4.798
 8396SOL    HW226088   4.737   5.648   4.956
 8397SOL     OW26089   6.187   0.529   3.469
 8397SOL    HW126090   6.261   0.461   3.470
 8397SOL    HW226091   6.225   0.621   3.476
 8398SOL     OW26092   5.074   2.306   6.099
 8398SOL    HW126093   4.990   2.358   6.114
 8398SOL    HW226094   5.096   2.307   6.001
 8399SOL     OW26095   0.518   4.323   1.203
 8399SOL    HW126096   0.576   4.344   1.124
 8399SOL    HW226097   0.550   4.238   1.246
 8400SOL     OW26098   1.608   1.237   4.744
 8400SOL    HW126099   1.549   1.261   4.667
 8400SOL    HW226100   1.586   1.295   4.822
 8401SOL     OW26101   2.285   0.177   5.419
 8401SOL    HW126102   2.263   0.270   5.388
 8401SOL    HW226103   2.340   0.182   5.502
 8402SOL     OW26104   3.085   0.512   6.406
 8402SOL    HW126105   3.106   0.439   6.471
 8402SOL    HW226106   3.119   0.486   6.315
 8403SOL     OW26107   5.712   4.715   4.986
 8403SOL    HW126108   5.731   4.673   5.074
 8403SOL    HW226109   5.739   4.653   4.913
 8404SOL     OW26110   0.894   1.586   6.501
 8404SOL    HW126111   0.864   1.639   6.422
 8404SOL    HW226112   0.963   1.519   6.473
 8405SOL     OW26113   4.329   0.474   5.624
 8405SOL    HW126114   4.399   0.496   5.556
 8405SOL    HW226115   4.279   0.392   5.594
 8406SOL     OW26116   5.545   0.058   6.587
 8406SOL    HW126117   5.576   0.020   6.500
 8406SOL    HW226118   5.483   7.014   6.631
 8407SOL     OW26119   3.922   7.013   4.234
 8407SOL    HW126120   3.868   6.976   4.310
 8407SOL    HW226121   3.924   0.093   4.240
 8408SOL     OW26122   3.835   1.227   1.476
 8408SOL    HW126123   3.777   1.172   1.537
 8408SOL    HW226124   3.928   1.191   1.476
 8409SOL     OW26125   4.373   2.322   2.418
 8409SOL    HW126126   4.273   2.317   2.428
 8409SOL    HW226127   4.409   2.230   2.404
 8410SOL     OW26128   6.849   1.933   1.857
 8410SOL    HW126129   6.928   1.896   1.907
 8410SOL    HW226130   6.872   1.940   1.760
 8411SOL     OW26131   1.155   6.403   1.172
 8411SOL    HW126132   1.162   6.305   1.189
 8411SOL    HW226133   1.129   6.418   1.076
 8412SOL     OW26134   2.652   1.926   0.021
 8412SOL    HW126135   2.599   2.010   0.034
 8412SOL    HW226136   2.687   1.895   0.110
 8413SOL     OW26137   3.876   5.365   4.513
 8413SOL    HW126138   3.933   5.439   4.477
 8413SOL    HW226139   3.929   5.310   4.577
 8414SOL     OW26140   1.253   0.463   1.031
 8414SOL    HW126141   1.219   0.412   0.951
 8414SOL    HW226142   1.187   0.455   1.105
 8415SOL     OW26143   2.686   1.469   5.893
 8415SOL    HW126144   2.617   1.402   5.920
 8415SOL    HW226145   2.645   1.560   5.888
 8416SOL     OW26146   6.581   2.261   5.608
 8416SOL    HW126147   6.601   2.250   5.511
 8416SOL    HW226148   6.580   2.171   5.652
 8417SOL     OW26149   2.141   3.110   5.990
 8417SOL    HW126150   2.160   3.051   6.068
 8417SOL    HW226151   2.101   3.196   6.021
 8418SOL     OW26152   0.600   6.067   2.408
 8418SOL    HW126153   0.635   6.016   2.329
 8418SOL    HW226154   0.622   6.164   2.396
 8419SOL     OW26155   4.309   1.530   4.064
 8419SOL    HW126156   4.390   1.587   4.048
 8419SOL    HW226157   4.248   1.576   4.128
 8420SOL     OW26158   3.354   0.847   1.971
 8420SOL    HW126159   3.361   0.777   1.900
 8420SOL    HW226160   3.442   0.894   1.981
 8421SOL     OW26161   4.563   6.741   6.173
 8421SOL    HW126162   4.466   6.764   6.163
 8421SOL    HW226163   4.617   6.826   6.178
 8422SOL     OW26164   5.223   2.699   3.700
 8422SOL    HW126165   5.209   2.761   3.623
 8422SOL    HW226166   5.153   2.628   3.699
 8423SOL     OW26167   6.904   5.316   0.011
 8423SOL    HW126168   6.955   5.350   6.952
 8423SOL    HW226169   6.920   5.375   0.090
 8424SOL     OW26170   3.411   0.284   5.007
 8424SOL    HW126171   3.460   0.333   4.934
 8424SOL    HW226172   3.391   0.347   5.082
 8425SOL     OW26173   3.695   3.982   2.062
 8425SOL    HW126174   3.637   3.964   1.983
 8425SOL    HW226175   3.675   3.915   2.135
 8426SOL     OW26176   3.803   2.855   1.746
 8426SOL    HW126177   3.837   2.929   1.803
 8426SOL    HW226178   3.816   2.879   1.649
 8427SOL     OW26179   3.829   3.489   3.587
 8427SOL    HW126180   3.853   3.393   3.600
 8427SOL    HW226181   3.825   3.510   3.490
 8428SOL     OW26182   6.184   6.902   1.890
 8428SOL    HW126183   6.229   6.879   1.804
 8428SOL    HW226184   6.198   6.999   1.910
 8429SOL     OW26185   2.978   5.900   5.139
 8429SOL    HW126186   3.037   5.828   5.177
 8429SOL    HW226187   2.945   5.958   5.213
 8430SOL     OW26188   4.744   0.152   5.070
 8430SOL    HW126189   4.747   0.203   4.984
 8430SOL    HW226190   4.656   0.105   5.078
 8431SOL     OW26191   1.805   4.005   5.784
 8431SOL    HW126192   1.792   3.969   5.691
 8431SOL    HW226193   1.872   4.079   5.782
 8432SOL     OW26194   6.318   5.471   6.036
 8432SOL    HW126195   6.218   5.467   6.037
 8432SOL    HW226196   6.355   5.380   6.018
 8433SOL     OW26197   5.668   2.103   0.981
 8433SOL    HW126198   5.655   2.180   0.918
 8433SOL    HW226199   5.750   2.119   1.036
 8434SOL     OW26200   2.738   5.792   4.536
 8434SOL    HW126201   2.654   5.810   4.586
 8434SOL    HW226202   2.801   5.740   4.595
 8435SOL     OW26203   5.483   1.833   3.386
 8435SOL    HW126204   5.547   1.756   3.378
 8435SOL    HW226205   5.509   1.904   3.321
 8436SOL     OW26206   2.269   5.684   2.161
 8436SOL    HW126207   2.361   5.671   2.123
 8436SOL    HW226208   2.210   5.609   2.132
 8437SOL     OW26209   0.669   5.351   1.498
 8437SOL    HW126210   0.717   5.282   1.552
 8437SOL    HW226211   0.657   5.317   1.404
 8438SOL     OW26212   0.342   3.588   2.481
 8438SOL    HW126213   0.441   3.603   2.475
 8438SOL    HW226214   0.320   3.547   2.569
 8439SOL     OW26215   6.519   4.513   2.737
 8439SOL    HW126216   6.582   4.457   2.682
 8439SOL    HW226217   6.439   4.458   2.762
 8440SOL     OW26218   1.482   2.111   2.720
 8440SOL    HW126219   1.498   2.098   2.622
 8440SOL    HW226220   1.517   2.200   2.748
 8441SOL     OW26221   0.001   1.908   6.229
 8441SOL    HW126222   6.968   1.986   6.197
 8441SOL    HW226223   0.072   1.885   6.162
 8442SOL     OW26224   3.924   2.293   6.576
 8442SOL    HW126225   3.913   2.281   6.674
 8442SOL    HW226226   4.006   2.244   6.545
 8443SOL     OW26227   1.586   4.547   2.740
 8443SOL    HW126228   1.639   4.476   2.694
 8443SOL    HW226229   1.600   4.540   2.839
 8444SOL     OW26230   5.342   5.104   5.393
 8444SOL    HW126231   5.416   5.068   5.337
 8444SOL    HW226232   5.343   5.060   5.483
 8445SOL     OW26233   4.606   6.762   6.625
 8445SOL    HW126234   4.636   6.666   6.624
 8445SOL    HW226235   4.672   6.817   6.675
 8446SOL     OW26236   6.446   5.260   5.086
 8446SOL    HW126237   6.522   5.316   5.117
 8446SOL    HW226238   6.481   5.179   5.039
 8447SOL     OW26239   4.094   1.019   3.828
 8447SOL    HW126240   4.180   0.978   3.795
 8447SOL    HW226241   4.035   1.039   3.751
 8448SOL     OW26242   3.226   6.078   3.067
 8448SOL    HW126243   3.315   6.112   3.095
 8448SOL    HW226244   3.198   6.122   2.982
 8449SOL     OW26245   1.917   1.904   3.554
 8449SOL    HW126246   1.819   1.921   3.565
 8449SOL    HW226247   1.959   1.894   3.645
 8450SOL     OW26248   6.994   1.088   6.875
 8450SOL    HW126249   0.041   1.132   6.816
 8450SOL    HW226250   0.019   1.021   6.933
 8451SOL     OW26251   3.810   2.382   1.065
 8451SOL    HW126252   3.786   2.433   1.148
 8451SOL    HW226253   3.895   2.332   1.080
 8452SOL     OW26254   4.848   1.299   6.136
 8452SOL    HW126255   4.909   1.220   6.120
 8452SOL    HW226256   4.760   1.266   6.170
 8453SOL     OW26257   0.028   6.354   0.068
 8453SOL    HW126258   0.086   6.373   0.147
 8453SOL    HW226259   6.961   6.402   0.078
 8454SOL     OW26260   6.089   4.302   6.628
 8454SOL    HW126261   6.048   4.287   6.718
 8454SOL    HW226262   6.018   4.300   6.558
 8455SOL     OW26263   6.683   0.983   2.687
 8455SOL    HW126264   6.649   0.900   2.643
 8455SOL    HW226265   6.606   1.039   2.716
 8456SOL     OW26266   6.785   0.006   2.746
 8456SOL    HW126267   6.795   0.015   2.845
 8456SOL    HW226268   6.875   7.008   2.705
 8457SOL     OW26269   6.744   6.773   5.034
 8457SOL    HW126270   6.680   6.789   4.958
 8457SOL    HW226271   6.695   6.727   5.109
 8458SOL     OW26272   0.604   6.710   6.437
 8458SOL    HW126273   0.547   6.644   6.388
 8458SOL    HW226274   0.604   6.797   6.387
 8459SOL     OW26275   1.307   6.040   3.649
 8459SOL    HW126276   1.386   6.013   3.594
 8459SOL    HW226277   1.320   6.009   3.744
 8460SOL     OW26278   4.138   3.492   3.198
 8460SOL    HW126279   4.153   3.430   3.275
 8460SOL    HW226280   4.142   3.586   3.230
 8461SOL     OW26281   6.621   3.277   3.650
 8461SOL    HW126282   6.541   3.240   3.603
 8461SOL    HW226283   6.638   3.370   3.619
 8462SOL     OW26284   2.433   2.811   1.785
 8462SOL    HW126285   2.506   2.874   1.760
 8462SOL    HW226286   2.365   2.808   1.712
 8463SOL     OW26287   5.672   0.541   1.825
 8463SOL    HW126288   5.692   0.638   1.815
 8463SOL    HW226289   5.574   0.528   1.837
 8464SOL     OW26290   0.145   2.167   4.793
 8464SOL    HW126291   0.209   2.229   4.749
 8464SOL    HW226292   0.186   2.128   4.875
 8465SOL     OW26293   1.496   2.009   0.043
 8465SOL    HW126294   1.458   1.918   0.025
 8465SOL    HW226295   1.426   2.078   0.024
 8466SOL     OW26296   0.443   0.280   3.927
 8466SOL    HW126297   0.481   0.360   3.879
 8466SOL    HW226298   0.502   0.201   3.910
 8467SOL     OW26299   3.658   4.948   1.269
 8467SOL    HW126300   3.612   5.022   1.319
 8467SOL    HW226301   3.756   4.969   1.262
 8468SOL     OW26302   4.427   2.667   0.386
 8468SOL    HW126303   4.459   2.759   0.367
 8468SOL    HW226304   4.505   2.605   0.393
 8469SOL     OW26305   4.274   2.420   6.469
 8469SOL    HW126306   4.294   2.462   6.558
 8469SOL    HW226307   4.207   2.475   6.420
 8470SOL     OW26308   1.751   3.147   6.734
 8470SOL    HW126309   1.707   3.062   6.703
 8470SOL    HW226310   1.680   3.213   6.758
 8471SOL     OW26311   4.866   1.482   3.885
 8471SOL    HW126312   4.859   1.410   3.815
 8471SOL    HW226313   4.948   1.537   3.868
 8472SOL     OW26314   1.198   6.670   2.855
 8472SOL    HW126315   1.242   6.760   2.862
 8472SOL    HW226316   1.144   6.666   2.772
 8473SOL     OW26317   6.718   5.827   6.209
 8473SOL    HW126318   6.756   5.788   6.292
 8473SOL    HW226319   6.718   5.927   6.217
 8474SOL     OW26320   3.725   5.402   0.445
 8474SOL    HW126321   3.764   5.415   0.354
 8474SOL    HW226322   3.787   5.346   0.500
 8475SOL     OW26323   4.474   1.609   2.643
 8475SOL    HW126324   4.423   1.523   2.646
 8475SOL    HW226325   4.554   1.601   2.703
 8476SOL     OW26326   4.397   0.437   2.532
 8476SOL    HW126327   4.354   0.490   2.459
 8476SOL    HW226328   4.475   0.387   2.496
 8477SOL     OW26329   2.658   0.718   2.377
 8477SOL    HW126330   2.577   0.671   2.340
 8477SOL    HW226331   2.635   0.759   2.465
 8478SOL     OW26332   1.721   0.303   5.692
 8478SOL    HW126333   1.659   0.369   5.735
 8478SOL    HW226334   1.726   0.320   5.594
 8479SOL     OW26335   4.968   1.345   2.303
 8479SOL    HW126336   4.868   1.342   2.292
 8479SOL    HW226337   5.001   1.256   2.334
 8480SOL     OW26338   1.787   1.205   1.647
 8480SOL    HW126339   1.800   1.243   1.556
 8480SOL    HW226340   1.732   1.268   1.702
 8481SOL     OW26341   4.507   0.039   5.154
 8481SOL    HW126342   4.475   0.072   5.242
 8481SOL    HW226343   4.516   6.960   5.157
 8482SOL     OW26344   0.584   0.406   2.263
 8482SOL    HW126345   0.651   0.421   2.335
 8482SOL    HW226346   0.522   0.484   2.258
 8483SOL     OW26347   5.576   6.246   1.686
 8483SOL    HW126348   5.644   6.224   1.756
 8483SOL    HW226349   5.560   6.166   1.629
 8484SOL     OW26350   0.344   4.518   4.184
 8484SOL    HW126351   0.320   4.518   4.087
 8484SOL    HW226352   0.443   4.513   4.194
 8485SOL     OW26353   2.457   3.243   5.472
 8485SOL    HW126354   2.476   3.309   5.399
 8485SOL    HW226355   2.537   3.239   5.533
 8486SOL     OW26356   4.188   0.444   2.703
 8486SOL    HW126357   4.274   0.426   2.655
 8486SOL    HW226358   4.120   0.476   2.637
 8487SOL     OW26359   4.620   0.926   0.848
 8487SOL    HW126360   4.552   0.951   0.779
 8487SOL    HW226361   4.710   0.957   0.819
 8488SOL     OW26362   5.390   3.150   4.749
 8488SOL    HW126363   5.459   3.187   4.687
 8488SOL    HW226364   5.319   3.219   4.765
 8489SOL     OW26365   3.530   5.741   2.739
 8489SOL    HW126366   3.551   5.839   2.744
 8489SOL    HW226367   3.436   5.729   2.707
 8490SOL     OW26368   4.059   5.345   2.718
 8490SOL    HW126369   3.962   5.333   2.739
 8490SOL    HW226370   4.069   5.390   2.629
 8491SOL     OW26371   1.192   1.128   2.092
 8491SOL    HW126372   1.200   1.126   1.993
 8491SOL    HW226373   1.273   1.171   2.132
 8492SOL     OW26374   5.524   3.907   4.930
 8492SOL    HW126375   5.479   3.884   4.843
 8492SOL    HW226376   5.604   3.964   4.911
 8493SOL     OW26377   3.963   2.634   0.831
 8493SOL    HW126378   3.867   2.628   0.859
 8493SOL    HW226379   4.021   2.644   0.912
 8494SOL     OW26380   3.849   6.171   6.598
 8494SOL    HW126381   3.898   6.109   6.659
 8494SOL    HW226382   3.823   6.254   6.648
 8495SOL     OW26383   0.471   2.752   0.384
 8495SOL    HW126384   0.414   2.829   0.355
 8495SOL    HW226385   0.561   2.785   0.411
 8496SOL     OW26386   6.850   2.296   3.201
 8496SOL    HW126387   6.782   2.252   3.258
 8496SOL    HW226388   6.938   2.297   3.248
 8497SOL     OW26389   6.045   4.660   3.167
 8497SOL    HW126390   6.105   4.580   3.162
 8497SOL    HW226391   6.061   4.708   3.253
 8498SOL     OW26392   6.447   1.021   1.152
 8498SOL    HW126393   6.378   1.032   1.223
 8498SOL    HW226394   6.500   1.105   1.144
 8499SOL     OW26395   1.622   4.120   6.533
 8499SOL    HW126396   1.674   4.160   6.457
 8499SOL    HW226397   1.525   4.115   6.508
 8500SOL     OW26398   3.358   0.608   6.126
 8500SOL    HW126399   3.447   0.628   6.084
 8500SOL    HW226400   3.359   0.637   6.222
 8501SOL     OW26401   3.030   4.395   6.106
 8501SOL    HW126402   2.986   4.446   6.032
 8501SOL    HW226403   3.127   4.416   6.109
 8502SOL     OW26404   0.721   6.814   1.925
 8502SOL    HW126405   0.691   6.721   1.904
 8502SOL    HW226406   0.797   6.810   1.990
 8503SOL     OW26407   3.196   6.167   3.332
 8503SOL    HW126408   3.177   6.100   3.260
 8503SOL    HW226409   3.242   6.121   3.408
 8504SOL     OW26410   1.405   5.467   3.503
 8504SOL    HW126411   1.394   5.566   3.490
 8504SOL    HW226412   1.398   5.421   3.415
 8505SOL     OW26413   4.603   2.642   3.947
 8505SOL    HW126414   4.645   2.556   3.973
 8505SOL    HW226415   4.657   2.718   3.985
 8506SOL     OW26416   1.016   6.450   0.587
 8506SOL    HW126417   0.933   6.436   0.533
 8506SOL    HW226418   1.000   6.522   0.655
 8507SOL     OW26419   1.559   0.089   4.707
 8507SOL    HW126420   1.545   0.133   4.796
 8507SOL    HW226421   1.655   0.100   4.680
 8508SOL     OW26422   0.824   3.237   5.940
 8508SOL    HW126423   0.779   3.324   5.956
 8508SOL    HW226424   0.815   3.212   5.843
 8509SOL     OW26425   6.008   2.313   4.798
 8509SOL    HW126426   6.103   2.311   4.766
 8509SOL    HW226427   5.967   2.223   4.787
 8510SOL     OW26428   5.190   6.990   2.288
 8510SOL    HW126429   5.144   6.946   2.365
 8510SOL    HW226430   5.125   7.002   2.213
 8511SOL     OW26431   6.460   5.029   1.315
 8511SOL    HW126432   6.522   5.010   1.239
 8511SOL    HW226433   6.387   4.961   1.316
 8512SOL     OW26434   3.679   2.665   0.912
 8512SOL    HW126435   3.656   2.573   0.880
 8512SOL    HW226436   3.599   2.706   0.956
 8513SOL     OW26437   0.961   3.954   1.437
 8513SOL    HW126438   1.012   4.007   1.505
 8513SOL    HW226439   1.023   3.896   1.385
 8514SOL     OW26440   2.691   2.067   5.526
 8514SOL    HW126441   2.772   2.015   5.500
 8514SOL    HW226442   2.717   2.136   5.594
 8515SOL     OW26443   2.213   0.249   0.514
 8515SOL    HW126444   2.312   0.242   0.506
 8515SOL    HW226445   2.171   0.160   0.495
 8516SOL     OW26446   5.440   2.983   4.201
 8516SOL    HW126447   5.483   3.059   4.250
 8516SOL    HW226448   5.361   2.950   4.253
 8517SOL     OW26449   2.123   1.717   6.473
 8517SOL    HW126450   2.156   1.751   6.385
 8517SOL    HW226451   2.142   1.784   6.545
 8518SOL     OW26452   5.419   4.805   0.046
 8518SOL    HW126453   5.449   4.859   0.124
 8518SOL    HW226454   5.409   4.864   6.986
 8519SOL     OW26455   0.704   3.234   0.661
 8519SOL    HW126456   0.804   3.232   0.668
 8519SOL    HW226457   0.666   3.260   0.750
 8520SOL     OW26458   3.421   4.107   5.626
 8520SOL    HW126459   3.469   4.104   5.538
 8520SOL    HW226460   3.475   4.159   5.691
 8521SOL     OW26461   2.017   6.461   5.040
 8521SOL    HW126462   1.955   6.391   5.075
 8521SOL    HW226463   2.109   6.424   5.033
 8522SOL     OW26464   0.450   6.771   0.090
 8522SOL    HW126465   0.395   6.771   0.007
 8522SOL    HW226466   0.411   6.836   0.156
 8523SOL     OW26467   3.648   2.055   0.498
 8523SOL    HW126468   3.678   2.135   0.549
 8523SOL    HW226469   3.630   2.079   0.403
 8524SOL     OW26470   2.308   5.229   5.020
 8524SOL    HW126471   2.270   5.218   4.928
 8524SOL    HW226472   2.405   5.255   5.012
 8525SOL     OW26473   6.134   3.511   2.054
 8525SOL    HW126474   6.117   3.515   1.956
 8525SOL    HW226475   6.049   3.483   2.101
 8526SOL     OW26476   0.315   4.423   0.184
 8526SOL    HW126477   0.314   4.444   0.086
 8526SOL    HW226478   0.404   4.387   0.209
 8527SOL     OW26479   2.896   0.987   5.764
 8527SOL    HW126480   2.808   1.034   5.774
 8527SOL    HW226481   2.891   0.899   5.811
 8528SOL     OW26482   5.503   0.724   1.053
 8528SOL    HW126483   5.479   0.817   1.024
 8528SOL    HW226484   5.512   0.722   1.153
 8529SOL     OW26485   1.070   6.217   0.139
 8529SOL    HW126486   1.018   6.301   0.126
 8529SOL    HW226487   1.019   6.155   0.198
 8530SOL     OW26488   3.945   3.820   3.071
 8530SOL    HW126489   4.014   3.810   3.142
 8530SOL    HW226490   3.921   3.729   3.036
 8531SOL     OW26491   6.429   4.976   4.678
 8531SOL    HW126492   6.352   5.035   4.703
 8531SOL    HW226493   6.394   4.891   4.640
 8532SOL     OW26494   3.295   5.412   6.884
 8532SOL    HW126495   3.290   5.383   6.788
 8532SOL    HW226496   3.237   5.493   6.896
 8533SOL     OW26497   2.815   6.556   5.213
 8533SOL    HW126498   2.739   6.618   5.232
 8533SOL    HW226499   2.900   6.597   5.244
 8534SOL     OW26500   2.217   2.460   3.154
 8534SOL    HW126501   2.268   2.386   3.198
 8534SOL    HW226502   2.281   2.528   3.119
 8535SOL     OW26503   6.181   0.395   2.127
 8535SOL    HW126504   6.127   0.423   2.048
 8535SOL    HW226505   6.137   0.427   2.211
 8536SOL     OW26506   0.679   1.115   4.637
 8536SOL    HW126507   0.645   1.141   4.546
 8536SOL    HW226508   0.616   1.149   4.707
 8537SOL     OW26509   6.248   1.364   2.799
 8537SOL    HW126510   6.189   1.435   2.838
 8537SOL    HW226511   6.193   1.303   2.742
 8538SOL     OW26512   0.969   2.494   0.386
 8538SOL    HW126513   1.058   2.449   0.376
 8538SOL    HW226514   0.950   2.549   0.304
 8539SOL     OW26515   5.560   2.741   2.703
 8539SOL    HW126516   5.461   2.745   2.690
 8539SOL    HW226517   5.594   2.831   2.727
 8540SOL     OW26518   3.457   0.829   1.371
 8540SOL    HW126519   3.425   0.741   1.337
 8540SOL    HW226520   3.379   0.881   1.406
 8541SOL     OW26521   1.991   2.558   4.145
 8541SOL    HW126522   1.965   2.561   4.048
 8541SOL    HW226523   2.064   2.624   4.161
 8542SOL     OW26524   3.321   4.552   0.455
 8542SOL    HW126525   3.283   4.597   0.535
 8542SOL    HW226526   3.248   4.512   0.401
 8543SOL     OW26527   2.931   2.040   6.434
 8543SOL    HW126528   2.996   2.072   6.503
 8543SOL    HW226529   2.883   1.959   6.469
 8544SOL     OW26530   5.849   2.645   3.958
 8544SOL    HW126531   5.906   2.644   4.041
 8544SOL    HW226532   5.852   2.555   3.915
 8545SOL     OW26533   4.647   6.447   5.105
 8545SOL    HW126534   4.657   6.527   5.163
 8545SOL    HW226535   4.736   6.417   5.071
 8546SOL     OW26536   4.836   2.211   0.084
 8546SOL    HW126537   4.922   2.253   0.056
 8546SOL    HW226538   4.782   2.277   0.135
 8547SOL     OW26539   0.923   4.905   2.132
 8547SOL    HW126540   0.895   4.876   2.223
 8547SOL    HW226541   1.021   4.890   2.121
 8548SOL     OW26542   6.395   1.434   5.687
 8548SOL    HW126543   6.443   1.412   5.602
 8548SOL    HW226544   6.460   1.472   5.752
 8549SOL     OW26545   5.382   3.326   5.471
 8549SOL    HW126546   5.340   3.416   5.469
 8549SOL    HW226547   5.335   3.266   5.405
 8550SOL     OW26548   0.795   4.303   6.068
 8550SOL    HW126549   0.852   4.262   6.139
 8550SOL    HW226550   0.789   4.241   5.990
 8551SOL     OW26551   2.689   4.388   1.052
 8551SOL    HW126552   2.670   4.478   1.090
 8551SOL    HW226553   2.648   4.318   1.110
 8552SOL     OW26554   3.059   6.833   4.510
 8552SOL    HW126555   3.068   6.924   4.470
 8552SOL    HW226556   3.077   6.764   4.439
 8553SOL     OW26557   6.018   5.154   6.855
 8553SOL    HW126558   6.040   5.212   6.934
 8553SOL    HW226559   6.013   5.210   6.773
 8554SOL     OW26560   5.638   3.835   6.809
 8554SOL    HW126561   5.705   3.849   6.881
 8554SOL    HW226562   5.546   3.844   6.846
 8555SOL     OW26563   1.868   6.679   4.421
 8555SOL    HW126564   1.921   6.673   4.505
 8555SOL    HW226565   1.770   6.670   4.443
 8556SOL     OW26566   5.964   6.700   4.211
 8556SOL    HW126567   5.981   6.779   4.154
 8556SOL    HW226568   5.955   6.618   4.154
 8557SOL     OW26569   6.666   1.019   0.212
 8557SOL    HW126570   6.698   1.062   0.296
 8557SOL    HW226571   6.738   0.960   0.175
 8558SOL     OW26572   0.491   5.388   2.004
 8558SOL    HW126573   0.405   5.357   2.043
 8558SOL    HW226574   0.537   5.310   1.960
 8559SOL     OW26575   0.355   1.385   5.619
 8559SOL    HW126576   0.390   1.338   5.537
 8559SOL    HW226577   0.428   1.394   5.686
 8560SOL     OW26578   6.820   2.067   6.863
 8560SOL    HW126579   6.902   2.109   6.902
 8560SOL    HW226580   6.805   1.978   6.905
 8561SOL     OW26581   5.127   5.910   5.684
 8561SOL    HW126582   5.183   5.987   5.656
 8561SOL    HW226583   5.185   5.832   5.705
 8562SOL     OW26584   3.691   6.876   4.339
 8562SOL    HW126585   3.748   6.854   4.418
 8562SOL    HW226586   3.600   6.903   4.371
 8563SOL     OW26587   3.029   2.979   6.687
 8563SOL    HW126588   3.030   3.065   6.637
 8563SOL    HW226589   3.040   2.903   6.623
 8564SOL     OW26590   0.399   6.375   3.154
 8564SOL    HW126591   0.462   6.313   3.106
 8564SOL    HW226592   0.327   6.403   3.091
 8565SOL     OW26593   3.409   0.619   1.781
 8565SOL    HW126594   3.414   0.575   1.870
 8565SOL    HW226595   3.393   0.550   1.710
 8566SOL     OW26596   1.747   3.986   3.518
 8566SOL    HW126597   1.753   4.058   3.587
 8566SOL    HW226598   1.839   3.956   3.494
 8567SOL     OW26599   5.026   5.968   0.241
 8567SOL    HW126600   5.061   5.944   0.332
 8567SOL    HW226601   5.011   6.066   0.237
 8568SOL     OW26602   5.673   0.650   0.178
 8568SOL    HW126603   5.758   0.649   0.231
 8568SOL    HW226604   5.674   0.573   0.113
 8569SOL     OW26605   4.108   1.114   5.382
 8569SOL    HW126606   4.084   1.045   5.450
 8569SOL    HW226607   4.025   1.164   5.355
 8570SOL     OW26608   0.320   3.485   6.371
 8570SOL    HW126609   0.253   3.430   6.321
 8570SOL    HW226610   0.389   3.519   6.307
 8571SOL     OW26611   0.149   4.307   4.832
 8571SOL    HW126612   0.244   4.276   4.839
 8571SOL    HW226613   0.087   4.232   4.857
 8572SOL     OW26614   2.862   4.882   5.460
 8572SOL    HW126615   2.936   4.852   5.521
 8572SOL    HW226616   2.832   4.974   5.486
 8573SOL     OW26617   4.152   6.436   4.388
 8573SOL    HW126618   4.154   6.527   4.428
 8573SOL    HW226619   4.170   6.443   4.290
 8574SOL     OW26620   0.392   3.829   4.379
 8574SOL    HW126621   0.438   3.908   4.339
 8574SOL    HW226622   0.302   3.818   4.337
 8575SOL     OW26623   2.939   3.251   6.616
 8575SOL    HW126624   2.886   3.236   6.533
 8575SOL    HW226625   2.882   3.296   6.685
 8576SOL     OW26626   1.943   0.506   0.795
 8576SOL    HW126627   1.981   0.582   0.743
 8576SOL    HW226628   1.849   0.489   0.765
 8577SOL     OW26629   6.660   5.583   4.282
 8577SOL    HW126630   6.571   5.626   4.267
 8577SOL    HW226631   6.693   5.545   4.196
 8578SOL     OW26632   5.036   0.499   2.822
 8578SOL    HW126633   5.061   0.573   2.758
 8578SOL    HW226634   5.061   0.411   2.781
 8579SOL     OW26635   0.232   4.762   2.898
 8579SOL    HW126636   0.153   4.818   2.876
 8579SOL    HW226637   0.209   4.699   2.972
 8580SOL     OW26638   2.985   5.017   5.870
 8580SOL    HW126639   2.900   4.978   5.836
 8580SOL    HW226640   3.015   4.967   5.951
 8581SOL     OW26641   3.480   2.848   0.275
 8581SOL    HW126642   3.459   2.750   0.275
 8581SOL    HW226643   3.454   2.888   0.363
 8582SOL     OW26644   4.478   4.502   0.721
 8582SOL    HW126645   4.554   4.437   0.732
 8582SOL    HW226646   4.463   4.550   0.807
 8583SOL     OW26647   5.494   6.656   5.184
 8583SOL    HW126648   5.518   6.752   5.198
 8583SOL    HW226649   5.410   6.650   5.130
 8584SOL     OW26650   0.633   5.621   6.598
 8584SOL    HW126651   0.579   5.569   6.665
 8584SOL    HW226652   0.676   5.557   6.534
 8585SOL     OW26653   0.704   1.570   0.837
 8585SOL    HW126654   0.792   1.524   0.847
 8585SOL    HW226655   0.668   1.592   0.928
 8586SOL     OW26656   4.086   5.077   4.305
 8586SOL    HW126657   3.990   5.106   4.307
 8586SOL    HW226658   4.124   5.095   4.214
 8587SOL     OW26659   6.650   1.857   2.004
 8587SOL    HW126660   6.715   1.883   1.933
 8587SOL    HW226661   6.698   1.806   2.076
 8588SOL     OW26662   3.356   2.181   0.058
 8588SOL    HW126663   3.375   2.273   0.023
 8588SOL    HW226664   3.328   2.187   0.154
 8589SOL     OW26665   3.172   1.458   5.254
 8589SOL    HW126666   3.208   1.550   5.274
 8589SOL    HW226667   3.235   1.411   5.192
 8590SOL     OW26668   6.321   5.716   5.246
 8590SOL    HW126669   6.283   5.658   5.174
 8590SOL    HW226670   6.268   5.705   5.330
 8591SOL     OW26671   1.357   2.668   0.464
 8591SOL    HW126672   1.301   2.685   0.382
 8591SOL    HW226673   1.361   2.570   0.481
 8592SOL     OW26674   6.770   6.104   6.254
 8592SOL    HW126675   6.718   6.105   6.339
 8592SOL    HW226676   6.789   6.197   6.224
 8593SOL     OW26677   0.436   6.141   3.311
 8593SOL    HW126678   0.429   6.240   3.295
 8593SOL    HW226679   0.405   6.120   3.403
 8594SOL     OW26680   3.541   4.092   3.386
 8594SOL    HW126681   3.518   4.108   3.290
 8594SOL    HW226682   3.638   4.072   3.395
 8595SOL     OW26683   1.545   2.966   1.543
 8595SOL    HW126684   1.466   3.008   1.588
 8595SOL    HW226685   1.628   2.987   1.594
 8596SOL     OW26686   6.406   4.199   2.488
 8596SOL    HW126687   6.426   4.220   2.584
 8596SOL    HW226688   6.451   4.113   2.463
 8597SOL     OW26689   2.614   1.822   0.419
 8597SOL    HW126690   2.706   1.791   0.442
 8597SOL    HW226691   2.571   1.757   0.356
 8598SOL     OW26692   5.424   3.658   1.525
 8598SOL    HW126693   5.473   3.582   1.483
 8598SOL    HW226694   5.377   3.625   1.607
 8599SOL     OW26695   1.025   3.305   1.008
 8599SOL    HW126696   1.028   3.206   1.014
 8599SOL    HW226697   0.991   3.344   1.093
 8600SOL     OW26698   6.167   3.037   6.359
 8600SOL    HW126699   6.197   2.972   6.289
 8600SOL    HW226700   6.209   3.013   6.446
 8601SOL     OW26701   0.270   0.450   5.308
 8601SOL    HW126702   0.337   0.512   5.347
 8601SOL    HW226703   0.182   0.462   5.354
 8602SOL     OW26704   1.917   6.288   1.569
 8602SOL    HW126705   1.987   6.352   1.600
 8602SOL    HW226706   1.828   6.317   1.604
 8603SOL     OW26707   4.926   3.540   1.528
 8603SOL    HW126708   4.916   3.479   1.449
 8603SOL    HW226709   4.864   3.618   1.518
 8604SOL     OW26710   5.814   2.299   2.835
 8604SOL    HW126711   5.778   2.361   2.766
 8604SOL    HW226712   5.886   2.345   2.888
 8605SOL     OW26713   2.662   5.618   1.720
 8605SOL    HW126714   2.597   5.651   1.788
 8605SOL    HW226715   2.743   5.580   1.766
 8606SOL     OW26716   4.036   5.633   5.310
 8606SOL    HW126717   3.981   5.642   5.227
 8606SOL    HW226718   3.991   5.681   5.385
 8607SOL     OW26719   3.076   5.896   1.263
 8607SOL    HW126720   3.065   5.804   1.299
 8607SOL    HW226721   3.075   5.893   1.163
 8608SOL     OW26722   6.140   6.443   2.031
 8608SOL    HW126723   6.122   6.350   2.000
 8608SOL    HW226724   6.235   6.468   2.011
 8609SOL     OW26725   4.475   0.769   6.640
 8609SOL    HW126726   4.465   0.695   6.706
 8609SOL    HW226727   4.564   0.813   6.652
 8610SOL     OW26728   0.219   6.314   5.467
 8610SOL    HW126729   0.253   6.263   5.387
 8610SOL    HW226730   0.234   6.259   5.549
 8611SOL     OW26731   1.345   1.902   3.492
 8611SOL    HW126732   1.396   1.876   3.410
 8611SOL    HW226733   1.357   1.832   3.562
 8612SOL     OW26734   4.917   3.121   4.675
 8612SOL    HW126735   4.877   3.037   4.711
 8612SOL    HW226736   4.990   3.098   4.610
 8613SOL     OW26737   1.396   0.920   6.893
 8613SOL    HW126738   1.328   0.866   6.844
 8613SOL    HW226739   1.372   1.017   6.888
 8614SOL     OW26740   1.335   1.361   3.825
 8614SOL    HW126741   1.377   1.278   3.787
 8614SOL    HW226742   1.384   1.388   3.909
 8615SOL     OW26743   4.416   2.449   5.249
 8615SOL    HW126744   4.456   2.537   5.223
 8615SOL    HW226745   4.329   2.437   5.201
 8616SOL     OW26746   1.519   3.339   0.125
 8616SOL    HW126747   1.571   3.275   0.181
 8616SOL    HW226748   1.484   3.413   0.183
 8617SOL     OW26749   5.909   2.585   0.552
 8617SOL    HW126750   5.856   2.599   0.468
 8617SOL    HW226751   5.855   2.612   0.631
 8618SOL     OW26752   4.220   0.803   3.001
 8618SOL    HW126753   4.183   0.723   3.049
 8618SOL    HW226754   4.194   0.800   2.905
 8619SOL     OW26755   4.334   5.997   0.880
 8619SOL    HW126756   4.384   5.913   0.903
 8619SOL    HW226757   4.238   5.974   0.863
 8620SOL     OW26758   6.455   6.070   3.285
 8620SOL    HW126759   6.523   6.117   3.228
 8620SOL    HW226760   6.501   6.028   3.363
 8621SOL     OW26761   5.137   0.590   3.426
 8621SOL    HW126762   5.184   0.510   3.387
 8621SOL    HW226763   5.139   0.665   3.360
 8622SOL     OW26764   5.066   5.153   6.936
 8622SOL    HW126765   5.091   5.243   6.900
 8622SOL    HW226766   5.040   5.093   6.860
 8623SOL     OW26767   6.159   2.444   3.474
 8623SOL    HW126768   6.116   2.359   3.444
 8623SOL    HW226769   6.222   2.476   3.403
 8624SOL     OW26770   0.008   4.030   4.074
 8624SOL    HW126771   0.083   4.094   4.056
 8624SOL    HW226772   6.948   4.081   4.104
 8625SOL     OW26773   3.559   1.119   6.803
 8625SOL    HW126774   3.538   1.127   6.706
 8625SOL    HW226775   3.601   1.030   6.821
 8626SOL     OW26776   2.954   3.154   2.460
 8626SOL    HW126777   2.988   3.180   2.369
 8626SOL    HW226778   2.944   3.055   2.465
 8627SOL     OW26779   2.347   0.333   6.571
 8627SOL    HW126780   2.405   0.255   6.551
 8627SOL    HW226781   2.398   0.399   6.626
 8628SOL     OW26782   6.076   1.068   0.524
 8628SOL    HW126783   6.069   1.156   0.478
 8628SOL    HW226784   6.169   1.056   0.559
 8629SOL     OW26785   1.332   5.332   3.723
 8629SOL    HW126786   1.400   5.273   3.766
 8629SOL    HW226787   1.377   5.399   3.665
 8630SOL     OW26788   5.587   4.750   4.235
 8630SOL    HW126789   5.560   4.819   4.168
 8630SOL    HW226790   5.560   4.780   4.327
 8631SOL     OW26791   4.690   5.825   3.674
 8631SOL    HW126792   4.622   5.824   3.600
 8631SOL    HW226793   4.676   5.746   3.733
 8632SOL     OW26794   4.042   0.517   3.653
 8632SOL    HW126795   4.109   0.577   3.696
 8632SOL    HW226796   3.950   0.541   3.685
 8633SOL     OW26797   6.467   6.948   3.242
 8633SOL    HW126798   6.467   6.954   3.341
 8633SOL    HW226799   6.511   6.862   3.214
 8634SOL     OW26800   6.389   5.895   1.519
 8634SOL    HW126801   6.471   5.937   1.558
 8634SOL    HW226802   6.331   5.965   1.479
 8635SOL     OW26803   6.524   3.464   5.728
 8635SOL    HW126804   6.468   3.414   5.793
 8635SOL    HW226805   6.498   3.439   5.635
 8636SOL     OW26806   5.495   5.756   0.596
 8636SOL    HW126807   5.532   5.665   0.578
 8636SOL    HW226808   5.446   5.788   0.515
 8637SOL     OW26809   1.711   0.734   1.267
 8637SOL    HW126810   1.722   0.667   1.340
 8637SOL    HW226811   1.792   0.732   1.208
 8638SOL     OW26812   4.356   5.285   0.882
 8638SOL    HW126813   4.453   5.261   0.874
 8638SOL    HW226814   4.334   5.356   0.815
 8639SOL     OW26815   6.247   2.487   1.943
 8639SOL    HW126816   6.232   2.388   1.950
 8639SOL    HW226817   6.174   2.527   1.886
 8640SOL     OW26818   4.638   6.074   1.305
 8640SOL    HW126819   4.654   6.099   1.210
 8640SOL    HW226820   4.726   6.063   1.351
 8641SOL     OW26821   5.392   4.869   3.214
 8641SOL    HW126822   5.323   4.833   3.276
 8641SOL    HW226823   5.440   4.794   3.169
 8642SOL     OW26824   4.363   1.709   1.703
 8642SOL    HW126825   4.335   1.762   1.623
 8642SOL    HW226826   4.387   1.771   1.778
 8643SOL     OW26827   4.335   0.330   0.174
 8643SOL    HW126828   4.334   0.255   0.107
 8643SOL    HW226829   4.257   0.320   0.237
 8644SOL     OW26830   6.614   3.537   5.465
 8644SOL    HW126831   6.556   3.598   5.412
 8644SOL    HW226832   6.646   3.584   5.548
 8645SOL     OW26833   6.176   4.504   1.818
 8645SOL    HW126834   6.258   4.446   1.813
 8645SOL    HW226835   6.118   4.473   1.893
 8646SOL     OW26836   5.666   6.850   1.141
 8646SOL    HW126837   5.597   6.795   1.094
 8646SOL    HW226838   5.660   6.833   1.240
 8647SOL     OW26839   4.270   4.765   2.027
 8647SOL    HW126840   4.319   4.762   1.940
 8647SOL    HW226841   4.306   4.694   2.088
 8648SOL     OW26842   5.747   1.719   4.527
 8648SOL    HW126843   5.662   1.710   4.476
 8648SOL    HW226844   5.786   1.628   4.543
 8649SOL     OW26845   6.949   4.791   5.659
 8649SOL    HW126846   6.966   4.760   5.753
 8649SOL    HW226847   6.876   4.859   5.659
 8650SOL     OW26848   0.154   4.587   1.925
 8650SOL    HW126849   0.245   4.610   1.889
 8650SOL    HW226850   0.142   4.488   1.922
 8651SOL     OW26851   3.765   2.880   1.180
 8651SOL    HW126852   3.800   2.930   1.100
 8651SOL    HW226853   3.682   2.831   1.155
 8652SOL     OW26854   1.148   3.200   3.544
 8652SOL    HW126855   1.071   3.200   3.480
 8652SOL    HW226856   1.118   3.235   3.632
 8653SOL     OW26857   5.463   3.130   6.786
 8653SOL    HW126858   5.412   3.211   6.756
 8653SOL    HW226859   5.469   3.130   6.885
 8654SOL     OW26860   0.639   5.607   1.893
 8654SOL    HW126861   0.673   5.677   1.955
 8654SOL    HW226862   0.573   5.549   1.942
 8655SOL     OW26863   6.298   6.293   2.979
 8655SOL    HW126864   6.252   6.382   2.970
 8655SOL    HW226865   6.280   6.238   2.898
 8656SOL     OW26866   6.539   1.783   1.204
 8656SOL    HW126867   6.618   1.816   1.257
 8656SOL    HW226868   6.466   1.851   1.207
 8657SOL     OW26869   2.756   4.022   0.394
 8657SOL    HW126870   2.823   3.949   0.409
 8657SOL    HW226871   2.717   4.013   0.302
 8658SOL     OW26872   0.467   5.152   6.186
 8658SOL    HW126873   0.567   5.155   6.181
 8658SOL    HW226874   0.437   5.184   6.275
 8659SOL     OW26875   4.102   0.222   3.632
 8659SOL    HW126876   4.092   0.240   3.535
 8659SOL    HW226877   4.077   0.304   3.684
 8660SOL     OW26878   5.638   4.613   0.160
 8660SOL    HW126879   5.621   4.704   0.121
 8660SOL    HW226880   5.734   4.606   0.187
 8661SOL     OW26881   6.500   3.552   1.657
 8661SOL    HW126882   6.471   3.610   1.581
 8661SOL    HW226883   6.530   3.463   1.621
 8662SOL     OW26884   0.597   0.459   0.759
 8662SOL    HW126885   0.581   0.367   0.795
 8662SOL    HW226886   0.695   0.471   0.740
 8663SOL     OW26887   1.627   5.374   1.024
 8663SOL    HW126888   1.694   5.432   1.070
 8663SOL    HW226889   1.535   5.412   1.037
 8664SOL     OW26890   4.437   4.937   1.821
 8664SOL    HW126891   4.390   5.007   1.875
 8664SOL    HW226892   4.422   4.956   1.723
 8665SOL     OW26893   5.146   5.482   4.632
 8665SOL    HW126894   5.152   5.420   4.554
 8665SOL    HW226895   5.232   5.481   4.683
 8666SOL     OW26896   6.046   3.986   4.415
 8666SOL    HW126897   6.108   3.945   4.349
 8666SOL    HW226898   6.064   4.084   4.421
 8667SOL     OW26899   5.233   2.978   3.143
 8667SOL    HW126900   5.214   2.909   3.212
 8667SOL    HW226901   5.331   2.986   3.129
 8668SOL     OW26902   3.536   1.032   4.330
 8668SOL    HW126903   3.543   1.024   4.430
 8668SOL    HW226904   3.487   1.116   4.308
 8669SOL     OW26905   4.245   6.811   5.720
 8669SOL    HW126906   4.314   6.868   5.674
 8669SOL    HW226907   4.156   6.825   5.678
 8670SOL     OW26908   3.900   4.872   3.357
 8670SOL    HW126909   3.906   4.889   3.455
 8670SOL    HW226910   3.983   4.826   3.325
 8671SOL     OW26911   6.110   6.180   2.640
 8671SOL    HW126912   6.048   6.258   2.646
 8671SOL    HW226913   6.140   6.170   2.545
 8672SOL     OW26914   3.703   5.184   5.712
 8672SOL    HW126915   3.720   5.095   5.669
 8672SOL    HW226916   3.725   5.178   5.809
 8673SOL     OW26917   5.116   1.981   0.319
 8673SOL    HW126918   5.060   2.006   0.399
 8673SOL    HW226919   5.196   1.930   0.350
 8674SOL     OW26920   0.665   0.295   2.666
 8674SOL    HW126921   0.575   0.330   2.693
 8674SOL    HW226922   0.700   0.347   2.588
 8675SOL     OW26923   2.150   2.866   2.406
 8675SOL    HW126924   2.213   2.796   2.439
 8675SOL    HW226925   2.076   2.822   2.353
 8676SOL     OW26926   4.257   0.359   4.292
 8676SOL    HW126927   4.259   0.447   4.244
 8676SOL    HW226928   4.257   0.375   4.390
 8677SOL     OW26929   2.233   4.508   5.345
 8677SOL    HW126930   2.259   4.423   5.300
 8677SOL    HW226931   2.289   4.583   5.310
 8678SOL     OW26932   1.532   0.967   6.234
 8678SOL    HW126933   1.585   0.916   6.167
 8678SOL    HW226934   1.582   0.972   6.321
 8679SOL     OW26935   6.583   2.026   4.455
 8679SOL    HW126936   6.548   1.938   4.423
 8679SOL    HW226937   6.669   2.046   4.409
 8680SOL     OW26938   0.751   3.865   0.803
 8680SOL    HW126939   0.835   3.919   0.802
 8680SOL    HW226940   0.720   3.849   0.709
 8681SOL     OW26941   4.124   3.589   1.368
 8681SOL    HW126942   4.195   3.519   1.363
 8681SOL    HW226943   4.095   3.600   1.463
 8682SOL     OW26944   1.923   5.597   2.530
 8682SOL    HW126945   1.954   5.504   2.550
 8682SOL    HW226946   1.825   5.605   2.549
 8683SOL     OW26947   5.429   2.706   6.686
 8683SOL    HW126948   5.497   2.700   6.759
 8683SOL    HW226949   5.393   2.799   6.681
 8684SOL     OW26950   6.665   2.841   4.243
 8684SOL    HW126951   6.677   2.779   4.165
 8684SOL    HW226952   6.727   2.815   4.317
 8685SOL     OW26953   0.497   1.905   5.312
 8685SOL    HW126954   0.589   1.866   5.319
 8685SOL    HW226955   0.490   1.962   5.230
 8686SOL     OW26956   6.611   1.751   3.933
 8686SOL    HW126957   6.633   1.739   3.836
 8686SOL    HW226958   6.513   1.768   3.943
 8687SOL     OW26959   3.776   0.970   2.868
 8687SOL    HW126960   3.829   0.973   2.953
 8687SOL    HW226961   3.686   0.931   2.887
 8688SOL     OW26962   1.265   0.447   2.393
 8688SOL    HW126963   1.321   0.522   2.428
 8688SOL    HW226964   1.183   0.484   2.348
 8689SOL     OW26965   4.347   5.506   0.734
 8689SOL    HW126966   4.443   5.533   0.732
 8689SOL    HW226967   4.311   5.504   0.641
 8690SOL     OW26968   1.366   0.652   2.643
 8690SOL    HW126969   1.387   0.749   2.633
 8690SOL    HW226970   1.347   0.631   2.739
 8691SOL     OW26971   5.888   1.824   0.482
 8691SOL    HW126972   5.941   1.831   0.398
 8691SOL    HW226973   5.888   1.913   0.529
 8692SOL     OW26974   1.696   1.456   3.846
 8692SOL    HW126975   1.709   1.364   3.809
 8692SOL    HW226976   1.722   1.524   3.778
 8693SOL     OW26977   5.199   2.068   6.819
 8693SOL    HW126978   5.296   2.042   6.816
 8693SOL    HW226979   5.190   2.157   6.865
 8694SOL     OW26980   3.582   6.320   6.972
 8694SOL    HW126981   3.511   6.391   6.977
 8694SOL    HW226982   3.663   6.352   0.000
 8695SOL     OW26983   4.565   4.323   5.160
 8695SOL    HW126984   4.586   4.321   5.062
 8695SOL    HW226985   4.484   4.379   5.175
 8696SOL     OW26986   1.796   4.976   0.997
 8696SOL    HW126987   1.798   5.027   0.911
 8696SOL    HW226988   1.707   4.989   1.041
 8697SOL     OW26989   5.253   5.151   6.566
 8697SOL    HW126990   5.336   5.128   6.618
 8697SOL    HW226991   5.175   5.100   6.601
 8698SOL     OW26992   6.240   5.998   4.424
 8698SOL    HW126993   6.203   5.919   4.374
 8698SOL    HW226994   6.168   6.041   4.478
 8699SOL     OW26995   1.487   1.510   5.398
 8699SOL    HW126996   1.409   1.552   5.352
 8699SOL    HW226997   1.467   1.501   5.496
 8700SOL     OW26998   2.808   2.111   5.807
 8700SOL    HW126999   2.752   2.044   5.854
 8700SOL    HW227000   2.798   2.200   5.852
 8701SOL     OW27001   1.324   2.373   4.137
 8701SOL    HW127002   1.359   2.450   4.083
 8701SOL    HW227003   1.271   2.312   4.078
 8702SOL     OW27004   5.140   5.769   0.091
 8702SOL    HW127005   5.083   5.843   0.127
 8702SOL    HW227006   5.205   5.807   0.025
 8703SOL     OW27007   1.027   5.191   1.440
 8703SOL    HW127008   0.980   5.106   1.415
 8703SOL    HW227009   1.126   5.175   1.439
 8704SOL     OW27010   0.459   4.021   1.840
 8704SOL    HW127011   0.455   4.119   1.859
 8704SOL    HW227012   0.369   3.980   1.855
 8705SOL     OW27013   5.001   6.480   4.604
 8705SOL    HW127014   4.996   6.560   4.544
 8705SOL    HW227015   4.966   6.503   4.694
 8706SOL     OW27016   4.928   1.683   5.824
 8706SOL    HW127017   4.919   1.677   5.724
 8706SOL    HW227018   4.879   1.607   5.866
 8707SOL     OW27019   4.829   2.168   5.444
 8707SOL    HW127020   4.754   2.204   5.388
 8707SOL    HW227021   4.820   2.202   5.538
 8708SOL     OW27022   3.704   1.806   0.818
 8708SOL    HW127023   3.612   1.777   0.790
 8708SOL    HW227024   3.749   1.731   0.866
 8709SOL     OW27025   6.367   3.624   0.819
 8709SOL    HW127026   6.385   3.542   0.765
 8709SOL    HW227027   6.453   3.659   0.856
 8710SOL     OW27028   6.801   3.091   3.695
 8710SOL    HW127029   6.894   3.105   3.660
 8710SOL    HW227030   6.737   3.150   3.646
 8711SOL     OW27031   0.821   1.931   3.737
 8711SOL    HW127032   0.791   2.018   3.698
 8711SOL    HW227033   0.760   1.858   3.706
 8712SOL     OW27034   3.804   1.034   6.258
 8712SOL    HW127035   3.790   1.096   6.182
 8712SOL    HW227036   3.898   1.043   6.292
 8713SOL     OW27037   5.584   4.793   2.656
 8713SOL    HW127038   5.502   4.808   2.711
 8713SOL    HW227039   5.647   4.870   2.667
 8714SOL     OW27040   2.133   1.480   4.462
 8714SOL    HW127041   2.151   1.572   4.426
 8714SOL    HW227042   2.054   1.484   4.523
 8715SOL     OW27043   6.028   1.158   2.132
 8715SOL    HW127044   6.103   1.203   2.083
 8715SOL    HW227045   5.942   1.204   2.109
 8716SOL     OW27046   1.102   1.734   2.059
 8716SOL    HW127047   1.094   1.696   2.151
 8716SOL    HW227048   1.016   1.779   2.034
 8717SOL     OW27049   4.190   3.283   0.354
 8717SOL    HW127050   4.186   3.377   0.388
 8717SOL    HW227051   4.266   3.235   0.398
 8718SOL     OW27052   0.241   3.088   5.900
 8718SOL    HW127053   0.251   3.057   5.805
 8718SOL    HW227054   0.220   3.010   5.959
 8719SOL     OW27055   6.808   0.987   5.425
 8719SOL    HW127056   6.793   1.043   5.344
 8719SOL    HW227057   6.739   0.915   5.430
 8720SOL     OW27058   4.825   3.679   6.117
 8720SOL    HW127059   4.817   3.579   6.114
 8720SOL    HW227060   4.905   3.708   6.064
 8721SOL     OW27061   6.693   1.339   4.626
 8721SOL    HW127062   6.737   1.253   4.653
 8721SOL    HW227063   6.739   1.416   4.670
 8722SOL     OW27064   3.043   2.873   0.540
 8722SOL    HW127065   2.985   2.793   0.528
 8722SOL    HW227066   3.101   2.860   0.620
 8723SOL     OW27067   0.146   5.220   0.287
 8723SOL    HW127068   0.064   5.178   0.247
 8723SOL    HW227069   0.213   5.148   0.309
 8724SOL     OW27070   5.565   6.000   6.556
 8724SOL    HW127071   5.649   6.025   6.508
 8724SOL    HW227072   5.562   5.900   6.569
 8725SOL     OW27073   2.156   6.398   1.249
 8725SOL    HW127074   2.081   6.453   1.286
 8725SOL    HW227075   2.137   6.301   1.265
 8726SOL     OW27076   6.093   0.319   1.402
 8726SOL    HW127077   6.177   0.342   1.450
 8726SOL    HW227078   6.018   0.376   1.436
 8727SOL     OW27079   6.145   6.364   1.106
 8727SOL    HW127080   6.110   6.418   1.183
 8727SOL    HW227081   6.080   6.369   1.030
 8728SOL     OW27082   2.324   6.666   5.296
 8728SOL    HW127083   2.279   6.596   5.351
 8728SOL    HW227084   2.284   6.755   5.317
 8729SOL     OW27085   5.460   6.245   4.351
 8729SOL    HW127086   5.556   6.223   4.366
 8729SOL    HW227087   5.409   6.230   4.436
 8730SOL     OW27088   6.680   6.542   0.911
 8730SOL    HW127089   6.655   6.611   0.979
 8730SOL    HW227090   6.746   6.478   0.950
 8731SOL     OW27091   0.505   1.958   2.423
 8731SOL    HW127092   0.547   2.042   2.389
 8731SOL    HW227093   0.427   1.934   2.365
 8732SOL     OW27094   6.370   5.282   1.842
 8732SOL    HW127095   6.298   5.334   1.888
 8732SOL    HW227096   6.358   5.290   1.743
 8733SOL     OW27097   0.000   6.715   1.659
 8733SOL    HW127098   0.052   6.637   1.696
 8733SOL    HW227099   7.010   6.704   1.560
 8734SOL     OW27100   6.984   5.513   0.200
 8734SOL    HW127101   0.021   5.567   0.138
 8734SOL    HW227102   7.019   5.523   0.293
 8735SOL     OW27103   7.004   2.591   6.514
 8735SOL    HW127104   0.039   2.543   6.446
 8735SOL    HW227105   0.034   2.597   6.600
 8736SOL     OW27106   0.434   4.593   6.230
 8736SOL    HW127107   0.452   4.689   6.251
 8736SOL    HW227108   0.484   4.566   6.148
 8737SOL     OW27109   3.752   6.412   6.736
 8737SOL    HW127110   3.695   6.337   6.771
 8737SOL    HW227111   3.697   6.494   6.727
 8738SOL     OW27112   1.230   3.698   4.789
 8738SOL    HW127113   1.212   3.622   4.726
 8738SOL    HW227114   1.306   3.674   4.849
 8739SOL     OW27115   1.342   3.205   5.583
 8739SOL    HW127116   1.426   3.240   5.541
 8739SOL    HW227117   1.268   3.205   5.516
 8740SOL     OW27118   1.379   6.823   1.325
 8740SOL    HW127119   1.406   6.857   1.415
 8740SOL    HW227120   1.360   6.900   1.264
 8741SOL     OW27121   1.852   3.287   1.857
 8741SOL    HW127122   1.899   3.280   1.769
 8741SOL    HW227123   1.915   3.321   1.927
 8742SOL     OW27124   4.810   6.173   2.375
 8742SOL    HW127125   4.774   6.109   2.307
 8742SOL    HW227126   4.800   6.135   2.466
 8743SOL     OW27127   2.348   4.741   3.032
 8743SOL    HW127128   2.264   4.686   3.025
 8743SOL    HW227129   2.425   4.688   2.996
 8744SOL     OW27130   3.326   3.611   5.666
 8744SOL    HW127131   3.336   3.685   5.599
 8744SOL    HW227132   3.314   3.524   5.619
 8745SOL     OW27133   6.567   1.504   6.999
 8745SOL    HW127134   6.537   1.587   6.951
 8745SOL    HW227135   6.664   1.489   6.981
 8746SOL     OW27136   5.116   3.943   5.335
 8746SOL    HW127137   5.044   4.011   5.346
 8746SOL    HW227138   5.131   3.926   5.237
 8747SOL     OW27139   1.248   2.516   3.786
 8747SOL    HW127140   1.248   2.462   3.702
 8747SOL    HW227141   1.177   2.480   3.848
 8748SOL     OW27142   2.861   6.814   6.989
 8748SOL    HW127143   2.954   6.822   6.954
 8748SOL    HW227144   2.835   6.717   6.991
 8749SOL     OW27145   4.398   1.262   4.070
 8749SOL    HW127146   4.431   1.277   4.163
 8749SOL    HW227147   4.362   1.348   4.033
 8750SOL     OW27148   2.219   0.405   5.027
 8750SOL    HW127149   2.163   0.351   5.090
 8750SOL    HW227150   2.316   0.381   5.040
 8751SOL     OW27151   2.230   0.562   2.878
 8751SOL    HW127152   2.260   0.544   2.972
 8751SOL    HW227153   2.146   0.512   2.860
 8752SOL     OW27154   2.038   2.273   6.051
 8752SOL    HW127155   2.075   2.180   6.053
 8752SOL    HW227156   1.956   2.278   6.109
 8753SOL     OW27157   6.343   1.375   4.965
 8753SOL    HW127158   6.318   1.430   5.044
 8753SOL    HW227159   6.294   1.288   4.968
 8754SOL     OW27160   2.162   0.859   5.106
 8754SOL    HW127161   2.127   0.828   5.018
 8754SOL    HW227162   2.255   0.824   5.119
 8755SOL     OW27163   2.302   1.768   1.066
 8755SOL    HW127164   2.332   1.841   1.127
 8755SOL    HW227165   2.215   1.794   1.023
 8756SOL     OW27166   1.832   3.953   3.822
 8756SOL    HW127167   1.803   3.969   3.917
 8756SOL    HW227168   1.830   4.040   3.772
 8757SOL     OW27169   4.487   6.036   4.398
 8757SOL    HW127170   4.418   6.023   4.468
 8757SOL    HW227171   4.475   5.968   4.326
 8758SOL     OW27172   5.312   6.325   1.976
 8758SOL    HW127173   5.365   6.384   1.915
 8758SOL    HW227174   5.219   6.360   1.985
 8759SOL     OW27175   5.635   1.561   5.582
 8759SOL    HW127176   5.601   1.635   5.524
 8759SOL    HW227177   5.632   1.589   5.678
 8760SOL     OW27178   1.491   3.038   3.809
 8760SOL    HW127179   1.526   2.944   3.816
 8760SOL    HW227180   1.418   3.042   3.742
 8761SOL     OW27181   5.032   6.183   0.994
 8761SOL    HW127182   5.022   6.120   0.917
 8761SOL    HW227183   5.079   6.137   1.069
 8762SOL     OW27184   0.798   4.001   0.337
 8762SOL    HW127185   0.747   3.954   0.266
 8762SOL    HW227186   0.775   4.099   0.336
 8763SOL     OW27187   0.252   6.006   6.155
 8763SOL    HW127188   0.175   5.962   6.200
 8763SOL    HW227189   0.287   6.079   6.214
 8764SOL     OW27190   3.811   1.881   5.348
 8764SOL    HW127191   3.754   1.826   5.288
 8764SOL    HW227192   3.775   1.877   5.441
 8765SOL     OW27193   6.959   0.387   5.219
 8765SOL    HW127194   6.939   0.471   5.268
 8765SOL    HW227195   6.910   0.311   5.260
 8766SOL     OW27196   2.377   4.295   2.510
 8766SOL    HW127197   2.392   4.343   2.423
 8766SOL    HW227198   2.333   4.207   2.491
 8767SOL     OW27199   4.757   1.622   5.099
 8767SOL    HW127200   4.840   1.615   5.044
 8767SOL    HW227201   4.699   1.696   5.064
 8768SOL     OW27202   1.258   4.049   0.224
 8768SOL    HW127203   1.192   4.040   0.149
 8768SOL    HW227204   1.347   4.015   0.193
 8769SOL     OW27205   2.126   0.598   5.252
 8769SOL    HW127206   2.150   0.526   5.187
 8769SOL    HW227207   2.125   0.686   5.204
 8770SOL     OW27208   5.291   1.773   2.909
 8770SOL    HW127209   5.278   1.722   2.824
 8770SOL    HW227210   5.276   1.871   2.892
 8771SOL     OW27211   2.326   2.476   5.399
 8771SOL    HW127212   2.331   2.491   5.497
 8771SOL    HW227213   2.415   2.447   5.365
 8772SOL     OW27214   5.845   5.972   6.554
 8772SOL    HW127215   5.868   6.058   6.601
 8772SOL    HW227216   5.930   5.925   6.530
 8773SOL     OW27217   3.138   1.996   2.823
 8773SOL    HW127218   3.062   1.985   2.888
 8773SOL    HW227219   3.123   1.936   2.745
 8774SOL     OW27220   1.236   0.830   0.354
 8774SOL    HW127221   1.335   0.846   0.351
 8774SOL    HW227222   1.188   0.917   0.352
 8775SOL     OW27223   6.907   6.561   4.130
 8775SOL    HW127224   6.808   6.555   4.134
 8775SOL    HW227225   6.947   6.481   4.176
 8776SOL     OW27226   3.463   3.932   4.562
 8776SOL    HW127227   3.554   3.949   4.600
 8776SOL    HW227228   3.472   3.896   4.469
 8777SOL     OW27229   6.312   5.697   2.430
 8777SOL    HW127230   6.241   5.671   2.366
 8777SOL    HW227231   6.382   5.750   2.383
 8778SOL     OW27232   0.613   2.152   3.070
 8778SOL    HW127233   0.673   2.205   3.130
 8778SOL    HW227234   0.636   2.055   3.078
 8779SOL     OW27235   1.176   4.750   1.197
 8779SOL    HW127236   1.255   4.811   1.203
 8779SOL    HW227237   1.188   4.673   1.260
 8780SOL     OW27238   2.185   6.327   4.748
 8780SOL    HW127239   2.253   6.295   4.682
 8780SOL    HW227240   2.115   6.381   4.702
 8781SOL     OW27241   0.513   2.416   3.308
 8781SOL    HW127242   0.600   2.366   3.300
 8781SOL    HW227243   0.488   2.453   3.219
 8782SOL     OW27244   4.647   1.531   2.868
 8782SOL    HW127245   4.594   1.587   2.931
 8782SOL    HW227246   4.593   1.454   2.837
 8783SOL     OW27247   5.697   2.533   6.056
 8783SOL    HW127248   5.648   2.595   6.116
 8783SOL    HW227249   5.693   2.440   6.092
 8784SOL     OW27250   5.076   4.045   5.807
 8784SOL    HW127251   5.047   4.069   5.900
 8784SOL    HW227252   4.997   4.040   5.747
 8785SOL     OW27253   5.290   4.619   6.437
 8785SOL    HW127254   5.384   4.651   6.435
 8785SOL    HW227255   5.286   4.523   6.408
 8786SOL     OW27256   1.092   6.427   0.892
 8786SOL    HW127257   1.014   6.369   0.870
 8786SOL    HW227258   1.078   6.518   0.853
 8787SOL     OW27259   1.576   3.234   6.918
 8787SOL    HW127260   1.606   3.139   6.928
 8787SOL    HW227261   1.539   3.267   7.005
 8788SOL     OW27262   1.671   1.710   5.258
 8788SOL    HW127263   1.625   1.623   5.275
 8788SOL    HW227264   1.752   1.694   5.202
 8789SOL     OW27265   0.343   0.380   6.992
 8789SOL    HW127266   0.430   0.404   6.949
 8789SOL    HW227267   0.354   0.381   0.071
 8790SOL     OW27268   4.524   1.413   0.091
 8790SOL    HW127269   4.457   1.439   0.022
 8790SOL    HW227270   4.613   1.401   0.047
 8791SOL     OW27271   4.984   6.148   5.573
 8791SOL    HW127272   5.000   6.062   5.622
 8791SOL    HW227273   4.888   6.155   5.548
 8792SOL     OW27274   5.521   6.794   2.776
 8792SOL    HW127275   5.612   6.755   2.759
 8792SOL    HW227276   5.466   6.788   2.693
 8793SOL     OW27277   1.132   4.578   3.434
 8793SOL    HW127278   1.212   4.634   3.457
 8793SOL    HW227279   1.063   4.588   3.506
 8794SOL     OW27280   2.778   5.851   2.581
 8794SOL    HW127281   2.795   5.893   2.671
 8794SOL    HW227282   2.859   5.800   2.553
 8795SOL     OW27283   2.456   5.532   4.971
 8795SOL    HW127284   2.498   5.441   4.976
 8795SOL    HW227285   2.362   5.523   4.939
 8796SOL     OW27286   5.729   2.571   5.776
 8796SOL    HW127287   5.713   2.593   5.872
 8796SOL    HW227288   5.824   2.591   5.753
 8797SOL     OW27289   0.958   6.080   6.774
 8797SOL    HW127290   1.039   6.055   6.827
 8797SOL    HW227291   0.932   6.174   6.795
 8798SOL     OW27292   3.603   3.190   6.050
 8798SOL    HW127293   3.622   3.138   5.967
 8798SOL    HW227294   3.602   3.288   6.029
 8799SOL     OW27295   3.799   0.054   3.069
 8799SOL    HW127296   3.756   0.145   3.072
 8799SOL    HW227297   3.757   0.000   2.996
 8800SOL     OW27298   4.331   5.569   0.463
 8800SOL    HW127299   4.363   5.647   0.410
 8800SOL    HW227300   4.333   5.487   0.405
 8801SOL     OW27301   3.375   6.457   5.447
 8801SOL    HW127302   3.286   6.461   5.493
 8801SOL    HW227303   3.364   6.485   5.351
 8802SOL     OW27304   2.060   6.550   1.620
 8802SOL    HW127305   1.962   6.568   1.630
 8802SOL    HW227306   2.103   6.625   1.570
 8803SOL     OW27307   4.314   6.386   0.927
 8803SOL    HW127308   4.340   6.327   1.003
 8803SOL    HW227309   4.362   6.473   0.933
 8804SOL     OW27310   3.350   0.771   1.044
 8804SOL    HW127311   3.448   0.757   1.058
 8804SOL    HW227312   3.337   0.848   0.981
 8805SOL     OW27313   0.012   0.466   3.367
 8805SOL    HW127314   0.048   0.455   3.274
 8805SOL    HW227315   0.086   0.495   3.428
 8806SOL     OW27316   1.939   4.881   0.316
 8806SOL    HW127317   1.988   4.823   0.251
 8806SOL    HW227318   1.899   4.824   0.388
 8807SOL     OW27319   1.979   6.129   6.702
 8807SOL    HW127320   1.957   6.114   6.798
 8807SOL    HW227321   1.914   6.195   6.663
 8808SOL     OW27322   6.003   2.099   1.046
 8808SOL    HW127323   6.097   2.127   1.026
 8808SOL    HW227324   5.979   2.021   0.988
 8809SOL     OW27325   5.921   4.272   0.989
 8809SOL    HW127326   5.891   4.285   0.894
 8809SOL    HW227327   6.006   4.323   1.003
 8810SOL     OW27328   5.140   1.544   3.836
 8810SOL    HW127329   5.164   1.622   3.779
 8810SOL    HW227330   5.174   1.558   3.929
 8811SOL     OW27331   1.535   1.455   4.046
 8811SOL    HW127332   1.582   1.460   3.958
 8811SOL    HW227333   1.580   1.517   4.111
 8812SOL     OW27334   2.249   0.774   0.251
 8812SOL    HW127335   2.292   0.726   0.328
 8812SOL    HW227336   2.300   0.857   0.231
 8813SOL     OW27337   1.168   5.899   0.909
 8813SOL    HW127338   1.208   5.837   0.842
 8813SOL    HW227339   1.201   5.992   0.892
 8814SOL     OW27340   5.249   6.495   6.745
 8814SOL    HW127341   5.174   6.555   6.773
 8814SOL    HW227342   5.314   6.484   6.820
 8815SOL     OW27343   6.078   5.868   3.292
 8815SOL    HW127344   6.086   5.889   3.389
 8815SOL    HW227345   5.983   5.884   3.262
 8816SOL     OW27346   0.893   5.510   1.836
 8816SOL    HW127347   0.952   5.552   1.904
 8816SOL    HW227348   0.797   5.531   1.856
 8817SOL     OW27349   2.467   4.628   5.607
 8817SOL    HW127350   2.446   4.634   5.510
 8817SOL    HW227351   2.401   4.682   5.659
 8818SOL     OW27352   0.267   4.837   4.767
 8818SOL    HW127353   0.238   4.852   4.862
 8818SOL    HW227354   0.249   4.743   4.741
 8819SOL     OW27355   5.741   0.065   4.074
 8819SOL    HW127356   5.705   0.030   4.161
 8819SOL    HW227357   5.747   0.165   4.079
 8820SOL     OW27358   1.144   3.417   4.268
 8820SOL    HW127359   1.205   3.496   4.258
 8820SOL    HW227360   1.049   3.446   4.258
 8821SOL     OW27361   1.617   6.531   6.398
 8821SOL    HW127362   1.529   6.528   6.352
 8821SOL    HW227363   1.618   6.605   6.464
 8822SOL     OW27364   0.400   2.105   3.765
 8822SOL    HW127365   0.421   2.011   3.794
 8822SOL    HW227366   0.423   2.115   3.669
 8823SOL     OW27367   2.394   4.872   1.529
 8823SOL    HW127368   2.327   4.843   1.599
 8823SOL    HW227369   2.400   4.802   1.458
 8824SOL     OW27370   4.603   3.934   0.947
 8824SOL    HW127371   4.664   3.867   0.991
 8824SOL    HW227372   4.562   3.893   0.865
 8825SOL     OW27373   1.677   2.410   1.123
 8825SOL    HW127374   1.767   2.394   1.083
 8825SOL    HW227375   1.668   2.357   1.207
 8826SOL     OW27376   5.431   0.748   0.284
 8826SOL    HW127377   5.454   0.792   0.371
 8826SOL    HW227378   5.515   0.726   0.235
 8827SOL     OW27379   0.050   1.440   3.361
 8827SOL    HW127380   0.017   1.505   3.293
 8827SOL    HW227381   0.049   1.348   3.322
 8828SOL     OW27382   1.416   6.314   2.870
 8828SOL    HW127383   1.403   6.400   2.920
 8828SOL    HW227384   1.422   6.238   2.936
 8829SOL     OW27385   1.233   1.360   0.588
 8829SOL    HW127386   1.153   1.420   0.581
 8829SOL    HW227387   1.297   1.381   0.513
 8830SOL     OW27388   1.261   1.636   0.273
 8830SOL    HW127389   1.182   1.629   0.212
 8830SOL    HW227390   1.231   1.658   0.365
 8831SOL     OW27391   6.929   1.109   2.135
 8831SOL    HW127392   6.870   1.103   2.054
 8831SOL    HW227393   6.892   1.052   2.208
 8832SOL     OW27394   6.862   0.740   2.085
 8832SOL    HW127395   6.960   0.746   2.065
 8832SOL    HW227396   6.844   0.780   2.175
 8833SOL     OW27397   1.330   4.967   3.087
 8833SOL    HW127398   1.248   5.022   3.103
 8833SOL    HW227399   1.375   4.998   3.003
 8834SOL     OW27400   5.836   4.116   4.042
 8834SOL    HW127401   5.768   4.057   3.997
 8834SOL    HW227402   5.917   4.122   3.985
 8835SOL     OW27403   0.462   0.689   6.657
 8835SOL    HW127404   0.397   0.764   6.669
 8835SOL    HW227405   0.555   0.722   6.678
 8836SOL     OW27406   5.104   2.012   1.620
 8836SOL    HW127407   5.005   1.996   1.624
 8836SOL    HW227408   5.126   2.094   1.674
 8837SOL     OW27409   0.914   2.540   2.362
 8837SOL    HW127410   0.850   2.466   2.343
 8837SOL    HW227411   0.889   2.584   2.448
 8838SOL     OW27412   2.180   5.924   2.995
 8838SOL    HW127413   2.269   5.948   3.034
 8838SOL    HW227414   2.113   5.912   3.068
 8839SOL     OW27415   5.838   5.931   4.222
 8839SOL    HW127416   5.791   5.975   4.298
 8839SOL    HW227417   5.917   5.881   4.256
 8840SOL     OW27418   4.936   0.800   2.252
 8840SOL    HW127419   4.912   0.782   2.347
 8840SOL    HW227420   5.027   0.763   2.233
 8841SOL     OW27421   2.814   0.165   3.831
 8841SOL    HW127422   2.870   0.155   3.749
 8841SOL    HW227423   2.808   0.077   3.879
 8842SOL     OW27424   1.253   2.827   1.940
 8842SOL    HW127425   1.313   2.905   1.960
 8842SOL    HW227426   1.234   2.778   2.025
 8843SOL     OW27427   0.314   3.131   4.573
 8843SOL    HW127428   0.311   3.230   4.558
 8843SOL    HW227429   0.375   3.089   4.505
 8844SOL     OW27430   5.922   1.221   6.148
 8844SOL    HW127431   5.992   1.279   6.190
 8844SOL    HW227432   5.933   1.223   6.048
 8845SOL     OW27433   5.458   3.383   6.955
 8845SOL    HW127434   5.462   3.482   6.944
 8845SOL    HW227435   5.507   3.357   0.018
 8846SOL     OW27436   2.743   4.883   3.533
 8846SOL    HW127437   2.721   4.798   3.485
 8846SOL    HW227438   2.842   4.890   3.544
 8847SOL     OW27439   1.387   0.923   2.633
 8847SOL    HW127440   1.315   0.992   2.643
 8847SOL    HW227441   1.457   0.937   2.703
 8848SOL     OW27442   1.129   0.907   3.352
 8848SOL    HW127443   1.068   0.847   3.300
 8848SOL    HW227444   1.094   0.918   3.444
 8849SOL     OW27445   2.553   6.647   1.488
 8849SOL    HW127446   2.642   6.665   1.448
 8849SOL    HW227447   2.541   6.703   1.570
 8850SOL     OW27448   2.742   2.625   0.047
 8850SOL    HW127449   2.647   2.658   0.049
 8850SOL    HW227450   2.743   2.527   0.027
 8851SOL     OW27451   1.907   3.754   2.074
 8851SOL    HW127452   1.862   3.670   2.043
 8851SOL    HW227453   1.985   3.731   2.132
 8852SOL     OW27454   0.945   2.142   5.084
 8852SOL    HW127455   0.969   2.189   5.169
 8852SOL    HW227456   1.026   2.095   5.048
 8853SOL     OW27457   4.985   0.714   1.641
 8853SOL    HW127458   4.998   0.807   1.677
 8853SOL    HW227459   4.955   0.654   1.715
 8854SOL     OW27460   0.761   2.715   4.707
 8854SOL    HW127461   0.663   2.733   4.694
 8854SOL    HW227462   0.808   2.801   4.728
 8855SOL     OW27463   5.206   4.743   1.451
 8855SOL    HW127464   5.157   4.741   1.364
 8855SOL    HW227465   5.301   4.772   1.435
 8856SOL     OW27466   6.260   0.709   5.775
 8856SOL    HW127467   6.304   0.671   5.856
 8856SOL    HW227468   6.309   0.791   5.745
 8857SOL     OW27469   0.193   2.139   6.313
 8857SOL    HW127470   0.135   2.058   6.325
 8857SOL    HW227471   0.219   2.174   6.403
 8858SOL     OW27472   6.787   5.474   4.905
 8858SOL    HW127473   6.883   5.500   4.907
 8858SOL    HW227474   6.767   5.423   4.822
 8859SOL     OW27475   1.142   5.964   3.063
 8859SOL    HW127476   1.054   6.005   3.088
 8859SOL    HW227477   1.207   5.977   3.138
 8860SOL     OW27478   0.188   3.348   2.411
 8860SOL    HW127479   0.224   3.368   2.320
 8860SOL    HW227480   0.176   3.249   2.421
 8861SOL     OW27481   3.847   2.685   1.466
 8861SOL    HW127482   3.775   2.640   1.520
 8861SOL    HW227483   3.806   2.755   1.409
 8862SOL     OW27484   4.324   4.708   4.770
 8862SOL    HW127485   4.324   4.625   4.826
 8862SOL    HW227486   4.268   4.778   4.814
 8863SOL     OW27487   1.388   4.266   2.457
 8863SOL    HW127488   1.364   4.288   2.362
 8863SOL    HW227489   1.383   4.167   2.470
 8864SOL     OW27490   6.175   1.900   5.378
 8864SOL    HW127491   6.183   1.803   5.402
 8864SOL    HW227492   6.264   1.934   5.349
 8865SOL     OW27493   2.886   2.218   0.691
 8865SOL    HW127494   2.891   2.253   0.597
 8865SOL    HW227495   2.790   2.205   0.716
 8866SOL     OW27496   5.709   6.435   2.162
 8866SOL    HW127497   5.761   6.510   2.202
 8866SOL    HW227498   5.743   6.415   2.070
 8867SOL     OW27499   6.611   3.377   3.017
 8867SOL    HW127500   6.636   3.473   3.004
 8867SOL    HW227501   6.587   3.336   2.929
 8868SOL     OW27502   0.112   3.587   3.758
 8868SOL    HW127503   0.192   3.606   3.701
 8868SOL    HW227504   0.109   3.490   3.780
 8869SOL     OW27505   4.745   0.585   3.764
 8869SOL    HW127506   4.736   0.644   3.684
 8869SOL    HW227507   4.764   0.491   3.734
 8870SOL     OW27508   1.540   1.104   1.903
 8870SOL    HW127509   1.582   1.015   1.926
 8870SOL    HW227510   1.469   1.090   1.835
 8871SOL     OW27511   0.223   0.362   1.614
 8871SOL    HW127512   0.158   0.317   1.675
 8871SOL    HW227513   0.190   0.355   1.520
 8872SOL     OW27514   6.931   4.215   3.402
 8872SOL    HW127515   7.014   4.270   3.393
 8872SOL    HW227516   6.935   4.161   3.486
 8873SOL     OW27517   2.386   2.011   2.840
 8873SOL    HW127518   2.451   2.038   2.769
 8873SOL    HW227519   2.297   1.995   2.799
 8874SOL     OW27520   3.018   6.309   0.947
 8874SOL    HW127521   2.984   6.265   0.864
 8874SOL    HW227522   2.945   6.362   0.990
 8875SOL     OW27523   5.937   3.085   5.367
 8875SOL    HW127524   5.946   3.106   5.464
 8875SOL    HW227525   5.964   2.990   5.351
 8876SOL     OW27526   3.525   0.816   0.681
 8876SOL    HW127527   3.570   0.884   0.623
 8876SOL    HW227528   3.558   0.724   0.656
 8877SOL     OW27529   0.928   5.185   1.125
 8877SOL    HW127530   0.888   5.199   1.215
 8877SOL    HW227531   0.866   5.129   1.069
 8878SOL     OW27532   5.056   3.617   1.831
 8878SOL    HW127533   4.966   3.585   1.799
 8878SOL    HW227534   5.051   3.639   1.928
 8879SOL     OW27535   0.119   4.346   3.322
 8879SOL    HW127536   0.199   4.345   3.262
 8879SOL    HW227537   0.095   4.441   3.343
 8880SOL     OW27538   4.228   2.287   3.146
 8880SOL    HW127539   4.173   2.258   3.069
 8880SOL    HW227540   4.256   2.382   3.134
 8881SOL     OW27541   3.343   4.955   2.903
 8881SOL    HW127542   3.369   5.046   2.935
 8881SOL    HW227543   3.424   4.908   2.867
 8882SOL     OW27544   3.932   0.662   0.960
 8882SOL    HW127545   3.899   0.728   0.891
 8882SOL    HW227546   3.913   0.569   0.928
 8883SOL     OW27547   0.178   6.752   3.418
 8883SOL    HW127548   0.116   6.737   3.495
 8883SOL    HW227549   0.253   6.685   3.422
 8884SOL     OW27550   3.943   2.778   5.625
 8884SOL    HW127551   3.908   2.737   5.710
 8884SOL    HW227552   3.883   2.853   5.597
 8885SOL     OW27553   5.500   6.157   0.443
 8885SOL    HW127554   5.421   6.110   0.481
 8885SOL    HW227555   5.516   6.125   0.349
 8886SOL     OW27556   4.762   6.686   6.848
 8886SOL    HW127557   4.825   6.743   6.900
 8886SOL    HW227558   4.687   6.656   6.907
 8887SOL     OW27559   3.732   0.502   1.624
 8887SOL    HW127560   3.709   0.599   1.615
 8887SOL    HW227561   3.679   0.461   1.698
 8888SOL     OW27562   3.248   2.119   2.456
 8888SOL    HW127563   3.225   2.066   2.375
 8888SOL    HW227564   3.347   2.119   2.470
 8889SOL     OW27565   1.376   4.808   0.945
 8889SOL    HW127566   1.379   4.845   1.038
 8889SOL    HW227567   1.458   4.754   0.929
 8890SOL     OW27568   1.180   6.031   6.935
 8890SOL    HW127569   1.170   5.944   6.984
 8890SOL    HW227570   1.167   6.107   6.999
 8891SOL     OW27571   6.453   3.705   5.334
 8891SOL    HW127572   6.516   3.782   5.348
 8891SOL    HW227573   6.381   3.708   5.404
 8892SOL     OW27574   3.042   5.161   4.969
 8892SOL    HW127575   3.064   5.068   4.940
 8892SOL    HW227576   2.978   5.158   5.045
 8893SOL     OW27577   0.888   4.298   5.522
 8893SOL    HW127578   0.793   4.271   5.536
 8893SOL    HW227579   0.915   4.280   5.427
 8894SOL     OW27580   5.182   1.607   1.685
 8894SOL    HW127581   5.101   1.559   1.650
 8894SOL    HW227582   5.155   1.663   1.764
 8895SOL     OW27583   6.868   3.259   0.972
 8895SOL    HW127584   6.915   3.320   1.035
 8895SOL    HW227585   6.791   3.307   0.930
 8896SOL     OW27586   1.067   1.743   3.451
 8896SOL    HW127587   0.988   1.690   3.480
 8896SOL    HW227588   1.128   1.758   3.529
 8897SOL     OW27589   1.729   5.740   3.920
 8897SOL    HW127590   1.827   5.752   3.936
 8897SOL    HW227591   1.704   5.644   3.932
 8898SOL     OW27592   4.847   3.925   2.528
 8898SOL    HW127593   4.799   4.006   2.496
 8898SOL    HW227594   4.836   3.916   2.627
 8899SOL     OW27595   1.905   3.682   2.726
 8899SOL    HW127596   1.921   3.755   2.792
 8899SOL    HW227597   1.866   3.721   2.642
 8900SOL     OW27598   3.935   1.851   4.525
 8900SOL    HW127599   3.964   1.806   4.609
 8900SOL    HW227600   3.859   1.801   4.484
 8901SOL     OW27601   1.809   5.679   4.940
 8901SOL    HW127602   1.746   5.739   4.989
 8901SOL    HW227603   1.835   5.603   5.000
 8902SOL     OW27604   0.332   5.045   0.113
 8902SOL    HW127605   0.248   5.060   0.062
 8902SOL    HW227606   0.311   5.005   0.203
 8903SOL     OW27607   1.052   0.778   5.262
 8903SOL    HW127608   1.133   0.728   5.291
 8903SOL    HW227609   1.021   0.741   5.174
 8904SOL     OW27610   0.963   0.928   3.593
 8904SOL    HW127611   0.911   0.843   3.580
 8904SOL    HW227612   0.943   0.965   3.684
 8905SOL     OW27613   1.821   4.454   1.997
 8905SOL    HW127614   1.895   4.408   2.047
 8905SOL    HW227615   1.735   4.441   2.046
 8906SOL     OW27616   5.800   0.215   6.564
 8906SOL    HW127617   5.879   0.181   6.513
 8906SOL    HW227618   5.725   0.149   6.558
 8907SOL     OW27619   2.955   3.429   5.130
 8907SOL    HW127620   2.940   3.491   5.053
 8907SOL    HW227621   2.961   3.335   5.096
 8908SOL     OW27622   1.760   4.765   6.411
 8908SOL    HW127623   1.741   4.695   6.480
 8908SOL    HW227624   1.850   4.750   6.372
 8909SOL     OW27625   2.066   5.324   1.410
 8909SOL    HW127626   2.089   5.239   1.457
 8909SOL    HW227627   1.994   5.307   1.343
 8910SOL     OW27628   1.021   1.257   3.466
 8910SOL    HW127629   1.095   1.222   3.522
 8910SOL    HW227630   0.988   1.186   3.404
 8911SOL     OW27631   5.476   2.444   4.963
 8911SOL    HW127632   5.383   2.432   4.929
 8911SOL    HW227633   5.510   2.356   4.997
 8912SOL     OW27634   3.521   3.069   3.733
 8912SOL    HW127635   3.492   3.141   3.797
 8912SOL    HW227636   3.544   3.110   3.645
 8913SOL     OW27637   4.863   5.900   1.297
 8913SOL    HW127638   4.799   5.827   1.273
 8913SOL    HW227639   4.882   5.956   1.215
 8914SOL     OW27640   4.946   5.624   5.291
 8914SOL    HW127641   4.978   5.531   5.274
 8914SOL    HW227642   4.931   5.637   5.389
 8915SOL     OW27643   1.349   0.917   3.615
 8915SOL    HW127644   1.325   0.827   3.652
 8915SOL    HW227645   1.397   0.905   3.528
 8916SOL     OW27646   5.384   1.144   1.712
 8916SOL    HW127647   5.312   1.181   1.770
 8916SOL    HW227648   5.465   1.203   1.719
 8917SOL     OW27649   6.004   1.634   0.120
 8917SOL    HW127650   5.945   1.555   0.137
 8917SOL    HW227651   5.981   1.674   0.032
 8918SOL     OW27652   0.870   3.748   2.236
 8918SOL    HW127653   0.811   3.670   2.221
 8918SOL    HW227654   0.821   3.819   2.286
 8919SOL     OW27655   6.010   2.613   2.472
 8919SOL    HW127656   5.978   2.648   2.384
 8919SOL    HW227657   6.009   2.513   2.470
 8920SOL     OW27658   0.833   1.505   6.998
 8920SOL    HW127659   0.823   1.508   6.899
 8920SOL    HW227660   0.772   1.573   0.020
 8921SOL     OW27661   0.629   3.132   1.973
 8921SOL    HW127662   0.626   3.227   2.001
 8921SOL    HW227663   0.694   3.082   2.031
 8922SOL     OW27664   3.618   4.968   3.804
 8922SOL    HW127665   3.705   4.923   3.783
 8922SOL    HW227666   3.635   5.063   3.830
 8923SOL     OW27667   2.449   0.935   4.232
 8923SOL    HW127668   2.532   0.893   4.194
 8923SOL    HW227669   2.383   0.863   4.253
 8924SOL     OW27670   6.174   5.051   5.114
 8924SOL    HW127671   6.265   5.009   5.108
 8924SOL    HW227672   6.132   5.028   5.201
 8925SOL     OW27673   0.624   6.990   3.349
 8925SOL    HW127674   0.557   6.936   3.298
 8925SOL    HW227675   0.640   0.056   3.302
 8926SOL     OW27676   5.715   1.080   6.880
 8926SOL    HW127677   5.756   1.023   6.809
 8926SOL    HW227678   5.784   1.100   6.950
 8927SOL     OW27679   1.592   0.986   6.654
 8927SOL    HW127680   1.608   1.067   6.712
 8927SOL    HW227681   1.633   1.002   6.564
 8928SOL     OW27682   1.628   6.965   5.820
 8928SOL    HW127683   1.721   6.930   5.808
 8928SOL    HW227684   1.575   6.902   5.877
 8929SOL     OW27685   0.484   1.859   3.823
 8929SOL    HW127686   0.490   1.834   3.920
 8929SOL    HW227687   0.482   1.776   3.768
 8930SOL     OW27688   2.023   5.011   4.080
 8930SOL    HW127689   2.120   4.991   4.094
 8930SOL    HW227690   2.011   5.057   3.992
 8931SOL     OW27691   4.014   3.529   0.193
 8931SOL    HW127692   4.082   3.533   0.265
 8931SOL    HW227693   4.049   3.575   0.111
 8932SOL     OW27694   0.896   3.571   3.413
 8932SOL    HW127695   0.830   3.644   3.427
 8932SOL    HW227696   0.974   3.605   3.360
 8933SOL     OW27697   4.534   1.561   6.072
 8933SOL    HW127698   4.471   1.483   6.063
 8933SOL    HW227699   4.483   1.643   6.096
 8934SOL     OW27700   2.453   6.187   2.658
 8934SOL    HW127701   2.473   6.094   2.627
 8934SOL    HW227702   2.358   6.192   2.688
 8935SOL     OW27703   6.411   5.262   6.993
 8935SOL    HW127704   6.379   5.185   6.938
 8935SOL    HW227705   6.406   5.239   0.070
 8936SOL     OW27706   3.937   2.865   0.655
 8936SOL    HW127707   4.024   2.849   0.609
 8936SOL    HW227708   3.914   2.785   0.711
 8937SOL     OW27709   0.556   0.350   5.716
 8937SOL    HW127710   0.590   0.408   5.642
 8937SOL    HW227711   0.467   0.312   5.691
 8938SOL     OW27712   4.906   5.958   1.749
 8938SOL    HW127713   4.948   5.875   1.786
 8938SOL    HW227714   4.955   5.987   1.667
 8939SOL     OW27715   5.145   1.939   5.155
 8939SOL    HW127716   5.140   2.028   5.201
 8939SOL    HW227717   5.086   1.939   5.074
 8940SOL     OW27718   6.290   6.845   2.284
 8940SOL    HW127719   6.226   6.799   2.222
 8940SOL    HW227720   6.306   6.939   2.253
 8941SOL     OW27721   4.046   1.328   6.458
 8941SOL    HW127722   4.111   1.324   6.534
 8941SOL    HW227723   3.989   1.410   6.468
 8942SOL     OW27724   1.367   2.298   5.480
 8942SOL    HW127725   1.330   2.290   5.388
 8942SOL    HW227726   1.334   2.383   5.522
 8943SOL     OW27727   4.824   3.421   1.281
 8943SOL    HW127728   4.894   3.375   1.226
 8943SOL    HW227729   4.742   3.364   1.284
 8944SOL     OW27730   3.864   5.697   1.333
 8944SOL    HW127731   3.879   5.630   1.405
 8944SOL    HW227732   3.936   5.766   1.336
 8945SOL     OW27733   2.622   1.196   4.280
 8945SOL    HW127734   2.542   1.166   4.332
 8945SOL    HW227735   2.705   1.176   4.332
 8946SOL     OW27736   4.247   1.004   4.964
 8946SOL    HW127737   4.331   1.034   4.919
 8946SOL    HW227738   4.262   0.997   5.062
 8947SOL     OW27739   3.906   4.034   5.042
 8947SOL    HW127740   3.988   4.009   5.092
 8947SOL    HW227741   3.861   4.110   5.088
 8948SOL     OW27742   6.088   4.930   3.039
 8948SOL    HW127743   6.066   4.852   3.098
 8948SOL    HW227744   6.154   4.902   2.969
 8949SOL     OW27745   1.932   5.491   5.883
 8949SOL    HW127746   2.020   5.479   5.837
 8949SOL    HW227747   1.894   5.402   5.906
 8950SOL     OW27748   4.765   2.380   4.785
 8950SOL    HW127749   4.673   2.403   4.752
 8950SOL    HW227750   4.819   2.463   4.795
 8951SOL     OW27751   2.487   1.634   5.800
 8951SOL    HW127752   2.547   1.694   5.748
 8951SOL    HW227753   2.437   1.575   5.737
 8952SOL     OW27754   6.503   6.955   3.515
 8952SOL    HW127755   6.571   7.012   3.562
 8952SOL    HW227756   6.485   6.873   3.569
 8953SOL     OW27757   1.665   4.998   6.567
 8953SOL    HW127758   1.709   4.927   6.511
 8953SOL    HW227759   1.735   5.060   6.603
 8954SOL     OW27760   2.306   6.405   5.644
 8954SOL    HW127761   2.347   6.315   5.652
 8954SOL    HW227762   2.377   6.473   5.624
 8955SOL     OW27763   6.405   3.736   4.387
 8955SOL    HW127764   6.309   3.757   4.405
 8955SOL    HW227765   6.462   3.815   4.412
 8956SOL     OW27766   1.229   0.397   4.561
 8956SOL    HW127767   1.157   0.330   4.544
 8956SOL    HW227768   1.198   0.462   4.631
 8957SOL     OW27769   2.427   5.759   1.825
 8957SOL    HW127770   2.402   5.740   1.730
 8957SOL    HW227771   2.401   5.853   1.848
 8958SOL     OW27772   2.471   0.049   4.070
 8958SOL    HW127773   2.371   0.044   4.059
 8958SOL    HW227774   2.502   6.995   4.130
 8959SOL     OW27775   3.120   5.473   0.495
 8959SOL    HW127776   3.070   5.554   0.527
 8959SOL    HW227777   3.177   5.438   0.570
 8960SOL     OW27778   3.575   5.768   1.009
 8960SOL    HW127779   3.498   5.720   0.967
 8960SOL    HW227780   3.584   5.742   1.105
 8961SOL     OW27781   1.437   2.562   3.951
 8961SOL    HW127782   1.438   2.662   3.955
 8961SOL    HW227783   1.389   2.532   3.869
 8962SOL     OW27784   4.844   0.494   3.284
 8962SOL    HW127785   4.886   0.469   3.371
 8962SOL    HW227786   4.916   0.517   3.218
 8963SOL     OW27787   0.064   1.207   3.808
 8963SOL    HW127788   0.140   1.226   3.869
 8963SOL    HW227789   0.070   1.267   3.728
 8964SOL     OW27790   0.140   3.587   3.131
 8964SOL    HW127791   0.109   3.537   3.050
 8964SOL    HW227792   0.100   3.545   3.213
 8965SOL     OW27793   1.445   4.927   1.731
 8965SOL    HW127794   1.384   5.006   1.722
 8965SOL    HW227795   1.495   4.933   1.818
 8966SOL     OW27796   3.390   2.194   5.203
 8966SOL    HW127797   3.305   2.246   5.194
 8966SOL    HW227798   3.423   2.167   5.112
 8967SOL     OW27799   4.726   0.038   0.926
 8967SOL    HW127800   4.713   0.064   1.022
 8967SOL    HW227801   4.775   0.112   0.878
 8968SOL     OW27802   4.930   4.368   3.112
 8968SOL    HW127803   4.857   4.301   3.129
 8968SOL    HW227804   4.898   4.436   3.047
 8969SOL     OW27805   6.334   0.516   4.128
 8969SOL    HW127806   6.344   0.424   4.165
 8969SOL    HW227807   6.385   0.523   4.042
 8970SOL     OW27808   3.700   1.918   1.388
 8970SOL    HW127809   3.692   2.017   1.404
 8970SOL    HW227810   3.614   1.874   1.413
 8971SOL     OW27811   4.434   6.131   2.926
 8971SOL    HW127812   4.406   6.227   2.918
 8971SOL    HW227813   4.480   6.117   3.014
 8972SOL     OW27814   5.393   7.000   4.542
 8972SOL    HW127815   5.380   6.918   4.598
 8972SOL    HW227816   5.443   6.975   4.459
 8973SOL     OW27817   2.289   5.193   6.928
 8973SOL    HW127818   2.239   5.278   6.916
 8973SOL    HW227819   2.328   5.190   0.000
 8974SOL     OW27820   0.791   3.168   3.947
 8974SOL    HW127821   0.873   3.148   4.000
 8974SOL    HW227822   0.796   3.119   3.859
 8975SOL     OW27823   3.791   0.544   6.519
 8975SOL    HW127824   3.755   0.488   6.593
 8975SOL    HW227825   3.871   0.498   6.479
 8976SOL     OW27826   0.983   5.216   4.242
 8976SOL    HW127827   1.079   5.204   4.217
 8976SOL    HW227828   0.940   5.283   4.182
 8977SOL     OW27829   5.459   1.083   6.831
 8977SOL    HW127830   5.415   0.996   6.808
 8977SOL    HW227831   5.556   1.068   6.850
 8978SOL     OW27832   5.046   5.038   1.002
 8978SOL    HW127833   4.989   5.044   1.084
 8978SOL    HW227834   5.014   5.104   0.934
 8979SOL     OW27835   1.681   4.657   4.783
 8979SOL    HW127836   1.772   4.689   4.810
 8979SOL    HW227837   1.620   4.659   4.863
 8980SOL     OW27838   3.855   2.977   4.676
 8980SOL    HW127839   3.851   2.950   4.772
 8980SOL    HW227840   3.939   3.027   4.658
 8981SOL     OW27841   2.614   1.139   5.817
 8981SOL    HW127842   2.559   1.146   5.734
 8981SOL    HW227843   2.575   1.196   5.889
 8982SOL     OW27844   4.155   4.260   1.027
 8982SOL    HW127845   4.137   4.284   0.932
 8982SOL    HW227846   4.191   4.167   1.032
 8983SOL     OW27847   4.658   5.010   0.974
 8983SOL    HW127848   4.660   4.941   0.902
 8983SOL    HW227849   4.658   5.101   0.932
 8984SOL     OW27850   1.539   6.701   3.952
 8984SOL    HW127851   1.637   6.717   3.950
 8984SOL    HW227852   1.504   6.719   4.043
 8985SOL     OW27853   2.943   3.106   6.067
 8985SOL    HW127854   3.037   3.072   6.070
 8985SOL    HW227855   2.886   3.041   6.017
 8986SOL     OW27856   3.631   6.479   2.673
 8986SOL    HW127857   3.640   6.403   2.609
 8986SOL    HW227858   3.562   6.544   2.639
 8987SOL     OW27859   5.111   5.712   1.690
 8987SOL    HW127860   5.027   5.658   1.692
 8987SOL    HW227861   5.155   5.707   1.780
 8988SOL     OW27862   1.002   4.877   5.017
 8988SOL    HW127863   1.001   4.969   5.056
 8988SOL    HW227864   0.912   4.857   4.978
 8989SOL     OW27865   2.645   2.907   6.880
 8989SOL    HW127866   2.725   2.894   6.938
 8989SOL    HW227867   2.576   2.838   6.901
 8990SOL     OW27868   0.262   5.957   3.149
 8990SOL    HW127869   0.307   6.002   3.227
 8990SOL    HW227870   0.325   5.953   3.072
 8991SOL     OW27871   1.239   2.151   4.928
 8991SOL    HW127872   1.214   2.245   4.903
 8991SOL    HW227873   1.292   2.110   4.854
 8992SOL     OW27874   0.062   2.354   1.263
 8992SOL    HW127875   7.020   2.433   1.264
 8992SOL    HW227876   0.010   2.270   1.276
 8993SOL     OW27877   4.532   2.213   0.929
 8993SOL    HW127878   4.528   2.191   1.027
 8993SOL    HW227879   4.594   2.149   0.883
 8994SOL     OW27880   2.024   5.595   2.849
 8994SOL    HW127881   1.934   5.585   2.807
 8994SOL    HW227882   2.086   5.640   2.784
 8995SOL     OW27883   0.500   0.391   1.271
 8995SOL    HW127884   0.514   0.464   1.338
 8995SOL    HW227885   0.588   0.347   1.251
 8996SOL     OW27886   3.964   6.733   6.063
 8996SOL    HW127887   4.062   6.718   6.077
 8996SOL    HW227888   3.921   6.646   6.037
 8997SOL     OW27889   6.066   0.793   4.455
 8997SOL    HW127890   6.164   0.774   4.450
 8997SOL    HW227891   6.051   0.882   4.500
 8998SOL     OW27892   6.861   3.362   4.902
 8998SOL    HW127893   6.877   3.320   4.992
 8998SOL    HW227894   6.927   3.325   4.836
 8999SOL     OW27895   3.908   6.963   6.218
 8999SOL    HW127896   3.951   0.023   6.178
 8999SOL    HW227897   3.910   6.888   6.152
 9000SOL     OW27898   1.892   4.143   1.130
 9000SOL    HW127899   1.810   4.178   1.085
 9000SOL    HW227900   1.969   4.148   1.067
 9001SOL     OW27901   0.829   5.569   1.567
 9001SOL    HW127902   0.885   5.533   1.641
 9001SOL    HW227903   0.758   5.503   1.544
 9002SOL     OW27904   0.639   4.524   6.066
 9002SOL    HW127905   0.686   4.437   6.084
 9002SOL    HW227906   0.603   4.523   5.972
 9003SOL     OW27907   5.454   0.209   1.078
 9003SOL    HW127908   5.440   0.265   0.996
 9003SOL    HW227909   5.541   0.161   1.071
 9004SOL     OW27910   4.895   5.044   0.677
 9004SOL    HW127911   4.871   4.967   0.736
 9004SOL    HW227912   4.984   5.026   0.635
 9005SOL     OW27913   5.452   0.750   5.604
 9005SOL    HW127914   5.491   0.663   5.574
 9005SOL    HW227915   5.352   0.746   5.599
 9006SOL     OW27916   3.843   5.822   0.490
 9006SOL    HW127917   3.934   5.783   0.482
 9006SOL    HW227918   3.815   5.823   0.586
 9007SOL     OW27919   1.593   1.179   2.915
 9007SOL    HW127920   1.610   1.104   2.852
 9007SOL    HW227921   1.623   1.265   2.873
 9008SOL     OW27922   0.778   5.961   2.197
 9008SOL    HW127923   0.727   5.877   2.213
 9008SOL    HW227924   0.812   5.962   2.103
 9009SOL     OW27925   3.338   6.443   1.704
 9009SOL    HW127926   3.406   6.379   1.738
 9009SOL    HW227927   3.247   6.414   1.734
 9010SOL     OW27928   1.597   6.303   4.450
 9010SOL    HW127929   1.579   6.357   4.532
 9010SOL    HW227930   1.515   6.298   4.394
 9011SOL     OW27931   2.387   2.441   2.018
 9011SOL    HW127932   2.291   2.414   2.030
 9011SOL    HW227933   2.446   2.362   2.027
 9012SOL     OW27934   1.742   6.339   6.908
 9012SOL    HW127935   1.784   6.366   6.821
 9012SOL    HW227936   1.731   6.240   6.911
 9013SOL     OW27937   2.207   6.908   4.436
 9013SOL    HW127938   2.160   6.897   4.524
 9013SOL    HW227939   2.290   6.853   4.436
 9014SOL     OW27940   5.433   3.055   3.941
 9014SOL    HW127941   5.451   3.017   4.031
 9014SOL    HW227942   5.501   3.125   3.920
 9015SOL     OW27943   4.428   0.935   6.328
 9015SOL    HW127944   4.512   0.957   6.378
 9015SOL    HW227945   4.425   0.837   6.309
 9016SOL     OW27946   5.184   5.445   5.906
 9016SOL    HW127947   5.260   5.402   5.956
 9016SOL    HW227948   5.208   5.540   5.886
 9017SOL     OW27949   3.780   0.158   4.873
 9017SOL    HW127950   3.837   0.092   4.823
 9017SOL    HW227951   3.684   0.136   4.858
 9018SOL     OW27952   3.591   4.547   6.750
 9018SOL    HW127953   3.584   4.612   6.825
 9018SOL    HW227954   3.517   4.563   6.685
 9019SOL     OW27955   0.441   3.336   3.977
 9019SOL    HW127956   0.362   3.363   4.033
 9019SOL    HW227957   0.495   3.268   4.026
 9020SOL     OW27958   5.180   4.823   2.879
 9020SOL    HW127959   5.146   4.758   2.947
 9020SOL    HW227960   5.106   4.884   2.851
 9021SOL     OW27961   0.365   0.904   4.210
 9021SOL    HW127962   0.334   0.996   4.234
 9021SOL    HW227963   0.287   0.841   4.214
 9022SOL     OW27964   4.274   4.246   6.351
 9022SOL    HW127965   4.249   4.328   6.300
 9022SOL    HW227966   4.213   4.171   6.324
 9023SOL     OW27967   6.625   4.490   0.588
 9023SOL    HW127968   6.578   4.570   0.624
 9023SOL    HW227969   6.649   4.506   0.492
 9024SOL     OW27970   2.339   5.836   6.161
 9024SOL    HW127971   2.294   5.769   6.102
 9024SOL    HW227972   2.271   5.898   6.200
 9025SOL     OW27973   0.863   5.544   1.016
 9025SOL    HW127974   0.893   5.639   1.025
 9025SOL    HW227975   0.894   5.492   1.096
 9026SOL     OW27976   5.288   1.126   0.704
 9026SOL    HW127977   5.362   1.180   0.744
 9026SOL    HW227978   5.314   1.098   0.612
 9027SOL     OW27979   0.996   4.259   3.557
 9027SOL    HW127980   0.971   4.281   3.463
 9027SOL    HW227981   0.948   4.321   3.619
 9028SOL     OW27982   3.444   4.601   6.527
 9028SOL    HW127983   3.361   4.650   6.555
 9028SOL    HW227984   3.459   4.615   6.429
 9029SOL     OW27985   4.657   0.204   3.994
 9029SOL    HW127986   4.714   0.232   3.917
 9029SOL    HW227987   4.673   0.266   4.071
 9030SOL     OW27988   3.250   1.364   2.121
 9030SOL    HW127989   3.320   1.435   2.120
 9030SOL    HW227990   3.163   1.401   2.091
 9031SOL     OW27991   4.619   6.825   4.855
 9031SOL    HW127992   4.615   6.758   4.781
 9031SOL    HW227993   4.575   6.910   4.826
 9032SOL     OW27994   5.256   2.923   1.779
 9032SOL    HW127995   5.279   2.875   1.863
 9032SOL    HW227996   5.157   2.937   1.775
 9033SOL     OW27997   0.406   6.960   2.808
 9033SOL    HW127998   0.359   6.968   2.720
 9033SOL    HW227999   0.390   0.022   2.862
 9034SOL     OW28000   4.531   6.718   4.235
 9034SOL    HW128001   4.599   6.791   4.248
 9034SOL    HW228002   4.578   6.633   4.212
 9035SOL     OW28003   2.992   5.585   6.840
 9035SOL    HW128004   2.956   5.492   6.830
 9035SOL    HW228005   2.949   5.629   6.918
 9036SOL     OW28006   1.543   4.610   5.038
 9036SOL    HW128007   1.510   4.517   5.047
 9036SOL    HW228008   1.466   4.672   5.022
 9037SOL     OW28009   0.031   0.956   2.353
 9037SOL    HW128010   0.128   0.944   2.333
 9037SOL    HW228011   7.008   0.867   2.370
 9038SOL     OW28012   4.606   3.008   5.301
 9038SOL    HW128013   4.622   3.107   5.301
 9038SOL    HW228014   4.610   2.974   5.207
 9039SOL     OW28015   4.589   6.470   6.306
 9039SOL    HW128016   4.600   6.560   6.263
 9039SOL    HW228017   4.593   6.481   6.405
 9040SOL     OW28018   2.131   1.965   1.418
 9040SOL    HW128019   2.176   2.042   1.464
 9040SOL    HW228020   2.196   1.892   1.402
 9041SOL     OW28021   6.553   2.174   2.560
 9041SOL    HW128022   6.556   2.167   2.660
 9041SOL    HW228023   6.625   2.236   2.529
 9042SOL     OW28024   3.706   6.270   0.761
 9042SOL    HW128025   3.711   6.331   0.840
 9042SOL    HW228026   3.798   6.235   0.741
 9043SOL     OW28027   3.195   2.786   0.739
 9043SOL    HW128028   3.190   2.702   0.792
 9043SOL    HW228029   3.234   2.859   0.795
 9044SOL     OW28030   0.851   0.892   0.649
 9044SOL    HW128031   0.939   0.871   0.691
 9044SOL    HW228032   0.862   0.969   0.586
 9045SOL     OW28033   4.491   1.332   3.496
 9045SOL    HW128034   4.553   1.280   3.554
 9045SOL    HW228035   4.536   1.354   3.410
 9046SOL     OW28036   3.138   2.987   2.101
 9046SOL    HW128037   3.237   2.999   2.096
 9046SOL    HW228038   3.113   2.943   2.187
 9047SOL     OW28039   1.463   4.469   6.370
 9047SOL    HW128040   1.406   4.414   6.309
 9047SOL    HW228041   1.488   4.554   6.326
 9048SOL     OW28042   6.939   1.413   5.871
 9048SOL    HW128043   6.872   1.460   5.814
 9048SOL    HW228044   6.958   1.322   5.834
 9049SOL     OW28045   2.534   6.995   5.220
 9049SOL    HW128046   2.560   0.070   5.234
 9049SOL    HW228047   2.438   6.990   5.192
 9050SOL     OW28048   0.977   4.395   1.002
 9050SOL    HW128049   1.031   4.413   0.920
 9050SOL    HW228050   0.887   4.438   0.993
 9051SOL     OW28051   2.777   1.075   1.605
 9051SOL    HW128052   2.802   1.033   1.518
 9051SOL    HW228053   2.699   1.135   1.592
 9052SOL     OW28054   1.965   2.834   5.716
 9052SOL    HW128055   1.991   2.865   5.625
 9052SOL    HW228056   1.915   2.906   5.763
 9053SOL     OW28057   0.875   0.731   6.937
 9053SOL    HW128058   0.831   0.644   6.960
 9053SOL    HW228059   0.974   0.719   6.932
 9054SOL     OW28060   1.857   5.881   2.499
 9054SOL    HW128061   1.932   5.848   2.442
 9054SOL    HW228062   1.893   5.932   2.577
 9055SOL     OW28063   0.225   3.070   5.270
 9055SOL    HW128064   0.228   2.988   5.212
 9055SOL    HW228065   0.132   3.085   5.302
 9056SOL     OW28066   6.204   2.892   3.446
 9056SOL    HW128067   6.221   2.971   3.388
 9056SOL    HW228068   6.174   2.815   3.390
 9057SOL     OW28069   4.187   2.193   3.825
 9057SOL    HW128070   4.209   2.096   3.820
 9057SOL    HW228071   4.214   2.237   3.739
 9058SOL     OW28072   2.569   0.612   5.823
 9058SOL    HW128073   2.665   0.601   5.796
 9058SOL    HW228074   2.555   0.702   5.863
 9059SOL     OW28075   0.920   2.560   3.229
 9059SOL    HW128076   0.899   2.651   3.266
 9059SOL    HW228077   1.018   2.555   3.207
 9060SOL     OW28078   5.150   3.126   5.894
 9060SOL    HW128079   5.152   3.057   5.966
 9060SOL    HW228080   5.242   3.163   5.880
 9061SOL     OW28081   2.322   5.469   2.700
 9061SOL    HW128082   2.421   5.470   2.710
 9061SOL    HW228083   2.284   5.551   2.741
 9062SOL     OW28084   2.007   6.124   1.337
 9062SOL    HW128085   1.995   6.165   1.428
 9062SOL    HW228086   1.925   6.071   1.314
 9063SOL     OW28087   2.466   2.216   2.258
 9063SOL    HW128088   2.559   2.251   2.250
 9063SOL    HW228089   2.403   2.292   2.276
 9064SOL     OW28090   5.296   3.780   0.327
 9064SOL    HW128091   5.215   3.806   0.380
 9064SOL    HW228092   5.286   3.685   0.297
 9065SOL     OW28093   2.942   0.716   0.648
 9065SOL    HW128094   2.964   0.757   0.560
 9065SOL    HW228095   2.845   0.693   0.651
 9066SOL     OW28096   5.301   6.757   0.081
 9066SOL    HW128097   5.209   6.777   0.114
 9066SOL    HW228098   5.310   6.659   0.064
 9067SOL     OW28099   1.069   0.787   1.899
 9067SOL    HW128100   1.027   0.721   1.838
 9067SOL    HW228101   0.997   0.834   1.952
 9068SOL     OW28102   1.386   6.009   6.569
 9068SOL    HW128103   1.312   5.944   6.587
 9068SOL    HW228104   1.460   5.962   6.522
 9069SOL     OW28105   1.461   2.008   6.158
 9069SOL    HW128106   1.472   1.998   6.059
 9069SOL    HW228107   1.551   2.008   6.201
 9070SOL     OW28108   1.792   4.668   3.523
 9070SOL    HW128109   1.716   4.675   3.459
 9070SOL    HW228110   1.758   4.634   3.611
 9071SOL     OW28111   4.674   6.412   0.383
 9071SOL    HW128112   4.758   6.420   0.329
 9071SOL    HW228113   4.696   6.383   0.476
 9072SOL     OW28114   5.181   4.787   0.249
 9072SOL    HW128115   5.156   4.699   0.289
 9072SOL    HW228116   5.232   4.772   0.164
 9073SOL     OW28117   2.079   0.832   1.086
 9073SOL    HW128118   2.128   0.844   0.999
 9073SOL    HW228119   1.991   0.788   1.069
 9074SOL     OW28120   0.394   0.489   3.033
 9074SOL    HW128121   0.397   0.395   3.066
 9074SOL    HW228122   0.483   0.513   2.994
 9075SOL     OW28123   0.745   0.659   1.809
 9075SOL    HW128124   0.689   0.637   1.729
 9075SOL    HW228125   0.837   0.621   1.797
 9076SOL     OW28126   1.051   1.387   5.073
 9076SOL    HW128127   1.053   1.327   4.993
 9076SOL    HW228128   0.985   1.460   5.059
 9077SOL     OW28129   6.042   6.033   1.550
 9077SOL    HW128130   5.967   6.046   1.485
 9077SOL    HW228131   6.006   5.996   1.635
 9078SOL     OW28132   4.310   2.964   5.335
 9078SOL    HW128133   4.297   2.865   5.341
 9078SOL    HW228134   4.393   2.991   5.384
 9079SOL     OW28135   4.183   0.796   5.464
 9079SOL    HW128136   4.125   0.733   5.412
 9079SOL    HW228137   4.270   0.809   5.416
 9080SOL     OW28138   4.890   1.454   6.734
 9080SOL    HW128139   4.986   1.435   6.714
 9080SOL    HW228140   4.869   1.548   6.708
 9081SOL     OW28141   5.392   0.029   3.655
 9081SOL    HW128142   5.370   7.014   3.565
 9081SOL    HW228143   5.460   0.102   3.646
 9082SOL     OW28144   3.027   0.831   2.636
 9082SOL    HW128145   2.990   0.910   2.685
 9082SOL    HW228146   2.957   0.759   2.631
 9083SOL     OW28147   4.772   4.024   4.326
 9083SOL    HW128148   4.802   4.048   4.234
 9083SOL    HW228149   4.786   4.101   4.388
 9084SOL     OW28150   4.071   3.549   2.775
 9084SOL    HW128151   4.112   3.480   2.834
 9084SOL    HW228152   4.078   3.520   2.680
 9085SOL     OW28153   0.978   2.589   0.639
 9085SOL    HW128154   0.967   2.570   0.541
 9085SOL    HW228155   0.899   2.641   0.671
 9086SOL     OW28156   6.898   3.970   0.051
 9086SOL    HW128157   6.834   3.959   6.996
 9086SOL    HW228158   6.950   3.886   0.063
 9087SOL     OW28159   5.154   3.273   2.319
 9087SOL    HW128160   5.143   3.242   2.225
 9087SOL    HW228161   5.073   3.325   2.347
 9088SOL     OW28162   5.153   5.988   1.163
 9088SOL    HW128163   5.150   5.904   1.216
 9088SOL    HW228164   5.242   5.996   1.118
 9089SOL     OW28165   4.462   0.790   5.759
 9089SOL    HW128166   4.468   0.693   5.780
 9089SOL    HW228167   4.367   0.813   5.736
 9090SOL     OW28168   6.008   1.952   3.312
 9090SOL    HW128169   6.021   1.962   3.214
 9090SOL    HW228170   6.065   1.877   3.345
 9091SOL     OW28171   3.882   2.773   5.901
 9091SOL    HW128172   3.933   2.859   5.907
 9091SOL    HW228173   3.784   2.792   5.902
 9092SOL     OW28174   6.896   3.510   6.353
 9092SOL    HW128175   6.972   3.458   6.313
 9092SOL    HW228176   6.809   3.468   6.327
 9093SOL     OW28177   2.192   6.641   4.832
 9093SOL    HW128178   2.107   6.654   4.883
 9093SOL    HW228179   2.262   6.605   4.893
 9094SOL     OW28180   2.012   3.811   0.857
 9094SOL    HW128181   1.936   3.788   0.918
 9094SOL    HW228182   1.986   3.886   0.797
 9095SOL     OW28183   6.671   6.778   6.544
 9095SOL    HW128184   6.719   6.762   6.458
 9095SOL    HW228185   6.686   6.872   6.574
 9096SOL     OW28186   5.530   5.252   4.900
 9096SOL    HW128187   5.591   5.241   4.979
 9096SOL    HW228188   5.585   5.267   4.818
 9097SOL     OW28189   1.536   1.999   5.883
 9097SOL    HW128190   1.632   1.972   5.883
 9097SOL    HW228191   1.489   1.954   5.807
 9098SOL     OW28192   2.181   4.653   3.861
 9098SOL    HW128193   2.168   4.577   3.925
 9098SOL    HW228194   2.131   4.634   3.776
 9099SOL     OW28195   2.358   1.254   6.780
 9099SOL    HW128196   2.311   1.223   6.697
 9099SOL    HW228197   2.291   1.298   6.841
 9100SOL     OW28198   1.614   4.922   4.052
 9100SOL    HW128199   1.552   4.996   4.026
 9100SOL    HW228200   1.691   4.919   3.988
 9101SOL     OW28201   0.198   2.628   0.412
 9101SOL    HW128202   0.182   2.572   0.331
 9101SOL    HW228203   0.282   2.680   0.401
 9102SOL     OW28204   3.641   0.272   3.037
 9102SOL    HW128205   3.682   0.308   2.953
 9102SOL    HW228206   3.563   0.329   3.063
 9103SOL     OW28207   6.403   0.525   1.192
 9103SOL    HW128208   6.338   0.543   1.266
 9103SOL    HW228209   6.487   0.575   1.208
 9104SOL     OW28210   6.105   1.623   6.134
 9104SOL    HW128211   6.184   1.658   6.084
 9104SOL    HW228212   6.053   1.700   6.171
 9105SOL     OW28213   3.026   0.877   6.610
 9105SOL    HW128214   3.124   0.898   6.611
 9105SOL    HW228215   2.976   0.957   6.643
 9106SOL     OW28216   2.079   3.046   6.839
 9106SOL    HW128217   2.055   3.103   6.761
 9106SOL    HW228218   2.041   2.954   6.826
 9107SOL     OW28219   3.499   1.395   0.587
 9107SOL    HW128220   3.436   1.385   0.664
 9107SOL    HW228221   3.447   1.408   0.503
 9108SOL     OW28222   0.356   5.912   5.738
 9108SOL    HW128223   0.404   5.889   5.822
 9108SOL    HW228224   0.280   5.848   5.724
 9109SOL     OW28225   6.070   4.409   2.604
 9109SOL    HW128226   6.107   4.494   2.641
 9109SOL    HW228227   6.011   4.429   2.526
 9110SOL     OW28228   1.202   6.498   3.217
 9110SOL    HW128229   1.278   6.516   3.153
 9110SOL    HW228230   1.235   6.442   3.292
 9111SOL     OW28231   3.608   2.411   5.685
 9111SOL    HW128232   3.576   2.326   5.643
 9111SOL    HW228233   3.654   2.391   5.771
 9112SOL     OW28234   0.436   5.225   2.293
 9112SOL    HW128235   0.370   5.252   2.223
 9112SOL    HW228236   0.484   5.143   2.263
 9113SOL     OW28237   5.761   0.326   4.134
 9113SOL    HW128238   5.853   0.365   4.128
 9113SOL    HW228239   5.703   0.366   4.062
 9114SOL     OW28240   1.295   0.163   5.710
 9114SOL    HW128241   1.335   0.119   5.790
 9114SOL    HW228242   1.236   0.238   5.738
 9115SOL     OW28243   4.843   4.343   5.199
 9115SOL    HW128244   4.745   4.333   5.185
 9115SOL    HW228245   4.885   4.381   5.117
 9116SOL     OW28246   1.654   0.075   3.493
 9116SOL    HW128247   1.704   0.115   3.417
 9116SOL    HW228248   1.651   6.996   3.483
 9117SOL     OW28249   1.633   6.759   0.066
 9117SOL    HW128250   1.590   6.693   0.128
 9117SOL    HW228251   1.686   6.825   0.119
 9118SOL     OW28252   6.655   3.771   1.684
 9118SOL    HW128253   6.589   3.845   1.677
 9118SOL    HW228254   6.608   3.683   1.672
 9119SOL     OW28255   2.894   1.023   1.048
 9119SOL    HW128256   2.934   0.975   1.125
 9119SOL    HW228257   2.922   1.119   1.049
 9120SOL     OW28258   6.261   3.756   4.663
 9120SOL    HW128259   6.189   3.691   4.687
 9120SOL    HW228260   6.231   3.849   4.686
 9121SOL     OW28261   4.255   1.048   4.308
 9121SOL    HW128262   4.246   1.146   4.291
 9121SOL    HW228263   4.185   1.018   4.372
 9122SOL     OW28264   0.192   2.498   1.856
 9122SOL    HW128265   0.236   2.492   1.766
 9122SOL    HW228266   0.191   2.594   1.886
 9123SOL     OW28267   0.917   6.305   4.158
 9123SOL    HW128268   0.828   6.305   4.204
 9123SOL    HW228269   0.904   6.287   4.060
 9124SOL     OW28270   4.081   6.240   0.905
 9124SOL    HW128271   4.156   6.299   0.935
 9124SOL    HW228272   4.096   6.148   0.942
 9125SOL     OW28273   5.584   6.281   1.305
 9125SOL    HW128274   5.546   6.198   1.346
 9125SOL    HW228275   5.527   6.308   1.227
 9126SOL     OW28276   4.481   4.636   0.959
 9126SOL    HW128277   4.577   4.662   0.951
 9126SOL    HW228278   4.426   4.715   0.985
 9127SOL     OW28279   6.390   4.495   5.489
 9127SOL    HW128280   6.449   4.428   5.443
 9127SOL    HW228281   6.447   4.564   5.535
 9128SOL     OW28282   5.940   3.316   6.097
 9128SOL    HW128283   5.908   3.269   6.179
 9128SOL    HW228284   5.882   3.395   6.079
 9129SOL     OW28285   0.494   3.087   0.538
 9129SOL    HW128286   0.548   3.162   0.576
 9129SOL    HW228287   0.425   3.059   0.606
 9130SOL     OW28288   3.039   3.427   5.396
 9130SOL    HW128289   3.012   3.402   5.303
 9130SOL    HW228290   3.024   3.525   5.410
 9131SOL     OW28291   5.586   2.776   0.491
 9131SOL    HW128292   5.646   2.740   0.420
 9131SOL    HW228293   5.531   2.702   0.530
 9132SOL     OW28294   1.096   4.225   3.974
 9132SOL    HW128295   1.037   4.144   3.984
 9132SOL    HW228296   1.042   4.307   3.992
 9133SOL     OW28297   5.282   0.012   1.164
 9133SOL    HW128298   5.188   0.040   1.145
 9133SOL    HW228299   5.345   0.075   1.119
 9134SOL     OW28300   5.009   5.041   6.651
 9134SOL    HW128301   4.962   4.974   6.709
 9134SOL    HW228302   4.942   5.096   6.601
 9135SOL     OW28303   6.508   5.364   2.221
 9135SOL    HW128304   6.605   5.353   2.242
 9135SOL    HW228305   6.498   5.427   2.145
 9136SOL     OW28306   0.855   5.182   0.302
 9136SOL    HW128307   0.852   5.088   0.268
 9136SOL    HW228308   0.766   5.205   0.341
 9137SOL     OW28309   5.680   5.639   5.583
 9137SOL    HW128310   5.601   5.665   5.638
 9137SOL    HW228311   5.665   5.665   5.488
 9138SOL     OW28312   2.068   4.426   6.338
 9138SOL    HW128313   2.051   4.370   6.258
 9138SOL    HW228314   2.166   4.427   6.358
 9139SOL     OW28315   0.475   0.242   1.664
 9139SOL    HW128316   0.386   0.286   1.676
 9139SOL    HW228317   0.517   0.225   1.753
 9140SOL     OW28318   2.021   4.324   2.094
 9140SOL    HW128319   1.972   4.238   2.084
 9140SOL    HW228320   2.117   4.312   2.068
 9141SOL     OW28321   0.513   5.541   4.593
 9141SOL    HW128322   0.487   5.461   4.540
 9141SOL    HW228323   0.492   5.624   4.541
 9142SOL     OW28324   1.549   4.659   3.394
 9142SOL    HW128325   1.495   4.743   3.395
 9142SOL    HW228326   1.581   4.641   3.301
 9143SOL     OW28327   6.400   3.536   2.692
 9143SOL    HW128328   6.356   3.530   2.782
 9143SOL    HW228329   6.493   3.500   2.698
 9144SOL     OW28330   3.167   3.987   5.626
 9144SOL    HW128331   3.254   4.035   5.614
 9144SOL    HW228332   3.126   4.014   5.713
 9145SOL     OW28333   2.063   6.554   5.817
 9145SOL    HW128334   1.989   6.538   5.752
 9145SOL    HW228335   2.142   6.498   5.792
 9146SOL     OW28336   6.283   2.418   4.028
 9146SOL    HW128337   6.246   2.326   4.039
 9146SOL    HW228338   6.231   2.467   3.957
 9147SOL     OW28339   4.316   0.653   6.066
 9147SOL    HW128340   4.263   0.610   5.992
 9147SOL    HW228341   4.336   0.748   6.042
 9148SOL     OW28342   4.242   5.665   1.979
 9148SOL    HW128343   4.155   5.639   2.022
 9148SOL    HW228344   4.250   5.765   1.979
 9149SOL     OW28345   0.799   3.920   1.711
 9149SOL    HW128346   0.730   3.954   1.647
 9149SOL    HW228347   0.885   3.969   1.696
 9150SOL     OW28348   3.091   4.062   0.059
 9150SOL    HW128349   3.106   3.965   0.040
 9150SOL    HW228350   3.132   4.086   0.147
 9151SOL     OW28351   2.125   3.211   3.404
 9151SOL    HW128352   2.165   3.303   3.406
 9151SOL    HW228353   2.169   3.154   3.474
 9152SOL     OW28354   2.020   4.812   2.301
 9152SOL    HW128355   1.985   4.720   2.283
 9152SOL    HW228356   2.099   4.807   2.361
 9153SOL     OW28357   0.215   3.209   0.366
 9153SOL    HW128358   0.131   3.251   0.399
 9153SOL    HW228359   0.194   3.141   0.296
 9154SOL     OW28360   4.659   4.754   3.566
 9154SOL    HW128361   4.565   4.787   3.568
 9154SOL    HW228362   4.718   4.824   3.526
 9155SOL     OW28363   0.967   6.162   2.567
 9155SOL    HW128364   0.895   6.110   2.613
 9155SOL    HW228365   1.051   6.158   2.622
 9156SOL     OW28366   0.452   3.771   5.458
 9156SOL    HW128367   0.364   3.808   5.428
 9156SOL    HW228368   0.480   3.698   5.396
 9157SOL     OW28369   2.190   4.994   5.096
 9157SOL    HW128370   2.254   5.064   5.065
 9157SOL    HW228371   2.214   4.965   5.189
 9158SOL     OW28372   0.141   3.314   4.837
 9158SOL    HW128373   0.109   3.355   4.923
 9158SOL    HW228374   0.206   3.241   4.857
 9159SOL     OW28375   2.324   1.290   4.016
 9159SOL    HW128376   2.331   1.378   3.970
 9159SOL    HW228377   2.410   1.269   4.062
 9160SOL     OW28378   0.882   3.240   6.689
 9160SOL    HW128379   0.789   3.268   6.665
 9160SOL    HW228380   0.899   3.147   6.658
 9161SOL     OW28381   5.694   3.095   3.090
 9161SOL    HW128382   5.665   3.158   3.018
 9161SOL    HW228383   5.652   3.122   3.177
 9162SOL     OW28384   3.974   2.180   1.961
 9162SOL    HW128385   3.907   2.248   1.931
 9162SOL    HW228386   3.931   2.118   2.027
 9163SOL     OW28387   1.720   2.814   3.842
 9163SOL    HW128388   1.735   2.716   3.825
 9163SOL    HW228389   1.655   2.825   3.917
 9164SOL     OW28390   2.787   6.324   0.069
 9164SOL    HW128391   2.854   6.275   0.124
 9164SOL    HW228392   2.694   6.300   0.098
 9165SOL     OW28393   5.894   0.983   6.303
 9165SOL    HW128394   5.905   1.067   6.250
 9165SOL    HW228395   5.804   0.983   6.347
 9166SOL     OW28396   4.034   6.663   1.933
 9166SOL    HW128397   4.087   6.593   1.886
 9166SOL    HW228398   3.940   6.662   1.899
 9167SOL     OW28399   1.491   1.678   4.342
 9167SOL    HW128400   1.408   1.629   4.369
 9167SOL    HW228401   1.494   1.767   4.388
 9168SOL     OW28402   6.563   5.866   4.920
 9168SOL    HW128403   6.470   5.887   4.950
 9168SOL    HW228404   6.628   5.928   4.965
 9169SOL     OW28405   6.293   6.272   6.956
 9169SOL    HW128406   6.238   6.299   6.877
 9169SOL    HW228407   6.385   6.309   6.948
 9170SOL     OW28408   1.963   0.737   5.958
 9170SOL    HW128409   2.058   0.734   5.925
 9170SOL    HW228410   1.905   0.777   5.887
 9171SOL     OW28411   4.135   5.362   0.131
 9171SOL    HW128412   4.199   5.373   0.206
 9171SOL    HW228413   4.051   5.319   0.165
 9172SOL     OW28414   4.629   1.512   5.557
 9172SOL    HW128415   4.715   1.534   5.511
 9172SOL    HW228416   4.553   1.556   5.510
 9173SOL     OW28417   6.222   3.893   5.188
 9173SOL    HW128418   6.160   3.826   5.229
 9173SOL    HW228419   6.251   3.959   5.258
 9174SOL     OW28420   5.908   4.881   0.657
 9174SOL    HW128421   5.867   4.799   0.618
 9174SOL    HW228422   5.839   4.933   0.707
 9175SOL     OW28423   2.403   1.112   1.375
 9175SOL    HW128424   2.467   1.139   1.447
 9175SOL    HW228425   2.393   1.187   1.309
 9176SOL     OW28426   1.709   1.303   2.679
 9176SOL    HW128427   1.630   1.280   2.623
 9176SOL    HW228428   1.740   1.396   2.659
 9177SOL     OW28429   0.858   5.691   3.262
 9177SOL    HW128430   0.804   5.732   3.335
 9177SOL    HW228431   0.907   5.612   3.297
 9178SOL     OW28432   1.433   3.839   1.432
 9178SOL    HW128433   1.342   3.865   1.399
 9178SOL    HW228434   1.502   3.899   1.390
 9179SOL     OW28435   4.170   4.770   3.332
 9179SOL    HW128436   4.155   4.777   3.431
 9179SOL    HW228437   4.260   4.730   3.315
 9180SOL     OW28438   0.677   0.609   5.279
 9180SOL    HW128439   0.662   0.535   5.213
 9180SOL    HW228440   0.691   0.695   5.231
 9181SOL     OW28441   2.494   1.886   3.546
 9181SOL    HW128442   2.583   1.848   3.572
 9181SOL    HW228443   2.447   1.919   3.628
 9182SOL     OW28444   6.630   1.595   3.004
 9182SOL    HW128445   6.642   1.683   2.959
 9182SOL    HW228446   6.716   1.567   3.047
 9183SOL     OW28447   2.200   1.342   5.977
 9183SOL    HW128448   2.137   1.278   5.932
 9183SOL    HW228449   2.173   1.436   5.957
 9184SOL     OW28450   2.748   4.647   1.404
 9184SOL    HW128451   2.696   4.711   1.348
 9184SOL    HW228452   2.708   4.641   1.495
 9185SOL     OW28453   1.233   0.830   5.524
 9185SOL    HW128454   1.184   0.889   5.460
 9185SOL    HW228455   1.177   0.749   5.545
 9186SOL     OW28456   5.835   6.478   6.289
 9186SOL    HW128457   5.931   6.497   6.268
 9186SOL    HW228458   5.793   6.430   6.213
 9187SOL     OW28459   5.119   2.636   1.129
 9187SOL    HW128460   5.037   2.601   1.174
 9187SOL    HW228461   5.096   2.716   1.075
 9188SOL     OW28462   1.317   0.715   2.069
 9188SOL    HW128463   1.290   0.645   2.136
 9188SOL    HW228464   1.235   0.751   2.025
 9189SOL     OW28465   2.960   0.424   6.015
 9189SOL    HW128466   3.053   0.431   6.050
 9189SOL    HW228467   2.896   0.420   6.092
 9190SOL     OW28468   3.892   0.796   5.718
 9190SOL    HW128469   3.861   0.884   5.683
 9190SOL    HW228470   3.888   0.797   5.818
 9191SOL     OW28471   5.353   6.518   1.567
 9191SOL    HW128472   5.363   6.616   1.583
 9191SOL    HW228473   5.279   6.483   1.624
 9192SOL     OW28474   5.009   4.105   4.769
 9192SOL    HW128475   4.978   4.010   4.779
 9192SOL    HW228476   4.933   4.167   4.792
 9193SOL     OW28477   4.080   3.341   2.984
 9193SOL    HW128478   4.027   3.283   3.046
 9193SOL    HW228479   4.134   3.406   3.037
 9194SOL     OW28480   3.641   4.878   2.956
 9194SOL    HW128481   3.645   4.932   2.873
 9194SOL    HW228482   3.675   4.786   2.937
 9195SOL     OW28483   0.890   3.058   3.682
 9195SOL    HW128484   0.879   2.978   3.740
 9195SOL    HW228485   0.958   3.119   3.722
 9196SOL     OW28486   5.286   5.661   3.407
 9196SOL    HW128487   5.370   5.701   3.444
 9196SOL    HW228488   5.301   5.632   3.313
 9197SOL     OW28489   4.536   1.664   0.176
 9197SOL    HW128490   4.574   1.719   0.102
 9197SOL    HW228491   4.579   1.573   0.175
 9198SOL     OW28492   5.830   2.482   5.452
 9198SOL    HW128493   5.759   2.422   5.490
 9198SOL    HW228494   5.799   2.517   5.363
 9199SOL     OW28495   0.902   3.686   6.704
 9199SOL    HW128496   0.843   3.766   6.716
 9199SOL    HW228497   0.846   3.604   6.696
 9200SOL     OW28498   5.242   5.985   1.641
 9200SOL    HW128499   5.198   5.896   1.648
 9200SOL    HW228500   5.186   6.046   1.584
 9201SOL     OW28501   0.046   2.917   2.332
 9201SOL    HW128502   0.015   2.887   2.241
 9201SOL    HW228503   6.995   2.897   2.399
 9202SOL     OW28504   2.285   6.216   4.526
 9202SOL    HW128505   2.214   6.146   4.514
 9202SOL    HW228506   2.373   6.181   4.492
 9203SOL     OW28507   5.533   1.683   0.766
 9203SOL    HW128508   5.475   1.762   0.748
 9203SOL    HW228509   5.532   1.663   0.864
 9204SOL     OW28510   5.163   4.631   2.641
 9204SOL    HW128511   5.168   4.691   2.721
 9204SOL    HW228512   5.239   4.651   2.579
 9205SOL     OW28513   4.167   2.393   1.277
 9205SOL    HW128514   4.201   2.299   1.285
 9205SOL    HW228515   4.241   2.454   1.251
 9206SOL     OW28516   6.766   6.041   5.044
 9206SOL    HW128517   6.808   6.065   4.956
 9206SOL    HW228518   6.836   6.036   5.114
 9207SOL     OW28519   4.855   6.475   0.194
 9207SOL    HW128520   4.772   6.510   0.149
 9207SOL    HW228521   4.925   6.546   0.193
 9208SOL     OW28522   4.804   4.254   1.496
 9208SOL    HW128523   4.737   4.291   1.560
 9208SOL    HW228524   4.849   4.175   1.536
 9209SOL     OW28525   4.390   0.417   3.731
 9209SOL    HW128526   4.363   0.341   3.672
 9209SOL    HW228527   4.323   0.428   3.804
 9210SOL     OW28528   0.975   0.096   6.720
 9210SOL    HW128529   1.000   0.011   6.766
 9210SOL    HW228530   1.001   0.091   6.624
 9211SOL     OW28531   4.778   1.408   7.002
 9211SOL    HW128532   4.799   1.385   6.907
 9211SOL    HW228533   4.775   1.507   7.012
 9212SOL     OW28534   6.136   3.275   5.860
 9212SOL    HW128535   6.199   3.205   5.895
 9212SOL    HW228536   6.054   3.277   5.917
 9213SOL     OW28537   6.467   5.792   1.883
 9213SOL    HW128538   6.525   5.866   1.918
 9213SOL    HW228539   6.382   5.788   1.936
 9214SOL     OW28540   1.961   1.549   6.619
 9214SOL    HW128541   2.022   1.610   6.570
 9214SOL    HW228542   1.958   1.575   6.716
 9215SOL     OW28543   0.131   3.941   3.752
 9215SOL    HW128544   0.109   3.910   3.659
 9215SOL    HW228545   0.068   3.898   3.817
 9216SOL     OW28546   2.299   6.827   3.625
 9216SOL    HW128547   2.365   6.874   3.683
 9216SOL    HW228548   2.261   6.748   3.674
 9217SOL     OW28549   3.641   2.513   6.797
 9217SOL    HW128550   3.591   2.539   6.715
 9217SOL    HW228551   3.723   2.461   6.772
 9218SOL     OW28552   4.937   5.800   5.539
 9218SOL    HW128553   4.879   5.731   5.582
 9218SOL    HW228554   4.992   5.847   5.608
 9219SOL     OW28555   3.198   2.146   5.615
 9219SOL    HW128556   3.138   2.195   5.552
 9219SOL    HW228557   3.224   2.059   5.575
 9220SOL     OW28558   0.647   6.641   3.351
 9220SOL    HW128559   0.706   6.714   3.317
 9220SOL    HW228560   0.690   6.552   3.333
 9221SOL     OW28561   2.870   1.810   1.276
 9221SOL    HW128562   2.880   1.741   1.349
 9221SOL    HW228563   2.815   1.772   1.202
 9222SOL     OW28564   2.130   5.694   3.318
 9222SOL    HW128565   2.047   5.747   3.302
 9222SOL    HW228566   2.135   5.619   3.252
 9223SOL     OW28567   6.206   2.723   4.565
 9223SOL    HW128568   6.176   2.719   4.660
 9223SOL    HW228569   6.289   2.777   4.558
 9224SOL     OW28570   1.599   5.127   2.269
 9224SOL    HW128571   1.644   5.041   2.295
 9224SOL    HW228572   1.634   5.202   2.325
 9225SOL     OW28573   0.943   5.608   6.080
 9225SOL    HW128574   0.929   5.612   5.981
 9225SOL    HW228575   1.041   5.608   6.100
 9226SOL     OW28576   0.511   0.515   4.781
 9226SOL    HW128577   0.437   0.465   4.826
 9226SOL    HW228578   0.597   0.494   4.826
 9227SOL     OW28579   3.680   3.531   0.110
 9227SOL    HW128580   3.721   3.622   0.100
 9227SOL    HW228581   3.603   3.521   0.048
 9228SOL     OW28582   3.484   3.488   5.271
 9228SOL    HW128583   3.396   3.516   5.234
 9228SOL    HW228584   3.539   3.569   5.290
 9229SOL     OW28585   0.297   5.003   0.405
 9229SOL    HW128586   0.344   4.921   0.372
 9229SOL    HW228587   0.221   4.975   0.465
 9230SOL     OW28588   4.025   6.971   5.617
 9230SOL    HW128589   3.998   6.955   5.523
 9230SOL    HW228590   3.974   6.911   5.678
 9231SOL     OW28591   6.054   6.356   1.544
 9231SOL    HW128592   5.981   6.290   1.565
 9231SOL    HW228593   6.088   6.396   1.629
 9232SOL     OW28594   1.058   5.733   2.095
 9232SOL    HW128595   1.037   5.819   2.048
 9232SOL    HW228596   1.137   5.745   2.155
 9233SOL     OW28597   1.145   0.208   5.396
 9233SOL    HW128598   1.088   0.270   5.449
 9233SOL    HW228599   1.241   0.224   5.418
 9234SOL     OW28600   3.790   4.568   6.265
 9234SOL    HW128601   3.736   4.508   6.207
 9234SOL    HW228602   3.772   4.663   6.241
 9235SOL     OW28603   2.397   2.644   3.011
 9235SOL    HW128604   2.431   2.692   3.092
 9235SOL    HW228605   2.384   2.709   2.936
 9236SOL     OW28606   1.864   3.596   6.056
 9236SOL    HW128607   1.884   3.570   5.962
 9236SOL    HW228608   1.764   3.599   6.069
 9237SOL     OW28609   6.517   5.038   3.622
 9237SOL    HW128610   6.501   5.136   3.606
 9237SOL    HW228611   6.470   5.010   3.705
 9238SOL     OW28612   1.274   2.600   5.220
 9238SOL    HW128613   1.276   2.699   5.205
 9238SOL    HW228614   1.362   2.560   5.193
 9239SOL     OW28615   1.697   5.916   5.788
 9239SOL    HW128616   1.744   5.959   5.865
 9239SOL    HW228617   1.613   5.966   5.769
 9240SOL     OW28618   3.696   1.295   4.626
 9240SOL    HW128619   3.629   1.369   4.635
 9240SOL    HW228620   3.762   1.319   4.555
 9241SOL     OW28621   5.362   6.483   0.057
 9241SOL    HW128622   5.390   6.498   0.152
 9241SOL    HW228623   5.267   6.452   0.054
 9242SOL     OW28624   2.642   2.824   0.325
 9242SOL    HW128625   2.579   2.830   0.247
 9242SOL    HW228626   2.736   2.819   0.293
 9243SOL     OW28627   2.081   0.561   0.135
 9243SOL    HW128628   2.147   0.632   0.161
 9243SOL    HW228629   2.045   0.518   0.218
 9244SOL     OW28630   2.617   6.437   6.747
 9244SOL    HW128631   2.624   6.351   6.697
 9244SOL    HW228632   2.578   6.507   6.687
 9245SOL     OW28633   0.502   4.835   2.865
 9245SOL    HW128634   0.415   4.795   2.896
 9245SOL    HW228635   0.522   4.802   2.773
 9246SOL     OW28636   4.944   6.881   6.927
 9246SOL    HW128637   5.034   6.924   6.924
 9246SOL    HW228638   4.883   6.935   6.985
 9247SOL     OW28639   3.439   6.649   2.581
 9247SOL    HW128640   3.398   6.641   2.490
 9247SOL    HW228641   3.376   6.700   2.640
 9248SOL     OW28642   2.465   0.311   6.855
 9248SOL    HW128643   2.388   0.321   6.918
 9248SOL    HW228644   2.549   0.295   6.907
 9249SOL     OW28645   3.456   0.250   0.699
 9249SOL    HW128646   3.545   0.219   0.731
 9249SOL    HW228647   3.455   0.349   0.692
 9250SOL     OW28648   0.440   3.918   3.077
 9250SOL    HW128649   0.478   3.873   2.996
 9250SOL    HW228650   0.341   3.922   3.068
 9251SOL     OW28651   4.062   1.692   1.400
 9251SOL    HW128652   3.969   1.688   1.362
 9251SOL    HW228653   4.102   1.601   1.400
 9252SOL     OW28654   5.656   1.374   4.507
 9252SOL    HW128655   5.638   1.277   4.519
 9252SOL    HW228656   5.755   1.391   4.511
 9253SOL     OW28657   2.461   5.206   3.717
 9253SOL    HW128658   2.400   5.152   3.774
 9253SOL    HW228659   2.528   5.146   3.674
 9254SOL     OW28660   0.042   5.844   2.369
 9254SOL    HW128661   6.973   5.820   2.331
 9254SOL    HW228662   0.093   5.899   2.303
 9255SOL     OW28663   6.347   3.403   0.616
 9255SOL    HW128664   6.357   3.434   0.522
 9255SOL    HW228665   6.417   3.335   0.637
 9256SOL     OW28666   2.479   6.313   0.661
 9256SOL    HW128667   2.552   6.261   0.707
 9256SOL    HW228668   2.465   6.399   0.709
 9257SOL     OW28669   6.665   5.764   4.667
 9257SOL    HW128670   6.682   5.820   4.586
 9257SOL    HW228671   6.611   5.816   4.732
 9258SOL     OW28672   5.322   4.737   2.225
 9258SOL    HW128673   5.329   4.837   2.219
 9258SOL    HW228674   5.347   4.708   2.317
 9259SOL     OW28675   0.982   2.500   0.007
 9259SOL    HW128676   1.016   2.464   6.940
 9259SOL    HW228677   0.892   2.461   0.026
 9260SOL     OW28678   5.277   4.127   4.679
 9260SOL    HW128679   5.318   4.038   4.698
 9260SOL    HW228680   5.183   4.129   4.714
 9261SOL     OW28681   1.557   3.776   2.034
 9261SOL    HW128682   1.624   3.792   1.960
 9261SOL    HW228683   1.600   3.722   2.106
 9262SOL     OW28684   0.110   6.740   6.116
 9262SOL    HW128685   0.199   6.770   6.085
 9262SOL    HW228686   0.121   6.677   6.193
 9263SOL     OW28687   2.520   4.527   2.772
 9263SOL    HW128688   2.573   4.527   2.688
 9263SOL    HW228689   2.435   4.577   2.758
 9264SOL     OW28690   5.364   3.252   5.795
 9264SOL    HW128691   5.416   3.318   5.850
 9264SOL    HW228692   5.314   3.301   5.724
 9265SOL     OW28693   5.313   0.270   1.981
 9265SOL    HW128694   5.291   0.261   2.078
 9265SOL    HW228695   5.268   0.197   1.929
 9266SOL     OW28696   0.800   4.900   0.972
 9266SOL    HW128697   0.710   4.874   1.006
 9266SOL    HW228698   0.857   4.818   0.962
 9267SOL     OW28699   6.723   1.586   3.666
 9267SOL    HW128700   6.715   1.521   3.742
 9267SOL    HW228701   6.820   1.600   3.645
 9268SOL     OW28702   0.508   1.215   1.750
 9268SOL    HW128703   0.428   1.268   1.719
 9268SOL    HW228704   0.562   1.270   1.813
 9269SOL     OW28705   3.992   0.324   1.176
 9269SOL    HW128706   3.944   0.307   1.262
 9269SOL    HW228707   4.070   0.263   1.168
 9270SOL     OW28708   2.424   0.892   5.440
 9270SOL    HW128709   2.368   0.955   5.386
 9270SOL    HW228710   2.520   0.920   5.435
 9271SOL     OW28711   1.636   4.257   5.700
 9271SOL    HW128712   1.717   4.259   5.641
 9271SOL    HW228713   1.562   4.209   5.652
 9272SOL     OW28714   6.901   6.727   5.301
 9272SOL    HW128715   6.806   6.712   5.273
 9272SOL    HW228716   6.934   6.646   5.350
 9273SOL     OW28717   5.991   3.585   4.340
 9273SOL    HW128718   5.983   3.654   4.411
 9273SOL    HW228719   5.917   3.518   4.349
 9274SOL     OW28720   0.174   3.383   0.087
 9274SOL    HW128721   0.078   3.410   0.074
 9274SOL    HW228722   0.185   3.346   0.179
 9275SOL     OW28723   5.615   1.845   0.401
 9275SOL    HW128724   5.708   1.814   0.422
 9275SOL    HW228725   5.602   1.938   0.435
 9276SOL     OW28726   2.145   3.768   6.983
 9276SOL    HW128727   2.172   3.860   6.954
 9276SOL    HW228728   2.132   3.710   6.903
 9277SOL     OW28729   4.016   5.697   2.252
 9277SOL    HW128730   3.935   5.675   2.199
 9277SOL    HW228731   3.994   5.768   2.319
 9278SOL     OW28732   0.813   0.261   5.679
 9278SOL    HW128733   0.802   0.161   5.678
 9278SOL    HW228734   0.727   0.303   5.706
 9279SOL     OW28735   3.114   6.069   1.768
 9279SOL    HW128736   3.204   6.098   1.799
 9279SOL    HW228737   3.123   6.015   1.684
 9280SOL     OW28738   0.902   5.009   1.801
 9280SOL    HW128739   0.963   5.049   1.868
 9280SOL    HW228740   0.851   4.934   1.843
 9281SOL     OW28741   1.091   5.389   0.876
 9281SOL    HW128742   1.010   5.417   0.927
 9281SOL    HW228743   1.169   5.446   0.902
 9282SOL     OW28744   2.340   0.276   4.647
 9282SOL    HW128745   2.362   0.373   4.634
 9282SOL    HW228746   2.349   0.228   4.559
 9283SOL     OW28747   4.676   5.797   6.868
 9283SOL    HW128748   4.738   5.764   6.939
 9283SOL    HW228749   4.624   5.875   6.903
 9284SOL     OW28750   4.423   6.632   0.901
 9284SOL    HW128751   4.447   6.671   0.812
 9284SOL    HW228752   4.365   6.696   0.951
 9285SOL     OW28753   6.987   5.882   3.596
 9285SOL    HW128754   7.018   5.875   3.501
 9285SOL    HW228755   6.956   5.793   3.628
 9286SOL     OW28756   4.903   6.656   1.600
 9286SOL    HW128757   4.869   6.666   1.694
 9286SOL    HW228758   4.876   6.736   1.546
 9287SOL     OW28759   4.610   4.440   0.222
 9287SOL    HW128760   4.611   4.536   0.249
 9287SOL    HW228761   4.518   4.403   0.234
 9288SOL     OW28762   3.908   1.758   2.607
 9288SOL    HW128763   3.870   1.771   2.515
 9288SOL    HW228764   3.999   1.717   2.600
 9289SOL     OW28765   4.630   5.497   2.182
 9289SOL    HW128766   4.692   5.552   2.238
 9289SOL    HW228767   4.556   5.461   2.240
 9290SOL     OW28768   5.302   1.328   3.456
 9290SOL    HW128769   5.402   1.325   3.447
 9290SOL    HW228770   5.260   1.273   3.383
 9291SOL     OW28771   0.618   3.992   5.465
 9291SOL    HW128772   0.699   3.994   5.407
 9291SOL    HW228773   0.561   3.914   5.440
 9292SOL     OW28774   0.920   1.742   6.714
 9292SOL    HW128775   1.020   1.733   6.720
 9292SOL    HW228776   0.887   1.695   6.633
 9293SOL     OW28777   5.016   1.107   5.860
 9293SOL    HW128778   4.967   1.167   5.796
 9293SOL    HW228779   4.950   1.056   5.915
 9294SOL     OW28780   5.245   6.189   6.080
 9294SOL    HW128781   5.177   6.168   6.009
 9294SOL    HW228782   5.293   6.105   6.104
 9295SOL     OW28783   6.396   0.468   3.150
 9295SOL    HW128784   6.337   0.402   3.198
 9295SOL    HW228785   6.446   0.422   3.077
 9296SOL     OW28786   1.422   3.938   5.756
 9296SOL    HW128787   1.433   4.013   5.691
 9296SOL    HW228788   1.454   3.853   5.715
 9297SOL     OW28789   6.708   5.054   2.195
 9297SOL    HW128790   6.632   5.000   2.160
 9297SOL    HW228791   6.719   5.037   2.293
 9298SOL     OW28792   0.273   4.177   6.204
 9298SOL    HW128793   0.353   4.158   6.147
 9298SOL    HW228794   0.190   4.150   6.155
 9299SOL     OW28795   3.056   1.861   3.868
 9299SOL    HW128796   2.969   1.905   3.890
 9299SOL    HW228797   3.066   1.778   3.923
 9300SOL     OW28798   2.526   5.561   5.630
 9300SOL    HW128799   2.494   5.468   5.649
 9300SOL    HW228800   2.603   5.557   5.567
 9301SOL     OW28801   1.166   4.052   4.346
 9301SOL    HW128802   1.067   4.049   4.338
 9301SOL    HW228803   1.203   4.119   4.281
 9302SOL     OW28804   3.174   5.521   4.010
 9302SOL    HW128805   3.143   5.472   4.091
 9302SOL    HW228806   3.271   5.543   4.019
 9303SOL     OW28807   2.520   4.494   6.838
 9303SOL    HW128808   2.576   4.571   6.871
 9303SOL    HW228809   2.538   4.479   6.741
 9304SOL     OW28810   5.495   5.719   6.509
 9304SOL    HW128811   5.402   5.687   6.492
 9304SOL    HW228812   5.533   5.671   6.588
 9305SOL     OW28813   1.816   1.572   1.017
 9305SOL    HW128814   1.766   1.656   0.995
 9305SOL    HW228815   1.896   1.566   0.957
 9306SOL     OW28816   6.919   6.401   4.606
 9306SOL    HW128817   6.969   6.353   4.678
 9306SOL    HW228818   6.828   6.426   4.639
 9307SOL     OW28819   2.388   3.838   1.172
 9307SOL    HW128820   2.335   3.793   1.101
 9307SOL    HW228821   2.366   3.936   1.173
 9308SOL     OW28822   2.377   3.516   1.300
 9308SOL    HW128823   2.425   3.553   1.220
 9308SOL    HW228824   2.287   3.560   1.307
 9309SOL     OW28825   4.771   4.968   5.926
 9309SOL    HW128826   4.790   5.056   5.970
 9309SOL    HW228827   4.827   4.958   5.844
 9310SOL     OW28828   6.309   6.149   5.507
 9310SOL    HW128829   6.269   6.062   5.476
 9310SOL    HW228830   6.327   6.144   5.606
 9311SOL     OW28831   5.852   4.254   0.726
 9311SOL    HW128832   5.859   4.157   0.702
 9311SOL    HW228833   5.779   4.296   0.671
 9312SOL     OW28834   5.774   3.026   4.665
 9312SOL    HW128835   5.870   3.024   4.640
 9312SOL    HW228836   5.765   3.041   4.764
 9313SOL     OW28837   0.559   0.702   2.271
 9313SOL    HW128838   0.584   0.700   2.368
 9313SOL    HW228839   0.571   0.794   2.235
 9314SOL     OW28840   5.199   5.263   1.163
 9314SOL    HW128841   5.129   5.329   1.189
 9314SOL    HW228842   5.157   5.175   1.142
 9315SOL     OW28843   6.173   5.321   5.771
 9315SOL    HW128844   6.109   5.350   5.842
 9315SOL    HW228845   6.136   5.347   5.681
 9316SOL     OW28846   5.511   6.975   0.897
 9316SOL    HW128847   5.504   6.883   0.935
 9316SOL    HW228848   5.526   6.970   0.798
 9317SOL     OW28849   2.295   6.104   3.235
 9317SOL    HW128850   2.324   6.045   3.310
 9317SOL    HW228851   2.369   6.112   3.168
 9318SOL     OW28852   3.312   6.725   3.447
 9318SOL    HW128853   3.351   6.637   3.476
 9318SOL    HW228854   3.341   6.745   3.353
 9319SOL     OW28855   3.865   1.852   0.144
 9319SOL    HW128856   3.773   1.848   0.106
 9319SOL    HW228857   3.905   1.942   0.124
 9320SOL     OW28858   6.813   6.540   6.731
 9320SOL    HW128859   6.714   6.550   6.743
 9320SOL    HW228860   6.858   6.626   6.755
 9321SOL     OW28861   0.496   2.861   3.952
 9321SOL    HW128862   0.588   2.898   3.963
 9321SOL    HW228863   0.499   2.782   3.890
 9322SOL     OW28864   4.650   2.700   0.120
 9322SOL    HW128865   4.731   2.700   0.060
 9322SOL    HW228866   4.623   2.795   0.139
 9323SOL     OW28867   0.683   2.175   5.365
 9323SOL    HW128868   0.686   2.083   5.327
 9323SOL    HW228869   0.772   2.198   5.404
 9324SOL     OW28870   0.769   4.695   1.323
 9324SOL    HW128871   0.831   4.689   1.244
 9324SOL    HW228872   0.704   4.769   1.308
 9325SOL     OW28873   1.097   4.981   3.332
 9325SOL    HW128874   1.032   5.031   3.275
 9325SOL    HW228875   1.166   5.044   3.369
 9326SOL     OW28876   5.011   4.397   1.232
 9326SOL    HW128877   4.933   4.408   1.171
 9326SOL    HW228878   5.002   4.461   1.309
 9327SOL     OW28879   2.270   1.601   2.959
 9327SOL    HW128880   2.268   1.579   3.056
 9327SOL    HW228881   2.298   1.521   2.907
 9328SOL     OW28882   1.435   0.016   3.186
 9328SOL    HW128883   1.390   6.987   3.111
 9328SOL    HW228884   1.531   7.009   3.190
 9329SOL     OW28885   1.632   5.156   6.297
 9329SOL    HW128886   1.644   5.105   6.382
 9329SOL    HW228887   1.637   5.254   6.316
 9330SOL     OW28888   0.455   6.700   0.949
 9330SOL    HW128889   0.511   6.628   0.907
 9330SOL    HW228890   0.446   6.777   0.886
 9331SOL     OW28891   2.177   4.863   4.407
 9331SOL    HW128892   2.134   4.866   4.497
 9331SOL    HW228893   2.109   4.835   4.339
 9332SOL     OW28894   6.809   5.117   0.529
 9332SOL    HW128895   6.743   5.066   0.584
 9332SOL    HW228896   6.762   5.169   0.458
 9333SOL     OW28897   2.260   4.806   1.202
 9333SOL    HW128898   2.298   4.755   1.125
 9333SOL    HW228899   2.270   4.751   1.286
 9334SOL     OW28900   0.052   5.450   6.831
 9334SOL    HW128901   0.058   5.354   6.802
 9334SOL    HW228902   0.022   5.506   6.754
 9335SOL     OW28903   0.178   3.274   1.081
 9335SOL    HW128904   0.204   3.177   1.084
 9335SOL    HW228905   0.207   3.319   1.166
 9336SOL     OW28906   4.430   5.736   5.547
 9336SOL    HW128907   4.504   5.800   5.565
 9336SOL    HW228908   4.354   5.784   5.503
 9337SOL     OW28909   2.808   1.790   5.258
 9337SOL    HW128910   2.711   1.786   5.283
 9337SOL    HW228911   2.855   1.854   5.319
 9338SOL     OW28912   5.088   6.462   1.049
 9338SOL    HW128913   5.078   6.371   1.008
 9338SOL    HW228914   5.004   6.485   1.099
 9339SOL     OW28915   6.821   3.442   5.218
 9339SOL    HW128916   6.817   3.536   5.251
 9339SOL    HW228917   6.729   3.401   5.225
 9340SOL     OW28918   2.644   4.884   2.441
 9340SOL    HW128919   2.640   4.821   2.519
 9340SOL    HW228920   2.722   4.945   2.450
 9341SOL     OW28921   5.793   5.563   0.361
 9341SOL    HW128922   5.858   5.636   0.345
 9341SOL    HW228923   5.783   5.508   0.278
 9342SOL     OW28924   3.266   0.345   5.238
 9342SOL    HW128925   3.290   0.384   5.327
 9342SOL    HW228926   3.272   0.246   5.243
 9343SOL     OW28927   5.180   3.545   1.410
 9343SOL    HW128928   5.209   3.639   1.397
 9343SOL    HW228929   5.113   3.540   1.485
 9344SOL     OW28930   5.616   6.899   4.872
 9344SOL    HW128931   5.544   6.866   4.811
 9344SOL    HW228932   5.601   6.995   4.893
 9345SOL     OW28933   6.881   4.787   6.520
 9345SOL    HW128934   6.965   4.743   6.553
 9345SOL    HW228935   6.835   4.726   6.455
 9346SOL     OW28936   5.498   0.193   2.232
 9346SOL    HW128937   5.486   0.278   2.284
 9346SOL    HW228938   5.527   0.216   2.139
 9347SOL     OW28939   4.805   6.393   1.982
 9347SOL    HW128940   4.756   6.341   1.912
 9347SOL    HW228941   4.803   6.490   1.959
 9348SOL     OW28942   2.523   5.048   2.023
 9348SOL    HW128943   2.509   4.996   1.938
 9348SOL    HW228944   2.589   5.121   2.007
 9349SOL     OW28945   6.174   5.905   0.761
 9349SOL    HW128946   6.212   5.985   0.714
 9349SOL    HW228947   6.160   5.831   0.696
 9350SOL     OW28948   6.317   0.225   0.256
 9350SOL    HW128949   6.219   0.240   0.260
 9350SOL    HW228950   6.353   0.213   0.348
 9351SOL     OW28951   4.618   3.792   6.281
 9351SOL    HW128952   4.555   3.852   6.232
 9351SOL    HW228953   4.697   3.772   6.224
 9352SOL     OW28954   2.068   1.906   6.901
 9352SOL    HW128955   2.021   1.971   6.961
 9352SOL    HW228956   2.078   1.946   6.810
 9353SOL     OW28957   1.179   3.225   1.877
 9353SOL    HW128958   1.094   3.262   1.838
 9353SOL    HW228959   1.177   3.235   1.976
 9354SOL     OW28960   5.455   2.045   2.522
 9354SOL    HW128961   5.536   2.031   2.579
 9354SOL    HW228962   5.376   2.068   2.580
 9355SOL     OW28963   0.284   1.857   2.322
 9355SOL    HW128964   0.315   1.762   2.320
 9355SOL    HW228965   0.223   1.874   2.245
 9356SOL     OW28966   5.272   2.770   2.628
 9356SOL    HW128967   5.215   2.830   2.684
 9356SOL    HW228968   5.310   2.821   2.551
 9357SOL     OW28969   2.234   4.766   0.169
 9357SOL    HW128970   2.279   4.778   0.081
 9357SOL    HW228971   2.200   4.673   0.177
 9358SOL     OW28972   5.184   3.569   2.604
 9358SOL    HW128973   5.137   3.624   2.534
 9358SOL    HW228974   5.275   3.543   2.571
 9359SOL     OW28975   4.862   5.627   6.025
 9359SOL    HW128976   4.884   5.682   6.106
 9359SOL    HW228977   4.944   5.579   5.994
 9360SOL     OW28978   1.525   0.611   4.814
 9360SOL    HW128979   1.521   0.698   4.764
 9360SOL    HW228980   1.594   0.552   4.773
 9361SOL     OW28981   2.202   1.281   2.584
 9361SOL    HW128982   2.174   1.376   2.601
 9361SOL    HW228983   2.213   1.267   2.486
 9362SOL     OW28984   2.228   1.819   2.737
 9362SOL    HW128985   2.229   1.735   2.793
 9362SOL    HW228986   2.301   1.814   2.669
 9363SOL     OW28987   1.547   6.354   2.224
 9363SOL    HW128988   1.522   6.432   2.281
 9363SOL    HW228989   1.539   6.269   2.277
 9364SOL     OW28990   5.600   4.334   1.145
 9364SOL    HW128991   5.526   4.283   1.100
 9364SOL    HW228992   5.684   4.280   1.142
 9365SOL     OW28993   2.114   1.061   4.226
 9365SOL    HW128994   2.118   1.052   4.127
 9365SOL    HW228995   2.177   1.131   4.257
 9366SOL     OW28996   3.122   1.748   2.186
 9366SOL    HW128997   3.153   1.702   2.269
 9366SOL    HW228998   3.064   1.686   2.133
 9367SOL     OW28999   6.317   6.446   4.274
 9367SOL    HW129000   6.274   6.403   4.194
 9367SOL    HW229001   6.254   6.513   4.313
 9368SOL     OW29002   4.826   2.989   0.731
 9368SOL    HW129003   4.883   3.040   0.666
 9368SOL    HW229004   4.807   3.047   0.811
 9369SOL     OW29005   0.519   2.091   5.084
 9369SOL    HW129006   0.554   2.078   4.991
 9369SOL    HW229007   0.567   2.167   5.127
 9370SOL     OW29008   5.647   5.436   3.050
 9370SOL    HW129009   5.742   5.459   3.029
 9370SOL    HW229010   5.622   5.351   3.002
 9371SOL     OW29011   0.836   6.908   0.438
 9371SOL    HW129012   0.931   6.899   0.468
 9371SOL    HW229013   0.781   6.944   0.513
 9372SOL     OW29014   5.657   6.366   0.182
 9372SOL    HW129015   5.618   6.323   0.101
 9372SOL    HW229016   5.594   6.435   0.216
 9373SOL     OW29017   5.669   2.327   4.458
 9373SOL    HW129018   5.618   2.378   4.388
 9373SOL    HW229019   5.750   2.379   4.485
 9374SOL     OW29020   4.779   4.135   0.303
 9374SOL    HW129021   4.774   4.214   0.364
 9374SOL    HW229022   4.860   4.142   0.245
 9375SOL     OW29023   6.645   1.243   4.341
 9375SOL    HW129024   6.588   1.323   4.322
 9375SOL    HW229025   6.687   1.253   4.431
 9376SOL     OW29026   2.275   2.819   1.549
 9376SOL    HW129027   2.197   2.769   1.513
 9376SOL    HW229028   2.337   2.843   1.475
 9377SOL     OW29029   5.910   4.763   2.709
 9377SOL    HW129030   5.879   4.768   2.804
 9377SOL    HW229031   5.846   4.706   2.656
 9378SOL     OW29032   3.327   6.485   1.022
 9378SOL    HW129033   3.269   6.531   0.955
 9378SOL    HW229034   3.393   6.551   1.059
 9379SOL     OW29035   5.444   4.695   5.446
 9379SOL    HW129036   5.431   4.635   5.367
 9379SOL    HW229037   5.476   4.642   5.524
 9380SOL     OW29038   6.373   5.716   5.770
 9380SOL    HW129039   6.399   5.808   5.739
 9380SOL    HW229040   6.419   5.648   5.713
 9381SOL     OW29041   1.145   0.595   0.219
 9381SOL    HW129042   1.159   0.650   0.302
 9381SOL    HW229043   1.155   0.654   0.139
 9382SOL     OW29044   5.293   2.037   2.935
 9382SOL    HW129045   5.213   2.070   2.885
 9382SOL    HW229046   5.369   2.101   2.922
 9383SOL     OW29047   6.656   5.584   6.126
 9383SOL    HW129048   6.565   5.561   6.090
 9383SOL    HW229049   6.656   5.678   6.161
 9384SOL     OW29050   3.931   6.491   2.929
 9384SOL    HW129051   3.861   6.451   2.988
 9384SOL    HW229052   3.920   6.590   2.927
 9385SOL     OW29053   3.958   0.933   4.237
 9385SOL    HW129054   3.957   0.953   4.335
 9385SOL    HW229055   3.935   1.015   4.185
 9386SOL     OW29056   4.216   0.212   5.536
 9386SOL    HW129057   4.153   0.170   5.470
 9386SOL    HW229058   4.184   0.194   5.629
 9387SOL     OW29059   4.052   5.970   0.848
 9387SOL    HW129060   4.048   5.915   0.765
 9387SOL    HW229061   3.978   5.944   0.910
 9388SOL     OW29062   6.494   6.690   2.229
 9388SOL    HW129063   6.552   6.751   2.283
 9388SOL    HW229064   6.409   6.738   2.205
 9389SOL     OW29065   3.416   1.721   6.897
 9389SOL    HW129066   3.496   1.664   6.914
 9389SOL    HW229067   3.393   1.718   6.799
 9390SOL     OW29068   3.119   5.487   1.308
 9390SOL    HW129069   3.200   5.483   1.249
 9390SOL    HW229070   3.037   5.500   1.252
 9391SOL     OW29071   6.731   1.333   5.294
 9391SOL    HW129072   6.815   1.289   5.261
 9391SOL    HW229073   6.734   1.431   5.273
 9392SOL     OW29074   1.074   6.843   4.641
 9392SOL    HW129075   0.998   6.899   4.606
 9392SOL    HW229076   1.121   6.893   4.714
 9393SOL     OW29077   4.125   1.696   5.205
 9393SOL    HW129078   4.222   1.715   5.189
 9393SOL    HW229079   4.073   1.715   5.121
 9394SOL     OW29080   6.002   2.244   1.829
 9394SOL    HW129081   6.024   2.341   1.817
 9394SOL    HW229082   5.910   2.236   1.868
 9395SOL     OW29083   2.122   2.838   5.948
 9395SOL    HW129084   2.049   2.791   5.899
 9395SOL    HW229085   2.103   2.936   5.950
 9396SOL     OW29086   6.999   0.965   6.002
 9396SOL    HW129087   6.947   1.026   6.062
 9396SOL    HW229088   0.052   0.922   6.055
 9397SOL     OW29089   2.610   2.142   1.052
 9397SOL    HW129090   2.640   2.235   1.033
 9397SOL    HW229091   2.530   2.144   1.112
 9398SOL     OW29092   2.469   1.589   0.951
 9398SOL    HW129093   2.395   1.646   0.988
 9398SOL    HW229094   2.499   1.627   0.864
 9399SOL     OW29095   6.894   0.483   5.819
 9399SOL    HW129096   6.904   0.575   5.780
 9399SOL    HW229097   6.867   0.419   5.747
 9400SOL     OW29098   3.989   1.770   3.657
 9400SOL    HW129099   4.042   1.685   3.658
 9400SOL    HW229100   3.921   1.766   3.584
 9401SOL     OW29101   4.444   6.532   3.966
 9401SOL    HW129102   4.404   6.471   4.033
 9401SOL    HW229103   4.530   6.569   4.002
 9402SOL     OW29104   2.413   5.322   0.216
 9402SOL    HW129105   2.455   5.236   0.243
 9402SOL    HW229106   2.403   5.381   0.297
 9403SOL     OW29107   5.479   0.256   4.550
 9403SOL    HW129108   5.486   0.270   4.452
 9403SOL    HW229109   5.460   0.159   4.569
 9404SOL     OW29110   1.047   3.878   5.659
 9404SOL    HW129111   1.095   3.875   5.747
 9404SOL    HW229112   0.980   3.804   5.656
 9405SOL     OW29113   0.301   0.432   0.863
 9405SOL    HW129114   0.371   0.361   0.860
 9405SOL    HW229115   0.345   0.522   0.869
 9406SOL     OW29116   6.965   1.209   5.196
 9406SOL    HW129117   0.044   1.205   5.210
 9406SOL    HW229118   6.946   1.216   5.098
 9407SOL     OW29119   4.135   5.676   3.233
 9407SOL    HW129120   4.071   5.603   3.258
 9407SOL    HW229121   4.087   5.743   3.177
 9408SOL     OW29122   4.321   1.919   0.493
 9408SOL    HW129123   4.409   1.923   0.446
 9408SOL    HW229124   4.260   1.856   0.444
 9409SOL     OW29125   6.002   3.683   3.720
 9409SOL    HW129126   5.920   3.703   3.774
 9409SOL    HW229127   6.041   3.595   3.748
 9410SOL     OW29128   4.386   6.701   1.832
 9410SOL    HW129129   4.358   6.759   1.909
 9410SOL    HW229130   4.334   6.616   1.834
 9411SOL     OW29131   4.519   5.480   1.640
 9411SOL    HW129132   4.471   5.396   1.666
 9411SOL    HW229133   4.519   5.544   1.717
 9412SOL     OW29134   5.963   3.094   3.164
 9412SOL    HW129135   5.972   3.006   3.117
 9412SOL    HW229136   5.868   3.123   3.159
 9413SOL     OW29137   3.452   5.300   4.009
 9413SOL    HW129138   3.453   5.399   3.991
 9413SOL    HW229139   3.408   5.253   3.933
 9414SOL     OW29140   2.332   0.957   2.287
 9414SOL    HW129141   2.320   0.966   2.188
 9414SOL    HW229142   2.423   0.921   2.307
 9415SOL     OW29143   2.291   1.319   2.332
 9415SOL    HW129144   2.390   1.305   2.329
 9415SOL    HW229145   2.262   1.367   2.249
 9416SOL     OW29146   1.669   2.313   1.372
 9416SOL    HW129147   1.587   2.344   1.420
 9416SOL    HW229148   1.750   2.339   1.424
 9417SOL     OW29149   1.898   0.058   4.811
 9417SOL    HW129150   1.910   7.017   4.889
 9417SOL    HW229151   1.987   0.092   4.781
 9418SOL     OW29152   4.574   4.085   1.580
 9418SOL    HW129153   4.577   4.068   1.482
 9418SOL    HW229154   4.502   4.152   1.600
 9419SOL     OW29155   3.299   5.389   4.471
 9419SOL    HW129156   3.323   5.365   4.565
 9419SOL    HW229157   3.353   5.334   4.407
 9420SOL     OW29158   1.555   1.319   4.449
 9420SOL    HW129159   1.537   1.409   4.488
 9420SOL    HW229160   1.642   1.319   4.401
 9421SOL     OW29161   1.768   5.510   4.096
 9421SOL    HW129162   1.833   5.464   4.035
 9421SOL    HW229163   1.773   5.469   4.187
 9422SOL     OW29164   4.212   1.533   2.901
 9422SOL    HW129165   4.122   1.529   2.857
 9422SOL    HW229166   4.268   1.457   2.869
 9423SOL     OW29167   4.890   6.941   4.502
 9423SOL    HW129168   4.885   7.000   4.422
 9423SOL    HW229169   4.814   6.962   4.564
 9424SOL     OW29170   3.114   6.343   4.048
 9424SOL    HW129171   3.108   6.442   4.056
 9424SOL    HW229172   3.179   6.318   3.976
 9425SOL     OW29173   0.965   5.236   3.541
 9425SOL    HW129174   0.922   5.209   3.455
 9425SOL    HW229175   1.056   5.195   3.548
 9426SOL     OW29176   3.337   5.656   0.882
 9426SOL    HW129177   3.335   5.756   0.893
 9426SOL    HW229178   3.243   5.621   0.882
 9427SOL     OW29179   2.625   5.009   4.261
 9427SOL    HW129180   2.619   4.918   4.301
 9427SOL    HW229181   2.634   5.077   4.334
 9428SOL     OW29182   5.093   6.204   2.256
 9428SOL    HW129183   5.119   6.256   2.175
 9428SOL    HW229184   5.000   6.229   2.284
 9429SOL     OW29185   0.237   3.192   2.994
 9429SOL    HW129186   0.287   3.160   2.913
 9429SOL    HW229187   0.302   3.214   3.067
 9430SOL     OW29188   5.743   6.891   2.235
 9430SOL    HW129189   5.648   6.919   2.247
 9430SOL    HW229190   5.746   6.805   2.184
 9431SOL     OW29191   6.494   4.260   0.583
 9431SOL    HW129192   6.395   4.272   0.594
 9431SOL    HW229193   6.541   4.341   0.617
 9432SOL     OW29194   6.424   6.492   4.587
 9432SOL    HW129195   6.374   6.459   4.667
 9432SOL    HW229196   6.363   6.545   4.529
 9433SOL     OW29197   3.032   4.866   4.687
 9433SOL    HW129198   3.112   4.901   4.640
 9433SOL    HW229199   2.993   4.791   4.634
 9434SOL     OW29200   5.698   4.334   3.111
 9434SOL    HW129201   5.655   4.247   3.133
 9434SOL    HW229202   5.672   4.362   3.018
 9435SOL     OW29203   1.810   2.467   5.106
 9435SOL    HW129204   1.789   2.370   5.101
 9435SOL    HW229205   1.904   2.480   5.139
 9436SOL     OW29206   3.027   1.974   5.741
 9436SOL    HW129207   2.942   2.027   5.744
 9436SOL    HW229208   3.104   2.034   5.720
 9437SOL     OW29209   0.628   5.456   4.055
 9437SOL    HW129210   0.621   5.548   4.093
 9437SOL    HW229211   0.541   5.430   4.014
 9438SOL     OW29212   0.543   6.719   2.285
 9438SOL    HW129213   0.531   6.628   2.245
 9438SOL    HW229214   0.641   6.736   2.299
 9439SOL     OW29215   1.370   3.267   1.416
 9439SOL    HW129216   1.408   3.310   1.498
 9439SOL    HW229217   1.319   3.185   1.442
 9440SOL     OW29218   3.741   5.643   4.772
 9440SOL    HW129219   3.671   5.635   4.843
 9440SOL    HW229220   3.698   5.654   4.683
 9441SOL     OW29221   1.685   5.890   5.273
 9441SOL    HW129222   1.771   5.880   5.324
 9441SOL    HW229223   1.645   5.800   5.258
 9442SOL     OW29224   0.863   3.473   1.203
 9442SOL    HW129225   0.949   3.519   1.224
 9442SOL    HW229226   0.804   3.535   1.151
 9443SOL     OW29227   1.612   3.392   1.268
 9443SOL    HW129228   1.615   3.312   1.208
 9443SOL    HW229229   1.537   3.382   1.333
 9444SOL     OW29230   1.221   4.246   5.982
 9444SOL    HW129231   1.290   4.311   5.953
 9444SOL    HW229232   1.152   4.235   5.911
 9445SOL     OW29233   6.390   3.272   1.735
 9445SOL    HW129234   6.397   3.353   1.793
 9445SOL    HW229235   6.473   3.262   1.681
 9446SOL     OW29236   5.920   4.606   0.519
 9446SOL    HW129237   5.844   4.600   0.583
 9446SOL    HW229238   5.992   4.542   0.548
 9447SOL     OW29239   6.051   1.756   1.642
 9447SOL    HW129240   6.126   1.764   1.709
 9447SOL    HW229241   5.963   1.762   1.689
 9448SOL     OW29242   5.992   6.188   0.548
 9448SOL    HW129243   6.008   6.216   0.454
 9448SOL    HW229244   5.897   6.207   0.573
 9449SOL     OW29245   6.473   4.909   5.416
 9449SOL    HW129246   6.419   4.895   5.499
 9449SOL    HW229247   6.566   4.876   5.432
 9450SOL     OW29248   2.835   6.270   4.109
 9450SOL    HW129249   2.805   6.176   4.096
 9450SOL    HW229250   2.929   6.279   4.076
 9451SOL     OW29251   4.192   4.034   5.814
 9451SOL    HW129252   4.143   4.068   5.733
 9451SOL    HW229253   4.251   4.107   5.848
 9452SOL     OW29254   3.340   4.630   1.133
 9452SOL    HW129255   3.301   4.690   1.203
 9452SOL    HW229256   3.268   4.606   1.067
 9453SOL     OW29257   2.930   5.369   1.546
 9453SOL    HW129258   2.964   5.385   1.453
 9453SOL    HW229259   2.848   5.313   1.542
 9454SOL     OW29260   2.016   1.814   5.396
 9454SOL    HW129261   1.997   1.900   5.348
 9454SOL    HW229262   1.931   1.775   5.430
 9455SOL     OW29263   2.030   2.095   2.391
 9455SOL    HW129264   2.048   1.998   2.376
 9455SOL    HW229265   2.094   2.131   2.460
 9456SOL     OW29266   0.998   3.641   0.665
 9456SOL    HW129267   0.903   3.636   0.632
 9456SOL    HW229268   1.049   3.706   0.610
 9457SOL     OW29269   6.749   3.694   0.102
 9457SOL    HW129270   6.744   3.781   0.150
 9457SOL    HW229271   6.664   3.643   0.115
 9458SOL     OW29272   0.933   5.751   4.658
 9458SOL    HW129273   0.923   5.850   4.642
 9458SOL    HW229274   0.949   5.705   4.571
 9459SOL     OW29275   4.181   6.465   1.835
 9459SOL    HW129276   4.149   6.420   1.751
 9459SOL    HW229277   4.211   6.395   1.901
 9460SOL     OW29278   1.180   2.569   5.775
 9460SOL    HW129279   1.113   2.642   5.761
 9460SOL    HW229280   1.235   2.558   5.693
 9461SOL     OW29281   1.843   0.580   2.664
 9461SOL    HW129282   1.754   0.591   2.619
 9461SOL    HW229283   1.905   0.651   2.632
 9462SOL     OW29284   0.140   2.939   3.197
 9462SOL    HW129285   0.160   2.892   3.111
 9462SOL    HW229286   0.109   3.032   3.178
 9463SOL     OW29287   5.417   1.798   6.550
 9463SOL    HW129288   5.469   1.713   6.555
 9463SOL    HW229289   5.462   1.861   6.488
 9464SOL     OW29290   4.283   6.776   6.004
 9464SOL    HW129291   4.296   6.682   6.036
 9464SOL    HW229292   4.268   6.777   5.905
 9465SOL     OW29293   5.343   6.580   4.203
 9465SOL    HW129294   5.297   6.516   4.265
 9465SOL    HW229295   5.319   6.674   4.228
 9466SOL     OW29296   2.651   1.418   0.048
 9466SOL    HW129297   2.557   1.438   0.019
 9466SOL    HW229298   2.715   1.451   6.998
 9467SOL     OW29299   2.036   3.276   2.058
 9467SOL    HW129300   2.107   3.334   2.018
 9467SOL    HW229301   2.017   3.308   2.151
 9468SOL     OW29302   0.453   2.582   6.705
 9468SOL    HW129303   0.503   2.666   6.683
 9468SOL    HW229304   0.472   2.513   6.635
 9469SOL     OW29305   6.838   4.108   2.706
 9469SOL    HW129306   6.905   4.094   2.779
 9469SOL    HW229307   6.795   4.020   2.684
 9470SOL     OW29308   6.166   3.380   1.564
 9470SOL    HW129309   6.255   3.344   1.593
 9470SOL    HW229310   6.142   3.342   1.475
 9471SOL     OW29311   0.227   2.869   6.348
 9471SOL    HW129312   0.205   2.782   6.392
 9471SOL    HW229313   0.242   2.939   6.418
 9472SOL     OW29314   6.655   2.432   4.572
 9472SOL    HW129315   6.622   2.500   4.637
 9472SOL    HW229316   6.585   2.361   4.560
 9473SOL     OW29317   3.494   5.571   4.887
 9473SOL    HW129318   3.458   5.484   4.853
 9473SOL    HW229319   3.516   5.563   4.984
 9474SOL     OW29320   3.469   5.557   3.569
 9474SOL    HW129321   3.396   5.517   3.513
 9474SOL    HW229322   3.552   5.566   3.514
 9475SOL     OW29323   1.818   3.471   1.450
 9475SOL    HW129324   1.795   3.553   1.503
 9475SOL    HW229325   1.735   3.434   1.408
 9476SOL     OW29326   3.075   3.229   5.781
 9476SOL    HW129327   3.000   3.231   5.847
 9476SOL    HW229328   3.082   3.318   5.737
 9477SOL     OW29329   0.239   2.260   0.800
 9477SOL    HW129330   0.333   2.289   0.818
 9477SOL    HW229331   0.177   2.334   0.821
 9478SOL     OW29332   5.031   3.752   5.488
 9478SOL    HW129333   5.059   3.831   5.434
 9478SOL    HW229334   5.111   3.694   5.505
 9479SOL     OW29335   6.422   5.546   4.853
 9479SOL    HW129336   6.471   5.617   4.803
 9479SOL    HW229337   6.481   5.507   4.923
 9480SOL     OW29338   5.659   3.745   6.153
 9480SOL    HW129339   5.719   3.732   6.232
 9480SOL    HW229340   5.594   3.819   6.173
 9481SOL     OW29341   6.804   3.422   2.404
 9481SOL    HW129342   6.875   3.487   2.433
 9481SOL    HW229343   6.716   3.468   2.400
 9482SOL     OW29344   4.321   0.040   2.637
 9482SOL    HW129345   4.371   0.117   2.677
 9482SOL    HW229346   4.348   6.975   2.681
 9483SOL     OW29347   1.804   1.809   0.595
 9483SOL    HW129348   1.861   1.826   0.514
 9483SOL    HW229349   1.792   1.894   0.645
 9484SOL     OW29350   5.870   0.785   2.667
 9484SOL    HW129351   5.841   0.726   2.742
 9484SOL    HW229352   5.820   0.761   2.584
 9485SOL     OW29353   1.023   0.014   2.871
 9485SOL    HW129354   1.092   6.996   2.808
 9485SOL    HW229355   1.002   0.107   2.844
 9486SOL     OW29356   2.825   6.158   2.407
 9486SOL    HW129357   2.881   6.088   2.362
 9486SOL    HW229358   2.729   6.130   2.405
 9487SOL     OW29359   2.911   3.573   3.226
 9487SOL    HW129360   2.963   3.659   3.220
 9487SOL    HW229361   2.922   3.522   3.141
 9488SOL     OW29362   1.114   1.488   1.445
 9488SOL    HW129363   1.078   1.578   1.421
 9488SOL    HW229364   1.039   1.422   1.448
 9489SOL     OW29365   3.139   4.170   0.871
 9489SOL    HW129366   3.183   4.235   0.810
 9489SOL    HW229367   3.124   4.083   0.823
 9490SOL     OW29368   5.403   1.670   0.064
 9490SOL    HW129369   5.409   1.762   0.102
 9490SOL    HW229370   5.374   1.674   6.989
 9491SOL     OW29371   0.059   4.848   5.128
 9491SOL    HW129372   0.032   4.845   5.224
 9491SOL    HW229373   0.124   4.922   5.114
 9492SOL     OW29374   2.840   4.377   1.385
 9492SOL    HW129375   2.892   4.348   1.305
 9492SOL    HW229376   2.799   4.467   1.367
 9493SOL     OW29377   5.574   6.323   2.359
 9493SOL    HW129378   5.488   6.274   2.341
 9493SOL    HW229379   5.606   6.367   2.275
 9494SOL     OW29380   3.197   3.046   5.997
 9494SOL    HW129381   3.244   3.090   5.922
 9494SOL    HW229382   3.258   3.038   6.076
 9495SOL     OW29383   5.704   1.849   4.750
 9495SOL    HW129384   5.708   1.802   4.662
 9495SOL    HW229385   5.629   1.813   4.804
 9496SOL     OW29386   5.945   3.684   0.008
 9496SOL    HW129387   5.892   3.622   0.065
 9496SOL    HW229388   5.956   3.644   6.937
 9497SOL     OW29389   0.830   6.099   6.228
 9497SOL    HW129390   0.864   6.044   6.304
 9497SOL    HW229391   0.746   6.059   6.193
 9498SOL     OW29392   3.666   0.789   6.660
 9498SOL    HW129393   3.694   0.702   6.618
 9498SOL    HW229394   3.616   0.770   6.745
 9499SOL     OW29395   4.359   4.615   6.411
 9499SOL    HW129396   4.312   4.612   6.499
 9499SOL    HW229397   4.435   4.551   6.411
 9500SOL     OW29398   5.410   5.537   1.747
 9500SOL    HW129399   5.482   5.467   1.741
 9500SOL    HW229400   5.356   5.523   1.830
 9501SOL     OW29401   3.274   1.785   5.003
 9501SOL    HW129402   3.236   1.706   4.954
 9501SOL    HW229403   3.223   1.867   4.977
 9502SOL     OW29404   4.113   2.993   5.553
 9502SOL    HW129405   4.069   2.908   5.583
 9502SOL    HW229406   4.077   3.021   5.464
 9503SOL     OW29407   1.589   6.924   1.171
 9503SOL    HW129408   1.561   6.842   1.221
 9503SOL    HW229409   1.655   6.899   1.100
 9504SOL     OW29410   0.842   3.134   0.004
 9504SOL    HW129411   0.860   3.168   6.932
 9504SOL    HW229412   0.823   3.036   7.020
 9505SOL     OW29413   4.948   3.282   3.411
 9505SOL    HW129414   4.965   3.374   3.446
 9505SOL    HW229415   4.914   3.224   3.485
 9506SOL     OW29416   0.056   2.466   0.858
 9506SOL    HW129417   6.990   2.415   0.869
 9506SOL    HW229418   0.081   2.509   0.945
 9507SOL     OW29419   1.502   1.918   4.497
 9507SOL    HW129420   1.466   1.994   4.443
 9507SOL    HW229421   1.548   1.954   4.578
 9508SOL     OW29422   4.783   1.484   6.326
 9508SOL    HW129423   4.773   1.399   6.274
 9508SOL    HW229424   4.857   1.539   6.287
 9509SOL     OW29425   2.864   6.558   5.910
 9509SOL    HW129426   2.871   6.629   5.979
 9509SOL    HW229427   2.954   6.543   5.869
 9510SOL     OW29428   6.857   4.150   3.147
 9510SOL    HW129429   6.857   4.052   3.167
 9510SOL    HW229430   6.885   4.201   3.228
 9511SOL     OW29431   1.902   1.363   1.446
 9511SOL    HW129432   1.912   1.450   1.398
 9511SOL    HW229433   1.884   1.291   1.379
 9512SOL     OW29434   1.619   3.149   5.079
 9512SOL    HW129435   1.671   3.169   4.995
 9512SOL    HW229436   1.662   3.073   5.128
 9513SOL     OW29437   2.193   4.583   4.178
 9513SOL    HW129438   2.216   4.545   4.268
 9513SOL    HW229439   2.183   4.508   4.112
 9514SOL     OW29440   2.836   2.703   6.071
 9514SOL    HW129441   2.754   2.653   6.096
 9514SOL    HW229442   2.812   2.781   6.013
 9515SOL     OW29443   2.440   5.300   5.720
 9515SOL    HW129444   2.388   5.229   5.673
 9515SOL    HW229445   2.510   5.257   5.777
 9516SOL     OW29446   5.486   4.086   5.629
 9516SOL    HW129447   5.460   4.061   5.536
 9516SOL    HW229448   5.428   4.161   5.661
 9517SOL     OW29449   0.816   5.878   1.925
 9517SOL    HW129450   0.762   5.932   1.860
 9517SOL    HW229451   0.908   5.915   1.931
 9518SOL     OW29452   0.739   3.126   5.174
 9518SOL    HW129453   0.667   3.119   5.105
 9518SOL    HW229454   0.770   3.034   5.199
 9519SOL     OW29455   3.337   2.927   3.462
 9519SOL    HW129456   3.256   2.967   3.419
 9519SOL    HW229457   3.313   2.888   3.550
 9520SOL     OW29458   5.195   0.239   6.225
 9520SOL    HW129459   5.098   0.219   6.238
 9520SOL    HW229460   5.229   0.289   6.304
 9521SOL     OW29461   3.439   1.223   1.520
 9521SOL    HW129462   3.343   1.214   1.547
 9521SOL    HW229463   3.497   1.181   1.590
 9522SOL     OW29464   3.525   6.140   1.592
 9522SOL    HW129465   3.536   6.044   1.616
 9522SOL    HW229466   3.459   6.149   1.518
 9523SOL     OW29467   2.500   4.777   4.059
 9523SOL    HW129468   2.551   4.855   4.021
 9523SOL    HW229469   2.482   4.710   3.986
 9524SOL     OW29470   2.178   3.875   0.364
 9524SOL    HW129471   2.147   3.969   0.375
 9524SOL    HW229472   2.152   3.842   0.273
 9525SOL     OW29473   2.405   2.971   5.431
 9525SOL    HW129474   2.452   2.938   5.349
 9525SOL    HW229475   2.429   3.067   5.447
 9526SOL     OW29476   5.322   5.558   6.854
 9526SOL    HW129477   5.260   5.612   6.798
 9526SOL    HW229478   5.326   5.597   6.946
 9527SOL     OW29479   4.062   6.904   4.922
 9527SOL    HW129480   4.129   6.971   4.955
 9527SOL    HW229481   4.078   6.816   4.966
 9528SOL     OW29482   5.149   2.409   0.559
 9528SOL    HW129483   5.161   2.352   0.478
 9528SOL    HW229484   5.215   2.381   0.629
 9529SOL     OW29485   5.516   0.921   2.045
 9529SOL    HW129486   5.492   0.905   1.949
 9529SOL    HW229487   5.562   1.010   2.053
 9530SOL     OW29488   1.090   5.510   3.415
 9530SOL    HW129489   1.073   5.569   3.494
 9530SOL    HW229490   1.099   5.415   3.446
 9531SOL     OW29491   3.324   5.380   2.350
 9531SOL    HW129492   3.361   5.287   2.338
 9531SOL    HW229493   3.225   5.377   2.346
 9532SOL     OW29494   6.272   5.075   3.909
 9532SOL    HW129495   6.300   5.170   3.914
 9532SOL    HW229496   6.196   5.059   3.972
 9533SOL     OW29497   1.981   4.229   3.101
 9533SOL    HW129498   1.937   4.203   3.015
 9533SOL    HW229499   1.915   4.274   3.161
 9534SOL     OW29500   5.215   5.137   4.671
 9534SOL    HW129501   5.227   5.179   4.760
 9534SOL    HW229502   5.206   5.038   4.682
 9535SOL     OW29503   6.978   1.611   3.976
 9535SOL    HW129504   0.010   1.659   3.906
 9535SOL    HW229505   6.932   1.677   4.035
 9536SOL     OW29506   3.254   3.738   4.519
 9536SOL    HW129507   3.309   3.808   4.564
 9536SOL    HW229508   3.254   3.754   4.420
 9537SOL     OW29509   6.523   1.459   4.262
 9537SOL    HW129510   6.467   1.456   4.178
 9537SOL    HW229511   6.596   1.526   4.251
 9538SOL     OW29512   5.165   6.857   4.851
 9538SOL    HW129513   5.067   6.874   4.845
 9538SOL    HW229514   5.206   6.917   4.919
 9539SOL     OW29515   3.320   3.834   2.295
 9539SOL    HW129516   3.278   3.745   2.312
 9539SOL    HW229517   3.418   3.829   2.316
 9540SOL     OW29518   4.488   4.889   3.384
 9540SOL    HW129519   4.574   4.846   3.359
 9540SOL    HW229520   4.416   4.819   3.392
 9541SOL     OW29521   2.024   5.225   5.214
 9541SOL    HW129522   2.051   5.134   5.246
 9541SOL    HW229523   2.095   5.262   5.154
 9542SOL     OW29524   6.053   4.364   3.627
 9542SOL    HW129525   6.108   4.420   3.565
 9542SOL    HW229526   6.051   4.407   3.718
 9543SOL     OW29527   2.388   0.263   5.909
 9543SOL    HW129528   2.397   0.174   5.954
 9543SOL    HW229529   2.378   0.335   5.977
 9544SOL     OW29530   5.802   3.396   4.942
 9544SOL    HW129531   5.878   3.335   4.922
 9544SOL    HW229532   5.834   3.471   5.000
 9545SOL     OW29533   6.545   4.685   1.859
 9545SOL    HW129534   6.501   4.597   1.839
 9545SOL    HW229535   6.524   4.750   1.787
 9546SOL     OW29536   2.726   2.877   1.354
 9546SOL    HW129537   2.684   2.808   1.413
 9546SOL    HW229538   2.663   2.954   1.342
 9547SOL     OW29539   4.351   0.071   3.484
 9547SOL    HW129540   4.436   0.111   3.449
 9547SOL    HW229541   4.278   0.139   3.479
 9548SOL     OW29542   1.405   4.974   6.283
 9548SOL    HW129543   1.312   4.980   6.247
 9548SOL    HW229544   1.459   5.051   6.249
 9549SOL     OW29545   4.638   2.077   1.188
 9549SOL    HW129546   4.692   2.014   1.133
 9549SOL    HW229547   4.640   2.049   1.284
 9550SOL     OW29548   6.157   3.146   1.815
 9550SOL    HW129549   6.083   3.205   1.781
 9550SOL    HW229550   6.245   3.180   1.781
 9551SOL     OW29551   5.922   2.940   6.533
 9551SOL    HW129552   5.838   2.888   6.516
 9551SOL    HW229553   6.001   2.886   6.503
 9552SOL     OW29554   3.244   1.428   0.780
 9552SOL    HW129555   3.204   1.337   0.768
 9552SOL    HW229556   3.208   1.490   0.710
 9553SOL     OW29557   5.617   1.189   6.423
 9553SOL    HW129558   5.687   1.241   6.472
 9553SOL    HW229559   5.535   1.182   6.479
 9554SOL     OW29560   3.022   0.604   3.773
 9554SOL    HW129561   2.937   0.553   3.783
 9554SOL    HW229562   3.012   0.696   3.813
 9555SOL     OW29563   6.885   0.078   3.822
 9555SOL    HW129564   6.896   0.004   3.757
 9555SOL    HW229565   6.915   0.048   3.913
 9556SOL     OW29566   2.243   4.943   6.828
 9556SOL    HW129567   2.294   5.008   6.886
 9556SOL    HW229568   2.181   4.890   6.886
 9557SOL     OW29569   5.395   0.791   1.307
 9557SOL    HW129570   5.400   0.879   1.354
 9557SOL    HW229571   5.329   0.732   1.354
 9558SOL     OW29572   5.149   6.709   6.240
 9558SOL    HW129573   5.050   6.700   6.233
 9558SOL    HW229574   5.193   6.623   6.213
 9559SOL     OW29575   1.750   4.603   0.175
 9559SOL    HW129576   1.759   4.512   0.216
 9559SOL    HW229577   1.653   4.626   0.166
 9560SOL     OW29578   3.033   0.300   2.551
 9560SOL    HW129579   3.052   0.204   2.570
 9560SOL    HW229580   2.938   0.310   2.520
 9561SOL     OW29581   0.747   1.024   0.154
 9561SOL    HW129582   0.796   0.941   0.181
 9561SOL    HW229583   0.748   1.089   0.230
 9562SOL     OW29584   2.443   6.592   2.428
 9562SOL    HW129585   2.457   6.495   2.410
 9562SOL    HW229586   2.349   6.608   2.458
 9563SOL     OW29587   0.773   5.779   6.225
 9563SOL    HW129588   0.743   5.848   6.160
 9563SOL    HW229589   0.842   5.720   6.183
 9564SOL     OW29590   1.724   0.812   0.484
 9564SOL    HW129591   1.799   0.811   0.418
 9564SOL    HW229592   1.761   0.815   0.577
 9565SOL     OW29593   2.921   1.881   4.544
 9565SOL    HW129594   2.927   1.888   4.444
 9565SOL    HW229595   2.985   1.812   4.577
 9566SOL     OW29596   3.384   0.225   0.272
 9566SOL    HW129597   3.313   0.274   0.221
 9566SOL    HW229598   3.470   0.276   0.267
 9567SOL     OW29599   0.075   3.990   1.232
 9567SOL    HW129600   0.108   3.952   1.146
 9567SOL    HW229601   0.141   4.057   1.267
 9568SOL     OW29602   4.526   1.591   6.869
 9568SOL    HW129603   4.606   1.651   6.872
 9568SOL    HW229604   4.443   1.646   6.859
 9569SOL     OW29605   6.077   0.477   1.869
 9569SOL    HW129606   6.020   0.401   1.899
 9569SOL    HW229607   6.029   0.528   1.798
 9570SOL     OW29608   0.766   2.955   1.820
 9570SOL    HW129609   0.717   3.030   1.865
 9570SOL    HW229610   0.719   2.869   1.840
 9571SOL     OW29611   1.695   1.866   6.822
 9571SOL    HW129612   1.678   1.959   6.857
 9571SOL    HW229613   1.701   1.802   6.899
 9572SOL     OW29614   2.496   4.461   4.008
 9572SOL    HW129615   2.503   4.493   4.103
 9572SOL    HW229616   2.448   4.373   4.006
 9573SOL     OW29617   6.437   0.269   4.488
 9573SOL    HW129618   6.530   0.299   4.467
 9573SOL    HW229619   6.418   0.182   4.442
 9574SOL     OW29620   3.716   3.195   0.982
 9574SOL    HW129621   3.720   3.100   0.953
 9574SOL    HW229622   3.772   3.252   0.921
 9575SOL     OW29623   5.402   6.040   1.861
 9575SOL    HW129624   5.341   6.015   1.786
 9575SOL    HW229625   5.369   6.124   1.904
 9576SOL     OW29626   1.061   0.465   6.360
 9576SOL    HW129627   1.149   0.513   6.363
 9576SOL    HW229628   1.077   0.368   6.344
 9577SOL     OW29629   6.289   5.113   2.745
 9577SOL    HW129630   6.201   5.068   2.728
 9577SOL    HW229631   6.319   5.161   2.663
 9578SOL     OW29632   1.819   3.913   2.586
 9578SOL    HW129633   1.770   3.996   2.614
 9578SOL    HW229634   1.828   3.912   2.486
 9579SOL     OW29635   5.951   6.087   2.158
 9579SOL    HW129636   5.935   6.114   2.253
 9579SOL    HW229637   5.980   5.992   2.156
 9580SOL     OW29638   5.066   3.922   3.539
 9580SOL    HW129639   5.152   3.914   3.489
 9580SOL    HW229640   4.991   3.933   3.475
 9581SOL     OW29641   5.915   1.215   0.043
 9581SOL    HW129642   5.864   1.276   0.104
 9581SOL    HW229643   5.976   1.157   0.097
 9582SOL     OW29644   5.525   6.184   4.764
 9582SOL    HW129645   5.502   6.215   4.857
 9582SOL    HW229646   5.562   6.261   4.712
 9583SOL     OW29647   3.512   4.893   1.646
 9583SOL    HW129648   3.426   4.929   1.681
 9583SOL    HW229649   3.554   4.834   1.715
 9584SOL     OW29650   2.478   5.727   4.162
 9584SOL    HW129651   2.405   5.754   4.224
 9584SOL    HW229652   2.560   5.701   4.214
 9585SOL     OW29653   4.232   6.068   1.249
 9585SOL    HW129654   4.303   6.127   1.210
 9585SOL    HW229655   4.211   6.099   1.342
 9586SOL     OW29656   4.000   5.170   3.010
 9586SOL    HW129657   4.012   5.269   3.013
 9586SOL    HW229658   4.007   5.133   3.103
 9587SOL     OW29659   3.232   5.909   0.936
 9587SOL    HW129660   3.141   5.939   0.907
 9587SOL    HW229661   3.279   5.985   0.980
 9588SOL     OW29662   6.591   6.204   0.298
 9588SOL    HW129663   6.549   6.289   0.266
 9588SOL    HW229664   6.529   6.127   0.281
 9589SOL     OW29665   1.988   3.136   6.589
 9589SOL    HW129666   1.896   3.148   6.628
 9589SOL    HW229667   2.001   3.201   6.514
 9590SOL     OW29668   6.239   0.256   0.797
 9590SOL    HW129669   6.149   0.277   0.759
 9590SOL    HW229670   6.235   0.261   0.897
 9591SOL     OW29671   4.071   0.710   0.361
 9591SOL    HW129672   4.094   0.710   0.458
 9591SOL    HW229673   3.972   0.720   0.351
 9592SOL     OW29674   2.493   6.621   5.899
 9592SOL    HW129675   2.400   6.659   5.892
 9592SOL    HW229676   2.517   6.576   5.814
 9593SOL     OW29677   1.755   2.325   3.827
 9593SOL    HW129678   1.827   2.265   3.792
 9593SOL    HW229679   1.666   2.293   3.794
 9594SOL     OW29680   0.513   6.544   3.797
 9594SOL    HW129681   0.419   6.524   3.771
 9594SOL    HW229682   0.552   6.611   3.733
 9595SOL     OW29683   0.633   3.286   3.526
 9595SOL    HW129684   0.730   3.300   3.543
 9595SOL    HW229685   0.579   3.343   3.589
 9596SOL     OW29686   0.719   6.316   0.795
 9596SOL    HW129687   0.672   6.233   0.765
 9596SOL    HW229688   0.754   6.303   0.888
 9597SOL     OW29689   1.118   3.463   2.173
 9597SOL    HW129690   1.103   3.535   2.241
 9597SOL    HW229691   1.187   3.492   2.107
 9598SOL     OW29692   2.160   4.374   3.686
 9598SOL    HW129693   2.236   4.365   3.622
 9598SOL    HW229694   2.121   4.284   3.705
 9599SOL     OW29695   4.380   6.225   4.087
 9599SOL    HW129696   4.465   6.269   4.117
 9599SOL    HW229697   4.305   6.256   4.145
 9600SOL     OW29698   3.566   1.106   1.722
 9600SOL    HW129699   3.569   1.007   1.737
 9600SOL    HW229700   3.605   1.153   1.801
 9601SOL     OW29701   1.141   3.690   0.903
 9601SOL    HW129702   1.193   3.615   0.944
 9601SOL    HW229703   1.119   3.667   0.808
 9602SOL     OW29704   4.571   5.249   5.328
 9602SOL    HW129705   4.566   5.331   5.272
 9602SOL    HW229706   4.485   5.198   5.321
 9603SOL     OW29707   5.143   6.266   5.394
 9603SOL    HW129708   5.077   6.213   5.448
 9603SOL    HW229709   5.171   6.347   5.445
 9604SOL     OW29710   5.185   6.777   0.451
 9604SOL    HW129711   5.114   6.749   0.386
 9604SOL    HW229712   5.152   6.854   0.505
 9605SOL     OW29713   5.832   5.463   2.378
 9605SOL    HW129714   5.809   5.559   2.391
 9605SOL    HW229715   5.750   5.407   2.385
 9606SOL     OW29716   1.661   1.176   0.069
 9606SOL    HW129717   1.682   1.083   0.097
 9606SOL    HW229718   1.563   1.185   0.052
 9607SOL     OW29719   2.386   2.420   5.932
 9607SOL    HW129720   2.465   2.480   5.940
 9607SOL    HW229721   2.307   2.463   5.976
 9608SOL     OW29722   6.294   3.214   4.602
 9608SOL    HW129723   6.285   3.297   4.547
 9608SOL    HW229724   6.391   3.187   4.604
 9609SOL     OW29725   4.358   3.178   6.425
 9609SOL    HW129726   4.335   3.265   6.468
 9609SOL    HW229727   4.444   3.143   6.463
 9610SOL     OW29728   0.560   5.044   3.114
 9610SOL    HW129729   0.463   5.066   3.101
 9610SOL    HW229730   0.605   5.118   3.163
 9611SOL     OW29731   2.087   0.461   0.385
 9611SOL    HW129732   2.138   0.387   0.430
 9611SOL    HW229733   2.118   0.549   0.420
 9612SOL     OW29734   0.088   3.153   4.005
 9612SOL    HW129735   0.157   3.083   4.022
 9612SOL    HW229736   0.058   3.192   4.093
 9613SOL     OW29737   6.003   5.363   3.002
 9613SOL    HW129738   5.997   5.390   2.905
 9613SOL    HW229739   5.962   5.273   3.014
 9614SOL     OW29740   4.560   2.302   3.863
 9614SOL    HW129741   4.620   2.257   3.928
 9614SOL    HW229742   4.478   2.335   3.910
 9615SOL     OW29743   2.603   4.170   1.215
 9615SOL    HW129744   2.689   4.172   1.267
 9615SOL    HW229745   2.615   4.115   1.132
 9616SOL     OW29746   4.179   3.649   7.011
 9616SOL    HW129747   4.207   3.560   6.974
 9616SOL    HW229748   4.145   3.707   6.937
 9617SOL     OW29749   1.558   2.464   3.299
 9617SOL    HW129750   1.643   2.433   3.342
 9617SOL    HW229751   1.523   2.391   3.239
 9618SOL     OW29752   2.218   1.545   1.236
 9618SOL    HW129753   2.249   1.626   1.188
 9618SOL    HW229754   2.120   1.551   1.255
 9619SOL     OW29755   3.107   1.169   5.739
 9619SOL    HW129756   3.030   1.113   5.771
 9619SOL    HW229757   3.114   1.161   5.639
 9620SOL     OW29758   6.063   1.154   5.180
 9620SOL    HW129759   6.033   1.061   5.200
 9620SOL    HW229760   6.118   1.189   5.256
 9621SOL     OW29761   1.862   3.213   3.481
 9621SOL    HW129762   1.960   3.214   3.457
 9621SOL    HW229763   1.824   3.304   3.468
 9622SOL     OW29764   5.738   0.101   1.179
 9622SOL    HW129765   5.837   0.096   1.191
 9622SOL    HW229766   5.701   0.010   1.165
 9623SOL     OW29767   2.500   3.261   6.547
 9623SOL    HW129768   2.439   3.287   6.472
 9623SOL    HW229769   2.527   3.344   6.597
 9624SOL     OW29770   6.623   3.237   3.946
 9624SOL    HW129771   6.721   3.240   3.968
 9624SOL    HW229772   6.612   3.246   3.847
 9625SOL     OW29773   5.658   5.723   0.923
 9625SOL    HW129774   5.564   5.727   0.888
 9625SOL    HW229775   5.688   5.628   0.926
 9626SOL     OW29776   3.411   6.522   0.055
 9626SOL    HW129777   3.361   6.585   0.114
 9626SOL    HW229778   3.363   6.434   0.053
 9627SOL     OW29779   1.295   6.371   6.642
 9627SOL    HW129780   1.221   6.381   6.708
 9627SOL    HW229781   1.378   6.341   6.688
 9628SOL     OW29782   3.412   6.751   2.157
 9628SOL    HW129783   3.361   6.745   2.243
 9628SOL    HW229784   3.350   6.732   2.081
 9629SOL     OW29785   2.248   6.770   1.056
 9629SOL    HW129786   2.266   6.673   1.067
 9629SOL    HW229787   2.185   6.801   1.127
 9630SOL     OW29788   6.969   1.222   6.094
 9630SOL    HW129789   7.000   1.273   6.174
 9630SOL    HW229790   6.962   1.284   6.016
 9631SOL     OW29791   5.870   6.229   0.251
 9631SOL    HW129792   5.808   6.290   0.202
 9631SOL    HW229793   5.963   6.240   0.215
 9632SOL     OW29794   1.206   5.713   1.753
 9632SOL    HW129795   1.298   5.677   1.769
 9632SOL    HW229796   1.146   5.688   1.829
 9633SOL     OW29797   6.885   4.986   5.991
 9633SOL    HW129798   6.861   4.890   6.006
 9633SOL    HW229799   6.839   5.019   5.908
 9634SOL     OW29800   1.662   6.192   5.243
 9634SOL    HW129801   1.649   6.093   5.245
 9634SOL    HW229802   1.573   6.237   5.250
 9635SOL     OW29803   1.149   5.651   5.558
 9635SOL    HW129804   1.155   5.624   5.462
 9635SOL    HW229805   1.240   5.644   5.600
 9636SOL     OW29806   3.999   1.407   6.912
 9636SOL    HW129807   3.971   1.500   6.935
 9636SOL    HW229808   3.922   1.345   6.922
 9637SOL     OW29809   2.124   1.106   0.114
 9637SOL    HW129810   2.123   1.038   0.041
 9637SOL    HW229811   2.041   1.162   0.109
 9638SOL     OW29812   6.788   1.920   6.417
 9638SOL    HW129813   6.706   1.865   6.404
 9638SOL    HW229814   6.762   2.015   6.435
 9639SOL     OW29815   4.119   0.721   2.750
 9639SOL    HW129816   4.172   0.642   2.779
 9639SOL    HW229817   4.025   0.692   2.730
 9640SOL     OW29818   1.762   2.162   2.344
 9640SOL    HW129819   1.860   2.143   2.354
 9640SOL    HW229820   1.710   2.081   2.373
 9641SOL     OW29821   5.579   5.589   0.053
 9641SOL    HW129822   5.653   5.526   0.079
 9641SOL    HW229823   5.614   5.683   0.055
 9642SOL     OW29824   3.497   0.152   3.782
 9642SOL    HW129825   3.506   0.156   3.881
 9642SOL    HW229826   3.555   0.078   3.746
 9643SOL     OW29827   3.655   4.929   3.245
 9643SOL    HW129828   3.656   4.920   3.146
 9643SOL    HW229829   3.747   4.911   3.281
 9644SOL     OW29830   2.739   2.363   6.976
 9644SOL    HW129831   2.813   2.324   6.922
 9644SOL    HW229832   2.656   2.309   6.963
 9645SOL     OW29833   3.499   4.975   5.494
 9645SOL    HW129834   3.435   5.028   5.438
 9645SOL    HW229835   3.490   5.002   5.590
 9646SOL     OW29836   4.046   5.047   3.781
 9646SOL    HW129837   4.102   4.972   3.816
 9646SOL    HW229838   4.105   5.126   3.764
 9647SOL     OW29839   6.521   3.104   6.708
 9647SOL    HW129840   6.586   3.031   6.689
 9647SOL    HW229841   6.534   3.178   6.642
 9648SOL     OW29842   4.167   3.802   0.840
 9648SOL    HW129843   4.143   3.705   0.847
 9648SOL    HW229844   4.084   3.856   0.829
 9649SOL     OW29845   1.769   6.011   1.312
 9649SOL    HW129846   1.776   5.971   1.221
 9649SOL    HW229847   1.728   5.944   1.374
 9650SOL     OW29848   0.399   6.839   1.327
 9650SOL    HW129849   0.361   6.898   1.399
 9650SOL    HW229850   0.333   6.830   1.253
 9651SOL     OW29851   0.563   1.646   5.998
 9651SOL    HW129852   0.662   1.645   5.987
 9651SOL    HW229853   0.540   1.680   6.089
 9652SOL     OW29854   0.387   5.099   2.574
 9652SOL    HW129855   0.290   5.076   2.566
 9652SOL    HW229856   0.405   5.184   2.526
 9653SOL     OW29857   6.712   6.177   4.453
 9653SOL    HW129858   6.618   6.211   4.443
 9653SOL    HW229859   6.762   6.235   4.516
 9654SOL     OW29860   2.157   3.275   2.573
 9654SOL    HW129861   2.136   3.203   2.507
 9654SOL    HW229862   2.187   3.357   2.525
 9655SOL     OW29863   6.042   1.707   6.740
 9655SOL    HW129864   6.087   1.786   6.698
 9655SOL    HW229865   6.057   1.626   6.684
 9656SOL     OW29866   3.427   1.104   2.973
 9656SOL    HW129867   3.471   1.105   3.063
 9656SOL    HW229868   3.328   1.115   2.984
 9657SOL     OW29869   0.350   0.055   5.195
 9657SOL    HW129870   0.377   0.137   5.144
 9657SOL    HW229871   0.260   0.071   5.237
 9658SOL     OW29872   5.433   2.206   3.386
 9658SOL    HW129873   5.525   2.228   3.354
 9658SOL    HW229874   5.388   2.144   3.322
 9659SOL     OW29875   1.254   4.896   0.174
 9659SOL    HW129876   1.175   4.834   0.177
 9659SOL    HW229877   1.313   4.871   0.097
 9660SOL     OW29878   0.543   5.167   0.759
 9660SOL    HW129879   0.447   5.145   0.776
 9660SOL    HW229880   0.573   5.236   0.824
 9661SOL     OW29881   4.257   6.832   1.047
 9661SOL    HW129882   4.220   6.833   0.954
 9661SOL    HW229883   4.304   6.918   1.066
 9662SOL     OW29884   4.924   0.886   4.710
 9662SOL    HW129885   4.934   0.882   4.610
 9662SOL    HW229886   4.892   0.977   4.737
 9663SOL     OW29887   2.221   6.388   2.932
 9663SOL    HW129888   2.186   6.468   2.882
 9663SOL    HW229889   2.320   6.398   2.945
 9664SOL     OW29890   2.123   5.758   1.857
 9664SOL    HW129891   2.204   5.796   1.903
 9664SOL    HW229892   2.152   5.687   1.793
 9665SOL     OW29893   5.384   4.111   3.930
 9665SOL    HW129894   5.361   4.162   4.013
 9665SOL    HW229895   5.302   4.068   3.893
 9666SOL     OW29896   5.201   4.516   4.807
 9666SOL    HW129897   5.300   4.521   4.792
 9666SOL    HW229898   5.163   4.438   4.757
 9667SOL     OW29899   3.324   3.324   3.300
 9667SOL    HW129900   3.303   3.236   3.256
 9667SOL    HW229901   3.262   3.394   3.267
 9668SOL     OW29902   0.685   1.232   5.163
 9668SOL    HW129903   0.753   1.163   5.136
 9668SOL    HW229904   0.732   1.308   5.209
 9669SOL     OW29905   1.714   6.288   0.274
 9669SOL    HW129906   1.722   6.327   0.366
 9669SOL    HW229907   1.649   6.212   0.276
 9670SOL     OW29908   5.822   4.593   6.365
 9670SOL    HW129909   5.832   4.627   6.271
 9670SOL    HW229910   5.827   4.670   6.429
 9671SOL     OW29911   0.134   0.372   0.297
 9671SOL    HW129912   0.233   0.367   0.281
 9671SOL    HW229913   0.115   0.357   0.395
 9672SOL     OW29914   1.819   6.267   4.994
 9672SOL    HW129915   1.764   6.208   5.054
 9672SOL    HW229916   1.868   6.210   4.929
 9673SOL     OW29917   2.562   2.618   5.930
 9673SOL    HW129918   2.621   2.640   5.853
 9673SOL    HW229919   2.543   2.701   5.982
 9674SOL     OW29920   2.691   6.798   2.349
 9674SOL    HW129921   2.717   6.881   2.398
 9674SOL    HW229922   2.638   6.739   2.409
 9675SOL     OW29923   0.465   2.464   2.234
 9675SOL    HW129924   0.451   2.414   2.149
 9675SOL    HW229925   0.546   2.428   2.281
 9676SOL     OW29926   0.344   3.144   4.935
 9676SOL    HW129927   0.403   3.064   4.944
 9676SOL    HW229928   0.355   3.203   5.015
 9677SOL     OW29929   1.794   3.581   5.249
 9677SOL    HW129930   1.769   3.545   5.158
 9677SOL    HW229931   1.890   3.559   5.268
 9678SOL     OW29932   3.628   3.229   2.892
 9678SOL    HW129933   3.643   3.132   2.908
 9678SOL    HW229934   3.533   3.253   2.916
 9679SOL     OW29935   0.589   3.857   1.198
 9679SOL    HW129936   0.555   3.856   1.104
 9679SOL    HW229937   0.686   3.884   1.198
 9680SOL     OW29938   5.233   4.700   3.362
 9680SOL    HW129939   5.273   4.708   3.453
 9680SOL    HW229940   5.178   4.617   3.357
 9681SOL     OW29941   0.639   0.908   4.201
 9681SOL    HW129942   0.689   0.978   4.252
 9681SOL    HW229943   0.543   0.908   4.228
 9682SOL     OW29944   0.247   5.321   2.940
 9682SOL    HW129945   0.307   5.244   2.916
 9682SOL    HW229946   0.153   5.287   2.953
 9683SOL     OW29947   4.888   6.941   6.488
 9683SOL    HW129948   4.976   6.987   6.474
 9683SOL    HW229949   4.903   6.852   6.531
 9684SOL     OW29950   0.841   4.496   3.634
 9684SOL    HW129951   0.794   4.474   3.719
 9684SOL    HW229952   0.892   4.581   3.646
 9685SOL     OW29953   1.747   2.505   6.902
 9685SOL    HW129954   1.789   2.453   6.828
 9685SOL    HW229955   1.712   2.443   6.972
 9686SOL     OW29956   5.460   1.195   1.107
 9686SOL    HW129957   5.438   1.273   1.166
 9686SOL    HW229958   5.501   1.122   1.163
 9687SOL     OW29959   3.824   1.450   4.272
 9687SOL    HW129960   3.890   1.515   4.236
 9687SOL    HW229961   3.732   1.488   4.266
 9688SOL     OW29962   6.439   2.060   3.807
 9688SOL    HW129963   6.516   2.107   3.765
 9688SOL    HW229964   6.356   2.115   3.797
 9689SOL     OW29965   1.944   5.927   6.122
 9689SOL    HW129966   1.881   5.968   6.188
 9689SOL    HW229967   2.034   5.971   6.130
 9690SOL     OW29968   5.848   3.964   0.688
 9690SOL    HW129969   5.766   3.910   0.668
 9690SOL    HW229970   5.906   3.914   0.752
 9691SOL     OW29971   1.447   4.393   1.196
 9691SOL    HW129972   1.435   4.409   1.098
 9691SOL    HW229973   1.382   4.450   1.247
 9692SOL     OW29974   2.137   5.494   1.024
 9692SOL    HW129975   2.063   5.465   0.963
 9692SOL    HW229976   2.173   5.583   0.993
 9693SOL     OW29977   6.298   5.323   1.555
 9693SOL    HW129978   6.396   5.337   1.565
 9693SOL    HW229979   6.264   5.372   1.475
 9694SOL     OW29980   1.454   2.103   0.495
 9694SOL    HW129981   1.505   2.137   0.573
 9694SOL    HW229982   1.516   2.056   0.432
 9695SOL     OW29983   6.890   4.426   0.691
 9695SOL    HW129984   6.835   4.461   0.614
 9695SOL    HW229985   6.831   4.379   0.756
 9696SOL     OW29986   3.299   4.396   0.772
 9696SOL    HW129987   3.344   4.412   0.859
 9696SOL    HW229988   3.353   4.438   0.698
 9697SOL     OW29989   0.671   5.949   6.029
 9697SOL    HW129990   0.706   5.944   5.935
 9697SOL    HW229991   0.573   5.927   6.029
 9698SOL     OW29992   5.143   1.298   5.630
 9698SOL    HW129993   5.189   1.344   5.554
 9698SOL    HW229994   5.198   1.307   5.713
 9699SOL     OW29995   2.121   3.069   0.086
 9699SOL    HW129996   2.203   3.017   0.110
 9699SOL    HW229997   2.113   3.074   7.007
 9700SOL     OW29998   3.394   4.075   3.605
 9700SOL    HW129999   3.297   4.082   3.582
 9700SOL    HW230000   3.450   4.104   3.527
 9701SOL     OW30001   4.780   4.212   4.860
 9701SOL    HW130002   4.709   4.281   4.874
 9701SOL    HW230003   4.774   4.142   4.931
 9702SOL     OW30004   4.715   0.331   0.585
 9702SOL    HW130005   4.662   0.336   0.499
 9702SOL    HW230006   4.709   0.419   0.633
 9703SOL     OW30007   3.203   6.074   4.161
 9703SOL    HW130008   3.209   6.169   4.130
 9703SOL    HW230009   3.154   6.071   4.248
 9704SOL     OW30010   2.634   1.005   3.700
 9704SOL    HW130011   2.677   1.090   3.730
 9704SOL    HW230012   2.535   1.017   3.696
 9705SOL     OW30013   3.958   3.976   0.798
 9705SOL    HW130014   3.952   4.074   0.777
 9705SOL    HW230015   3.866   3.939   0.809
 9706SOL     OW30016   6.404   2.582   3.351
 9706SOL    HW130017   6.468   2.610   3.422
 9706SOL    HW230018   6.398   2.654   3.281
 9707SOL     OW30019   2.482   5.864   2.762
 9707SOL    HW130020   2.458   5.857   2.859
 9707SOL    HW230021   2.576   5.898   2.753
 9708SOL     OW30022   1.654   1.960   2.452
 9708SOL    HW130023   1.570   1.909   2.434
 9708SOL    HW230024   1.719   1.902   2.501
 9709SOL     OW30025   1.747   5.223   2.719
 9709SOL    HW130026   1.782   5.149   2.662
 9709SOL    HW230027   1.650   5.210   2.735
 9710SOL     OW30028   0.534   0.574   3.935
 9710SOL    HW130029   0.605   0.626   3.983
 9710SOL    HW230030   0.450   0.573   3.989
 9711SOL     OW30031   2.016   3.338   6.104
 9711SOL    HW130032   2.002   3.351   6.202
 9711SOL    HW230033   1.993   3.422   6.055
 9712SOL     OW30034   4.853   3.071   4.390
 9712SOL    HW130035   4.918   3.100   4.320
 9712SOL    HW230036   4.822   3.150   4.442
 9713SOL     OW30037   6.684   5.017   2.548
 9713SOL    HW130038   6.750   4.943   2.553
 9713SOL    HW230039   6.732   5.105   2.560
 9714SOL     OW30040   1.622   2.410   2.280
 9714SOL    HW130041   1.529   2.387   2.251
 9714SOL    HW230042   1.673   2.326   2.296
 9715SOL     OW30043   5.894   5.468   5.710
 9715SOL    HW130044   5.824   5.487   5.641
 9715SOL    HW230045   5.852   5.421   5.788
 9716SOL     OW30046   3.782   2.110   5.853
 9716SOL    HW130047   3.693   2.066   5.841
 9716SOL    HW230048   3.828   2.117   5.765
 9717SOL     OW30049   6.043   5.090   3.354
 9717SOL    HW130050   6.052   5.136   3.266
 9717SOL    HW230051   5.947   5.080   3.377
 9718SOL     OW30052   4.496   3.327   1.565
 9718SOL    HW130053   4.432   3.273   1.620
 9718SOL    HW230054   4.511   3.416   1.609
 9719SOL     OW30055   0.317   1.702   0.549
 9719SOL    HW130056   0.291   1.773   0.484
 9719SOL    HW230057   0.398   1.654   0.516
 9720SOL     OW30058   0.840   0.279   0.514
 9720SOL    HW130059   0.813   0.350   0.449
 9720SOL    HW230060   0.939   0.282   0.527
 9721SOL     OW30061   6.631   2.721   3.016
 9721SOL    HW130062   6.609   2.624   3.027
 9721SOL    HW230063   6.696   2.732   2.941
 9722SOL     OW30064   6.815   0.482   4.424
 9722SOL    HW130065   6.786   0.576   4.445
 9722SOL    HW230066   6.835   0.433   4.509
 9723SOL     OW30067   6.492   1.272   3.652
 9723SOL    HW130068   6.414   1.212   3.670
 9723SOL    HW230069   6.494   1.345   3.720
 9724SOL     OW30070   3.758   2.942   0.914
 9724SOL    HW130071   3.833   2.964   0.851
 9724SOL    HW230072   3.728   2.848   0.899
 9725SOL     OW30073   4.204   3.682   5.523
 9725SOL    HW130074   4.260   3.724   5.451
 9725SOL    HW230075   4.124   3.638   5.481
 9726SOL     OW30076   6.007   5.596   4.818
 9726SOL    HW130077   6.068   5.544   4.758
 9726SOL    HW230078   6.034   5.692   4.817
 9727SOL     OW30079   1.372   1.300   6.725
 9727SOL    HW130080   1.453   1.266   6.773
 9727SOL    HW230081   1.375   1.270   6.630
 9728SOL     OW30082   3.317   5.311   0.308
 9728SOL    HW130083   3.336   5.213   0.302
 9728SOL    HW230084   3.286   5.334   0.400
 9729SOL     OW30085   3.082   5.095   2.281
 9729SOL    HW130086   2.993   5.049   2.281
 9729SOL    HW230087   3.069   5.192   2.303
 9730SOL     OW30088   5.859   3.378   3.343
 9730SOL    HW130089   5.885   3.397   3.438
 9730SOL    HW230090   5.881   3.457   3.286
 9731SOL     OW30091   4.810   5.602   1.269
 9731SOL    HW130092   4.868   5.549   1.207
 9731SOL    HW230093   4.792   5.548   1.351
 9732SOL     OW30094   6.340   5.851   3.985
 9732SOL    HW130095   6.396   5.927   3.949
 9732SOL    HW230096   6.386   5.811   4.063
 9733SOL     OW30097   5.779   4.592   5.850
 9733SOL    HW130098   5.775   4.639   5.938
 9733SOL    HW230099   5.839   4.643   5.788
 9734SOL     OW30100   5.551   2.089   5.503
 9734SOL    HW130101   5.457   2.083   5.536
 9734SOL    HW230102   5.558   2.161   5.434
 9735SOL     OW30103   2.934   4.656   0.295
 9735SOL    HW130104   3.009   4.589   0.297
 9735SOL    HW230105   2.849   4.610   0.269
 9736SOL     OW30106   3.560   1.757   1.675
 9736SOL    HW130107   3.655   1.728   1.665
 9736SOL    HW230108   3.557   1.844   1.725
 9737SOL     OW30109   4.169   2.261   4.812
 9737SOL    HW130110   4.249   2.251   4.871
 9737SOL    HW230111   4.086   2.262   4.868
 9738SOL     OW30112   2.579   0.940   2.171
 9738SOL    HW130113   2.658   0.887   2.139
 9738SOL    HW230114   2.514   0.952   2.096
 9739SOL     OW30115   5.647   4.673   1.758
 9739SOL    HW130116   5.688   4.581   1.753
 9739SOL    HW230117   5.573   4.672   1.825
 9740SOL     OW30118   6.378   3.680   3.186
 9740SOL    HW130119   6.301   3.715   3.240
 9740SOL    HW230120   6.406   3.749   3.120
 9741SOL     OW30121   3.991   1.742   2.026
 9741SOL    HW130122   3.904   1.790   2.017
 9741SOL    HW230123   3.987   1.683   2.107
 9742SOL     OW30124   4.400   1.671   3.675
 9742SOL    HW130125   4.479   1.612   3.692
 9742SOL    HW230126   4.318   1.630   3.714
 9743SOL     OW30127   1.559   1.862   5.478
 9743SOL    HW130128   1.627   1.911   5.533
 9743SOL    HW230129   1.595   1.850   5.385
 9744SOL     OW30130   2.314   0.500   1.636
 9744SOL    HW130131   2.413   0.509   1.644
 9744SOL    HW230132   2.290   0.405   1.613
 9745SOL     OW30133   0.607   1.225   4.877
 9745SOL    HW130134   0.560   1.137   4.865
 9745SOL    HW230135   0.676   1.216   4.949
 9746SOL     OW30136   6.299   0.926   4.071
 9746SOL    HW130137   6.212   0.924   4.021
 9746SOL    HW230138   6.298   1.000   4.138
 9747SOL     OW30139   0.109   0.129   6.351
 9747SOL    HW130140   0.196   0.089   6.320
 9747SOL    HW230141   0.120   0.228   6.362
 9748SOL     OW30142   0.485   5.015   4.336
 9748SOL    HW130143   0.487   4.970   4.424
 9748SOL    HW230144   0.568   5.069   4.323
 9749SOL     OW30145   0.182   4.612   4.399
 9749SOL    HW130146   0.244   4.578   4.328
 9749SOL    HW230147   0.165   4.709   4.385
 9750SOL     OW30148   3.095   5.536   2.840
 9750SOL    HW130149   2.997   5.521   2.854
 9750SOL    HW230150   3.124   5.490   2.757
 9751SOL     OW30151   1.868   2.906   0.888
 9751SOL    HW130152   1.896   3.001   0.892
 9751SOL    HW230153   1.808   2.893   0.809
 9752SOL     OW30154   3.811   1.470   6.012
 9752SOL    HW130155   3.714   1.445   6.012
 9752SOL    HW230156   3.859   1.417   6.082
 9753SOL     OW30157   6.820   6.748   6.286
 9753SOL    HW130158   6.917   6.725   6.294
 9753SOL    HW230159   6.809   6.846   6.303
 9754SOL     OW30160   6.946   2.856   6.402
 9754SOL    HW130161   6.971   2.783   6.465
 9754SOL    HW230162   6.925   2.817   6.312
 9755SOL     OW30163   3.765   5.482   5.750
 9755SOL    HW130164   3.721   5.395   5.730
 9755SOL    HW230165   3.860   5.478   5.719
 9756SOL     OW30166   5.033   2.544   5.630
 9756SOL    HW130167   5.044   2.620   5.694
 9756SOL    HW230168   4.955   2.560   5.571
 9757SOL     OW30169   6.264   1.136   3.674
 9757SOL    HW130170   6.168   1.132   3.702
 9757SOL    HW230171   6.272   1.122   3.576
 9758SOL     OW30172   3.192   0.378   0.155
 9758SOL    HW130173   3.119   0.341   0.097
 9758SOL    HW230174   3.151   0.417   0.238
 9759SOL     OW30175   3.222   6.157   1.063
 9759SOL    HW130176   3.156   6.198   0.999
 9759SOL    HW230177   3.186   6.163   1.156
 9760SOL     OW30178   5.763   4.272   6.160
 9760SOL    HW130179   5.665   4.252   6.154
 9760SOL    HW230180   5.799   4.292   6.068
 9761SOL     OW30181   5.305   5.131   2.915
 9761SOL    HW130182   5.404   5.136   2.931
 9761SOL    HW230183   5.260   5.100   2.998
 9762SOL     OW30184   2.904   1.115   3.122
 9762SOL    HW130185   2.897   1.092   3.219
 9762SOL    HW230186   2.862   1.042   3.068
 9763SOL     OW30187   2.054   1.561   2.339
 9763SOL    HW130188   1.973   1.510   2.368
 9763SOL    HW230189   2.088   1.525   2.253
 9764SOL     OW30190   1.260   2.769   2.354
 9764SOL    HW130191   1.294   2.707   2.284
 9764SOL    HW230192   1.248   2.719   2.440
 9765SOL     OW30193   0.467   1.411   5.002
 9765SOL    HW130194   0.488   1.508   5.017
 9765SOL    HW230195   0.544   1.368   4.954
 9766SOL     OW30196   2.038   0.400   2.785
 9766SOL    HW130197   1.993   0.351   2.860
 9766SOL    HW230198   1.970   0.453   2.734
 9767SOL     OW30199   5.067   0.149   5.440
 9767SOL    HW130200   5.047   0.185   5.531
 9767SOL    HW230201   5.151   0.095   5.443
 9768SOL     OW30202   4.892   2.564   3.986
 9768SOL    HW130203   4.911   2.537   3.892
 9768SOL    HW230204   4.908   2.662   3.997
 9769SOL     OW30205   0.558   1.835   1.610
 9769SOL    HW130206   0.546   1.882   1.697
 9769SOL    HW230207   0.644   1.864   1.568
 9770SOL     OW30208   0.058   3.017   5.527
 9770SOL    HW130209   0.041   3.099   5.582
 9770SOL    HW230210   0.126   2.960   5.574
 9771SOL     OW30211   2.465   5.477   3.687
 9771SOL    HW130212   2.476   5.379   3.699
 9771SOL    HW230213   2.470   5.523   3.775
 9772SOL     OW30214   5.936   6.701   1.076
 9772SOL    HW130215   5.976   6.736   1.161
 9772SOL    HW230216   5.857   6.757   1.051
 9773SOL     OW30217   4.930   4.916   3.749
 9773SOL    HW130218   4.897   4.822   3.750
 9773SOL    HW230219   4.853   4.979   3.756
 9774SOL     OW30220   0.095   4.891   4.132
 9774SOL    HW130221   0.191   4.875   4.106
 9774SOL    HW230222   0.087   4.886   4.231
 9775SOL     OW30223   2.467   2.473   4.979
 9775SOL    HW130224   2.403   2.549   4.967
 9775SOL    HW230225   2.416   2.390   5.001
 9776SOL     OW30226   0.397   4.852   4.146
 9776SOL    HW130227   0.437   4.918   4.209
 9776SOL    HW230228   0.467   4.785   4.120
 9777SOL     OW30229   5.504   4.887   6.235
 9777SOL    HW130230   5.519   4.905   6.137
 9777SOL    HW230231   5.414   4.922   6.261
 9778SOL     OW30232   3.833   0.559   4.340
 9778SOL    HW130233   3.927   0.581   4.313
 9778SOL    HW230234   3.795   0.634   4.393
 9779SOL     OW30235   3.060   2.128   6.686
 9779SOL    HW130236   3.069   2.033   6.715
 9779SOL    HW230237   3.151   2.170   6.681
 9780SOL     OW30238   2.969   4.289   0.254
 9780SOL    HW130239   2.907   4.282   0.332
 9780SOL    HW230240   2.924   4.253   0.172
 9781SOL     OW30241   1.844   6.307   4.314
 9781SOL    HW130242   1.753   6.316   4.354
 9781SOL    HW230243   1.853   6.371   4.237
 9782SOL     OW30244   5.933   0.563   0.633
 9782SOL    HW130245   5.977   0.531   0.549
 9782SOL    HW230246   5.997   0.617   0.686
 9783SOL     OW30247   5.827   0.593   3.279
 9783SOL    HW130248   5.867   0.502   3.272
 9783SOL    HW230249   5.837   0.626   3.373
 9784SOL     OW30250   5.703   0.689   4.217
 9784SOL    HW130251   5.653   0.632   4.283
 9784SOL    HW230252   5.639   0.724   4.149
 9785SOL     OW30253   0.758   2.783   0.845
 9785SOL    HW130254   0.744   2.872   0.890
 9785SOL    HW230255   0.732   2.710   0.907
 9786SOL     OW30256   2.810   6.959   4.727
 9786SOL    HW130257   2.777   6.881   4.674
 9786SOL    HW230258   2.739   6.990   4.790
 9787SOL     OW30259   6.264   4.179   1.421
 9787SOL    HW130260   6.261   4.101   1.484
 9787SOL    HW230261   6.343   4.236   1.443
 9788SOL     OW30262   6.939   0.857   5.101
 9788SOL    HW130263   0.007   0.818   5.127
 9788SOL    HW230264   6.953   0.946   5.058
 9789SOL     OW30265   1.597   5.116   4.592
 9789SOL    HW130266   1.682   5.063   4.596
 9789SOL    HW230267   1.619   5.212   4.576
 9790SOL     OW30268   6.666   1.125   3.536
 9790SOL    HW130269   6.606   1.196   3.574
 9790SOL    HW230270   6.675   1.140   3.437
 9791SOL     OW30271   1.168   2.394   1.375
 9791SOL    HW130272   1.112   2.410   1.457
 9791SOL    HW230273   1.113   2.413   1.293
 9792SOL     OW30274   3.335   5.758   2.263
 9792SOL    HW130275   3.402   5.685   2.272
 9792SOL    HW230276   3.249   5.721   2.228
 9793SOL     OW30277   5.439   6.154   2.149
 9793SOL    HW130278   5.389   6.225   2.100
 9793SOL    HW230279   5.528   6.140   2.105
 9794SOL     OW30280   3.157   3.347   6.728
 9794SOL    HW130281   3.077   3.321   6.673
 9794SOL    HW230282   3.199   3.264   6.765
 9795SOL     OW30283   2.181   4.944   3.846
 9795SOL    HW130284   2.216   4.854   3.872
 9795SOL    HW230285   2.192   4.958   3.748
 9796SOL     OW30286   3.659   4.850   0.598
 9796SOL    HW130287   3.681   4.825   0.504
 9796SOL    HW230288   3.740   4.835   0.656
 9797SOL     OW30289   5.398   2.881   4.806
 9797SOL    HW130290   5.401   2.826   4.890
 9797SOL    HW230291   5.374   2.975   4.830
 9798SOL     OW30292   2.561   1.854   1.538
 9798SOL    HW130293   2.631   1.909   1.492
 9798SOL    HW230294   2.601   1.812   1.620
 9799SOL     OW30295   3.486   4.149   2.355
 9799SOL    HW130296   3.441   4.107   2.277
 9799SOL    HW230297   3.578   4.180   2.328
 9800SOL     OW30298   3.971   4.981   0.254
 9800SOL    HW130299   3.897   4.955   0.315
 9800SOL    HW230300   4.053   4.927   0.275
 9801SOL     OW30301   4.755   5.603   0.968
 9801SOL    HW130302   4.817   5.527   0.988
 9801SOL    HW230303   4.794   5.688   1.002
 9802SOL     OW30304   0.407   5.051   1.700
 9802SOL    HW130305   0.376   4.969   1.747
 9802SOL    HW230306   0.329   5.099   1.660
 9803SOL     OW30307   4.665   0.120   6.339
 9803SOL    HW130308   4.591   0.069   6.382
 9803SOL    HW230309   4.683   0.082   6.248
 9804SOL     OW30310   5.340   5.609   4.123
 9804SOL    HW130311   5.258   5.636   4.174
 9804SOL    HW230312   5.315   5.542   4.054
 9805SOL     OW30313   3.527   4.121   0.978
 9805SOL    HW130314   3.559   4.114   1.073
 9805SOL    HW230315   3.470   4.202   0.968
 9806SOL     OW30316   6.949   1.658   2.808
 9806SOL    HW130317   6.856   1.688   2.829
 9806SOL    HW230318   6.954   1.558   2.809
 9807SOL     OW30319   2.479   3.311   0.779
 9807SOL    HW130320   2.467   3.237   0.846
 9807SOL    HW230321   2.571   3.350   0.789
 9808SOL     OW30322   1.818   1.840   4.483
 9808SOL    HW130323   1.791   1.929   4.445
 9808SOL    HW230324   1.846   1.852   4.578
 9809SOL     OW30325   0.757   0.704   4.007
 9809SOL    HW130326   0.841   0.653   4.026
 9809SOL    HW230327   0.770   0.800   4.031
 9810SOL     OW30328   4.195   1.898   2.398
 9810SOL    HW130329   4.244   1.955   2.332
 9810SOL    HW230330   4.241   1.904   2.487
 9811SOL     OW30331   1.203   6.852   2.601
 9811SOL    HW130332   1.242   6.943   2.608
 9811SOL    HW230333   1.253   6.789   2.661
 9812SOL     OW30334   5.679   2.912   5.578
 9812SOL    HW130335   5.609   2.943   5.642
 9812SOL    HW230336   5.671   2.964   5.492
 9813SOL     OW30337   6.511   4.013   0.428
 9813SOL    HW130338   6.529   4.082   0.497
 9813SOL    HW230339   6.412   3.999   0.420
 9814SOL     OW30340   6.893   0.635   5.345
 9814SOL    HW130341   6.894   0.691   5.427
 9814SOL    HW230342   6.901   0.694   5.264
 9815SOL     OW30343   6.875   3.780   2.934
 9815SOL    HW130344   6.915   3.837   2.862
 9815SOL    HW230345   6.898   3.819   3.023
 9816SOL     OW30346   6.027   0.892   5.288
 9816SOL    HW130347   6.026   0.879   5.387
 9816SOL    HW230348   6.026   0.804   5.242
 9817SOL     OW30349   2.400   1.060   0.884
 9817SOL    HW130350   2.476   1.038   0.824
 9817SOL    HW230351   2.407   1.156   0.914
 9818SOL     OW30352   0.306   6.885   2.319
 9818SOL    HW130353   0.229   6.827   2.290
 9818SOL    HW230354   0.392   6.836   2.304
 9819SOL     OW30355   6.381   2.410   4.472
 9819SOL    HW130356   6.399   2.340   4.402
 9819SOL    HW230357   6.424   2.496   4.444
 9820SOL     OW30358   4.024   1.339   6.188
 9820SOL    HW130359   4.119   1.356   6.161
 9820SOL    HW230360   4.019   1.331   6.287
 9821SOL     OW30361   4.239   3.233   0.091
 9821SOL    HW130362   4.228   3.256   0.188
 9821SOL    HW230363   4.171   3.165   0.064
 9822SOL     OW30364   3.415   5.242   4.284
 9822SOL    HW130365   3.434   5.145   4.290
 9822SOL    HW230366   3.396   5.266   4.189
 9823SOL     OW30367   4.046   6.544   3.405
 9823SOL    HW130368   4.058   6.463   3.348
 9823SOL    HW230369   4.083   6.527   3.496
 9824SOL     OW30370   1.596   5.656   5.334
 9824SOL    HW130371   1.558   5.575   5.289
 9824SOL    HW230372   1.639   5.629   5.420
 9825SOL     OW30373   0.345   6.039   5.003
 9825SOL    HW130374   0.268   5.981   4.976
 9825SOL    HW230375   0.428   6.005   4.959
 9826SOL     OW30376   1.838   5.672   6.397
 9826SOL    HW130377   1.889   5.739   6.450
 9826SOL    HW230378   1.833   5.700   6.302
 9827SOL     OW30379   2.054   4.633   1.912
 9827SOL    HW130380   2.111   4.603   1.835
 9827SOL    HW230381   1.960   4.603   1.898
 9828SOL     OW30382   4.556   2.103   4.846
 9828SOL    HW130383   4.586   2.142   4.759
 9828SOL    HW230384   4.583   2.164   4.920
 9829SOL     OW30385   5.334   4.317   5.687
 9829SOL    HW130386   5.353   4.393   5.749
 9829SOL    HW230387   5.236   4.315   5.665
 9830SOL     OW30388   5.816   1.734   3.473
 9830SOL    HW130389   5.874   1.816   3.470
 9830SOL    HW230390   5.799   1.710   3.569
 9831SOL     OW30391   0.203   4.387   2.307
 9831SOL    HW130392   0.174   4.474   2.346
 9831SOL    HW230393   0.171   4.312   2.366
 9832SOL     OW30394   5.045   5.747   4.559
 9832SOL    HW130395   5.119   5.810   4.536
 9832SOL    HW230396   5.083   5.667   4.607
 9833SOL     OW30397   3.807   3.611   5.142
 9833SOL    HW130398   3.866   3.534   5.115
 9833SOL    HW230399   3.857   3.697   5.132
 9834SOL     OW30400   3.496   6.006   5.594
 9834SOL    HW130401   3.413   5.995   5.540
 9834SOL    HW230402   3.537   6.095   5.574
 9835SOL     OW30403   4.036   3.200   3.871
 9835SOL    HW130404   4.044   3.299   3.861
 9835SOL    HW230405   4.082   3.172   3.955
 9836SOL     OW30406   6.658   3.268   5.464
 9836SOL    HW130407   6.647   3.367   5.456
 9836SOL    HW230408   6.743   3.241   5.418
 9837SOL     OW30409   6.283   1.071   3.401
 9837SOL    HW130410   6.366   1.026   3.367
 9837SOL    HW230411   6.251   1.136   3.333
 9838SOL     OW30412   0.177   5.894   0.571
 9838SOL    HW130413   0.204   5.798   0.577
 9838SOL    HW230414   0.129   5.921   0.654
 9839SOL     OW30415   4.160   6.192   3.376
 9839SOL    HW130416   4.162   6.193   3.276
 9839SOL    HW230417   4.239   6.241   3.411
 9840SOL     OW30418   6.719   1.644   6.752
 9840SOL    HW130419   6.681   1.623   6.662
 9840SOL    HW230420   6.756   1.561   6.793
 9841SOL     OW30421   0.184   5.990   2.182
 9841SOL    HW130422   0.279   6.003   2.154
 9841SOL    HW230423   0.133   6.075   2.166
 9842SOL     OW30424   3.520   0.622   0.296
 9842SOL    HW130425   3.514   0.622   0.395
 9842SOL    HW230426   3.544   0.530   0.264
 9843SOL     OW30427   6.948   0.679   1.029
 9843SOL    HW130428   6.886   0.648   0.957
 9843SOL    HW230429   0.010   0.719   0.988
 9844SOL     OW30430   5.108   0.178   4.857
 9844SOL    HW130431   5.203   0.148   4.850
 9844SOL    HW230432   5.097   0.234   4.940
 9845SOL     OW30433   1.053   4.168   2.302
 9845SOL    HW130434   1.065   4.069   2.298
 9845SOL    HW230435   1.127   4.212   2.250
 9846SOL     OW30436   5.285   1.762   2.541
 9846SOL    HW130437   5.199   1.779   2.493
 9846SOL    HW230438   5.343   1.844   2.534
 9847SOL     OW30439   4.016   4.429   6.727
 9847SOL    HW130440   3.933   4.401   6.679
 9847SOL    HW230441   4.055   4.349   6.774
 9848SOL     OW30442   2.784   4.589   5.668
 9848SOL    HW130443   2.874   4.574   5.626
 9848SOL    HW230444   2.724   4.633   5.602
 9849SOL     OW30445   2.083   2.669   3.593
 9849SOL    HW130446   2.082   2.758   3.638
 9849SOL    HW230447   2.098   2.681   3.495
 9850SOL     OW30448   1.031   0.019   3.997
 9850SOL    HW130449   1.043   0.118   3.991
 9850SOL    HW230450   1.089   7.004   4.070
 9851SOL     OW30451   3.801   5.466   3.674
 9851SOL    HW130452   3.838   5.515   3.753
 9851SOL    HW230453   3.766   5.533   3.608
 9852SOL     OW30454   1.898   6.436   0.119
 9852SOL    HW130455   1.890   6.412   0.023
 9852SOL    HW230456   1.835   6.380   0.173
 9853SOL     OW30457   0.321   4.124   3.878
 9853SOL    HW130458   0.259   4.059   3.833
 9853SOL    HW230459   0.268   4.191   3.929
 9854SOL     OW30460   6.787   3.640   6.758
 9854SOL    HW130461   6.801   3.709   6.830
 9854SOL    HW230462   6.842   3.559   6.778
 9855SOL     OW30463   0.934   6.017   6.481
 9855SOL    HW130464   0.849   5.967   6.495
 9855SOL    HW230465   0.978   6.034   6.570
 9856SOL     OW30466   5.220   4.133   3.260
 9856SOL    HW130467   5.150   4.071   3.224
 9856SOL    HW230468   5.221   4.217   3.206
 9857SOL     OW30469   4.753   0.334   6.054
 9857SOL    HW130470   4.654   0.345   6.058
 9857SOL    HW230471   4.797   0.424   6.060
 9858SOL     OW30472   6.354   5.267   2.531
 9858SOL    HW130473   6.442   5.298   2.494
 9858SOL    HW230474   6.279   5.304   2.475
 9859SOL     OW30475   0.764   5.348   2.173
 9859SOL    HW130476   0.780   5.263   2.222
 9859SOL    HW230477   0.673   5.345   2.130
 9860SOL     OW30478   1.661   3.471   3.877
 9860SOL    HW130479   1.750   3.463   3.922
 9860SOL    HW230480   1.668   3.539   3.804
 9861SOL     OW30481   3.648   2.099   3.607
 9861SOL    HW130482   3.644   2.007   3.645
 9861SOL    HW230483   3.743   2.129   3.600
 9862SOL     OW30484   2.036   3.338   6.386
 9862SOL    HW130485   2.129   3.368   6.408
 9862SOL    HW230486   1.977   3.418   6.377
 9863SOL     OW30487   3.990   6.845   2.320
 9863SOL    HW130488   3.940   6.760   2.306
 9863SOL    HW230489   3.956   6.914   2.256
 9864SOL     OW30490   3.098   6.438   5.520
 9864SOL    HW130491   3.111   6.354   5.468
 9864SOL    HW230492   3.040   6.420   5.600
 9865SOL     OW30493   2.322   6.217   6.038
 9865SOL    HW130494   2.352   6.297   6.090
 9865SOL    HW230495   2.401   6.170   5.999
 9866SOL     OW30496   6.589   5.318   6.419
 9866SOL    HW130497   6.510   5.377   6.433
 9866SOL    HW230498   6.661   5.343   6.484
 9867SOL     OW30499   4.690   1.436   2.181
 9867SOL    HW130500   4.669   1.361   2.118
 9867SOL    HW230501   4.637   1.517   2.155
 9868SOL     OW30502   2.323   4.790   3.332
 9868SOL    HW130503   2.375   4.736   3.266
 9868SOL    HW230504   2.234   4.813   3.294
 9869SOL     OW30505   6.361   2.697   2.817
 9869SOL    HW130506   6.281   2.735   2.770
 9869SOL    HW230507   6.443   2.744   2.786
 9870SOL     OW30508   1.800   2.216   3.231
 9870SOL    HW130509   1.809   2.281   3.307
 9870SOL    HW230510   1.885   2.166   3.219
 9871SOL     OW30511   5.609   5.861   3.151
 9871SOL    HW130512   5.586   5.938   3.211
 9871SOL    HW230513   5.606   5.776   3.204
 9872SOL     OW30514   0.730   6.236   5.686
 9872SOL    HW130515   0.689   6.316   5.643
 9872SOL    HW230516   0.744   6.254   5.784
 9873SOL     OW30517   0.670   0.978   5.457
 9873SOL    HW130518   0.752   0.935   5.496
 9873SOL    HW230519   0.654   0.941   5.365
 9874SOL     OW30520   0.163   2.428   3.653
 9874SOL    HW130521   0.117   2.346   3.621
 9874SOL    HW230522   0.252   2.436   3.608
 9875SOL     OW30523   6.295   6.230   0.935
 9875SOL    HW130524   6.243   6.260   1.015
 9875SOL    HW230525   6.235   6.175   0.876
 9876SOL     OW30526   0.239   6.763   3.898
 9876SOL    HW130527   0.333   6.739   3.925
 9876SOL    HW230528   0.240   6.798   3.805
 9877SOL     OW30529   1.306   6.272   5.054
 9877SOL    HW130530   1.348   6.265   5.144
 9877SOL    HW230531   1.233   6.204   5.046
 9878SOL     OW30532   3.405   2.434   6.966
 9878SOL    HW130533   3.462   2.460   6.889
 9878SOL    HW230534   3.415   2.501   0.020
 9879SOL     OW30535   6.403   5.683   4.228
 9879SOL    HW130536   6.391   5.696   4.326
 9879SOL    HW230537   6.347   5.606   4.198
 9880SOL     OW30538   3.733   1.391   1.276
 9880SOL    HW130539   3.641   1.353   1.266
 9880SOL    HW230540   3.788   1.330   1.333
 9881SOL     OW30541   5.912   0.395   3.544
 9881SOL    HW130542   5.977   0.458   3.503
 9881SOL    HW230543   5.835   0.381   3.482
 9882SOL     OW30544   3.551   2.912   4.824
 9882SOL    HW130545   3.622   2.864   4.773
 9882SOL    HW230546   3.584   2.931   4.916
 9883SOL     OW30547   1.869   6.171   2.490
 9883SOL    HW130548   1.770   6.162   2.480
 9883SOL    HW230549   1.914   6.091   2.451
 9884SOL     OW30550   3.139   2.564   5.308
 9884SOL    HW130551   3.179   2.487   5.259
 9884SOL    HW230552   3.043   2.543   5.331
 9885SOL     OW30553   4.795   2.575   5.499
 9885SOL    HW130554   4.759   2.481   5.496
 9885SOL    HW230555   4.788   2.616   5.409
 9886SOL     OW30556   2.488   5.951   1.462
 9886SOL    HW130557   2.525   6.026   1.406
 9886SOL    HW230558   2.416   5.987   1.521
 9887SOL     OW30559   3.482   1.125   0.117
 9887SOL    HW130560   3.406   1.138   0.181
 9887SOL    HW230561   3.498   1.210   0.067
 9888SOL     OW30562   6.639   6.551   3.685
 9888SOL    HW130563   6.694   6.529   3.765
 9888SOL    HW230564   6.677   6.504   3.605
 9889SOL     OW30565   6.257   5.784   2.836
 9889SOL    HW130566   6.206   5.778   2.922
 9889SOL    HW230567   6.203   5.743   2.762
 9890SOL     OW30568   1.557   3.202   2.683
 9890SOL    HW130569   1.491   3.160   2.745
 9890SOL    HW230570   1.572   3.142   2.605
 9891SOL     OW30571   4.617   6.861   1.832
 9891SOL    HW130572   4.537   6.803   1.819
 9891SOL    HW230573   4.596   6.955   1.804
 9892SOL     OW30574   1.700   6.206   3.354
 9892SOL    HW130575   1.767   6.271   3.321
 9892SOL    HW230576   1.615   6.254   3.378
 9893SOL     OW30577   6.132   4.433   5.475
 9893SOL    HW130578   6.070   4.508   5.496
 9893SOL    HW230579   6.225   4.457   5.503
 9894SOL     OW30580   4.480   4.172   5.371
 9894SOL    HW130581   4.405   4.220   5.416
 9894SOL    HW230582   4.516   4.228   5.297
 9895SOL     OW30583   4.823   1.858   6.294
 9895SOL    HW130584   4.748   1.890   6.237
 9895SOL    HW230585   4.832   1.916   6.375
 9896SOL     OW30586   4.088   3.762   6.757
 9896SOL    HW130587   4.043   3.842   6.797
 9896SOL    HW230588   4.095   3.773   6.658
 9897SOL     OW30589   0.499   1.536   2.802
 9897SOL    HW130590   0.496   1.526   2.703
 9897SOL    HW230591   0.522   1.449   2.845
 9898SOL     OW30592   0.574   4.630   0.131
 9898SOL    HW130593   0.542   4.555   0.190
 9898SOL    HW230594   0.626   4.592   0.055
 9899SOL     OW30595   4.432   5.401   2.347
 9899SOL    HW130596   4.356   5.343   2.317
 9899SOL    HW230597   4.405   5.497   2.340
 9900SOL     OW30598   2.274   4.929   4.143
 9900SOL    HW130599   2.343   4.875   4.094
 9900SOL    HW230600   2.271   4.899   4.238
 9901SOL     OW30601   2.470   1.966   5.942
 9901SOL    HW130602   2.559   1.925   5.926
 9901SOL    HW230603   2.413   1.902   5.994
 9902SOL     OW30604   3.934   3.959   6.883
 9902SOL    HW130605   3.858   4.013   6.847
 9902SOL    HW230606   3.994   4.018   6.937
 9903SOL     OW30607   3.174   1.454   1.127
 9903SOL    HW130608   3.267   1.472   1.097
 9903SOL    HW230609   3.165   1.477   1.224
 9904SOL     OW30610   6.752   6.099   2.424
 9904SOL    HW130611   6.657   6.099   2.456
 9904SOL    HW230612   6.808   6.046   2.487
 9905SOL     OW30613   2.201   6.870   6.137
 9905SOL    HW130614   2.169   6.790   6.086
 9905SOL    HW230615   2.258   6.926   6.077
 9906SOL     OW30616   3.366   4.291   5.981
 9906SOL    HW130617   3.273   4.253   5.979
 9906SOL    HW230618   3.424   4.234   6.038
 9907SOL     OW30619   0.963   6.313   2.870
 9907SOL    HW130620   0.901   6.235   2.863
 9907SOL    HW230621   0.936   6.384   2.805
 9908SOL     OW30622   6.192   2.763   5.466
 9908SOL    HW130623   6.246   2.679   5.467
 9908SOL    HW230624   6.179   2.793   5.371
 9909SOL     OW30625   2.997   6.772   2.827
 9909SOL    HW130626   2.932   6.696   2.831
 9909SOL    HW230627   2.952   6.856   2.859
 9910SOL     OW30628   0.923   5.473   0.472
 9910SOL    HW130629   0.997   5.407   0.485
 9910SOL    HW230630   0.845   5.447   0.528
 9911SOL     OW30631   3.316   4.854   2.644
 9911SOL    HW130632   3.242   4.901   2.597
 9911SOL    HW230633   3.323   4.889   2.738
 9912SOL     OW30634   5.109   6.870   0.850
 9912SOL    HW130635   5.157   6.791   0.888
 9912SOL    HW230636   5.020   6.842   0.815
 9913SOL     OW30637   5.274   2.013   3.197
 9913SOL    HW130638   5.192   2.012   3.254
 9913SOL    HW230639   5.251   2.046   3.106
 9914SOL     OW30640   2.282   5.879   4.294
 9914SOL    HW130641   2.218   5.807   4.321
 9914SOL    HW230642   2.255   5.915   4.205
 9915SOL     OW30643   6.222   4.037   4.676
 9915SOL    HW130644   6.155   4.093   4.725
 9915SOL    HW230645   6.259   4.090   4.599
 9916SOL     OW30646   2.658   3.628   0.490
 9916SOL    HW130647   2.652   3.540   0.443
 9916SOL    HW230648   2.722   3.620   0.567
 9917SOL     OW30649   2.144   3.155   4.542
 9917SOL    HW130650   2.123   3.241   4.587
 9917SOL    HW230651   2.168   3.086   4.610
 9918SOL     OW30652   2.522   0.526   4.614
 9918SOL    HW130653   2.535   0.575   4.700
 9918SOL    HW230654   2.545   0.587   4.538
 9919SOL     OW30655   0.605   5.190   1.864
 9919SOL    HW130656   0.696   5.224   1.842
 9919SOL    HW230657   0.568   5.140   1.786
 9920SOL     OW30658   4.050   0.017   2.920
 9920SOL    HW130659   4.116   0.026   2.845
 9920SOL    HW230660   4.024   0.108   2.952
 9921SOL     OW30661   4.684   0.802   2.520
 9921SOL    HW130662   4.698   0.893   2.559
 9921SOL    HW230663   4.709   0.732   2.588
 9922SOL     OW30664   5.435   2.401   2.568
 9922SOL    HW130665   5.364   2.339   2.537
 9922SOL    HW230666   5.436   2.483   2.510
 9923SOL     OW30667   6.122   0.578   6.635
 9923SOL    HW130668   6.061   0.634   6.691
 9923SOL    HW230669   6.068   0.511   6.584
 9924SOL     OW30670   5.171   1.306   4.041
 9924SOL    HW130671   5.074   1.284   4.054
 9924SOL    HW230672   5.194   1.296   3.944
 9925SOL     OW30673   3.768   2.146   4.554
 9925SOL    HW130674   3.837   2.202   4.599
 9925SOL    HW230675   3.803   2.111   4.468
 9926SOL     OW30676   2.087   0.957   5.788
 9926SOL    HW130677   2.181   0.954   5.822
 9926SOL    HW230678   2.076   0.892   5.714
 9927SOL     OW30679   1.191   3.205   3.108
 9927SOL    HW130680   1.280   3.249   3.095
 9927SOL    HW230681   1.190   3.118   3.059
 9928SOL     OW30682   0.271   3.050   2.400
 9928SOL    HW130683   0.323   2.969   2.427
 9928SOL    HW230684   0.178   3.023   2.374
 9929SOL     OW30685   1.257   5.329   5.734
 9929SOL    HW130686   1.330   5.390   5.765
 9929SOL    HW230687   1.273   5.237   5.768
 9930SOL     OW30688   6.526   5.659   6.597
 9930SOL    HW130689   6.432   5.626   6.583
 9930SOL    HW230690   6.573   5.599   6.661
 9931SOL     OW30691   2.031   4.789   6.934
 9931SOL    HW130692   1.956   4.766   6.872
 9931SOL    HW230693   2.076   4.705   6.965
 9932SOL     OW30694   2.338   2.437   1.098
 9932SOL    HW130695   2.320   2.513   1.160
 9932SOL    HW230696   2.425   2.452   1.051
 9933SOL     OW30697   0.722   1.459   3.303
 9933SOL    HW130698   0.686   1.412   3.383
 9933SOL    HW230699   0.648   1.506   3.255
 9934SOL     OW30700   5.354   0.344   6.487
 9934SOL    HW130701   5.390   0.433   6.460
 9934SOL    HW230702   5.430   0.281   6.503
 9935SOL     OW30703   2.827   3.241   0.834
 9935SOL    HW130704   2.746   3.265   0.782
 9935SOL    HW230705   2.902   3.219   0.771
 9936SOL     OW30706   5.168   6.239   6.812
 9936SOL    HW130707   5.094   6.305   6.823
 9936SOL    HW230708   5.221   6.262   6.730
 9937SOL     OW30709   1.868   6.571   3.909
 9937SOL    HW130710   1.847   6.575   4.006
 9937SOL    HW230711   1.888   6.477   3.883
 9938SOL     OW30712   6.768   1.050   3.244
 9938SOL    HW130713   6.835   0.986   3.282
 9938SOL    HW230714   6.792   1.070   3.149
 9939SOL     OW30715   2.643   3.828   1.265
 9939SOL    HW130716   2.651   3.926   1.282
 9939SOL    HW230717   2.549   3.807   1.237
 9940SOL     OW30718   0.241   0.534   3.503
 9940SOL    HW130719   0.256   0.604   3.573
 9940SOL    HW230720   0.293   0.452   3.527
 9941SOL     OW30721   5.919   3.166   0.543
 9941SOL    HW130722   5.825   3.134   0.539
 9941SOL    HW230723   5.933   3.221   0.626
 9942SOL     OW30724   6.121   5.637   2.647
 9942SOL    HW130725   6.106   5.544   2.681
 9942SOL    HW230726   6.181   5.634   2.567
 9943SOL     OW30727   1.420   4.145   5.550
 9943SOL    HW130728   1.334   4.192   5.528
 9943SOL    HW230729   1.471   4.127   5.466
 9944SOL     OW30730   2.525   5.428   6.796
 9944SOL    HW130731   2.426   5.436   6.811
 9944SOL    HW230732   2.546   5.448   6.701
 9945SOL     OW30733   6.690   3.657   6.518
 9945SOL    HW130734   6.743   3.660   6.603
 9945SOL    HW230735   6.633   3.575   6.517
 9946SOL     OW30736   5.235   2.211   1.774
 9946SOL    HW130737   5.244   2.308   1.795
 9946SOL    HW230738   5.266   2.156   1.852
 9947SOL     OW30739   0.676   0.841   3.062
 9947SOL    HW130740   0.606   0.864   2.995
 9947SOL    HW230741   0.764   0.880   3.033
 9948SOL     OW30742   5.668   0.633   5.324
 9948SOL    HW130743   5.670   0.547   5.376
 9948SOL    HW230744   5.694   0.615   5.229
 9949SOL     OW30745   6.997   3.561   2.825
 9949SOL    HW130746   6.932   3.619   2.874
 9949SOL    HW230747   7.001   3.471   2.870
 9950SOL     OW30748   4.596   5.479   5.893
 9950SOL    HW130749   4.667   5.516   5.955
 9950SOL    HW230750   4.638   5.413   5.831
 9951SOL     OW30751   0.070   2.096   2.766
 9951SOL    HW130752   0.040   2.044   2.686
 9951SOL    HW230753   0.126   2.036   2.824
 9952SOL     OW30754   1.261   4.779   1.543
 9952SOL    HW130755   1.283   4.704   1.481
 9952SOL    HW230756   1.330   4.784   1.615
 9953SOL     OW30757   5.903   4.557   4.565
 9953SOL    HW130758   5.895   4.460   4.588
 9953SOL    HW230759   5.987   4.594   4.605
 9954SOL     OW30760   4.165   1.110   1.059
 9954SOL    HW130761   4.210   1.067   1.137
 9954SOL    HW230762   4.157   1.043   0.985
 9955SOL     OW30763   6.116   5.046   1.168
 9955SOL    HW130764   6.063   5.076   1.248
 9955SOL    HW230765   6.105   5.113   1.094
 9956SOL     OW30766   1.357   3.647   3.413
 9956SOL    HW130767   1.452   3.677   3.401
 9956SOL    HW230768   1.309   3.709   3.474
 9957SOL     OW30769   5.098   6.948   0.226
 9957SOL    HW130770   5.195   6.967   0.245
 9957SOL    HW230771   5.043   0.009   0.248
 9958SOL     OW30772   6.039   6.137   6.031
 9958SOL    HW130773   6.077   6.097   6.115
 9958SOL    HW230774   5.951   6.180   6.052
 9959SOL     OW30775   5.768   4.778   6.958
 9959SOL    HW130776   5.834   4.714   6.918
 9959SOL    HW230777   5.756   4.856   6.896
 9960SOL     OW30778   0.049   0.505   6.685
 9960SOL    HW130779   0.022   0.418   6.725
 9960SOL    HW230780   7.018   0.579   6.729
 9961SOL     OW30781   3.313   6.778   0.552
 9961SOL    HW130782   3.225   6.819   0.577
 9961SOL    HW230783   3.297   6.701   0.491
 9962SOL     OW30784   3.158   0.705   1.609
 9962SOL    HW130785   3.069   0.680   1.647
 9962SOL    HW230786   3.212   0.622   1.594
 9963SOL     OW30787   1.069   0.578   6.621
 9963SOL    HW130788   1.085   0.523   6.703
 9963SOL    HW230789   1.028   0.521   6.549
 9964SOL     OW30790   4.809   5.266   5.040
 9964SOL    HW130791   4.709   5.271   5.042
 9964SOL    HW230792   4.842   5.300   4.952
 9965SOL     OW30793   2.720   4.808   4.443
 9965SOL    HW130794   2.662   4.728   4.433
 9965SOL    HW230795   2.737   4.824   4.541
 9966SOL     OW30796   2.447   5.797   2.331
 9966SOL    HW130797   2.389   5.765   2.257
 9966SOL    HW230798   2.489   5.719   2.377
 9967SOL     OW30799   0.429   0.464   2.647
 9967SOL    HW130800   0.374   0.424   2.574
 9967SOL    HW230801   0.368   0.499   2.719
 9968SOL     OW30802   4.928   6.413   6.816
 9968SOL    HW130803   4.945   6.372   6.726
 9968SOL    HW230804   4.829   6.413   6.834
 9969SOL     OW30805   0.417   5.926   2.916
 9969SOL    HW130806   0.486   5.857   2.897
 9969SOL    HW230807   0.376   5.957   2.830
 9970SOL     OW30808   6.917   3.155   1.906
 9970SOL    HW130809   6.880   3.063   1.890
 9970SOL    HW230810   6.861   3.222   1.857
 9971SOL     OW30811   0.185   5.083   5.079
 9971SOL    HW130812   0.095   5.126   5.079
 9971SOL    HW230813   0.237   5.116   5.158
 9972SOL     OW30814   3.015   4.694   5.879
 9972SOL    HW130815   3.038   4.754   5.802
 9972SOL    HW230816   3.008   4.748   5.963
 9973SOL     OW30817   3.164   1.925   3.124
 9973SOL    HW130818   3.193   1.831   3.106
 9973SOL    HW230819   3.226   1.967   3.190
 9974SOL     OW30820   0.617   2.735   3.114
 9974SOL    HW130821   0.682   2.671   3.156
 9974SOL    HW230822   0.657   2.826   3.112
 9975SOL     OW30823   1.933   3.899   6.402
 9975SOL    HW130824   1.914   3.977   6.343
 9975SOL    HW230825   1.847   3.854   6.426
 9976SOL     OW30826   3.886   6.281   5.644
 9976SOL    HW130827   3.801   6.316   5.684
 9976SOL    HW230828   3.898   6.186   5.671
 9977SOL     OW30829   4.468   0.135   5.420
 9977SOL    HW130830   4.549   0.192   5.435
 9977SOL    HW230831   4.388   0.179   5.460
 9978SOL     OW30832   6.821   3.048   6.889
 9978SOL    HW130833   6.897   3.031   6.826
 9978SOL    HW230834   6.857   3.068   6.980
 9979SOL     OW30835   3.664   3.634   4.312
 9979SOL    HW130836   3.629   3.682   4.231
 9979SOL    HW230837   3.594   3.571   4.345
 9980SOL     OW30838   0.410   0.339   0.264
 9980SOL    HW130839   0.452   0.254   0.295
 9980SOL    HW230840   0.474   0.415   0.280
 9981SOL     OW30841   6.056   0.928   0.003
 9981SOL    HW130842   6.082   0.865   0.076
 9981SOL    HW230843   6.097   1.017   0.018
 9982SOL     OW30844   2.545   2.422   4.499
 9982SOL    HW130845   2.636   2.404   4.537
 9982SOL    HW230846   2.503   2.335   4.471
 9983SOL     OW30847   0.373   2.762   2.457
 9983SOL    HW130848   0.472   2.751   2.449
 9983SOL    HW230849   0.328   2.702   2.390
 9984SOL     OW30850   0.736   4.528   0.959
 9984SOL    HW130851   0.731   4.542   0.860
 9984SOL    HW230852   0.702   4.609   1.006
 9985SOL     OW30853   4.967   4.444   0.589
 9985SOL    HW130854   4.984   4.437   0.491
 9985SOL    HW230855   5.028   4.513   0.628
 9986SOL     OW30856   5.500   4.950   0.250
 9986SOL    HW130857   5.431   5.001   0.302
 9986SOL    HW230858   5.584   4.942   0.305
 9987SOL     OW30859   4.767   2.374   1.121
 9987SOL    HW130860   4.796   2.459   1.165
 9987SOL    HW230861   4.724   2.314   1.188
 9988SOL     OW30862   5.939   6.539   3.652
 9988SOL    HW130863   5.914   6.528   3.749
 9988SOL    HW230864   5.927   6.451   3.605
 9989SOL     OW30865   6.187   5.443   1.968
 9989SOL    HW130866   6.176   5.539   1.941
 9989SOL    HW230867   6.098   5.402   1.987
 9990SOL     OW30868   0.647   5.984   3.253
 9990SOL    HW130869   0.593   6.065   3.233
 9990SOL    HW230870   0.592   5.919   3.305
 9991SOL     OW30871   2.107   4.316   2.361
 9991SOL    HW130872   2.033   4.303   2.426
 9991SOL    HW230873   2.070   4.343   2.272
 9992SOL     OW30874   2.583   5.076   0.278
 9992SOL    HW130875   2.584   4.988   0.326
 9992SOL    HW230876   2.669   5.125   0.296
 9993SOL     OW30877   3.953   0.342   4.968
 9993SOL    HW130878   3.916   0.434   4.957
 9993SOL    HW230879   3.886   0.275   4.934
 9994SOL     OW30880   5.987   5.376   4.964
 9994SOL    HW130881   5.899   5.330   4.969
 9994SOL    HW230882   5.978   5.462   4.915
 9995SOL     OW30883   4.406   1.348   6.428
 9995SOL    HW130884   4.424   1.331   6.525
 9995SOL    HW230885   4.491   1.338   6.376
 9996SOL     OW30886   2.732   4.563   0.748
 9996SOL    HW130887   2.801   4.521   0.806
 9996SOL    HW230888   2.763   4.654   0.720
 9997SOL     OW30889   6.305   1.189   3.120
 9997SOL    HW130890   6.304   1.193   3.020
 9997SOL    HW230891   6.315   1.282   3.157
 9998SOL     OW30892   5.427   3.603   2.431
 9998SOL    HW130893   5.409   3.700   2.445
 9998SOL    HW230894   5.422   3.582   2.333
 9999SOL     OW30895   0.619   6.886   4.650
 9999SOL    HW130896   0.609   6.794   4.687
 9999SOL    HW230897   0.537   6.912   4.599
10000SOL     OW30898   4.541   2.438   1.447
10000SOL    HW130899   4.484   2.359   1.468
10000SOL    HW230900   4.501   2.488   1.370
10001SOL     OW30901   3.573   6.583   1.709
10001SOL    HW130902   3.642   6.571   1.637
10001SOL    HW230903   3.496   6.522   1.692
10002SOL     OW30904   2.326   0.061   2.042
10002SOL    HW130905   2.373   0.029   1.959
10002SOL    HW230906   2.233   0.089   2.018
10003SOL     OW30907   1.142   1.117   2.368
10003SOL    HW130908   1.143   1.121   2.268
10003SOL    HW230909   1.185   1.200   2.404
10004SOL     OW30910   6.906   3.677   3.663
10004SOL    HW130911   6.997   3.654   3.696
10004SOL    HW230912   6.850   3.709   3.739
10005SOL     OW30913   2.808   5.559   2.849
10005SOL    HW130914   2.751   5.565   2.767
10005SOL    HW230915   2.756   5.515   2.923
10006SOL     OW30916   5.499   1.796   5.551
10006SOL    HW130917   5.417   1.768   5.602
10006SOL    HW230918   5.493   1.894   5.530
10007SOL     OW30919   1.667   5.452   3.598
10007SOL    HW130920   1.590   5.448   3.534
10007SOL    HW230921   1.661   5.376   3.662
10008SOL     OW30922   4.518   0.884   5.992
10008SOL    HW130923   4.507   0.983   6.001
10008SOL    HW230924   4.501   0.856   5.898
10009SOL     OW30925   0.601   4.725   2.579
10009SOL    HW130926   0.651   4.809   2.558
10009SOL    HW230927   0.641   4.649   2.528
10010SOL     OW30928   1.881   4.449   1.140
10010SOL    HW130929   1.892   4.548   1.148
10010SOL    HW230930   1.875   4.424   1.043
10011SOL     OW30931   3.263   3.128   0.311
10011SOL    HW130932   3.307   3.088   0.391
10011SOL    HW230933   3.213   3.211   0.338
10012SOL     OW30934   5.378   1.992   4.108
10012SOL    HW130935   5.380   2.049   4.190
10012SOL    HW230936   5.393   1.896   4.134
10013SOL     OW30937   0.683   6.280   4.288
10013SOL    HW130938   0.627   6.206   4.326
10013SOL    HW230939   0.649   6.368   4.319
10014SOL     OW30940   1.245   1.041   3.112
10014SOL    HW130941   1.235   1.140   3.104
10014SOL    HW230942   1.210   1.011   3.201
10015SOL     OW30943   4.094   6.833   6.384
10015SOL    HW130944   4.011   6.870   6.342
10015SOL    HW230945   4.173   6.851   6.325
10016SOL     OW30946   2.904   1.143   4.619
10016SOL    HW130947   2.824   1.172   4.670
10016SOL    HW230948   2.882   1.136   4.522
10017SOL     OW30949   3.316   1.532   2.734
10017SOL    HW130950   3.301   1.464   2.662
10017SOL    HW230951   3.410   1.524   2.767
10018SOL     OW30952   0.196   4.313   5.187
10018SOL    HW130953   0.197   4.353   5.095
10018SOL    HW230954   0.230   4.381   5.252
10019SOL     OW30955   6.717   2.157   2.224
10019SOL    HW130956   6.752   2.159   2.131
10019SOL    HW230957   6.645   2.226   2.234
10020SOL     OW30958   6.299   0.867   2.395
10020SOL    HW130959   6.341   0.780   2.371
10020SOL    HW230960   6.209   0.874   2.351
10021SOL     OW30961   0.812   3.326   1.579
10021SOL    HW130962   0.854   3.324   1.669
10021SOL    HW230963   0.877   3.363   1.513
10022SOL     OW30964   1.571   6.310   5.642
10022SOL    HW130965   1.575   6.225   5.693
10022SOL    HW230966   1.636   6.306   5.566
10023SOL     OW30967   0.278   1.655   5.605
10023SOL    HW130968   0.214   1.670   5.680
10023SOL    HW230969   0.312   1.561   5.608
10024SOL     OW30970   1.935   4.823   3.095
10024SOL    HW130971   1.888   4.738   3.068
10024SOL    HW230972   2.015   4.835   3.037
10025SOL     OW30973   0.786   3.083   1.299
10025SOL    HW130974   0.863   3.137   1.265
10025SOL    HW230975   0.799   3.064   1.397
10026SOL     OW30976   5.733   1.019   4.872
10026SOL    HW130977   5.635   1.040   4.880
10026SOL    HW230978   5.786   1.098   4.903
10027SOL     OW30979   3.442   1.599   5.483
10027SOL    HW130980   3.512   1.540   5.523
10027SOL    HW230981   3.368   1.543   5.446
10028SOL     OW30982   3.996   0.096   2.183
10028SOL    HW130983   4.027   0.122   2.275
10028SOL    HW230984   4.018   0.168   2.119
10029SOL     OW30985   0.170   4.260   4.071
10029SOL    HW130986   0.227   4.292   4.147
10029SOL    HW230987   0.104   4.332   4.047
10030SOL     OW30988   2.544   0.041   4.548
10030SOL    HW130989   2.527   0.138   4.535
10030SOL    HW230990   2.465   7.019   4.592
10031SOL     OW30991   2.014   6.043   3.304
10031SOL    HW130992   2.102   6.087   3.283
10031SOL    HW230993   1.960   6.105   3.361
10032SOL     OW30994   3.441   5.998   4.289
10032SOL    HW130995   3.355   6.023   4.246
10032SOL    HW230996   3.500   5.953   4.223
10033SOL     OW30997   3.328   1.151   5.429
10033SOL    HW130998   3.317   1.063   5.476
10033SOL    HW230999   3.240   1.198   5.425
10034SOL     OW31000   2.553   1.382   2.288
10034SOL    HW131001   2.634   1.441   2.290
10034SOL    HW231002   2.580   1.288   2.308
10035SOL     OW31003   6.549   2.868   2.701
10035SOL    HW131004   6.558   2.927   2.620
10035SOL    HW231005   6.640   2.840   2.732
10036SOL     OW31006   1.192   0.736   7.018
10036SOL    HW131007   1.194   0.832   0.027
10036SOL    HW231008   1.201   0.731   6.919
10037SOL     OW31009   5.966   6.806   6.045
10037SOL    HW131010   5.910   6.726   6.021
10037SOL    HW231011   6.062   6.780   6.049
10038SOL     OW31012   4.996   6.303   6.571
10038SOL    HW131013   4.963   6.226   6.518
10038SOL    HW231014   5.094   6.314   6.556
10039SOL     OW31015   0.171   5.736   1.993
10039SOL    HW131016   0.224   5.731   1.909
10039SOL    HW231017   0.191   5.821   2.041
10040SOL     OW31018   2.230   6.964   0.388
10040SOL    HW131019   2.176   6.934   0.308
10040SOL    HW231020   2.169   6.976   0.466
10041SOL     OW31021   5.714   5.530   5.295
10041SOL    HW131022   5.630   5.502   5.249
10041SOL    HW231023   5.776   5.451   5.300
10042SOL     OW31024   6.824   0.661   4.920
10042SOL    HW131025   6.738   0.634   4.878
10042SOL    HW231026   6.806   0.729   4.991
10043SOL     OW31027   0.473   0.621   3.375
10043SOL    HW131028   0.395   0.571   3.413
10043SOL    HW231029   0.557   0.574   3.398
10044SOL     OW31030   2.892   1.954   0.218
10044SOL    HW131031   2.918   1.970   0.314
10044SOL    HW231032   2.905   2.038   0.166
10045SOL     OW31033   4.079   6.658   5.043
10045SOL    HW131034   4.022   6.584   5.079
10045SOL    HW231035   4.133   6.697   5.118
10046SOL     OW31036   6.245   2.088   1.847
10046SOL    HW131037   6.313   2.122   1.912
10046SOL    HW231038   6.165   2.148   1.848
10047SOL     OW31039   0.448   2.697   3.332
10047SOL    HW131040   0.453   2.598   3.345
10047SOL    HW231041   0.487   2.721   3.243
10048SOL     OW31042   3.650   2.594   1.742
10048SOL    HW131043   3.715   2.669   1.754
10048SOL    HW231044   3.697   2.507   1.756
10049SOL     OW31045   2.023   6.374   4.506
10049SOL    HW131046   1.972   6.340   4.427
10049SOL    HW231047   2.106   6.321   4.518
10050SOL     OW31048   5.350   0.867   4.664
10050SOL    HW131049   5.263   0.911   4.639
10050SOL    HW231050   5.403   0.930   4.721
10051SOL     OW31051   6.251   2.182   0.142
10051SOL    HW131052   6.325   2.141   0.088
10051SOL    HW231053   6.288   2.254   0.200
10052SOL     OW31054   1.359   4.549   2.007
10052SOL    HW131055   1.262   4.525   2.012
10052SOL    HW231056   1.408   4.480   1.954
10053SOL     OW31057   3.070   6.646   3.371
10053SOL    HW131058   3.006   6.659   3.447
10053SOL    HW231059   3.154   6.698   3.389
10054SOL     OW31060   4.290   5.789   3.798
10054SOL    HW131061   4.381   5.758   3.770
10054SOL    HW231062   4.297   5.843   3.881
10055SOL     OW31063   6.205   3.135   6.722
10055SOL    HW131064   6.269   3.107   6.651
10055SOL    HW231065   6.195   3.062   6.789
10056SOL     OW31066   6.281   4.800   2.151
10056SOL    HW131067   6.249   4.856   2.228
10056SOL    HW231068   6.380   4.814   2.139
10057SOL     OW31069   2.386   1.998   3.814
10057SOL    HW131070   2.316   2.012   3.884
10057SOL    HW231071   2.374   2.066   3.741
10058SOL     OW31072   1.005   4.738   3.630
10058SOL    HW131073   1.085   4.783   3.670
10058SOL    HW231074   0.923   4.791   3.650
10059SOL     OW31075   5.444   6.777   1.624
10059SOL    HW131076   5.357   6.814   1.591
10059SOL    HW231077   5.479   6.835   1.697
10060SOL     OW31078   2.331   2.653   2.347
10060SOL    HW131079   2.403   2.639   2.414
10060SOL    HW231080   2.370   2.683   2.260
10061SOL     OW31081   6.389   2.086   4.688
10061SOL    HW131082   6.454   2.065   4.615
10061SOL    HW231083   6.398   2.019   4.762
10062SOL     OW31084   5.870   5.667   2.998
10062SOL    HW131085   5.824   5.756   3.004
10062SOL    HW231086   5.865   5.633   2.904
10063SOL     OW31087   0.650   2.419   2.626
10063SOL    HW131088   0.623   2.503   2.675
10063SOL    HW231089   0.607   2.340   2.670
10064SOL     OW31090   5.558   5.772   5.301
10064SOL    HW131091   5.522   5.821   5.222
10064SOL    HW231092   5.606   5.690   5.271
10065SOL     OW31093   0.383   6.576   3.375
10065SOL    HW131094   0.368   6.509   3.303
10065SOL    HW231095   0.478   6.606   3.375
10066SOL     OW31096   0.683   0.239   3.296
10066SOL    HW131097   0.678   0.262   3.393
10066SOL    HW231098   0.762   0.285   3.255
10067SOL     OW31099   4.949   6.833   3.466
10067SOL    HW131100   4.874   6.847   3.402
10067SOL    HW231101   4.924   6.762   3.532
10068SOL     OW31102   4.795   3.735   5.678
10068SOL    HW131103   4.762   3.803   5.745
10068SOL    HW231104   4.882   3.766   5.640
10069SOL     OW31105   5.022   1.155   3.875
10069SOL    HW131106   5.009   1.203   3.789
10069SOL    HW231107   4.944   1.094   3.891
10070SOL     OW31108   1.155   6.927   4.211
10070SOL    HW131109   1.252   6.948   4.219
10070SOL    HW231110   1.131   6.857   4.278
10071SOL     OW31111   5.133   5.111   5.227
10071SOL    HW131112   5.165   5.049   5.155
10071SOL    HW231113   5.193   5.103   5.306
10072SOL     OW31114   1.212   0.060   3.425
10072SOL    HW131115   1.165   6.997   3.452
10072SOL    HW231116   1.273   0.041   3.348
10073SOL     OW31117   0.297   5.236   6.443
10073SOL    HW131118   0.222   5.179   6.410
10073SOL    HW231119   0.302   5.229   6.543
10074SOL     OW31120   2.526   6.986   5.528
10074SOL    HW131121   2.526   6.994   5.429
10074SOL    HW231122   2.609   6.940   5.559
10075SOL     OW31123   1.420   2.384   3.548
10075SOL    HW131124   1.408   2.483   3.550
10075SOL    HW231125   1.491   2.361   3.481
10076SOL     OW31126   5.471   0.273   4.280
10076SOL    HW131127   5.483   0.354   4.223
10076SOL    HW231128   5.437   0.197   4.224
10077SOL     OW31129   2.910   1.095   6.703
10077SOL    HW131130   2.814   1.088   6.674
10077SOL    HW231131   2.933   1.191   6.718
10078SOL     OW31132   5.659   6.076   5.403
10078SOL    HW131133   5.758   6.090   5.402
10078SOL    HW231134   5.635   5.999   5.344
10079SOL     OW31135   6.460   2.613   6.241
10079SOL    HW131136   6.383   2.552   6.222
10079SOL    HW231137   6.524   2.612   6.164
10080SOL     OW31138   1.276   2.205   6.179
10080SOL    HW131139   1.318   2.264   6.111
10080SOL    HW231140   1.325   2.118   6.183
10081SOL     OW31141   0.184   1.238   0.152
10081SOL    HW131142   0.264   1.271   0.202
10081SOL    HW231143   0.136   1.315   0.112
10082SOL     OW31144   6.819   0.624   0.589
10082SOL    HW131145   6.823   0.559   0.513
10082SOL    HW231146   6.911   0.659   0.608
10083SOL     OW31147   5.161   1.265   4.343
10083SOL    HW131148   5.251   1.261   4.299
10083SOL    HW231149   5.090   1.250   4.275
10084SOL     OW31150   2.191   0.986   6.350
10084SOL    HW131151   2.135   0.924   6.296
10084SOL    HW231152   2.188   1.078   6.310
10085SOL     OW31153   0.854   5.597   2.226
10085SOL    HW131154   0.834   5.508   2.185
10085SOL    HW231155   0.933   5.638   2.180
10086SOL     OW31156   6.621   3.646   2.405
10086SOL    HW131157   6.625   3.614   2.311
10086SOL    HW231158   6.527   3.639   2.439
10087SOL     OW31159   1.640   0.049   3.781
10087SOL    HW131160   1.683   6.988   3.820
10087SOL    HW231161   1.636   0.040   3.682
10088SOL     OW31162   6.818   0.355   4.697
10088SOL    HW131163   6.888   0.376   4.765
10088SOL    HW231164   6.729   0.386   4.730
10089SOL     OW31165   1.893   3.065   2.279
10089SOL    HW131166   1.992   3.082   2.282
10089SOL    HW231167   1.856   3.066   2.372
10090SOL     OW31168   0.191   4.131   1.721
10090SOL    HW131169   0.184   4.035   1.749
10090SOL    HW231170   0.258   4.139   1.647
10091SOL     OW31171   0.531   2.307   4.186
10091SOL    HW131172   0.567   2.282   4.096
10091SOL    HW231173   0.488   2.227   4.228
10092SOL     OW31174   1.748   3.276   4.816
10092SOL    HW131175   1.820   3.207   4.815
10092SOL    HW231176   1.735   3.312   4.724
10093SOL     OW31177   6.792   5.341   6.605
10093SOL    HW131178   6.844   5.425   6.590
10093SOL    HW231179   6.855   5.267   6.630
10094SOL     OW31180   1.465   1.510   2.075
10094SOL    HW131181   1.521   1.580   2.121
10094SOL    HW231182   1.442   1.541   1.983
10095SOL     OW31183   0.476   0.927   5.897
10095SOL    HW131184   0.575   0.926   5.879
10095SOL    HW231185   0.461   0.939   5.996
10096SOL     OW31186   0.013   4.629   2.155
10096SOL    HW131187   6.995   4.721   2.154
10096SOL    HW231188   0.067   4.613   2.073
10097SOL     OW31189   1.063   2.253   6.357
10097SOL    HW131190   1.098   2.286   6.445
10097SOL    HW231191   1.138   2.249   6.291
10098SOL     OW31192   3.297   5.068   6.627
10098SOL    HW131193   3.269   5.042   6.719
10098SOL    HW231194   3.261   5.159   6.605
10099SOL     OW31195   6.449   4.336   4.509
10099SOL    HW131196   6.475   4.353   4.604
10099SOL    HW231197   6.519   4.374   4.448
10100SOL     OW31198   5.379   0.450   5.290
10100SOL    HW131199   5.293   0.473   5.335
10100SOL    HW231200   5.449   0.428   5.359
10101SOL     OW31201   6.718   4.677   2.338
10101SOL    HW131202   6.626   4.680   2.379
10101SOL    HW231203   6.785   4.705   2.407
10102SOL     OW31204   3.690   1.146   3.604
10102SOL    HW131205   3.687   1.225   3.665
10102SOL    HW231206   3.679   1.176   3.510
10103SOL     OW31207   1.964   1.899   0.396
10103SOL    HW131208   1.961   1.999   0.392
10103SOL    HW231209   1.912   1.861   0.319
10104SOL     OW31210   1.936   5.778   5.382
10104SOL    HW131211   1.923   5.777   5.481
10104SOL    HW231212   1.999   5.852   5.358
10105SOL     OW31213   2.970   0.098   6.719
10105SOL    HW131214   2.989   0.019   6.661
10105SOL    HW231215   2.884   0.082   6.768
10106SOL     OW31216   5.145   5.739   0.970
10106SOL    HW131217   5.121   5.715   1.065
10106SOL    HW231218   5.244   5.736   0.960
10107SOL     OW31219   5.503   0.751   6.069
10107SOL    HW131220   5.439   0.744   5.993
10107SOL    HW231221   5.536   0.845   6.075
10108SOL     OW31222   5.973   6.238   6.799
10108SOL    HW131223   5.992   6.241   6.701
10108SOL    HW231224   5.986   6.145   6.833
10109SOL     OW31225   4.702   5.052   3.796
10109SOL    HW131226   4.748   5.141   3.800
10109SOL    HW231227   4.607   5.065   3.770
10110SOL     OW31228   3.561   1.376   6.010
10110SOL    HW131229   3.514   1.341   5.929
10110SOL    HW231230   3.496   1.386   6.085
10111SOL     OW31231   0.303   2.418   2.481
10111SOL    HW131232   0.253   2.504   2.472
10111SOL    HW231233   0.376   2.414   2.413
10112SOL     OW31234   4.226   4.481   6.190
10112SOL    HW131235   4.244   4.476   6.092
10112SOL    HW231236   4.279   4.556   6.230
10113SOL     OW31237   3.974   6.247   0.641
10113SOL    HW131238   4.034   6.211   0.713
10113SOL    HW231239   4.026   6.308   0.581
10114SOL     OW31240   4.219   1.890   1.498
10114SOL    HW131241   4.179   1.925   1.583
10114SOL    HW231242   4.164   1.813   1.466
10115SOL     OW31243   1.209   2.222   3.930
10115SOL    HW131244   1.243   2.227   3.836
10115SOL    HW231245   1.123   2.272   3.937
10116SOL     OW31246   0.886   0.745   1.039
10116SOL    HW131247   0.797   0.786   1.061
10116SOL    HW231248   0.933   0.720   1.124
10117SOL     OW31249   5.209   0.413   5.993
10117SOL    HW131250   5.232   0.478   6.066
10117SOL    HW231251   5.228   0.320   6.024
10118SOL     OW31252   6.420   4.946   2.509
10118SOL    HW131253   6.514   4.980   2.515
10118SOL    HW231254   6.370   4.999   2.441
10119SOL     OW31255   2.679   0.473   5.415
10119SOL    HW131256   2.766   0.516   5.439
10119SOL    HW231257   2.608   0.506   5.477
10120SOL     OW31258   5.744   3.158   3.919
10120SOL    HW131259   5.703   3.154   3.828
10120SOL    HW231260   5.844   3.156   3.910
10121SOL     OW31261   5.783   5.026   4.333
10121SOL    HW131262   5.813   4.931   4.348
10121SOL    HW231263   5.829   5.086   4.398
10122SOL     OW31264   5.409   3.681   6.988
10122SOL    HW131265   5.321   3.710   6.953
10122SOL    HW231266   5.422   3.716   0.061
10123SOL     OW31267   0.095   6.913   0.326
10123SOL    HW131268   0.090   6.840   0.394
10123SOL    HW231269   0.046   6.993   0.360
10124SOL     OW31270   2.889   4.754   0.622
10124SOL    HW131271   2.942   4.677   0.587
10124SOL    HW231272   2.951   4.820   0.665
10125SOL     OW31273   1.556   0.342   0.984
10125SOL    HW131274   1.512   0.362   1.072
10125SOL    HW231275   1.501   0.276   0.933
10126SOL     OW31276   5.684   5.120   0.116
10126SOL    HW131277   5.664   5.150   0.022
10126SOL    HW231278   5.627   5.041   0.138
10127SOL     OW31279   3.634   4.290   5.408
10127SOL    HW131280   3.713   4.234   5.384
10127SOL    HW231281   3.550   4.238   5.393
10128SOL     OW31282   0.205   2.043   1.350
10128SOL    HW131283   0.254   2.121   1.312
10128SOL    HW231284   0.271   1.975   1.383
10129SOL     OW31285   5.232   2.817   3.362
10129SOL    HW131286   5.139   2.837   3.391
10129SOL    HW231287   5.234   2.728   3.316
10130SOL     OW31288   6.552   5.384   1.578
10130SOL    HW131289   6.642   5.399   1.538
10130SOL    HW231290   6.517   5.470   1.615
10131SOL     OW31291   6.628   0.668   1.241
10131SOL    HW131292   6.683   0.659   1.157
10131SOL    HW231293   6.686   0.703   1.314
10132SOL     OW31294   2.740   0.176   2.569
10132SOL    HW131295   2.664   0.218   2.518
10132SOL    HW231296   2.717   0.174   2.666
10133SOL     OW31297   5.152   5.132   3.406
10133SOL    HW131298   5.144   5.050   3.461
10133SOL    HW231299   5.203   5.202   3.456
10134SOL     OW31300   0.316   1.591   2.317
10134SOL    HW131301   0.237   1.538   2.288
10134SOL    HW231302   0.342   1.564   2.410
10135SOL     OW31303   3.040   5.931   2.739
10135SOL    HW131304   3.123   5.876   2.744
10135SOL    HW231305   3.034   5.974   2.649
10136SOL     OW31306   6.707   0.320   2.194
10136SOL    HW131307   6.652   0.239   2.213
10136SOL    HW231308   6.649   0.394   2.161
10137SOL     OW31309   5.531   5.130   4.550
10137SOL    HW131310   5.444   5.136   4.599
10137SOL    HW231311   5.599   5.186   4.596
10138SOL     OW31312   5.430   2.289   6.659
10138SOL    HW131313   5.405   2.365   6.600
10138SOL    HW231314   5.376   2.208   6.634
10139SOL     OW31315   3.925   2.998   3.482
10139SOL    HW131316   3.868   2.939   3.540
10139SOL    HW231317   3.917   2.969   3.387
10140SOL     OW31318   0.739   4.951   4.946
10140SOL    HW131319   0.658   4.907   4.906
10140SOL    HW231320   0.714   4.994   5.032
10141SOL     OW31321   2.055   0.493   3.974
10141SOL    HW131322   2.116   0.482   3.895
10141SOL    HW231323   1.962   0.508   3.942
10142SOL     OW31324   4.787   6.100   4.454
10142SOL    HW131325   4.790   6.002   4.470
10142SOL    HW231326   4.698   6.136   4.481
10143SOL     OW31327   5.014   6.045   1.487
10143SOL    HW131328   5.008   6.133   1.439
10143SOL    HW231329   4.980   5.972   1.428
10144SOL     OW31330   2.693   5.403   3.033
10144SOL    HW131331   2.777   5.352   3.052
10144SOL    HW231332   2.619   5.339   3.013
10145SOL     OW31333   2.755   6.483   5.682
10145SOL    HW131334   2.811   6.405   5.654
10145SOL    HW231335   2.795   6.523   5.765
10146SOL     OW31336   5.149   4.802   4.628
10146SOL    HW131337   5.212   4.778   4.554
10146SOL    HW231338   5.108   4.719   4.666
10147SOL     OW31339   5.011   5.518   4.343
10147SOL    HW131340   5.032   5.582   4.417
10147SOL    HW231341   5.046   5.428   4.365
10148SOL     OW31342   5.856   5.036   0.344
10148SOL    HW131343   5.889   4.957   0.293
10148SOL    HW231344   5.825   5.106   0.280
10149SOL     OW31345   4.050   3.547   0.840
10149SOL    HW131346   3.980   3.497   0.789
10149SOL    HW231347   4.118   3.483   0.876
10150SOL     OW31348   5.184   4.190   1.209
10150SOL    HW131349   5.213   4.186   1.305
10150SOL    HW231350   5.104   4.250   1.201
10151SOL     OW31351   1.832   6.748   5.785
10151SOL    HW131352   1.870   6.707   5.702
10151SOL    HW231353   1.783   6.677   5.837
10152SOL     OW31354   0.277   5.408   3.715
10152SOL    HW131355   0.341   5.350   3.665
10152SOL    HW231356   0.320   5.439   3.800
10153SOL     OW31357   5.677   6.651   3.546
10153SOL    HW131358   5.615   6.599   3.487
10153SOL    HW231359   5.769   6.612   3.541
10154SOL     OW31360   6.532   5.559   5.593
10154SOL    HW131361   6.525   5.572   5.495
10154SOL    HW231362   6.602   5.621   5.630
10155SOL     OW31363   3.644   1.579   6.909
10155SOL    HW131364   3.648   1.501   6.847
10155SOL    HW231365   3.737   1.610   6.931
10156SOL     OW31366   5.951   0.075   2.137
10156SOL    HW131367   6.009   0.058   2.217
10156SOL    HW231368   5.876   0.008   2.136
10157SOL     OW31369   5.270   0.999   5.518
10157SOL    HW131370   5.247   1.090   5.484
10157SOL    HW231371   5.186   0.947   5.533
10158SOL     OW31372   4.425   3.925   6.172
10158SOL    HW131373   4.488   4.003   6.167
10158SOL    HW231374   4.332   3.959   6.184
10159SOL     OW31375   1.306   1.115   6.481
10159SOL    HW131376   1.390   1.162   6.455
10159SOL    HW231377   1.269   1.067   6.401
10160SOL     OW31378   0.863   5.963   3.086
10160SOL    HW131379   0.774   5.971   3.132
10160SOL    HW231380   0.871   5.872   3.045
10161SOL     OW31381   2.149   5.837   5.839
10161SOL    HW131382   2.237   5.877   5.814
10161SOL    HW231383   2.157   5.794   5.929
10162SOL     OW31384   3.142   2.020   0.009
10162SOL    HW131385   3.227   2.068   7.010
10162SOL    HW231386   3.075   2.083   0.048
10163SOL     OW31387   6.657   2.725   5.578
10163SOL    HW131388   6.598   2.718   5.498
10163SOL    HW231389   6.625   2.662   5.649
10164SOL     OW31390   0.633   2.649   5.366
10164SOL    HW131391   0.542   2.675   5.331
10164SOL    HW231392   0.632   2.651   5.466
10165SOL     OW31393   6.617   2.253   3.667
10165SOL    HW131394   6.541   2.316   3.681
10165SOL    HW231395   6.700   2.293   3.706
10166SOL     OW31396   0.970   0.657   2.585
10166SOL    HW131397   1.029   0.733   2.559
10166SOL    HW231398   1.027   0.575   2.601
10167SOL     OW31399   4.292   0.271   0.620
10167SOL    HW131400   4.324   0.339   0.685
10167SOL    HW231401   4.370   0.219   0.586
10168SOL     OW31402   6.496   3.985   4.449
10168SOL    HW131403   6.454   4.036   4.374
10168SOL    HW231404   6.568   4.041   4.491
10169SOL     OW31405   6.364   4.118   4.225
10169SOL    HW131406   6.298   4.083   4.159
10169SOL    HW231407   6.457   4.097   4.193
10170SOL     OW31408   1.538   3.920   4.683
10170SOL    HW131409   1.531   3.911   4.783
10170SOL    HW231410   1.617   3.977   4.661
10171SOL     OW31411   6.363   3.063   5.810
10171SOL    HW131412   6.462   3.058   5.794
10171SOL    HW231413   6.315   3.019   5.734
10172SOL     OW31414   4.811   1.313   3.657
10172SOL    HW131415   4.894   1.339   3.608
10172SOL    HW231416   4.777   1.226   3.622
10173SOL     OW31417   2.270   1.952   2.205
10173SOL    HW131418   2.326   2.025   2.245
10173SOL    HW231419   2.320   1.910   2.130
10174SOL     OW31420   6.075   4.804   1.039
10174SOL    HW131421   6.077   4.796   0.939
10174SOL    HW231422   6.097   4.898   1.066
10175SOL     OW31423   6.069   1.967   6.446
10175SOL    HW131424   6.049   1.945   6.351
10175SOL    HW231425   5.996   2.023   6.484
10176SOL     OW31426   2.268   4.016   6.908
10176SOL    HW131427   2.289   4.050   7.000
10176SOL    HW231428   2.352   3.982   6.866
10177SOL     OW31429   1.852   0.154   6.082
10177SOL    HW131430   1.905   0.071   6.059
10177SOL    HW231431   1.893   0.198   6.162
10178SOL     OW31432   5.722   2.520   4.864
10178SOL    HW131433   5.625   2.497   4.872
10178SOL    HW231434   5.776   2.435   4.865
10179SOL     OW31435   0.985   3.018   6.535
10179SOL    HW131436   1.066   3.076   6.538
10179SOL    HW231437   0.943   3.023   6.444
10180SOL     OW31438   2.603   6.759   5.298
10180SOL    HW131439   2.577   6.851   5.268
10180SOL    HW231440   2.539   6.692   5.261
10181SOL     OW31441   5.821   3.052   1.598
10181SOL    HW131442   5.827   3.146   1.629
10181SOL    HW231443   5.772   3.048   1.511
10182SOL     OW31444   5.804   1.543   0.435
10182SOL    HW131445   5.725   1.501   0.480
10182SOL    HW231446   5.822   1.632   0.477
10183SOL     OW31447   1.648   2.054   6.503
10183SOL    HW131448   1.596   2.139   6.516
10183SOL    HW231449   1.732   2.058   6.556
10184SOL     OW31450   4.476   0.337   6.127
10184SOL    HW131451   4.478   0.428   6.168
10184SOL    HW231452   4.410   0.279   6.176
10185SOL     OW31453   4.921   0.910   6.962
10185SOL    HW131454   5.005   0.963   6.970
10185SOL    HW231455   4.893   0.880   0.033
10186SOL     OW31456   4.060   2.094   3.291
10186SOL    HW131457   4.108   2.155   3.228
10186SOL    HW231458   4.115   2.082   3.374
10187SOL     OW31459   1.191   2.371   2.418
10187SOL    HW131460   1.121   2.437   2.389
10187SOL    HW231461   1.234   2.402   2.502
10188SOL     OW31462   3.405   4.979   1.120
10188SOL    HW131463   3.497   5.013   1.139
10188SOL    HW231464   3.357   4.963   1.206
10189SOL     OW31465   1.468   6.622   5.323
10189SOL    HW131466   1.450   6.689   5.395
10189SOL    HW231467   1.514   6.667   5.247
10190SOL     OW31468   5.166   2.256   0.289
10190SOL    HW131469   5.116   2.306   0.219
10190SOL    HW231470   5.130   2.163   0.295
10191SOL     OW31471   6.398   4.317   6.928
10191SOL    HW131472   6.373   4.407   6.963
10191SOL    HW231473   6.462   4.328   6.852
10192SOL     OW31474   3.118   0.844   6.924
10192SOL    HW131475   3.179   0.920   6.900
10192SOL    HW231476   3.040   0.843   6.861
10193SOL     OW31477   4.004   3.961   0.128
10193SOL    HW131478   4.090   3.938   0.083
10193SOL    HW231479   4.021   3.983   0.223
10194SOL     OW31480   5.010   3.509   5.808
10194SOL    HW131481   5.108   3.509   5.787
10194SOL    HW231482   4.980   3.602   5.828
10195SOL     OW31483   6.439   4.190   1.644
10195SOL    HW131484   6.448   4.285   1.672
10195SOL    HW231485   6.447   4.131   1.724
10196SOL     OW31486   0.507   1.669   5.003
10196SOL    HW131487   0.563   1.746   5.036
10196SOL    HW231488   0.503   1.671   4.903
10197SOL     OW31489   5.788   0.890   6.678
10197SOL    HW131490   5.859   0.897   6.608
10197SOL    HW231491   5.705   0.850   6.637
10198SOL     OW31492   4.275   6.848   3.384
10198SOL    HW131493   4.230   6.793   3.454
10198SOL    HW231494   4.296   6.939   3.422
10199SOL     OW31495   0.995   2.103   5.641
10199SOL    HW131496   0.991   2.162   5.722
10199SOL    HW231497   1.088   2.069   5.629
10200SOL     OW31498   5.658   1.861   1.549
10200SOL    HW131499   5.584   1.925   1.569
10200SOL    HW231500   5.725   1.863   1.624
10201SOL     OW31501   0.688   3.825   0.549
10201SOL    HW131502   0.698   3.735   0.507
10201SOL    HW231503   0.729   3.894   0.489
10202SOL     OW31504   4.284   0.680   4.137
10202SOL    HW131505   4.274   0.779   4.125
10202SOL    HW231506   4.337   0.642   4.061
10203SOL     OW31507   6.621   2.622   4.761
10203SOL    HW131508   6.598   2.575   4.846
10203SOL    HW231509   6.672   2.705   4.780
10204SOL     OW31510   5.697   4.973   6.526
10204SOL    HW131511   5.726   5.045   6.463
10204SOL    HW231512   5.762   4.897   6.522
10205SOL     OW31513   1.062   0.541   5.933
10205SOL    HW131514   1.018   0.525   6.021
10205SOL    HW231515   1.158   0.562   5.947
10206SOL     OW31516   1.476   0.815   4.645
10206SOL    HW131517   1.560   0.869   4.654
10206SOL    HW231518   1.433   0.834   4.557
10207SOL     OW31519   2.235   2.036   5.228
10207SOL    HW131520   2.135   2.037   5.225
10207SOL    HW231521   2.268   2.120   5.272
10208SOL     OW31522   7.020   5.779   5.571
10208SOL    HW131523   0.010   5.765   5.670
10208SOL    HW231524   0.070   5.842   5.539
10209SOL     OW31525   0.123   0.120   5.663
10209SOL    HW131526   0.082   0.064   5.591
10209SOL    HW231527   0.110   0.075   5.752
10210SOL     OW31528   2.802   0.018   1.331
10210SOL    HW131529   2.747   0.086   1.379
10210SOL    HW231530   2.899   0.031   1.353
10211SOL     OW31531   5.429   5.894   5.929
10211SOL    HW131532   5.395   5.922   6.018
10211SOL    HW231533   5.511   5.947   5.907
10212SOL     OW31534   0.783   0.391   6.400
10212SOL    HW131535   0.877   0.422   6.382
10212SOL    HW231536   0.751   0.336   6.323
10213SOL     OW31537   6.610   2.016   1.073
10213SOL    HW131538   6.608   1.920   1.046
10213SOL    HW231539   6.522   2.042   1.112
10214SOL     OW31540   1.030   2.165   7.005
10214SOL    HW131541   0.981   2.208   6.929
10214SOL    HW231542   1.115   2.215   0.002
10215SOL     OW31543   2.842   3.361   1.993
10215SOL    HW131544   2.808   3.434   2.053
10215SOL    HW231545   2.765   3.313   1.952
10216SOL     OW31546   0.576   6.509   2.118
10216SOL    HW131547   0.655   6.457   2.085
10216SOL    HW231548   0.557   6.584   2.056
10217SOL     OW31549   3.561   1.479   4.826
10217SOL    HW131550   3.560   1.474   4.926
10217SOL    HW231551   3.610   1.561   4.797
10218SOL     OW31552   1.271   3.151   2.609
10218SOL    HW131553   1.255   3.218   2.536
10218SOL    HW231554   1.330   3.078   2.574
10219SOL     OW31555   0.019   5.901   3.328
10219SOL    HW131556   6.964   5.894   3.262
10219SOL    HW231557   0.104   5.922   3.280
10220SOL     OW31558   3.348   2.938   0.508
10220SOL    HW131559   3.415   2.923   0.580
10220SOL    HW231560   3.269   2.879   0.523
10221SOL     OW31561   0.890   5.362   4.037
10221SOL    HW131562   0.792   5.372   4.054
10221SOL    HW231563   0.911   5.394   3.945
10222SOL     OW31564   3.414   3.441   4.172
10222SOL    HW131565   3.446   3.429   4.266
10222SOL    HW231566   3.492   3.457   4.111
10223SOL     OW31567   1.789   5.911   1.053
10223SOL    HW131568   1.770   5.869   0.965
10223SOL    HW231569   1.854   5.986   1.041
10224SOL     OW31570   6.143   4.030   3.091
10224SOL    HW131571   6.086   4.106   3.061
10224SOL    HW231572   6.239   4.058   3.094
10225SOL     OW31573   2.176   3.732   5.527
10225SOL    HW131574   2.134   3.823   5.528
10225SOL    HW231575   2.256   3.733   5.467
10226SOL     OW31576   5.034   3.384   0.427
10226SOL    HW131577   5.014   3.365   0.331
10226SOL    HW231578   5.040   3.483   0.442
10227SOL     OW31579   5.567   3.044   1.458
10227SOL    HW131580   5.487   3.100   1.438
10227SOL    HW231581   5.585   3.046   1.556
10228SOL     OW31582   5.398   0.716   0.671
10228SOL    HW131583   5.421   0.793   0.611
10228SOL    HW231584   5.455   0.721   0.754
10229SOL     OW31585   6.955   2.919   5.132
10229SOL    HW131586   6.973   2.929   5.035
10229SOL    HW231587   6.918   2.827   5.150
10230SOL     OW31588   6.921   6.121   1.613
10230SOL    HW131589   6.968   6.184   1.675
10230SOL    HW231590   6.880   6.047   1.666
10231SOL     OW31591   0.671   5.029   2.592
10231SOL    HW131592   0.723   5.104   2.552
10231SOL    HW231593   0.574   5.049   2.588
10232SOL     OW31594   5.070   4.490   3.332
10232SOL    HW131595   5.050   4.437   3.249
10232SOL    HW231596   4.986   4.504   3.384
10233SOL     OW31597   2.982   4.371   5.614
10233SOL    HW131598   2.965   4.381   5.516
10233SOL    HW231599   3.081   4.366   5.630
10234SOL     OW31600   0.689   1.146   2.278
10234SOL    HW131601   0.779   1.128   2.239
10234SOL    HW231602   0.620   1.146   2.205
10235SOL     OW31603   1.439   1.243   3.152
10235SOL    HW131604   1.454   1.177   3.226
10235SOL    HW231605   1.451   1.196   3.064
10236SOL     OW31606   1.585   0.095   2.342
10236SOL    HW131607   1.548   0.152   2.415
10236SOL    HW231608   1.667   0.138   2.303
10237SOL     OW31609   0.508   3.669   4.706
10237SOL    HW131610   0.455   3.585   4.719
10237SOL    HW231611   0.589   3.666   4.765
10238SOL     OW31612   2.771   0.130   1.710
10238SOL    HW131613   2.706   0.132   1.634
10238SOL    HW231614   2.844   0.197   1.694
10239SOL     OW31615   0.748   2.048   4.250
10239SOL    HW131616   0.653   2.017   4.251
10239SOL    HW231617   0.777   2.063   4.156
10240SOL     OW31618   1.767   6.088   0.759
10240SOL    HW131619   1.804   6.155   0.823
10240SOL    HW231620   1.670   6.107   0.743
10241SOL     OW31621   4.193   2.884   1.387
10241SOL    HW131622   4.225   2.823   1.459
10241SOL    HW231623   4.130   2.836   1.327
10242SOL     OW31624   0.268   3.084   6.671
10242SOL    HW131625   0.262   3.158   6.738
10242SOL    HW231626   0.314   3.118   6.589
10243SOL     OW31627   2.806   5.905   1.626
10243SOL    HW131628   2.827   5.817   1.668
10243SOL    HW231629   2.724   5.944   1.668
10244SOL     OW31630   2.716   5.321   1.985
10244SOL    HW131631   2.619   5.338   1.966
10244SOL    HW231632   2.728   5.308   2.084
10245SOL     OW31633   5.013   4.092   0.852
10245SOL    HW131634   5.110   4.096   0.876
10245SOL    HW231635   4.959   4.139   0.922
10246SOL     OW31636   2.966   3.212   4.140
10246SOL    HW131637   2.895   3.201   4.210
10246SOL    HW231638   2.956   3.141   4.070
10247SOL     OW31639   0.839   3.138   4.518
10247SOL    HW131640   0.810   3.086   4.438
10247SOL    HW231641   0.760   3.185   4.557
10248SOL     OW31642   0.916   1.279   4.624
10248SOL    HW131643   0.828   1.231   4.621
10248SOL    HW231644   0.912   1.360   4.566
10249SOL     OW31645   2.853   5.415   6.081
10249SOL    HW131646   2.917   5.360   6.028
10249SOL    HW231647   2.818   5.490   6.023
10250SOL     OW31648   3.675   2.400   0.789
10250SOL    HW131649   3.728   2.367   0.711
10250SOL    HW231650   3.731   2.395   0.872
10251SOL     OW31651   1.652   0.271   4.365
10251SOL    HW131652   1.639   0.182   4.411
10251SOL    HW231653   1.577   0.332   4.389
10252SOL     OW31654   5.342   4.567   5.833
10252SOL    HW131655   5.249   4.573   5.798
10252SOL    HW231656   5.344   4.589   5.930
10253SOL     OW31657   3.923   6.233   6.354
10253SOL    HW131658   3.875   6.201   6.436
10253SOL    HW231659   3.906   6.330   6.341
10254SOL     OW31660   6.391   1.891   5.831
10254SOL    HW131661   6.314   1.955   5.833
10254SOL    HW231662   6.360   1.800   5.857
10255SOL     OW31663   4.099   4.293   1.646
10255SOL    HW131664   4.116   4.288   1.547
10255SOL    HW231665   4.003   4.274   1.665
10256SOL     OW31666   3.918   1.181   4.134
10256SOL    HW131667   3.991   1.226   4.082
10256SOL    HW231668   3.863   1.250   4.181
10257SOL     OW31669   4.035   5.905   3.133
10257SOL    HW131670   3.998   5.915   3.040
10257SOL    HW231671   3.996   5.976   3.192
10258SOL     OW31672   2.413   1.646   2.250
10258SOL    HW131673   2.434   1.569   2.309
10258SOL    HW231674   2.352   1.709   2.298
10259SOL     OW31675   2.125   4.370   3.976
10259SOL    HW131676   2.148   4.372   3.878
10259SOL    HW231677   2.045   4.312   3.989
10260SOL     OW31678   0.185   0.220   2.828
10260SOL    HW131679   0.283   0.208   2.845
10260SOL    HW231680   0.135   0.209   2.913
10261SOL     OW31681   0.129   3.856   0.613
10261SOL    HW131682   0.169   3.767   0.593
10261SOL    HW231683   0.199   3.915   0.656
10262SOL     OW31684   3.951   0.970   0.501
10262SOL    HW131685   3.894   1.050   0.521
10262SOL    HW231686   3.993   0.981   0.411
10263SOL     OW31687   5.389   0.465   2.621
10263SOL    HW131688   5.368   0.531   2.692
10263SOL    HW231689   5.455   0.399   2.655
10264SOL     OW31690   6.528   0.287   6.530
10264SOL    HW131691   6.481   0.374   6.540
10264SOL    HW231692   6.589   0.272   6.608
10265SOL     OW31693   1.864   2.122   0.978
10265SOL    HW131694   1.863   2.211   0.932
10265SOL    HW231695   1.859   2.134   1.077
10266SOL     OW31696   2.590   3.524   1.702
10266SOL    HW131697   2.590   3.616   1.662
10266SOL    HW231698   2.513   3.515   1.765
10267SOL     OW31699   5.954   0.266   0.708
10267SOL    HW131700   5.937   0.359   0.675
10267SOL    HW231701   5.872   0.233   0.755
10268SOL     OW31702   3.928   6.342   2.146
10268SOL    HW131703   3.902   6.348   2.049
10268SOL    HW231704   3.847   6.359   2.202
10269SOL     OW31705   2.736   1.937   0.908
10269SOL    HW131706   2.832   1.967   0.906
10269SOL    HW231707   2.683   1.999   0.966
10270SOL     OW31708   3.189   0.902   3.040
10270SOL    HW131709   3.108   0.846   3.019
10270SOL    HW231710   3.170   0.997   3.017
10271SOL     OW31711   1.720   1.678   6.540
10271SOL    HW131712   1.762   1.594   6.574
10271SOL    HW231713   1.723   1.749   6.610
10272SOL     OW31714   6.210   6.916   4.519
10272SOL    HW131715   6.186   6.963   4.434
10272SOL    HW231716   6.260   6.979   4.578
10273SOL     OW31717   2.312   5.254   3.439
10273SOL    HW131718   2.383   5.186   3.458
10273SOL    HW231719   2.352   5.345   3.441
10274SOL     OW31720   1.345   4.784   4.983
10274SOL    HW131721   1.396   4.865   4.955
10274SOL    HW231722   1.260   4.777   4.930
10275SOL     OW31723   6.623   0.247   1.821
10275SOL    HW131724   6.678   0.308   1.764
10275SOL    HW231725   6.657   0.250   1.915
10276SOL     OW31726   3.568   5.546   5.165
10276SOL    HW131727   3.663   5.576   5.173
10276SOL    HW231728   3.554   5.463   5.220
10277SOL     OW31729   0.906   5.809   3.793
10277SOL    HW131730   0.893   5.747   3.870
10277SOL    HW231731   0.919   5.902   3.828
10278SOL     OW31732   6.704   0.113   5.018
10278SOL    HW131733   6.785   0.070   5.060
10278SOL    HW231734   6.686   0.071   4.929
10279SOL     OW31735   1.245   5.855   3.854
10279SOL    HW131736   1.224   5.797   3.775
10279SOL    HW231737   1.343   5.855   3.871
10280SOL     OW31738   6.684   4.900   0.039
10280SOL    HW131739   6.706   4.990   0.001
10280SOL    HW231740   6.593   4.872   0.007
10281SOL     OW31741   5.976   1.128   3.645
10281SOL    HW131742   5.925   1.093   3.566
10281SOL    HW231743   5.952   1.225   3.659
10282SOL     OW31744   4.856   3.151   3.617
10282SOL    HW131745   4.926   3.101   3.667
10282SOL    HW231746   4.766   3.111   3.636
10283SOL     OW31747   1.274   3.007   0.870
10283SOL    HW131748   1.316   3.040   0.786
10283SOL    HW231749   1.221   2.925   0.851
10284SOL     OW31750   6.834   4.186   4.220
10284SOL    HW131751   6.915   4.205   4.276
10284SOL    HW231752   6.808   4.090   4.231
10285SOL     OW31753   5.971   6.822   5.691
10285SOL    HW131754   6.025   6.791   5.769
10285SOL    HW231755   5.874   6.806   5.709
10286SOL     OW31756   2.448   1.824   3.032
10286SOL    HW131757   2.367   1.767   3.023
10286SOL    HW231758   2.437   1.907   2.977
10287SOL     OW31759   1.658   5.935   2.853
10287SOL    HW131760   1.598   5.856   2.842
10287SOL    HW231761   1.725   5.917   2.925
10288SOL     OW31762   3.846   6.266   5.335
10288SOL    HW131763   3.788   6.240   5.259
10288SOL    HW231764   3.789   6.292   5.413
10289SOL     OW31765   3.149   5.854   6.819
10289SOL    HW131766   3.193   5.810   6.897
10289SOL    HW231767   3.081   5.793   6.780
10290SOL     OW31768   3.479   3.215   1.897
10290SOL    HW131769   3.517   3.151   1.831
10290SOL    HW231770   3.418   3.279   1.851
10291SOL     OW31771   2.359   1.851   1.926
10291SOL    HW131772   2.380   1.757   1.953
10291SOL    HW231773   2.444   1.903   1.919
10292SOL     OW31774   0.026   6.920   5.912
10292SOL    HW131775   7.015   6.856   5.983
10292SOL    HW231776   6.971   6.980   5.887
10293SOL     OW31777   1.237   4.417   4.967
10293SOL    HW131778   1.288   4.408   4.882
10293SOL    HW231779   1.269   4.349   5.033
10294SOL     OW31780   3.808   0.887   2.442
10294SOL    HW131781   3.799   0.810   2.379
10294SOL    HW231782   3.725   0.943   2.439
10295SOL     OW31783   1.307   1.447   6.281
10295SOL    HW131784   1.389   1.451   6.339
10295SOL    HW231785   1.320   1.504   6.200
10296SOL     OW31786   5.945   1.256   5.878
10296SOL    HW131787   5.928   1.158   5.890
10296SOL    HW231788   6.025   1.270   5.821
10297SOL     OW31789   3.136   1.133   0.428
10297SOL    HW131790   3.094   1.217   0.462
10297SOL    HW231791   3.100   1.113   0.336
10298SOL     OW31792   0.268   2.648   2.253
10298SOL    HW131793   0.282   2.733   2.202
10298SOL    HW231794   0.309   2.572   2.203
10299SOL     OW31795   4.641   6.795   2.936
10299SOL    HW131796   4.684   6.783   2.846
10299SOL    HW231797   4.584   6.715   2.956
10300SOL     OW31798   1.334   4.144   1.654
10300SOL    HW131799   1.395   4.070   1.682
10300SOL    HW231800   1.385   4.210   1.599
10301SOL     OW31801   3.226   0.490   0.419
10301SOL    HW131802   3.235   0.585   0.387
10301SOL    HW231803   3.196   0.490   0.514
10302SOL     OW31804   2.750   6.355   5.374
10302SOL    HW131805   2.733   6.406   5.458
10302SOL    HW231806   2.769   6.418   5.299
10303SOL     OW31807   0.593   5.184   4.588
10303SOL    HW131808   0.572   5.217   4.680
10303SOL    HW231809   0.685   5.144   4.588
10304SOL     OW31810   5.834   6.433   0.691
10304SOL    HW131811   5.785   6.348   0.672
10304SOL    HW231812   5.861   6.476   0.605
10305SOL     OW31813   3.110   3.896   5.894
10305SOL    HW131814   3.072   3.810   5.930
10305SOL    HW231815   3.208   3.885   5.879
10306SOL     OW31816   3.822   0.640   1.213
10306SOL    HW131817   3.858   0.637   1.120
10306SOL    HW231818   3.789   0.732   1.233
10307SOL     OW31819   1.948   0.284   5.819
10307SOL    HW131820   1.937   0.219   5.893
10307SOL    HW231821   1.877   0.269   5.750
10308SOL     OW31822   2.876   4.855   1.941
10308SOL    HW131823   2.895   4.862   1.843
10308SOL    HW231824   2.839   4.765   1.962
10309SOL     OW31825   0.460   1.064   5.233
10309SOL    HW131826   0.450   0.985   5.172
10309SOL    HW231827   0.541   1.117   5.206
10310SOL     OW31828   2.520   4.002   5.675
10310SOL    HW131829   2.597   4.066   5.686
10310SOL    HW231830   2.555   3.910   5.662
10311SOL     OW31831   5.356   5.064   6.940
10311SOL    HW131832   5.414   5.145   6.933
10311SOL    HW231833   5.261   5.092   6.956
10312SOL     OW31834   3.765   7.002   2.224
10312SOL    HW131835   3.727   0.032   2.302
10312SOL    HW231836   3.838   0.036   2.182
10313SOL     OW31837   5.358   6.448   2.663
10313SOL    HW131838   5.457   6.458   2.655
10313SOL    HW231839   5.333   6.442   2.760
10314SOL     OW31840   0.455   0.174   0.894
10314SOL    HW131841   0.426   0.174   0.989
10314SOL    HW231842   0.391   0.118   0.840
10315SOL     OW31843   5.868   5.299   3.580
10315SOL    HW131844   5.832   5.383   3.622
10315SOL    HW231845   5.923   5.250   3.647
10316SOL     OW31846   0.458   1.860   6.892
10316SOL    HW131847   0.558   1.857   6.888
10316SOL    HW231848   0.421   1.862   6.799
10317SOL     OW31849   3.005   6.442   5.064
10317SOL    HW131850   2.973   6.400   4.979
10317SOL    HW231851   2.930   6.489   5.109
10318SOL     OW31852   6.444   0.230   0.029
10318SOL    HW131853   6.401   0.275   6.970
10318SOL    HW231854   6.382   0.234   0.107
10319SOL     OW31855   0.690   4.362   3.839
10319SOL    HW131856   0.711   4.276   3.792
10319SOL    HW231857   0.591   4.376   3.841
10320SOL     OW31858   0.450   6.695   3.049
10320SOL    HW131859   0.497   6.615   3.088
10320SOL    HW231860   0.512   6.773   3.048
10321SOL     OW31861   5.377   2.862   2.266
10321SOL    HW131862   5.453   2.912   2.224
10321SOL    HW231863   5.333   2.919   2.335
10322SOL     OW31864   4.573   4.375   4.887
10322SOL    HW131865   4.584   4.407   4.793
10322SOL    HW231866   4.493   4.419   4.929
10323SOL     OW31867   0.858   4.078   5.897
10323SOL    HW131868   0.896   4.009   5.959
10323SOL    HW231869   0.931   4.116   5.840
10324SOL     OW31870   3.065   3.058   1.831
10324SOL    HW131871   3.087   3.041   1.927
10324SOL    HW231872   3.073   3.156   1.812
10325SOL     OW31873   6.620   5.791   3.793
10325SOL    HW131874   6.548   5.791   3.724
10325SOL    HW231875   6.631   5.883   3.831
10326SOL     OW31876   5.296   3.860   6.654
10326SOL    HW131877   5.258   3.772   6.684
10326SOL    HW231878   5.277   3.873   6.557
10327SOL     OW31879   2.272   4.798   0.439
10327SOL    HW131880   2.343   4.737   0.474
10327SOL    HW231881   2.259   4.783   0.341
10328SOL     OW31882   5.852   2.174   2.581
10328SOL    HW131883   5.794   2.241   2.628
10328SOL    HW231884   5.801   2.089   2.568
10329SOL     OW31885   3.649   2.132   2.866
10329SOL    HW131886   3.565   2.135   2.812
10329SOL    HW231887   3.728   2.148   2.806
10330SOL     OW31888   5.430   0.501   1.912
10330SOL    HW131889   5.357   0.567   1.893
10330SOL    HW231890   5.390   0.413   1.935
10331SOL     OW31891   6.037   5.852   5.944
10331SOL    HW131892   6.045   5.826   5.848
10331SOL    HW231893   6.018   5.950   5.951
10332SOL     OW31894   1.446   1.208   6.150
10332SOL    HW131895   1.354   1.243   6.166
10332SOL    HW231896   1.459   1.122   6.198
10333SOL     OW31897   1.530   3.948   4.026
10333SOL    HW131898   1.627   3.921   4.021
10333SOL    HW231899   1.492   3.919   4.113
10334SOL     OW31900   3.593   1.544   4.205
10334SOL    HW131901   3.494   1.531   4.205
10334SOL    HW231902   3.616   1.628   4.155
10335SOL     OW31903   1.201   2.258   5.217
10335SOL    HW131904   1.191   2.358   5.211
10335SOL    HW231905   1.234   2.223   5.129
10336SOL     OW31906   5.335   6.802   3.184
10336SOL    HW131907   5.401   6.727   3.182
10336SOL    HW231908   5.246   6.767   3.212
10337SOL     OW31909   6.824   5.742   6.937
10337SOL    HW131910   6.911   5.778   6.904
10337SOL    HW231911   6.792   5.796   7.015
10338SOL     OW31912   1.371   6.620   2.032
10338SOL    HW131913   1.327   6.530   2.032
10338SOL    HW231914   1.350   6.668   2.117
10339SOL     OW31915   5.983   2.500   6.050
10339SOL    HW131916   5.989   2.417   5.994
10339SOL    HW231917   5.887   2.529   6.056
10340SOL     OW31918   2.483   3.253   6.084
10340SOL    HW131919   2.480   3.160   6.119
10340SOL    HW231920   2.578   3.286   6.083
10341SOL     OW31921   1.987   3.475   3.169
10341SOL    HW131922   1.888   3.467   3.155
10341SOL    HW231923   2.006   3.491   3.265
10342SOL     OW31924   0.338   1.079   3.551
10342SOL    HW131925   0.241   1.074   3.527
10342SOL    HW231926   0.370   0.989   3.577
10343SOL     OW31927   3.386   5.652   1.782
10343SOL    HW131928   3.341   5.569   1.750
10343SOL    HW231929   3.325   5.702   1.844
10344SOL     OW31930   4.815   6.494   6.495
10344SOL    HW131931   4.731   6.465   6.542
10344SOL    HW231932   4.886   6.424   6.508
10345SOL     OW31933   1.847   3.402   4.278
10345SOL    HW131934   1.819   3.342   4.203
10345SOL    HW231935   1.942   3.383   4.303
10346SOL     OW31936   6.947   6.096   7.020
10346SOL    HW131937   6.984   6.181   0.037
10346SOL    HW231938   6.875   6.061   0.060
10347SOL     OW31939   4.971   1.954   4.923
10347SOL    HW131940   4.967   2.031   4.859
10347SOL    HW231941   4.878   1.920   4.940
10348SOL     OW31942   6.646   4.619   0.893
10348SOL    HW131943   6.709   4.694   0.873
10348SOL    HW231944   6.692   4.532   0.878
10349SOL     OW31945   1.022   0.089   6.013
10349SOL    HW131946   1.023   0.153   5.936
10349SOL    HW231947   0.944   0.027   6.004
10350SOL     OW31948   2.854   0.474   6.272
10350SOL    HW131949   2.940   0.489   6.321
10350SOL    HW231950   2.784   0.442   6.336
10351SOL     OW31951   4.170   5.544   6.435
10351SOL    HW131952   4.090   5.592   6.470
10351SOL    HW231953   4.142   5.479   6.364
10352SOL     OW31954   3.614   4.359   6.181
10352SOL    HW131955   3.629   4.267   6.144
10352SOL    HW231956   3.607   4.354   6.280
10353SOL     OW31957   1.238   3.198   4.781
10353SOL    HW131958   1.318   3.198   4.720
10353SOL    HW231959   1.155   3.211   4.727
10354SOL     OW31960   5.400   1.955   1.587
10354SOL    HW131961   5.304   1.953   1.615
10354SOL    HW231962   5.408   2.006   1.502
10355SOL     OW31963   1.150   5.174   2.888
10355SOL    HW131964   1.237   5.212   2.920
10355SOL    HW231965   1.099   5.246   2.841
10356SOL     OW31966   0.699   2.444   4.670
10356SOL    HW131967   0.601   2.440   4.656
10356SOL    HW231968   0.726   2.537   4.694
10357SOL     OW31969   2.939   2.206   0.135
10357SOL    HW131970   2.901   2.292   0.099
10357SOL    HW231971   3.034   2.220   0.160
10358SOL     OW31972   6.847   1.676   2.140
10358SOL    HW131973   6.902   1.658   2.222
10358SOL    HW231974   6.902   1.658   2.059
10359SOL     OW31975   0.562   1.683   1.086
10359SOL    HW131976   0.549   1.777   1.116
10359SOL    HW231977   0.473   1.637   1.081
10360SOL     OW31978   6.869   5.620   3.029
10360SOL    HW131979   6.946   5.592   2.971
10360SOL    HW231980   6.785   5.575   2.997
10361SOL     OW31981   1.746   4.949   1.506
10361SOL    HW131982   1.820   4.974   1.444
10361SOL    HW231983   1.660   4.990   1.475
10362SOL     OW31984   1.795   4.879   4.504
10362SOL    HW131985   1.780   4.931   4.420
10362SOL    HW231986   1.716   4.819   4.520
10363SOL     OW31987   5.745   6.879   3.394
10363SOL    HW131988   5.719   6.814   3.466
10363SOL    HW231989   5.753   6.830   3.307
10364SOL     OW31990   1.592   4.539   1.470
10364SOL    HW131991   1.680   4.519   1.512
10364SOL    HW231992   1.520   4.489   1.518
10365SOL     OW31993   4.811   6.065   7.019
10365SOL    HW131994   4.881   6.010   6.974
10365SOL    HW231995   4.727   6.063   6.966
10366SOL     OW31996   3.789   6.470   3.682
10366SOL    HW131997   3.848   6.551   3.692
10366SOL    HW231998   3.845   6.388   3.690
10367SOL     OW31999   6.565   1.743   3.347
10367SOL    HW132000   6.501   1.706   3.415
10367SOL    HW232001   6.635   1.674   3.328
10368SOL     OW32002   2.717   0.088   1.055
10368SOL    HW132003   2.630   0.120   1.093
10368SOL    HW232004   2.766   0.037   1.126
10369SOL     OW32005   4.242   2.897   6.861
10369SOL    HW132006   4.328   2.884   6.811
10369SOL    HW232007   4.196   2.980   6.829
10370SOL     OW32008   4.242   0.472   5.296
10370SOL    HW132009   4.201   0.395   5.248
10370SOL    HW232010   4.341   0.462   5.297
10371SOL     OW32011   5.261   6.463   5.569
10371SOL    HW132012   5.337   6.522   5.544
10371SOL    HW232013   5.267   6.440   5.667
10372SOL     OW32014   1.217   0.628   3.325
10372SOL    HW132015   1.252   0.682   3.248
10372SOL    HW232016   1.242   0.532   3.312
10373SOL     OW32017   1.720   5.329   5.263
10373SOL    HW132018   1.802   5.295   5.217
10373SOL    HW232019   1.671   5.391   5.201
10374SOL     OW32020   2.898   2.119   4.675
10374SOL    HW132021   2.892   2.047   4.606
10374SOL    HW232022   2.805   2.148   4.701
10375SOL     OW32023   0.197   2.349   0.538
10375SOL    HW132024   0.201   2.306   0.628
10375SOL    HW232025   0.201   2.279   0.466
10376SOL     OW32026   6.140   0.828   3.474
10376SOL    HW132027   6.103   0.811   3.383
10376SOL    HW232028   6.202   0.907   3.471
10377SOL     OW32029   0.651   6.548   4.365
10377SOL    HW132030   0.565   6.543   4.415
10377SOL    HW232031   0.636   6.595   4.278
10378SOL     OW32032   6.401   6.899   5.635
10378SOL    HW132033   6.474   6.871   5.573
10378SOL    HW232034   6.319   6.845   5.616
10379SOL     OW32035   4.890   1.763   4.626
10379SOL    HW132036   4.921   1.827   4.556
10379SOL    HW232037   4.876   1.673   4.586
10380SOL     OW32038   4.350   0.936   3.759
10380SOL    HW132039   4.374   0.932   3.856
10380SOL    HW232040   4.409   0.875   3.707
10381SOL     OW32041   4.574   5.738   4.662
10381SOL    HW132042   4.620   5.770   4.579
10381SOL    HW232043   4.489   5.791   4.674
10382SOL     OW32044   1.612   6.017   0.521
10382SOL    HW132045   1.551   6.067   0.582
10382SOL    HW232046   1.707   6.045   0.539
10383SOL     OW32047   5.298   2.297   6.977
10383SOL    HW132048   5.364   2.360   7.020
10383SOL    HW232049   5.335   2.204   6.978
10384SOL     OW32050   6.168   1.090   6.669
10384SOL    HW132051   6.212   1.010   6.710
10384SOL    HW232052   6.177   1.169   6.730
10385SOL     OW32053   6.268   2.389   6.832
10385SOL    HW132054   6.346   2.342   6.873
10385SOL    HW232055   6.241   2.466   6.891
10386SOL     OW32056   6.651   1.543   6.521
10386SOL    HW132057   6.666   1.470   6.455
10386SOL    HW232058   6.624   1.626   6.474
10387SOL     OW32059   1.586   3.953   2.285
10387SOL    HW132060   1.682   3.974   2.304
10387SOL    HW232061   1.578   3.910   2.195
10388SOL     OW32062   1.323   5.172   2.182
10388SOL    HW132063   1.254   5.165   2.253
10388SOL    HW232064   1.400   5.112   2.204
10389SOL     OW32065   0.459   5.679   3.757
10389SOL    HW132066   0.372   5.654   3.799
10389SOL    HW232067   0.472   5.778   3.761
10390SOL     OW32068   1.964   3.850   3.393
10390SOL    HW132069   1.992   3.832   3.487
10390SOL    HW232070   2.036   3.902   3.347
10391SOL     OW32071   3.314   6.540   4.629
10391SOL    HW132072   3.266   6.542   4.541
10391SOL    HW232073   3.412   6.526   4.613
10392SOL     OW32074   6.433   5.562   6.943
10392SOL    HW132075   6.422   5.464   6.962
10392SOL    HW232076   6.526   5.580   6.913
10393SOL     OW32077   0.616   1.359   4.363
10393SOL    HW132078   0.713   1.383   4.358
10393SOL    HW232079   0.565   1.415   4.298
10394SOL     OW32080   3.137   6.560   0.777
10394SOL    HW132081   3.082   6.559   0.860
10394SOL    HW232082   3.090   6.613   0.706
10395SOL     OW32083   1.602   1.341   5.015
10395SOL    HW132084   1.535   1.292   5.070
10395SOL    HW232085   1.678   1.371   5.073
10396SOL     OW32086   0.675   0.073   4.900
10396SOL    HW132087   0.578   0.083   4.879
10396SOL    HW232088   0.698   0.128   4.980
10397SOL     OW32089   4.243   1.920   2.935
10397SOL    HW132090   4.181   1.994   2.961
10397SOL    HW232091   4.222   1.890   2.842
10398SOL     OW32092   6.561   3.756   2.119
10398SOL    HW132093   6.650   3.781   2.080
10398SOL    HW232094   6.495   3.740   2.045
10399SOL     OW32095   5.976   2.327   5.832
10399SOL    HW132096   5.996   2.390   5.757
10399SOL    HW232097   5.954   2.237   5.795
10400SOL     OW32098   1.133   5.098   1.955
10400SOL    HW132099   1.200   5.159   1.996
10400SOL    HW232100   1.180   5.022   1.910
10401SOL     OW32101   0.536   5.366   0.987
10401SOL    HW132102   0.508   5.293   1.049
10401SOL    HW232103   0.484   5.449   1.007
10402SOL     OW32104   1.067   1.886   4.958
10402SOL    HW132105   1.148   1.931   4.921
10402SOL    HW232106   1.017   1.841   4.884
10403SOL     OW32107   5.223   0.988   1.982
10403SOL    HW132108   5.306   1.001   2.035
10403SOL    HW232109   5.162   0.926   2.031
10404SOL     OW32110   0.300   0.195   4.141
10404SOL    HW132111   0.346   0.213   4.054
10404SOL    HW232112   0.247   0.111   4.134
10405SOL     OW32113   2.246   6.562   6.694
10405SOL    HW132114   2.217   6.593   6.604
10405SOL    HW232115   2.233   6.463   6.701
10406SOL     OW32116   1.959   6.137   5.574
10406SOL    HW132117   1.972   6.147   5.672
10406SOL    HW232118   2.024   6.071   5.537
10407SOL     OW32119   1.898   1.215   6.336
10407SOL    HW132120   1.844   1.284   6.287
10407SOL    HW232121   1.988   1.206   6.293
10408SOL     OW32122   4.182   6.240   3.093
10408SOL    HW132123   4.220   6.193   3.013
10408SOL    HW232124   4.161   6.335   3.069
10409SOL     OW32125   6.884   4.503   2.783
10409SOL    HW132126   6.976   4.478   2.752
10409SOL    HW232127   6.817   4.477   2.714
10410SOL     OW32128   5.515   6.339   0.888
10410SOL    HW132129   5.426   6.306   0.855
10410SOL    HW232130   5.551   6.406   0.824
10411SOL     OW32131   1.108   4.729   2.480
10411SOL    HW132132   1.100   4.639   2.521
10411SOL    HW232133   1.126   4.797   2.552
10412SOL     OW32134   6.798   2.440   6.214
10412SOL    HW132135   6.862   2.515   6.230
10412SOL    HW232136   6.740   2.428   6.295
10413SOL     OW32137   0.346   1.927   5.662
10413SOL    HW132138   0.343   1.834   5.627
10413SOL    HW232139   0.413   1.933   5.736
10414SOL     OW32140   5.846   6.323   5.198
10414SOL    HW132141   5.749   6.347   5.197
10414SOL    HW232142   5.872   6.296   5.291
10415SOL     OW32143   0.082   5.649   2.898
10415SOL    HW132144   0.131   5.718   2.845
10415SOL    HW232145   0.136   5.623   2.977
10416SOL     OW32146   4.847   0.111   0.454
10416SOL    HW132147   4.936   0.069   0.471
10416SOL    HW232148   4.837   0.193   0.510
10417SOL     OW32149   4.306   4.787   4.139
10417SOL    HW132150   4.226   4.760   4.193
10417SOL    HW232151   4.387   4.745   4.179
10418SOL     OW32152   6.051   4.035   6.811
10418SOL    HW132153   6.105   4.020   6.728
10418SOL    HW232154   6.100   4.097   6.872
10419SOL     OW32155   2.147   0.363   4.392
10419SOL    HW132156   2.080   0.353   4.319
10419SOL    HW232157   2.120   0.438   4.453
10420SOL     OW32158   5.853   3.718   4.930
10420SOL    HW132159   5.808   3.671   4.855
10420SOL    HW232160   5.919   3.657   4.974
10421SOL     OW32161   1.472   4.381   4.213
10421SOL    HW132162   1.381   4.415   4.236
10421SOL    HW232163   1.481   4.371   4.114
10422SOL     OW32164   5.836   3.120   5.844
10422SOL    HW132165   5.777   3.196   5.818
10422SOL    HW232166   5.833   3.108   5.944
10423SOL     OW32167   2.823   5.148   3.159
10423SOL    HW132168   2.871   5.176   3.243
10423SOL    HW232169   2.755   5.079   3.181
10424SOL     OW32170   4.290   1.169   1.836
10424SOL    HW132171   4.225   1.155   1.762
10424SOL    HW232172   4.271   1.256   1.882
10425SOL     OW32173   1.486   3.941   0.121
10425SOL    HW132174   1.580   3.977   0.127
10425SOL    HW232175   1.489   3.842   0.114
10426SOL     OW32176   6.564   1.939   6.711
10426SOL    HW132177   6.478   1.969   6.668
10426SOL    HW232178   6.640   1.990   6.670
10427SOL     OW32179   5.602   0.837   3.604
10427SOL    HW132180   5.621   0.927   3.564
10427SOL    HW232181   5.522   0.796   3.560
10428SOL     OW32182   1.562   6.483   4.670
10428SOL    HW132183   1.649   6.442   4.698
10428SOL    HW232184   1.486   6.426   4.702
10429SOL     OW32185   2.235   4.370   1.734
10429SOL    HW132186   2.323   4.380   1.781
10429SOL    HW232187   2.209   4.274   1.731
10430SOL     OW32188   3.960   0.348   4.579
10430SOL    HW132189   3.967   0.255   4.616
10430SOL    HW232190   3.920   0.345   4.488
10431SOL     OW32191   4.190   1.666   4.293
10431SOL    HW132192   4.198   1.766   4.294
10431SOL    HW232193   4.240   1.627   4.370
10432SOL     OW32194   1.189   5.059   0.411
10432SOL    HW132195   1.209   4.993   0.483
10432SOL    HW232196   1.247   5.041   0.332
10433SOL     OW32197   3.868   6.644   4.057
10433SOL    HW132198   3.914   6.728   4.028
10433SOL    HW232199   3.873   6.636   4.157
10434SOL     OW32200   3.861   1.008   6.916
10434SOL    HW132201   3.849   1.013   6.816
10434SOL    HW232202   3.958   1.002   6.938
10435SOL     OW32203   2.218   1.526   1.511
10435SOL    HW132204   2.264   1.596   1.565
10435SOL    HW232205   2.226   1.549   1.414
10436SOL     OW32206   1.079   3.735   4.485
10436SOL    HW132207   1.105   3.645   4.521
10436SOL    HW232208   1.145   3.803   4.515
10437SOL     OW32209   7.009   6.210   4.812
10437SOL    HW132210   0.032   6.123   4.787
10437SOL    HW232211   6.909   6.199   4.812
10438SOL     OW32212   6.985   5.940   6.368
10438SOL    HW132213   6.950   6.000   6.296
10438SOL    HW232214   6.909   5.892   6.412
10439SOL     OW32215   6.232   5.461   4.653
10439SOL    HW132216   6.271   5.439   4.742
10439SOL    HW232217   6.295   5.523   4.604
10440SOL     OW32218   5.980   2.873   1.196
10440SOL    HW132219   6.070   2.852   1.158
10440SOL    HW232220   5.941   2.791   1.238
10441SOL     OW32221   4.200   2.148   7.001
10441SOL    HW132222   4.215   2.234   0.031
10441SOL    HW232223   4.272   2.083   0.004
10442SOL     OW32224   2.888   1.079   5.190
10442SOL    HW132225   2.953   1.018   5.144
10442SOL    HW232226   2.832   1.125   5.121
10443SOL     OW32227   0.516   0.608   0.231
10443SOL    HW132228   0.449   0.667   0.186
10443SOL    HW232229   0.518   0.629   0.329
10444SOL     OW32230   4.410   5.078   3.837
10444SOL    HW132231   4.359   5.101   3.920
10444SOL    HW232232   4.459   4.992   3.851
10445SOL     OW32233   1.097   3.635   3.792
10445SOL    HW132234   1.165   3.575   3.835
10445SOL    HW232235   1.143   3.697   3.728
10446SOL     OW32236   2.454   5.196   4.758
10446SOL    HW132237   2.481   5.105   4.723
10446SOL    HW232238   2.422   5.252   4.681
10447SOL     OW32239   0.916   1.836   2.483
10447SOL    HW132240   0.916   1.790   2.571
10447SOL    HW232241   1.002   1.887   2.472
10448SOL     OW32242   1.272   5.968   2.370
10448SOL    HW132243   1.276   5.882   2.319
10448SOL    HW232244   1.182   6.009   2.358
10449SOL     OW32245   3.783   4.918   4.458
10449SOL    HW132246   3.858   4.864   4.496
10449SOL    HW232247   3.819   4.999   4.413
10450SOL     OW32248   0.826   2.072   3.967
10450SOL    HW132249   0.856   1.999   3.906
10450SOL    HW232250   0.747   2.119   3.928
10451SOL     OW32251   3.175   2.172   3.854
10451SOL    HW132252   3.139   2.080   3.836
10451SOL    HW232253   3.251   2.190   3.792
10452SOL     OW32254   6.763   2.856   4.799
10452SOL    HW132255   6.859   2.829   4.805
10452SOL    HW232256   6.755   2.953   4.823
10453SOL     OW32257   3.967   5.450   4.248
10453SOL    HW132258   4.018   5.408   4.173
10453SOL    HW232259   3.872   5.464   4.221
10454SOL     OW32260   6.390   0.944   6.749
10454SOL    HW132261   6.415   0.864   6.804
10454SOL    HW232262   6.428   0.934   6.657
10455SOL     OW32263   0.336   6.118   2.496
10455SOL    HW132264   0.389   6.050   2.446
10455SOL    HW232265   0.394   6.197   2.518
10456SOL     OW32266   1.498   5.527   6.097
10456SOL    HW132267   1.529   5.493   6.185
10456SOL    HW232268   1.519   5.460   6.026
10457SOL     OW32269   4.214   1.718   0.341
10457SOL    HW132270   4.255   1.653   0.405
10457SOL    HW232271   4.191   1.671   0.255
10458SOL     OW32272   1.309   6.415   0.105
10458SOL    HW132273   1.241   6.349   0.135
10458SOL    HW232274   1.279   6.459   0.020
10459SOL     OW32275   6.119   5.953   1.026
10459SOL    HW132276   6.054   6.025   1.050
10459SOL    HW232277   6.116   5.938   0.927
10460SOL     OW32278   6.341   0.866   0.079
10460SOL    HW132279   6.348   0.798   0.006
10460SOL    HW232280   6.318   0.955   0.040
10461SOL     OW32281   0.148   4.275   5.912
10461SOL    HW132282   0.102   4.279   5.824
10461SOL    HW232283   0.163   4.367   5.946
10462SOL     OW32284   3.215   3.560   6.512
10462SOL    HW132285   3.232   3.649   6.554
10462SOL    HW232286   3.296   3.532   6.460
10463SOL     OW32287   4.847   2.760   6.346
10463SOL    HW132288   4.812   2.798   6.260
10463SOL    HW232289   4.783   2.780   6.420
10464SOL     OW32290   6.456   4.384   1.861
10464SOL    HW132291   6.442   4.328   1.943
10464SOL    HW232292   6.554   4.398   1.847
10465SOL     OW32293   5.583   4.275   1.769
10465SOL    HW132294   5.676   4.306   1.750
10465SOL    HW232295   5.577   4.246   1.865
10466SOL     OW32296   5.892   3.619   5.575
10466SOL    HW132297   5.803   3.639   5.535
10466SOL    HW232298   5.898   3.664   5.664
10467SOL     OW32299   0.024   2.902   6.832
10467SOL    HW132300   0.106   2.892   6.776
10467SOL    HW232301   6.990   2.818   6.827
10468SOL     OW32302   1.857   4.263   3.994
10468SOL    HW132303   1.837   4.360   4.007
10468SOL    HW232304   1.845   4.215   4.081
10469SOL     OW32305   1.070   1.855   3.733
10469SOL    HW132306   1.066   1.790   3.808
10469SOL    HW232307   0.979   1.893   3.717
10470SOL     OW32308   2.243   4.063   1.958
10470SOL    HW132309   2.302   4.133   1.999
10470SOL    HW232310   2.290   4.022   1.880
10471SOL     OW32311   2.752   5.137   6.881
10471SOL    HW132312   2.699   5.108   6.801
10471SOL    HW232313   2.694   5.192   6.941
10472SOL     OW32314   4.004   5.334   6.264
10472SOL    HW132315   3.965   5.408   6.209
10472SOL    HW232316   4.088   5.301   6.221
10473SOL     OW32317   6.286   5.025   6.838
10473SOL    HW132318   6.198   5.069   6.819
10473SOL    HW232319   6.308   4.961   6.764
10474SOL     OW32320   6.363   6.646   5.164
10474SOL    HW132321   6.282   6.660   5.220
10474SOL    HW232322   6.351   6.692   5.076
10475SOL     OW32323   0.580   5.002   1.468
10475SOL    HW132324   0.505   5.023   1.531
10475SOL    HW232325   0.667   5.014   1.516
10476SOL     OW32326   5.218   6.384   1.340
10476SOL    HW132327   5.225   6.451   1.414
10476SOL    HW232328   5.251   6.425   1.255
10477SOL     OW32329   6.973   5.538   3.854
10477SOL    HW132330   0.008   5.597   3.912
10477SOL    HW232331   0.006   5.456   3.830
10478SOL     OW32332   0.083   0.800   6.448
10478SOL    HW132333   0.080   0.728   6.517
10478SOL    HW232334   7.012   0.840   6.437
10479SOL     OW32335   0.547   3.222   1.735
10479SOL    HW132336   0.565   3.180   1.824
10479SOL    HW232337   0.628   3.272   1.704
10480SOL     OW32338   2.554   0.795   3.116
10480SOL    HW132339   2.570   0.725   3.184
10480SOL    HW232340   2.497   0.867   3.155
10481SOL     OW32341   6.618   1.495   1.439
10481SOL    HW132342   6.673   1.526   1.516
10481SOL    HW232343   6.672   1.503   1.355
10482SOL     OW32344   5.341   3.211   4.450
10482SOL    HW132345   5.299   3.292   4.492
10482SOL    HW232346   5.324   3.131   4.509
10483SOL     OW32347   5.834   0.189   6.891
10483SOL    HW132348   5.797   0.161   6.802
10483SOL    HW232349   5.773   0.157   6.963
10484SOL     OW32350   6.731   0.691   1.834
10484SOL    HW132351   6.813   0.714   1.887
10484SOL    HW232352   6.739   0.598   1.799
10485SOL     OW32353   5.582   3.221   4.925
10485SOL    HW132354   5.635   3.289   4.874
10485SOL    HW232355   5.517   3.176   4.864
10486SOL     OW32356   5.229   2.453   2.802
10486SOL    HW132357   5.274   2.541   2.818
10486SOL    HW232358   5.275   2.406   2.726
10487SOL     OW32359   4.452   6.875   2.296
10487SOL    HW132360   4.538   6.862   2.345
10487SOL    HW232361   4.385   6.807   2.326
10488SOL     OW32362   3.748   4.154   6.799
10488SOL    HW132363   3.666   4.146   6.856
10488SOL    HW232364   3.725   4.197   6.712
10489SOL     OW32365   1.883   5.189   4.930
10489SOL    HW132366   1.783   5.194   4.941
10489SOL    HW232367   1.925   5.269   4.972
10490SOL     OW32368   6.196   0.218   4.140
10490SOL    HW132369   6.134   0.295   4.124
10490SOL    HW232370   6.150   0.150   4.197
10491SOL     OW32371   0.425   4.619   5.149
10491SOL    HW132372   0.339   4.606   5.198
10491SOL    HW232373   0.484   4.681   5.201
10492SOL     OW32374   4.096   4.657   5.673
10492SOL    HW132375   4.072   4.684   5.580
10492SOL    HW232376   4.058   4.567   5.693
10493SOL     OW32377   3.689   1.488   0.966
10493SOL    HW132378   3.773   1.503   1.018
10493SOL    HW232379   3.712   1.443   0.880
10494SOL     OW32380   5.418   1.807   5.944
10494SOL    HW132381   5.333   1.841   5.903
10494SOL    HW232382   5.440   1.861   6.025
10495SOL     OW32383   1.534   6.755   6.571
10495SOL    HW132384   1.581   6.755   6.659
10495SOL    HW232385   1.543   6.845   6.528
10496SOL     OW32386   6.276   0.503   5.580
10496SOL    HW132387   6.348   0.433   5.581
10496SOL    HW232388   6.316   0.592   5.603
10497SOL     OW32389   1.421   1.797   6.704
10497SOL    HW132390   1.501   1.827   6.651
10497SOL    HW232391   1.443   1.802   6.802
10498SOL     OW32392   2.863   4.717   6.292
10498SOL    HW132393   2.813   4.782   6.234
10498SOL    HW232394   2.922   4.660   6.235
10499SOL     OW32395   2.981   5.971   3.145
10499SOL    HW132396   2.952   5.902   3.078
10499SOL    HW232397   3.076   5.996   3.129
10500SOL     OW32398   2.357   2.128   6.550
10500SOL    HW132399   2.386   2.196   6.482
10500SOL    HW232400   2.355   2.170   6.641
10501SOL     OW32401   0.981   3.573   3.030
10501SOL    HW132402   1.015   3.612   3.115
10501SOL    HW232403   1.019   3.481   3.017
10502SOL     OW32404   3.048   5.447   5.050
10502SOL    HW132405   3.081   5.353   5.046
10502SOL    HW232406   3.125   5.511   5.047
10503SOL     OW32407   2.916   3.102   5.508
10503SOL    HW132408   2.851   3.106   5.433
10503SOL    HW232409   3.003   3.142   5.478
10504SOL     OW32410   2.079   3.530   1.505
10504SOL    HW132411   2.104   3.615   1.460
10504SOL    HW232412   1.984   3.507   1.483
10505SOL     OW32413   0.257   7.011   0.762
10505SOL    HW132414   0.176   0.049   0.759
10505SOL    HW232415   0.230   6.915   0.754
10506SOL     OW32416   0.523   3.758   5.044
10506SOL    HW132417   0.507   3.843   4.994
10506SOL    HW232418   0.442   3.734   5.096
10507SOL     OW32419   2.036   0.241   3.466
10507SOL    HW132420   2.115   0.206   3.515
10507SOL    HW232421   2.064   0.318   3.409
10508SOL     OW32422   5.630   3.461   2.538
10508SOL    HW132423   5.561   3.529   2.513
10508SOL    HW232424   5.656   3.474   2.634
10509SOL     OW32425   2.237   0.735   5.967
10509SOL    HW132426   2.290   0.651   5.956
10509SOL    HW232427   2.295   0.805   6.011
10510SOL     OW32428   5.863   6.906   6.640
10510SOL    HW132429   5.907   6.817   6.630
10510SOL    HW232430   5.840   6.942   6.550
10511SOL     OW32431   0.700   2.177   0.605
10511SOL    HW132432   0.644   2.226   0.539
10511SOL    HW232433   0.782   2.141   0.559
10512SOL     OW32434   2.590   0.218   6.347
10512SOL    HW132435   2.587   0.123   6.376
10512SOL    HW232436   2.597   0.277   6.428
10513SOL     OW32437   0.396   2.280   0.121
10513SOL    HW132438   0.473   2.263   0.060
10513SOL    HW232439   0.390   2.377   0.141
10514SOL     OW32440   0.456   3.026   1.560
10514SOL    HW132441   0.450   3.075   1.473
10514SOL    HW232442   0.508   3.081   1.626
10515SOL     OW32443   6.452   3.170   4.179
10515SOL    HW132444   6.470   3.084   4.227
10515SOL    HW232445   6.536   3.200   4.133
10516SOL     OW32446   2.417   6.826   0.647
10516SOL    HW132447   2.510   6.821   0.683
10516SOL    HW232448   2.398   6.919   0.617
10517SOL     OW32449   0.032   2.358   2.835
10517SOL    HW132450   0.112   2.419   2.836
10517SOL    HW232451   0.061   2.267   2.805
10518SOL     OW32452   0.470   6.377   2.593
10518SOL    HW132453   0.508   6.357   2.503
10518SOL    HW232454   0.540   6.422   2.649
10519SOL     OW32455   3.563   3.805   5.487
10519SOL    HW132456   3.581   3.768   5.578
10519SOL    HW232457   3.466   3.823   5.477
10520SOL     OW32458   3.185   4.715   6.603
10520SOL    HW132459   3.109   4.650   6.599
10520SOL    HW232460   3.185   4.761   6.692
10521SOL     OW32461   6.065   5.133   1.967
10521SOL    HW132462   6.038   5.207   1.906
10521SOL    HW232463   5.984   5.084   1.998
10522SOL     OW32464   6.569   0.078   2.195
10522SOL    HW132465   6.578   0.056   2.098
10522SOL    HW232466   6.473   0.099   2.216
10523SOL     OW32467   0.033   5.750   5.845
10523SOL    HW132468   0.081   5.720   5.927
10523SOL    HW232469   6.973   5.804   5.870
10524SOL     OW32470   4.515   0.432   4.163
10524SOL    HW132471   4.600   0.414   4.213
10524SOL    HW232472   4.438   0.392   4.213
10525SOL     OW32473   2.970   6.325   4.797
10525SOL    HW132474   2.911   6.309   4.718
10525SOL    HW232475   3.057   6.277   4.784
10526SOL     OW32476   5.457   6.963   2.297
10526SOL    HW132477   5.475   0.041   2.289
10526SOL    HW232478   5.361   6.944   2.278
10527SOL     OW32479   1.625   2.780   4.562
10527SOL    HW132480   1.549   2.835   4.526
10527SOL    HW232481   1.711   2.825   4.539
10528SOL     OW32482   6.035   5.058   5.619
10528SOL    HW132483   6.096   5.137   5.627
10528SOL    HW232484   6.002   5.032   5.710
10529SOL     OW32485   0.162   6.012   4.697
10529SOL    HW132486   0.162   5.936   4.631
10529SOL    HW232487   0.205   6.092   4.656
10530SOL     OW32488   2.098   1.541   5.583
10530SOL    HW132489   2.108   1.469   5.513
10530SOL    HW232490   2.037   1.612   5.548
10531SOL     OW32491   1.572   2.033   5.237
10531SOL    HW132492   1.475   2.013   5.222
10531SOL    HW232493   1.582   2.130   5.261
10532SOL     OW32494   3.026   3.145   5.083
10532SOL    HW132495   3.079   3.111   5.005
10532SOL    HW232496   3.075   3.125   5.168
10533SOL     OW32497   2.567   1.189   6.553
10533SOL    HW132498   2.489   1.151   6.603
10533SOL    HW232499   2.592   1.128   6.478
10534SOL     OW32500   5.436   5.558   1.106
10534SOL    HW132501   5.452   5.644   1.155
10534SOL    HW232502   5.489   5.485   1.149
10535SOL     OW32503   0.128   1.148   1.551
10535SOL    HW132504   0.029   1.150   1.533
10535SOL    HW232505   0.143   1.133   1.649
10536SOL     OW32506   5.720   5.614   3.281
10536SOL    HW132507   5.817   5.626   3.302
10536SOL    HW232508   5.710   5.566   3.195
10537SOL     OW32509   6.665   5.560   0.785
10537SOL    HW132510   6.595   5.581   0.853
10537SOL    HW232511   6.719   5.642   0.765
10538SOL     OW32512   4.135   4.283   6.939
10538SOL    HW132513   4.065   4.282   7.010
10538SOL    HW232514   4.173   4.191   6.928
10539SOL     OW32515   1.158   3.321   5.001
10539SOL    HW132516   1.206   3.257   4.940
10539SOL    HW232517   1.221   3.351   5.073
10540SOL     OW32518   3.152   0.534   0.681
10540SOL    HW132519   3.184   0.510   0.773
10540SOL    HW232520   3.068   0.588   0.688
10541SOL     OW32521   4.321   2.596   0.636
10541SOL    HW132522   4.342   2.636   0.547
10541SOL    HW232523   4.336   2.664   0.707
10542SOL     OW32524   1.247   2.347   0.287
10542SOL    HW132525   1.256   2.406   0.367
10542SOL    HW232526   1.306   2.381   0.214
10543SOL     OW32527   3.172   0.612   5.084
10543SOL    HW132528   3.106   0.682   5.110
10543SOL    HW232529   3.196   0.556   5.164
10544SOL     OW32530   6.544   2.338   1.605
10544SOL    HW132531   6.613   2.316   1.536
10544SOL    HW232532   6.554   2.434   1.633
10545SOL     OW32533   4.522   1.184   2.609
10545SOL    HW132534   4.474   1.157   2.525
10545SOL    HW232535   4.619   1.198   2.589
10546SOL     OW32536   4.183   1.460   5.367
10546SOL    HW132537   4.160   1.548   5.325
10546SOL    HW232538   4.102   1.424   5.414
10547SOL     OW32539   4.598   6.952   1.503
10547SOL    HW132540   4.535   0.002   1.535
10547SOL    HW232541   4.573   6.863   1.543
10548SOL     OW32542   4.288   4.818   5.336
10548SOL    HW132543   4.191   4.795   5.333
10548SOL    HW232544   4.336   4.755   5.397
10549SOL     OW32545   1.146   1.573   1.810
10549SOL    HW132546   1.138   1.604   1.904
10549SOL    HW232547   1.088   1.492   1.797
10550SOL     OW32548   5.178   6.393   4.357
10550SOL    HW132549   5.084   6.427   4.352
10550SOL    HW232550   5.179   6.305   4.406
10551SOL     OW32551   1.271   2.696   6.023
10551SOL    HW132552   1.271   2.632   5.946
10551SOL    HW232553   1.357   2.748   6.022
10552SOL     OW32554   3.166   2.180   4.718
10552SOL    HW132555   3.165   2.248   4.791
10552SOL    HW232556   3.074   2.142   4.706
10553SOL     OW32557   3.182   5.087   5.659
10553SOL    HW132558   3.279   5.078   5.683
10553SOL    HW232559   3.129   5.105   5.742
10554SOL     OW32560   6.626   4.021   6.144
10554SOL    HW132561   6.685   3.944   6.118
10554SOL    HW232562   6.638   4.095   6.077
10555SOL     OW32563   3.442   2.766   1.047
10555SOL    HW132564   3.402   2.845   1.093
10555SOL    HW232565   3.382   2.687   1.058
10556SOL     OW32566   1.285   3.441   3.901
10556SOL    HW132567   1.344   3.520   3.880
10556SOL    HW232568   1.341   3.364   3.930
10557SOL     OW32569   5.557   1.359   3.353
10557SOL    HW132570   5.551   1.456   3.327
10557SOL    HW232571   5.579   1.304   3.273
10558SOL     OW32572   5.283   5.708   4.956
10558SOL    HW132573   5.255   5.734   4.864
10558SOL    HW232574   5.259   5.782   5.020
10559SOL     OW32575   4.621   2.544   0.962
10559SOL    HW132576   4.685   2.481   1.007
10559SOL    HW232577   4.600   2.510   0.871
10560SOL     OW32578   0.031   2.693   4.429
10560SOL    HW132579   0.111   2.748   4.455
10560SOL    HW232580   0.056   2.628   4.358
10561SOL     OW32581   2.635   4.115   6.154
10561SOL    HW132582   2.650   4.203   6.108
10561SOL    HW232583   2.698   4.046   6.118
10562SOL     OW32584   3.325   1.498   0.374
10562SOL    HW132585   3.334   1.572   0.441
10562SOL    HW232586   3.233   1.460   0.380
10563SOL     OW32587   1.647   2.155   3.022
10563SOL    HW132588   1.699   2.197   2.947
10563SOL    HW232589   1.684   2.187   3.109
10564SOL     OW32590   0.041   2.244   2.191
10564SOL    HW132591   0.047   2.241   2.291
10564SOL    HW232592   0.042   2.340   2.160
10565SOL     OW32593   5.283   1.352   4.748
10565SOL    HW132594   5.371   1.400   4.751
10565SOL    HW232595   5.210   1.417   4.726
10566SOL     OW32596   4.519   5.512   7.001
10566SOL    HW132597   4.579   5.552   6.930
10566SOL    HW232598   4.424   5.528   6.976
10567SOL     OW32599   1.957   5.366   3.940
10567SOL    HW132600   2.031   5.302   3.917
10567SOL    HW232601   1.969   5.450   3.888
10568SOL     OW32602   3.676   1.843   2.691
10568SOL    HW132603   3.606   1.834   2.620
10568SOL    HW232604   3.763   1.809   2.656
10569SOL     OW32605   6.172   3.150   3.323
10569SOL    HW132606   6.211   3.136   3.232
10569SOL    HW232607   6.072   3.157   3.315
10570SOL     OW32608   1.394   3.876   1.036
10570SOL    HW132609   1.417   3.955   1.094
10570SOL    HW232610   1.410   3.792   1.087
10571SOL     OW32611   6.252   6.813   4.947
10571SOL    HW132612   6.166   6.762   4.959
10571SOL    HW232613   6.241   6.881   4.876
10572SOL     OW32614   6.617   3.273   1.581
10572SOL    HW132615   6.603   3.273   1.482
10572SOL    HW232616   6.710   3.305   1.601
10573SOL     OW32617   6.339   4.525   5.945
10573SOL    HW132618   6.293   4.438   5.924
10573SOL    HW232619   6.347   4.535   6.044
10574SOL     OW32620   0.225   2.124   3.395
10574SOL    HW132621   0.287   2.144   3.470
10574SOL    HW232622   0.274   2.131   3.308
10575SOL     OW32623   1.219   6.767   5.982
10575SOL    HW132624   1.145   6.808   5.929
10575SOL    HW232625   1.304   6.817   5.965
10576SOL     OW32626   1.161   5.442   3.171
10576SOL    HW132627   1.104   5.492   3.107
10576SOL    HW232628   1.140   5.471   3.265
10577SOL     OW32629   0.512   2.397   5.771
10577SOL    HW132630   0.606   2.367   5.785
10577SOL    HW232631   0.491   2.401   5.674
10578SOL     OW32632   5.631   0.918   5.315
10578SOL    HW132633   5.674   0.828   5.310
10578SOL    HW232634   5.642   0.956   5.407
10579SOL     OW32635   5.275   0.081   0.847
10579SOL    HW132636   5.216   0.001   0.836
10579SOL    HW232637   5.359   0.055   0.894
10580SOL     OW32638   6.978   5.917   0.265
10580SOL    HW132639   0.049   5.895   0.232
10580SOL    HW232640   6.984   5.977   0.345
10581SOL     OW32641   4.915   2.076   4.071
10581SOL    HW132642   5.003   2.034   4.091
10581SOL    HW232643   4.842   2.008   4.083
10582SOL     OW32644   3.335   4.967   0.194
10582SOL    HW132645   3.399   5.044   0.191
10582SOL    HW232646   3.350   4.907   0.115
10583SOL     OW32647   4.777   1.043   1.876
10583SOL    HW132648   4.834   0.964   1.854
10583SOL    HW232649   4.832   1.126   1.873
10584SOL     OW32650   5.985   0.059   1.379
10584SOL    HW132651   6.015   0.147   1.343
10584SOL    HW232652   6.050   0.027   1.447
10585SOL     OW32653   2.498   4.717   6.462
10585SOL    HW132654   2.454   4.806   6.473
10585SOL    HW232655   2.581   4.727   6.407
10586SOL     OW32656   5.168   1.504   1.088
10586SOL    HW132657   5.131   1.590   1.055
10586SOL    HW232658   5.115   1.428   1.050
10587SOL     OW32659   6.171   3.005   6.998
10587SOL    HW132660   6.098   3.025   0.043
10587SOL    HW232661   6.236   3.082   6.996
10588SOL     OW32662   1.426   5.276   3.303
10588SOL    HW132663   1.446   5.328   3.220
10588SOL    HW232664   1.505   5.221   3.327
10589SOL     OW32665   5.575   1.463   3.944
10589SOL    HW132666   5.548   1.475   4.039
10589SOL    HW232667   5.520   1.523   3.886
10590SOL     OW32668   1.490   0.350   4.583
10590SOL    HW132669   1.394   0.375   4.578
10590SOL    HW232670   1.498   0.253   4.605
10591SOL     OW32671   2.033   2.636   1.240
10591SOL    HW132672   1.942   2.670   1.260
10591SOL    HW232673   2.026   2.548   1.191
10592SOL     OW32674   6.454   1.386   6.680
10592SOL    HW132675   6.470   1.295   6.719
10592SOL    HW232676   6.523   1.406   6.610
10593SOL     OW32677   0.999   4.794   1.644
10593SOL    HW132678   1.095   4.786   1.620
10593SOL    HW232679   0.990   4.837   1.734
10594SOL     OW32680   0.895   1.493   4.490
10594SOL    HW132681   0.893   1.471   4.393
10594SOL    HW232682   0.843   1.577   4.506
10595SOL     OW32683   2.627   5.706   4.887
10595SOL    HW132684   2.577   5.742   4.808
10595SOL    HW232685   2.566   5.648   4.942
10596SOL     OW32686   3.146   0.763   2.124
10596SOL    HW132687   3.213   0.790   2.055
10596SOL    HW232688   3.192   0.711   2.196
10597SOL     OW32689   1.775   0.854   4.165
10597SOL    HW132690   1.838   0.918   4.120
10597SOL    HW232691   1.772   0.769   4.112
10598SOL     OW32692   2.047   1.130   0.410
10598SOL    HW132693   2.107   1.158   0.335
10598SOL    HW232694   2.073   1.178   0.494
10599SOL     OW32695   4.987   0.507   6.869
10599SOL    HW132696   4.946   0.463   6.790
10599SOL    HW232697   5.084   0.527   6.850
10600SOL     OW32698   1.590   2.300   5.331
10600SOL    HW132699   1.563   2.387   5.290
10600SOL    HW232700   1.525   2.276   5.403
10601SOL     OW32701   3.224   6.017   5.509
10601SOL    HW132702   3.212   6.105   5.462
10601SOL    HW232703   3.141   5.962   5.498
10602SOL     OW32704   4.741   1.166   1.463
10602SOL    HW132705   4.687   1.250   1.470
10602SOL    HW232706   4.718   1.120   1.377
10603SOL     OW32707   0.918   5.401   4.802
10603SOL    HW132708   0.837   5.457   4.815
10603SOL    HW232709   0.925   5.374   4.705
10604SOL     OW32710   6.961   4.030   5.522
10604SOL    HW132711   6.921   3.964   5.585
10604SOL    HW232712   6.889   4.091   5.487
10605SOL     OW32713   1.940   5.391   6.183
10605SOL    HW132714   1.903   5.302   6.159
10605SOL    HW232715   1.875   5.463   6.157
10606SOL     OW32716   0.123   1.193   2.415
10606SOL    HW132717   0.126   1.246   2.330
10606SOL    HW232718   0.079   1.105   2.398
10607SOL     OW32719   5.883   4.789   6.569
10607SOL    HW132720   5.969   4.826   6.533
10607SOL    HW232721   5.904   4.726   6.645
10608SOL     OW32722   5.693   0.260   2.972
10608SOL    HW132723   5.754   0.184   2.949
10608SOL    HW232724   5.642   0.237   3.055
10609SOL     OW32725   3.598   6.873   2.614
10609SOL    HW132726   3.547   6.795   2.577
10609SOL    HW232727   3.685   6.881   2.565
10610SOL     OW32728   2.323   4.609   4.433
10610SOL    HW132729   2.370   4.570   4.512
10610SOL    HW232730   2.253   4.672   4.465
10611SOL     OW32731   4.719   2.451   5.887
10611SOL    HW132732   4.775   2.511   5.944
10611SOL    HW232733   4.674   2.383   5.945
10612SOL     OW32734   1.492   0.120   1.318
10612SOL    HW132735   1.491   0.204   1.265
10612SOL    HW232736   1.507   0.042   1.257
10613SOL     OW32737   0.429   6.674   6.674
10613SOL    HW132738   0.393   6.719   6.756
10613SOL    HW232739   0.516   6.717   6.649
10614SOL     OW32740   6.542   0.664   3.287
10614SOL    HW132741   6.487   0.601   3.233
10614SOL    HW232742   6.549   0.630   3.381
10615SOL     OW32743   6.934   6.283   5.350
10615SOL    HW132744   6.841   6.320   5.343
10615SOL    HW232745   6.994   6.353   5.390
10616SOL     OW32746   2.524   5.785   1.139
10616SOL    HW132747   2.599   5.782   1.206
10616SOL    HW232748   2.440   5.812   1.184
10617SOL     OW32749   0.207   1.681   6.911
10617SOL    HW132750   0.264   1.730   6.845
10617SOL    HW232751   0.187   1.741   6.988
10618SOL     OW32752   6.357   3.872   1.125
10618SOL    HW132753   6.421   3.835   1.058
10618SOL    HW232754   6.316   3.797   1.177
10619SOL     OW32755   0.837   4.016   3.118
10619SOL    HW132756   0.931   3.999   3.147
10619SOL    HW232757   0.827   3.989   3.022
10620SOL     OW32758   1.209   5.429   4.116
10620SOL    HW132759   1.303   5.448   4.089
10620SOL    HW232760   1.147   5.449   4.040
10621SOL     OW32761   3.336   6.384   0.771
10621SOL    HW132762   3.349   6.347   0.862
10621SOL    HW232763   3.254   6.441   0.769
10622SOL     OW32764   4.333   1.910   0.805
10622SOL    HW132765   4.399   1.867   0.866
10622SOL    HW232766   4.324   1.857   0.721
10623SOL     OW32767   6.649   0.979   4.237
10623SOL    HW132768   6.625   1.060   4.290
10623SOL    HW232769   6.628   0.995   4.141
10624SOL     OW32770   3.190   1.111   4.074
10624SOL    HW132771   3.125   1.186   4.066
10624SOL    HW232772   3.272   1.132   4.019
10625SOL     OW32773   0.849   2.775   0.267
10625SOL    HW132774   0.941   2.815   0.258
10625SOL    HW232775   0.792   2.834   0.323
10626SOL     OW32776   5.942   1.909   2.294
10626SOL    HW132777   5.849   1.945   2.296
10626SOL    HW232778   5.981   1.922   2.203
10627SOL     OW32779   5.989   5.949   4.575
10627SOL    HW132780   6.028   5.897   4.651
10627SOL    HW232781   6.009   6.046   4.587
10628SOL     OW32782   0.018   5.499   5.655
10628SOL    HW132783   6.938   5.489   5.656
10628SOL    HW232784   0.041   5.591   5.688
10629SOL     OW32785   2.279   4.701   6.652
10629SOL    HW132786   2.231   4.775   6.699
10629SOL    HW232787   2.348   4.739   6.590
10630SOL     OW32788   6.429   0.885   1.971
10630SOL    HW132789   6.444   0.980   2.000
10630SOL    HW232790   6.337   0.857   1.997
10631SOL     OW32791   1.203   6.694   4.926
10631SOL    HW132792   1.136   6.763   4.955
10631SOL    HW232793   1.181   6.606   4.968
10632SOL     OW32794   6.980   3.113   6.316
10632SOL    HW132795   6.911   3.132   6.246
10632SOL    HW232796   6.977   3.016   6.340
10633SOL     OW32797   0.594   5.015   0.473
10633SOL    HW132798   0.498   5.017   0.502
10633SOL    HW232799   0.652   4.991   0.550
10634SOL     OW32800   3.651   6.402   2.242
10634SOL    HW132801   3.565   6.401   2.294
10634SOL    HW232802   3.631   6.406   2.145
10635SOL     OW32803   1.379   1.316   1.496
10635SOL    HW132804   1.296   1.275   1.458
10635SOL    HW232805   1.386   1.411   1.465
10636SOL     OW32806   5.556   1.608   1.028
10636SOL    HW132807   5.601   1.519   1.018
10636SOL    HW232808   5.560   1.637   1.124
10637SOL     OW32809   2.892   4.435   5.882
10637SOL    HW132810   2.894   4.530   5.852
10637SOL    HW232811   2.933   4.377   5.811
10638SOL     OW32812   6.696   6.864   5.876
10638SOL    HW132813   6.743   6.952   5.869
10638SOL    HW232814   6.616   6.865   5.817
10639SOL     OW32815   3.395   2.030   4.832
10639SOL    HW132816   3.317   2.013   4.893
10639SOL    HW232817   3.366   2.093   4.759
10640SOL     OW32818   4.411   6.238   1.163
10640SOL    HW132819   4.390   6.319   1.219
10640SOL    HW232820   4.510   6.231   1.151
10641SOL     OW32821   3.542   0.570   6.388
10641SOL    HW132822   3.631   0.587   6.429
10641SOL    HW232823   3.500   0.490   6.431
10642SOL     OW32824   6.981   4.779   0.310
10642SOL    HW132825   6.979   4.737   0.401
10642SOL    HW232826   0.051   4.769   0.270
10643SOL     OW32827   4.225   3.223   5.257
10643SOL    HW132828   4.278   3.280   5.320
10643SOL    HW232829   4.257   3.129   5.262
10644SOL     OW32830   3.727   1.136   5.114
10644SOL    HW132831   3.723   1.063   5.045
10644SOL    HW232832   3.755   1.221   5.070
10645SOL     OW32833   2.320   6.863   4.722
10645SOL    HW132834   2.402   6.861   4.779
10645SOL    HW232835   2.255   6.793   4.753
10646SOL     OW32836   0.483   4.696   6.768
10646SOL    HW132837   0.450   4.630   6.700
10646SOL    HW232838   0.431   4.781   6.759
10647SOL     OW32839   0.378   6.046   0.959
10647SOL    HW132840   0.341   6.062   1.050
10647SOL    HW232841   0.378   5.948   0.939
10648SOL     OW32842   4.841   5.238   6.538
10648SOL    HW132843   4.801   5.240   6.629
10648SOL    HW232844   4.797   5.165   6.484
10649SOL     OW32845   0.104   3.834   6.187
10649SOL    HW132846   0.161   3.782   6.124
10649SOL    HW232847   0.073   3.918   6.143
10650SOL     OW32848   3.182   0.792   5.319
10650SOL    HW132849   3.202   0.850   5.240
10650SOL    HW232850   3.191   0.846   5.403
10651SOL     OW32851   2.685   0.497   5.046
10651SOL    HW132852   2.740   0.558   4.989
10651SOL    HW232853   2.739   0.466   5.124
10652SOL     OW32854   3.914   1.609   0.596
10652SOL    HW132855   3.984   1.594   0.666
10652SOL    HW232856   3.936   1.556   0.514
10653SOL     OW32857   6.146   3.946   4.087
10653SOL    HW132858   6.090   4.021   4.051
10653SOL    HW232859   6.184   3.893   4.012
10654SOL     OW32860   4.666   0.609   1.754
10654SOL    HW132861   4.659   0.703   1.722
10654SOL    HW232862   4.649   0.606   1.852
10655SOL     OW32863   2.531   5.597   1.374
10655SOL    HW132864   2.587   5.610   1.455
10655SOL    HW232865   2.449   5.545   1.398
10656SOL     OW32866   6.186   2.478   6.585
10656SOL    HW132867   6.180   2.445   6.679
10656SOL    HW232868   6.268   2.534   6.574
10657SOL     OW32869   6.511   0.273   1.405
10657SOL    HW132870   6.602   0.287   1.446
10657SOL    HW232871   6.517   0.287   1.306
10658SOL     OW32872   0.238   6.371   4.304
10658SOL    HW132873   0.140   6.356   4.291
10658SOL    HW232874   0.270   6.440   4.239
10659SOL     OW32875   4.979   1.096   1.180
10659SOL    HW132876   4.880   1.083   1.178
10659SOL    HW232877   5.024   1.009   1.160
10660SOL     OW32878   5.621   5.554   6.318
10660SOL    HW132879   5.603   5.599   6.405
10660SOL    HW232880   5.649   5.622   6.250
10661SOL     OW32881   0.316   0.882   2.638
10661SOL    HW132882   0.319   0.967   2.585
10661SOL    HW232883   0.378   0.815   2.598
10662SOL     OW32884   6.705   1.833   6.951
10662SOL    HW132885   6.714   1.774   6.871
10662SOL    HW232886   6.622   1.888   6.943
10663SOL     OW32887   0.760   2.111   0.294
10663SOL    HW132888   0.674   2.146   0.332
10663SOL    HW232889   0.828   2.104   0.367
10664SOL     OW32890   2.282   5.048   6.351
10664SOL    HW132891   2.340   5.126   6.329
10664SOL    HW232892   2.191   5.062   6.310
10665SOL     OW32893   5.700   1.404   6.787
10665SOL    HW132894   5.746   1.475   6.840
10665SOL    HW232895   5.721   1.314   6.826
10666SOL     OW32896   0.555   0.141   0.381
10666SOL    HW132897   0.493   0.065   0.361
10666SOL    HW232898   0.609   0.120   0.462
10667SOL     OW32899   2.689   2.493   5.599
10667SOL    HW132900   2.742   2.539   5.670
10667SOL    HW232901   2.638   2.418   5.639
10668SOL     OW32902   2.686   1.446   6.578
10668SOL    HW132903   2.769   1.392   6.595
10668SOL    HW232904   2.619   1.389   6.530
10669SOL     OW32905   1.386   6.500   6.252
10669SOL    HW132906   1.392   6.488   6.153
10669SOL    HW232907   1.310   6.447   6.288
10670SOL     OW32908   6.532   3.909   4.748
10670SOL    HW132909   6.483   3.876   4.668
10670SOL    HW232910   6.469   3.959   4.807
10671SOL     OW32911   1.972   2.478   3.046
10671SOL    HW132912   1.904   2.488   3.119
10671SOL    HW232913   2.062   2.462   3.087
10672SOL     OW32914   0.035   2.640   0.632
10672SOL    HW132915   0.096   2.632   0.553
10672SOL    HW232916   0.048   2.562   0.693
10673SOL     OW32917   3.280   3.715   4.246
10673SOL    HW132918   3.250   3.737   4.153
10673SOL    HW232919   3.286   3.616   4.256
10674SOL     OW32920   4.081   1.523   2.647
10674SOL    HW132921   4.129   1.473   2.575
10674SOL    HW232922   3.983   1.510   2.638
10675SOL     OW32923   1.083   1.103   5.618
10675SOL    HW132924   1.073   1.056   5.530
10675SOL    HW232925   1.174   1.085   5.655
10676SOL     OW32926   0.137   0.380   6.455
10676SOL    HW132927   0.109   0.431   6.536
10676SOL    HW232928   0.097   0.422   6.373
10677SOL     OW32929   6.225   1.066   0.917
10677SOL    HW132930   6.135   1.044   0.954
10677SOL    HW232931   6.286   1.092   0.992
10678SOL     OW32932   2.152   5.110   3.281
10678SOL    HW132933   2.224   5.166   3.321
10678SOL    HW232934   2.085   5.169   3.236
10679SOL     OW32935   5.421   4.652   3.932
10679SOL    HW132936   5.444   4.567   3.885
10679SOL    HW232937   5.335   4.641   3.982
10680SOL     OW32938   0.560   2.747   3.583
10680SOL    HW132939   0.615   2.830   3.570
10680SOL    HW232940   0.516   2.723   3.497
10681SOL     OW32941   0.545   2.450   6.921
10681SOL    HW132942   0.492   2.486   6.844
10681SOL    HW232943   0.522   2.501   7.004
10682SOL     OW32944   6.698   1.826   2.884
10682SOL    HW132945   6.664   1.818   2.790
10682SOL    HW232946   6.726   1.920   2.902
10683SOL     OW32947   1.354   0.377   4.294
10683SOL    HW132948   1.319   0.339   4.379
10683SOL    HW232949   1.344   0.310   4.220
10684SOL     OW32950   4.911   5.928   0.587
10684SOL    HW132951   4.940   5.847   0.537
10684SOL    HW232952   4.813   5.923   0.605
10685SOL     OW32953   6.184   2.790   2.625
10685SOL    HW132954   6.256   2.736   2.581
10685SOL    HW232955   6.100   2.735   2.631
10686SOL     OW32956   4.354   4.805   1.275
10686SOL    HW132957   4.299   4.728   1.241
10686SOL    HW232958   4.386   4.860   1.198
10687SOL     OW32959   6.381   5.204   1.109
10687SOL    HW132960   6.322   5.159   1.042
10687SOL    HW232961   6.387   5.148   1.192
10688SOL     OW32962   0.466   4.837   1.278
10688SOL    HW132963   0.428   4.759   1.329
10688SOL    HW232964   0.507   4.902   1.342
10689SOL     OW32965   1.122   0.274   0.855
10689SOL    HW132966   1.087   0.193   0.902
10689SOL    HW232967   1.094   0.272   0.759
10690SOL     OW32968   4.499   6.608   3.311
10690SOL    HW132969   4.501   6.678   3.383
10690SOL    HW232970   4.442   6.639   3.235
10691SOL     OW32971   5.814   1.101   1.708
10691SOL    HW132972   5.772   1.150   1.785
10691SOL    HW232973   5.905   1.138   1.690
10692SOL     OW32974   6.551   6.553   4.095
10692SOL    HW132975   6.483   6.518   4.159
10692SOL    HW232976   6.509   6.621   4.035
10693SOL     OW32977   5.066   2.849   4.156
10693SOL    HW132978   5.115   2.853   4.069
10693SOL    HW232979   5.131   2.853   4.231
10694SOL     OW32980   2.379   5.921   0.550
10694SOL    HW132981   2.361   6.013   0.585
10694SOL    HW232982   2.348   5.854   0.616
10695SOL     OW32983   5.607   3.357   5.615
10695SOL    HW132984   5.683   3.346   5.551
10695SOL    HW232985   5.521   3.332   5.569
10696SOL     OW32986   6.469   6.904   1.385
10696SOL    HW132987   6.456   6.813   1.424
10696SOL    HW232988   6.448   6.973   1.455
10697SOL     OW32989   1.852   6.483   2.838
10697SOL    HW132990   1.914   6.530   2.901
10697SOL    HW232991   1.905   6.422   2.778
10698SOL     OW32992   3.058   0.615   4.623
10698SOL    HW132993   3.013   0.660   4.545
10698SOL    HW232994   3.097   0.528   4.594
10699SOL     OW32995   1.387   2.659   3.603
10699SOL    HW132996   1.341   2.612   3.677
10699SOL    HW232997   1.438   2.737   3.639
10700SOL     OW32998   0.893   2.809   2.545
10700SOL    HW132999   0.970   2.850   2.496
10700SOL    HW233000   0.883   2.852   2.635
10701SOL     OW33001   2.623   0.139   1.503
10701SOL    HW133002   2.578   0.062   1.458
10701SOL    HW233003   2.596   0.224   1.458
10702SOL     OW33004   5.335   2.365   0.767
10702SOL    HW133005   5.370   2.272   0.776
10702SOL    HW233006   5.317   2.403   0.857
10703SOL     OW33007   3.883   2.970   4.392
10703SOL    HW133008   3.897   2.931   4.483
10703SOL    HW233009   3.798   2.936   4.353
10704SOL     OW33010   5.775   5.956   2.470
10704SOL    HW133011   5.814   6.048   2.485
10704SOL    HW233012   5.814   5.893   2.537
10705SOL     OW33013   1.546   3.409   6.479
10705SOL    HW133014   1.628   3.464   6.491
10705SOL    HW233015   1.522   3.365   6.566
10706SOL     OW33016   3.281   3.391   0.983
10706SOL    HW133017   3.308   3.307   1.030
10706SOL    HW233018   3.362   3.443   0.959
10707SOL     OW33019   6.202   6.891   6.288
10707SOL    HW133020   6.288   6.941   6.296
10707SOL    HW233021   6.205   6.809   6.345
10708SOL     OW33022   4.932   1.468   1.644
10708SOL    HW133023   4.964   1.401   1.577
10708SOL    HW233024   4.886   1.543   1.597
10709SOL     OW33025   0.960   6.872   6.231
10709SOL    HW133026   0.922   6.921   6.309
10709SOL    HW233027   0.943   6.774   6.241
10710SOL     OW33028   0.262   6.496   3.615
10710SOL    HW133029   0.182   6.473   3.560
10710SOL    HW233030   0.338   6.523   3.555
10711SOL     OW33031   2.284   4.761   5.758
10711SOL    HW133032   2.207   4.755   5.694
10711SOL    HW233033   2.269   4.698   5.834
10712SOL     OW33034   3.354   1.446   6.566
10712SOL    HW133035   3.261   1.416   6.548
10712SOL    HW233036   3.358   1.546   6.560
10713SOL     OW33037   1.958   6.747   0.395
10713SOL    HW133038   2.027   6.724   0.464
10713SOL    HW233039   1.867   6.739   0.435
10714SOL     OW33040   5.551   5.610   4.531
10714SOL    HW133041   5.532   5.619   4.433
10714SOL    HW233042   5.628   5.548   4.545
10715SOL     OW33043   5.905   0.344   2.677
10715SOL    HW133044   5.957   0.429   2.663
10715SOL    HW233045   5.846   0.328   2.598
10716SOL     OW33046   0.239   0.797   1.763
10716SOL    HW133047   0.159   0.853   1.744
10716SOL    HW233048   0.267   0.750   1.680
10717SOL     OW33049   0.286   6.523   1.997
10717SOL    HW133050   0.371   6.477   2.022
10717SOL    HW233051   0.301   6.622   1.994
10718SOL     OW33052   1.176   4.164   5.392
10718SOL    HW133053   1.094   4.173   5.335
10718SOL    HW233054   1.205   4.068   5.393
10719SOL     OW33055   3.717   6.120   2.346
10719SOL    HW133056   3.660   6.047   2.307
10719SOL    HW233057   3.662   6.203   2.356
10720SOL     OW33058   0.368   3.135   6.178
10720SOL    HW133059   0.333   3.201   6.112
10720SOL    HW233060   0.320   3.048   6.167
10721SOL     OW33061   5.394   1.727   4.228
10721SOL    HW133062   5.390   1.689   4.321
10721SOL    HW233063   5.354   1.662   4.164
10722SOL     OW33064   0.502   5.344   0.371
10722SOL    HW133065   0.406   5.315   0.375
10722SOL    HW233066   0.518   5.393   0.285
10723SOL     OW33067   6.509   4.016   6.413
10723SOL    HW133068   6.565   4.056   6.340
10723SOL    HW233069   6.481   3.924   6.385
10724SOL     OW33070   3.680   0.108   5.879
10724SOL    HW133071   3.622   0.058   5.814
10724SOL    HW233072   3.636   0.195   5.901
10725SOL     OW33073   0.404   6.758   5.339
10725SOL    HW133074   0.372   6.846   5.372
10725SOL    HW233075   0.343   6.724   5.267
10726SOL     OW33076   6.747   0.422   3.255
10726SOL    HW133077   6.693   0.495   3.213
10726SOL    HW233078   6.811   0.461   3.322
10727SOL     OW33079   4.851   6.726   6.305
10727SOL    HW133080   4.814   6.660   6.370
10727SOL    HW233081   4.842   6.819   6.343
10728SOL     OW33082   6.098   5.631   3.714
10728SOL    HW133083   6.069   5.668   3.803
10728SOL    HW233084   6.029   5.655   3.645
10729SOL     OW33085   6.821   2.826   4.459
10729SOL    HW133086   6.782   2.821   4.551
10729SOL    HW233087   6.905   2.771   4.456
10730SOL     OW33088   1.791   6.542   4.184
10730SOL    HW133089   1.693   6.539   4.165
10730SOL    HW233090   1.807   6.590   4.271
10731SOL     OW33091   4.821   4.832   6.281
10731SOL    HW133092   4.843   4.817   6.184
10731SOL    HW233093   4.904   4.859   6.330
10732SOL     OW33094   6.453   6.037   2.457
10732SOL    HW133095   6.501   6.001   2.537
10732SOL    HW233096   6.381   6.100   2.487
10733SOL     OW33097   0.549   1.633   6.274
10733SOL    HW133098   0.593   1.544   6.285
10733SOL    HW233099   0.451   1.621   6.264
10734SOL     OW33100   0.423   0.984   4.793
10734SOL    HW133101   0.333   1.024   4.772
10734SOL    HW233102   0.453   0.928   4.716
10735SOL     OW33103   0.045   0.519   1.857
10735SOL    HW133104   0.056   0.436   1.911
10735SOL    HW233105   0.077   0.598   1.910
10736SOL     OW33106   6.083   5.766   3.938
10736SOL    HW133107   6.180   5.789   3.935
10736SOL    HW233108   6.063   5.714   4.021
10737SOL     OW33109   6.979   0.969   1.184
10737SOL    HW133110   6.934   0.906   1.246
10737SOL    HW233111   6.952   0.950   1.090
10738SOL     OW33112   1.957   6.965   1.681
10738SOL    HW133113   1.940   6.867   1.684
10738SOL    HW233114   1.904   7.006   1.606
10739SOL     OW33115   4.781   2.829   4.104
10739SOL    HW133116   4.881   2.836   4.108
10739SOL    HW233117   4.744   2.833   4.196
10740SOL     OW33118   2.854   0.531   5.766
10740SOL    HW133119   2.854   0.472   5.847
10740SOL    HW233120   2.932   0.508   5.708
10741SOL     OW33121   1.095   2.882   3.925
10741SOL    HW133122   1.126   2.795   3.964
10741SOL    HW233123   1.080   2.949   3.998
10742SOL     OW33124   0.212   6.950   2.006
10742SOL    HW133125   0.129   6.993   2.041
10742SOL    HW233126   0.288   6.967   2.069
10743SOL     OW33127   3.536   1.977   5.811
10743SOL    HW133128   3.535   1.931   5.899
10743SOL    HW233129   3.532   1.908   5.738
10744SOL     OW33130   2.391   2.162   1.211
10744SOL    HW133131   2.382   2.251   1.166
10744SOL    HW233132   2.383   2.173   1.310
10745SOL     OW33133   2.806   5.627   1.489
10745SOL    HW133134   2.742   5.627   1.566
10745SOL    HW233135   2.880   5.562   1.507
10746SOL     OW33136   2.207   5.335   6.141
10746SOL    HW133137   2.228   5.334   6.043
10746SOL    HW233138   2.112   5.362   6.154
10747SOL     OW33139   0.413   0.332   4.362
10747SOL    HW133140   0.508   0.300   4.363
10747SOL    HW233141   0.363   0.286   4.289
10748SOL     OW33142   3.078   6.505   2.394
10748SOL    HW133143   3.020   6.549   2.463
10748SOL    HW233144   3.090   6.409   2.418
10749SOL     OW33145   5.326   4.119   1.966
10749SOL    HW133146   5.257   4.136   2.037
10749SOL    HW233147   5.417   4.134   2.004
10750SOL     OW33148   3.922   2.167   3.932
10750SOL    HW133149   4.010   2.132   3.900
10750SOL    HW233150   3.934   2.257   3.972
10751SOL     OW33151   6.671   6.306   3.973
10751SOL    HW133152   6.618   6.387   3.997
10751SOL    HW233153   6.658   6.235   4.043
10752SOL     OW33154   0.241   6.399   6.412
10752SOL    HW133155   0.183   6.472   6.377
10752SOL    HW233156   0.254   6.412   6.511
10753SOL     OW33157   5.360   6.491   4.743
10753SOL    HW133158   5.375   6.479   4.841
10753SOL    HW233159   5.282   6.435   4.714
10754SOL     OW33160   0.583   5.766   2.235
10754SOL    HW133161   0.504   5.746   2.294
10754SOL    HW233162   0.638   5.684   2.226
10755SOL     OW33163   0.172   2.116   1.734
10755SOL    HW133164   0.258   2.150   1.696
10755SOL    HW233165   0.162   2.018   1.713
10756SOL     OW33166   1.407   0.002   6.257
10756SOL    HW133167   1.334   6.954   6.260
10756SOL    HW233168   1.443   0.017   6.349
10757SOL     OW33169   6.756   2.889   1.834
10757SOL    HW133170   6.759   2.790   1.849
10757SOL    HW233171   6.688   2.930   1.894
10758SOL     OW33172   1.241   1.719   0.562
10758SOL    HW133173   1.258   1.817   0.573
10758SOL    HW233174   1.237   1.675   0.652
10759SOL     OW33175   3.547   4.165   4.811
10759SOL    HW133176   3.587   4.139   4.899
10759SOL    HW233177   3.448   4.165   4.819
10760SOL     OW33178   1.037   5.082   6.840
10760SOL    HW133179   0.954   5.039   6.876
10760SOL    HW233180   1.025   5.181   6.838
10761SOL     OW33181   1.540   1.249   6.448
10761SOL    HW133182   1.545   1.328   6.387
10761SOL    HW233183   1.595   1.174   6.412
10762SOL     OW33184   1.494   6.614   0.477
10762SOL    HW133185   1.577   6.662   0.508
10762SOL    HW233186   1.514   6.565   0.392
10763SOL     OW33187   4.838   1.187   2.568
10763SOL    HW133188   4.898   1.124   2.519
10763SOL    HW233189   4.888   1.271   2.590
10764SOL     OW33190   5.240   5.992   5.018
10764SOL    HW133191   5.182   5.983   5.099
10764SOL    HW233192   5.185   6.031   4.943
10765SOL     OW33193   0.651   2.402   1.005
10765SOL    HW133194   0.560   2.413   0.964
10765SOL    HW233195   0.685   2.492   1.033
10766SOL     OW33196   2.504   4.917   6.255
10766SOL    HW133197   2.472   4.854   6.183
10766SOL    HW233198   2.425   4.958   6.301
10767SOL     OW33199   1.813   5.168   6.682
10767SOL    HW133200   1.779   5.240   6.743
10767SOL    HW233201   1.900   5.196   6.643
10768SOL     OW33202   5.286   6.353   6.518
10768SOL    HW133203   5.243   6.407   6.445
10768SOL    HW233204   5.284   6.404   6.603
10769SOL     OW33205   3.003   3.504   4.280
10769SOL    HW133206   3.017   3.594   4.237
10769SOL    HW233207   3.072   3.490   4.351
10770SOL     OW33208   4.814   0.096   3.415
10770SOL    HW133209   4.886   0.161   3.439
10770SOL    HW233210   4.832   0.008   3.461
10771SOL     OW33211   4.338   6.001   5.942
10771SOL    HW133212   4.332   6.048   5.854
10771SOL    HW233213   4.433   5.983   5.965
10772SOL     OW33214   4.515   4.393   2.723
10772SOL    HW133215   4.499   4.448   2.805
10772SOL    HW233216   4.483   4.442   2.642
10773SOL     OW33217   0.448   3.981   0.531
10773SOL    HW133218   0.536   3.944   0.561
10773SOL    HW233219   0.413   4.044   0.601
10774SOL     OW33220   0.524   3.158   0.943
10774SOL    HW133221   0.571   3.246   0.935
10774SOL    HW233222   0.495   3.127   0.853
10775SOL     OW33223   2.139   4.513   0.226
10775SOL    HW133224   2.075   4.530   0.301
10775SOL    HW233225   2.203   4.441   0.253
10776SOL     OW33226   0.791   3.378   2.903
10776SOL    HW133227   0.809   3.451   2.970
10776SOL    HW233228   0.852   3.301   2.921
10777SOL     OW33229   1.834   0.074   1.498
10777SOL    HW133230   1.851   0.129   1.417
10777SOL    HW233231   1.755   0.110   1.547
10778SOL     OW33232   4.353   0.345   3.422
10778SOL    HW133233   4.294   0.427   3.421
10778SOL    HW233234   4.448   0.373   3.433
10779SOL     OW33235   5.829   2.966   6.079
10779SOL    HW133236   5.794   2.929   6.165
10779SOL    HW233237   5.916   2.922   6.057
10780SOL     OW33238   1.487   5.027   5.082
10780SOL    HW133239   1.504   5.125   5.071
10780SOL    HW233240   1.490   5.003   5.179
10781SOL     OW33241   6.060   1.927   6.159
10781SOL    HW133242   6.154   1.961   6.157
10781SOL    HW233243   5.998   1.999   6.128
10782SOL     OW33244   0.959   3.280   5.201
10782SOL    HW133245   1.038   3.292   5.141
10782SOL    HW233246   0.887   3.230   5.153
10783SOL     OW33247   1.812   4.222   3.746
10783SOL    HW133248   1.823   4.312   3.704
10783SOL    HW233249   1.839   4.226   3.842
10784SOL     OW33250   4.834   5.476   4.007
10784SOL    HW133251   4.883   5.563   4.017
10784SOL    HW233252   4.858   5.416   4.084
10785SOL     OW33253   1.344   5.194   1.736
10785SOL    HW133254   1.267   5.255   1.723
10785SOL    HW233255   1.430   5.245   1.729
10786SOL     OW33256   5.131   1.310   2.542
10786SOL    HW133257   5.206   1.251   2.513
10786SOL    HW233258   5.107   1.373   2.468
10787SOL     OW33259   3.606   1.823   3.725
10787SOL    HW133260   3.677   1.807   3.657
10787SOL    HW233261   3.643   1.803   3.816
10788SOL     OW33262   1.417   3.295   6.697
10788SOL    HW133263   1.345   3.361   6.719
10788SOL    HW233264   1.477   3.284   6.776
10789SOL     OW33265   6.657   1.677   2.641
10789SOL    HW133266   6.598   1.617   2.696
10789SOL    HW233267   6.636   1.664   2.544
10790SOL     OW33268   6.869   2.122   5.385
10790SOL    HW133269   6.913   2.040   5.423
10790SOL    HW233270   6.770   2.114   5.395
10791SOL     OW33271   1.816   3.203   3.810
10791SOL    HW133272   1.855   3.122   3.767
10791SOL    HW233273   1.853   3.285   3.767
10792SOL     OW33274   3.566   1.196   2.277
10792SOL    HW133275   3.482   1.186   2.330
10792SOL    HW233276   3.638   1.139   2.317
10793SOL     OW33277   3.520   1.792   4.620
10793SOL    HW133278   3.561   1.830   4.703
10793SOL    HW233279   3.503   1.865   4.554
10794SOL     OW33280   4.850   2.898   6.707
10794SOL    HW133281   4.847   2.995   6.680
10794SOL    HW233282   4.938   2.859   6.680
10795SOL     OW33283   6.033   3.338   3.598
10795SOL    HW133284   6.114   3.291   3.563
10795SOL    HW233285   6.059   3.402   3.670
10796SOL     OW33286   0.598   1.273   6.118
10796SOL    HW133287   0.655   1.308   6.193
10796SOL    HW233288   0.630   1.311   6.031
10797SOL     OW33289   5.492   5.081   6.645
10797SOL    HW133290   5.558   5.046   6.580
10797SOL    HW233291   5.490   5.023   6.726
10798SOL     OW33292   2.011   6.019   0.662
10798SOL    HW133293   2.064   6.093   0.621
10798SOL    HW233294   1.916   6.048   0.675
10799SOL     OW33295   2.556   0.826   2.609
10799SOL    HW133296   2.589   0.916   2.639
10799SOL    HW233297   2.523   0.775   2.689
10800SOL     OW33298   2.092   0.392   4.793
10800SOL    HW133299   2.115   0.298   4.768
10800SOL    HW233300   2.146   0.420   4.872
10801SOL     OW33301   3.010   6.141   6.686
10801SOL    HW133302   2.928   6.115   6.636
10801SOL    HW233303   3.091   6.115   6.634
10802SOL     OW33304   0.943   4.793   4.191
10802SOL    HW133305   0.925   4.732   4.114
10802SOL    HW233306   0.998   4.871   4.159
10803SOL     OW33307   6.678   4.162   4.735
10803SOL    HW133308   6.616   4.098   4.779
10803SOL    HW233309   6.712   4.122   4.650
10804SOL     OW33310   3.880   4.565   0.605
10804SOL    HW133311   3.853   4.475   0.640
10804SOL    HW233312   3.834   4.581   0.517
10805SOL     OW33313   4.409   6.261   0.415
10805SOL    HW133314   4.392   6.260   0.514
10805SOL    HW233315   4.499   6.299   0.398
10806SOL     OW33316   5.307   2.759   6.323
10806SOL    HW133317   5.263   2.695   6.260
10806SOL    HW233318   5.239   2.795   6.387
10807SOL     OW33319   4.970   2.359   5.087
10807SOL    HW133320   5.012   2.274   5.056
10807SOL    HW233321   4.980   2.429   5.017
10808SOL     OW33322   0.551   2.127   6.659
10808SOL    HW133323   0.547   2.128   6.759
10808SOL    HW233324   0.622   2.062   6.629
10809SOL     OW33325   1.120   0.875   2.470
10809SOL    HW133326   1.109   0.971   2.446
10809SOL    HW233327   1.200   0.838   2.422
10810SOL     OW33328   1.694   0.806   6.044
10810SOL    HW133329   1.748   0.860   5.980
10810SOL    HW233330   1.739   0.719   6.061
10811SOL     OW33331   4.159   6.061   6.378
10811SOL    HW133332   4.218   6.093   6.304
10811SOL    HW233333   4.085   6.126   6.393
10812SOL     OW33334   6.413   2.781   3.172
10812SOL    HW133335   6.492   2.759   3.116
10812SOL    HW233336   6.437   2.851   3.239
10813SOL     OW33337   3.077   5.971   2.375
10813SOL    HW133338   3.025   5.886   2.384
10813SOL    HW233339   3.173   5.955   2.400
10814SOL     OW33340   1.786   6.372   4.748
10814SOL    HW133341   1.862   6.328   4.699
10814SOL    HW233342   1.798   6.359   4.846
10815SOL     OW33343   5.421   1.385   5.537
10815SOL    HW133344   5.492   1.456   5.536
10815SOL    HW233345   5.394   1.366   5.631
10816SOL     OW33346   2.356   1.726   1.644
10816SOL    HW133347   2.385   1.751   1.736
10816SOL    HW233348   2.418   1.766   1.577
10817SOL     OW33349   3.361   1.778   1.992
10817SOL    HW133350   3.344   1.771   1.894
10817SOL    HW233351   3.325   1.865   2.026
10818SOL     OW33352   4.707   3.635   6.552
10818SOL    HW133353   4.694   3.549   6.503
10818SOL    HW233354   4.653   3.708   6.509
10819SOL     OW33355   1.836   4.278   5.536
10819SOL    HW133356   1.800   4.364   5.498
10819SOL    HW233357   1.935   4.286   5.548
10820SOL     OW33358   1.052   5.843   5.007
10820SOL    HW133359   1.123   5.884   5.063
10820SOL    HW233360   1.085   5.757   4.967
10821SOL     OW33361   0.564   0.471   6.847
10821SOL    HW133362   0.503   0.539   6.806
10821SOL    HW233363   0.561   0.387   6.794
10822SOL     OW33364   0.596   4.393   6.381
10822SOL    HW133365   0.544   4.307   6.379
10822SOL    HW233366   0.547   4.462   6.328
10823SOL     OW33367   1.891   2.387   0.848
10823SOL    HW133368   1.979   2.343   0.867
10823SOL    HW233369   1.905   2.466   0.789
10824SOL     OW33370   5.333   0.988   4.362
10824SOL    HW133371   5.395   0.909   4.359
10824SOL    HW233372   5.384   1.070   4.387
10825SOL     OW33373   2.972   1.366   2.484
10825SOL    HW133374   2.903   1.396   2.550
10825SOL    HW233375   3.043   1.314   2.532
10826SOL     OW33376   6.774   3.706   1.333
10826SOL    HW133377   6.773   3.772   1.257
10826SOL    HW233378   6.725   3.624   1.306
10827SOL     OW33379   0.893   2.745   4.446
10827SOL    HW133380   0.858   2.740   4.540
10827SOL    HW233381   0.912   2.653   4.412
10828SOL     OW33382   2.375   4.730   6.939
10828SOL    HW133383   2.400   4.634   6.922
10828SOL    HW233384   2.364   4.777   6.852
10829SOL     OW33385   2.349   4.318   2.067
10829SOL    HW133386   2.405   4.336   2.148
10829SOL    HW233387   2.398   4.346   1.985
10830SOL     OW33388   6.045   0.765   3.715
10830SOL    HW133389   6.063   0.842   3.777
10830SOL    HW233390   6.095   0.780   3.629
10831SOL     OW33391   5.266   2.558   2.041
10831SOL    HW133392   5.335   2.573   1.969
10831SOL    HW233393   5.237   2.647   2.077
10832SOL     OW33394   0.646   3.072   2.705
10832SOL    HW133395   0.729   3.075   2.649
10832SOL    HW233396   0.665   3.021   2.789
10833SOL     OW33397   3.217   0.021   4.304
10833SOL    HW133398   3.281   0.007   4.379
10833SOL    HW233399   3.151   0.092   4.329
10834SOL     OW33400   0.332   1.711   5.881
10834SOL    HW133401   0.419   1.687   5.926
10834SOL    HW233402   0.262   1.645   5.907
10835SOL     OW33403   1.057   1.967   0.771
10835SOL    HW133404   0.972   2.014   0.796
10835SOL    HW233405   1.035   1.886   0.717
10836SOL     OW33406   1.075   2.682   1.249
10836SOL    HW133407   1.131   2.681   1.166
10836SOL    HW233408   1.052   2.589   1.276
10837SOL     OW33409   0.496   5.608   0.510
10837SOL    HW133410   0.572   5.546   0.528
10837SOL    HW233411   0.479   5.612   0.412
10838SOL     OW33412   6.055   6.158   0.808
10838SOL    HW133413   6.033   6.164   0.710
10838SOL    HW233414   6.018   6.238   0.855
10839SOL     OW33415   2.184   1.938   6.634
10839SOL    HW133416   2.216   2.018   6.584
10839SOL    HW233417   2.263   1.889   6.673
10840SOL     OW33418   2.138   0.399   2.480
10840SOL    HW133419   2.131   0.493   2.447
10840SOL    HW233420   2.093   0.392   2.569
10841SOL     OW33421   4.439   3.801   0.723
10841SOL    HW133422   4.346   3.786   0.758
10841SOL    HW233423   4.447   3.760   0.632
10842SOL     OW33424   6.235   1.805   1.812
10842SOL    HW133425   6.274   1.774   1.899
10842SOL    HW233426   6.273   1.895   1.789
10843SOL     OW33427   0.995   2.517   1.579
10843SOL    HW133428   0.927   2.590   1.572
10843SOL    HW233429   1.066   2.544   1.644
10844SOL     OW33430   5.390   0.046   4.161
10844SOL    HW133431   5.479   0.003   4.176
10844SOL    HW233432   5.364   0.037   4.065
10845SOL     OW33433   2.238   3.272   1.227
10845SOL    HW133434   2.290   3.281   1.312
10845SOL    HW233435   2.143   3.297   1.243
10846SOL     OW33436   3.606   2.812   1.970
10846SOL    HW133437   3.605   2.714   1.991
10846SOL    HW233438   3.660   2.828   1.887
10847SOL     OW33439   4.472   2.156   5.213
10847SOL    HW133440   4.458   2.236   5.272
10847SOL    HW233441   4.563   2.160   5.171
10848SOL     OW33442   1.543   0.706   6.706
10848SOL    HW133443   1.592   0.782   6.663
10848SOL    HW233444   1.445   0.717   6.689
10849SOL     OW33445   1.465   4.734   4.291
10849SOL    HW133446   1.510   4.754   4.204
10849SOL    HW233447   1.534   4.718   4.362
10850SOL     OW33448   5.681   0.662   2.484
10850SOL    HW133449   5.642   0.570   2.484
10850SOL    HW233450   5.741   0.673   2.405
10851SOL     OW33451   4.388   2.811   6.597
10851SOL    HW133452   4.483   2.835   6.577
10851SOL    HW233453   4.385   2.730   6.655
10852SOL     OW33454   5.919   0.583   6.020
10852SOL    HW133455   5.932   0.507   6.083
10852SOL    HW233456   5.975   0.661   6.049
10853SOL     OW33457   3.376   0.620   4.860
10853SOL    HW133458   3.328   0.659   4.782
10853SOL    HW233459   3.311   0.604   4.934
10854SOL     OW33460   6.104   0.026   0.630
10854SOL    HW133461   6.067   0.108   0.673
10854SOL    HW233462   6.202   0.019   0.648
10855SOL     OW33463   0.443   5.688   1.407
10855SOL    HW133464   0.531   5.655   1.370
10855SOL    HW233465   0.453   5.709   1.504
10856SOL     OW33466   5.584   6.354   6.634
10856SOL    HW133467   5.584   6.373   6.733
10856SOL    HW233468   5.514   6.411   6.590
10857SOL     OW33469   6.516   6.844   4.867
10857SOL    HW133470   6.428   6.803   4.890
10857SOL    HW233471   6.502   6.925   4.810
10858SOL     OW33472   1.940   2.167   0.315
10858SOL    HW133473   1.920   2.263   0.334
10858SOL    HW233474   1.857   2.120   0.285
10859SOL     OW33475   2.483   5.292   2.446
10859SOL    HW133476   2.482   5.228   2.522
10859SOL    HW233477   2.390   5.302   2.410
10860SOL     OW33478   6.089   1.737   1.339
10860SOL    HW133479   6.171   1.681   1.325
10860SOL    HW233480   6.067   1.739   1.437
10861SOL     OW33481   1.799   4.327   1.396
10861SOL    HW133482   1.849   4.311   1.312
10861SOL    HW233483   1.756   4.418   1.393
10862SOL     OW33484   3.461   4.090   5.339
10862SOL    HW133485   3.415   4.002   5.331
10862SOL    HW233486   3.420   4.156   5.276
10863SOL     OW33487   1.492   0.312   3.043
10863SOL    HW133488   1.437   0.357   3.113
10863SOL    HW233489   1.578   0.280   3.083
10864SOL     OW33490   3.098   4.060   1.920
10864SOL    HW133491   3.189   4.066   1.961
10864SOL    HW233492   3.072   4.149   1.882
10865SOL     OW33493   2.840   2.257   2.796
10865SOL    HW133494   2.921   2.241   2.740
10865SOL    HW233495   2.866   2.264   2.892
10866SOL     OW33496   1.191   3.488   4.621
10866SOL    HW133497   1.277   3.452   4.657
10866SOL    HW233498   1.120   3.417   4.627
10867SOL     OW33499   4.528   3.186   0.134
10867SOL    HW133500   4.439   3.227   0.116
10867SOL    HW233501   4.578   3.243   0.200
10868SOL     OW33502   1.399   0.086   5.216
10868SOL    HW133503   1.306   0.123   5.219
10868SOL    HW233504   1.396   7.007   5.211
10869NA      NA33505   0.193   1.009   6.525
10870NA      NA33506   4.686   4.784   5.089
10871NA      NA33507   0.672   4.840   3.031
10872NA      NA33508   6.087   3.780   3.516
10873NA      NA33509   4.068   2.417   5.349
10874NA      NA33510   2.217   4.226   6.796
10875NA      NA33511   1.504   5.521   0.449
10876NA      NA33512   4.202   4.950   2.142
10877NA      NA33513   5.304   3.361   1.334
10878NA      NA33514   3.773   1.848   0.586
10879NA      NA33515   5.510   6.501   1.400
10880NA      NA33516   2.957   6.790   4.740
10881NA      NA33517   3.996   5.102   2.764
10882NA      NA33518   4.078   4.987   6.582
   7.02014   7.02014   7.02014
