Generated by trjconv : CNT in water t= 184.00000
33518
    1C        C    1   2.838   2.762   4.748
    1C        C    2   2.897   2.716   4.868
    1C        C    3   2.842   2.769   4.985
    1C        C    4   2.840   2.766   4.261
    1C        C    5   2.896   2.722   4.383
    1C        C    6   2.840   2.768   4.505
    1C        C    7   3.011   2.640   4.625
    1C        C    8   2.892   2.716   4.626
    1C        C    9   3.073   2.600   4.746
    1C        C   10   3.005   2.626   4.867
    1C        C   11   3.180   2.492   4.975
    1C        C   12   3.054   2.554   4.977
    1C        C   13   2.849   2.770   3.773
    1C        C   14   2.895   2.716   3.895
    1C        C   15   2.842   2.763   4.017
    1C        C   16   3.013   2.641   4.138
    1C        C   17   2.894   2.717   4.140
    1C        C   18   3.079   2.615   4.261
    1C        C   19   3.016   2.648   4.383
    1C        C   20   3.206   2.554   4.504
    1C        C   21   3.074   2.605   4.504
    1C        C   22   3.277   2.538   4.625
    1C        C   23   3.204   2.545   4.746
    1C        C   24   3.413   2.489   4.866
    1C        C   25   3.271   2.506   4.866
    1C        C   26   3.488   2.479   4.984
    1C        C   27   2.848   2.765   3.280
    1C        C   28   2.899   2.720   3.404
    1C        C   29   2.850   2.770   3.527
    1C        C   30   3.015   2.641   3.650
    1C        C   31   2.899   2.721   3.650
    1C        C   32   3.075   2.604   3.772
    1C        C   33   3.011   2.636   3.894
    1C        C   34   3.208   2.557   4.017
    1C        C   35   3.075   2.606   4.016
    1C        C   36   3.277   2.535   4.138
    1C        C   37   3.208   2.557   4.259
    1C        C   38   3.414   2.508   4.382
    1C        C   39   3.276   2.540   4.382
    1C        C   40   3.487   2.505   4.502
    1C        C   41   3.416   2.516   4.624
    1C        C   42   3.627   2.485   4.745
    1C        C   43   3.485   2.485   4.743
    1C        C   44   3.705   2.485   4.863
    1C        C   45   3.627   2.475   4.979
    1C        C   46   2.839   2.752   2.791
    1C        C   47   2.895   2.713   2.915
    1C        C   48   2.844   2.765   3.036
    1C        C   49   3.014   2.636   3.160
    1C        C   50   2.898   2.718   3.157
    1C        C   51   3.076   2.604   3.283
    1C        C   52   3.014   2.638   3.406
    1C        C   53   3.205   2.546   3.527
    1C        C   54   3.076   2.604   3.528
    1C        C   55   3.274   2.531   3.650
    1C        C   56   3.206   2.552   3.772
    1C        C   57   3.414   2.511   3.892
    1C        C   58   3.275   2.537   3.894
    1C        C   59   3.485   2.512   4.014
    1C        C   60   3.416   2.512   4.137
    1C        C   61   3.626   2.509   4.260
    1C        C   62   3.485   2.501   4.260
    1C        C   63   3.697   2.517   4.382
    1C        C   64   3.628   2.509   4.505
    1C        C   65   3.835   2.548   4.622
    1C        C   66   3.700   2.505   4.626
    1C        C   67   3.906   2.563   4.743
    1C        C   68   3.840   2.526   4.862
    1C        C   69   4.051   2.587   4.979
    1C        C   70   3.919   2.538   4.977
    1C        C   71   2.820   2.734   2.309
    1C        C   72   2.884   2.692   2.428
    1C        C   73   2.833   2.746   2.548
    1C        C   74   3.005   2.619   2.673
    1C        C   75   2.890   2.700   2.669
    1C        C   76   3.069   2.589   2.795
    1C        C   77   3.011   2.632   2.916
    1C        C   78   3.204   2.544   3.038
    1C        C   79   3.073   2.598   3.038
    1C        C   80   3.274   2.533   3.160
    1C        C   81   3.206   2.550   3.283
    1C        C   82   3.413   2.507   3.403
    1C        C   83   3.274   2.529   3.405
    1C        C   84   3.484   2.501   3.526
    1C        C   85   3.415   2.514   3.648
    1C        C   86   3.626   2.502   3.770
    1C        C   87   3.484   2.503   3.770
    1C        C   88   3.696   2.513   3.893
    1C        C   89   3.626   2.509   4.015
    1C        C   90   3.832   2.558   4.138
    1C        C   91   3.697   2.517   4.138
    1C        C   92   3.902   2.579   4.258
    1C        C   93   3.833   2.554   4.379
    1C        C   94   4.030   2.636   4.501
    1C        C   95   3.901   2.577   4.501
    1C        C   96   4.093   2.671   4.622
    1C        C   97   4.034   2.625   4.742
    1C        C   98   4.194   2.763   4.861
    1C        C   99   4.103   2.652   4.863
    1C        C  100   4.211   2.843   4.975
    1C        C  101   2.815   2.724   2.074
    1C        C  102   2.992   2.597   2.189
    1C        C  103   2.870   2.672   2.191
    1C        C  104   3.063   2.575   2.310
    1C        C  105   3.001   2.613   2.431
    1C        C  106   3.197   2.526   2.553
    1C        C  107   3.066   2.578   2.552
    1C        C  108   3.268   2.513   2.674
    1C        C  109   3.199   2.533   2.796
    1C        C  110   3.411   2.497   2.916
    1C        C  111   3.271   2.518   2.916
    1C        C  112   3.483   2.495   3.037
    1C        C  113   3.413   2.510   3.159
    1C        C  114   3.625   2.507   3.282
    1C        C  115   3.484   2.503   3.281
    1C        C  116   3.697   2.513   3.404
    1C        C  117   3.626   2.502   3.525
    1C        C  118   3.831   2.548   3.647
    1C        C  119   3.696   2.510   3.648
    1C        C  120   3.896   2.576   3.769
    1C        C  121   3.831   2.554   3.892
    1C        C  122   4.024   2.642   4.012
    1C        C  123   3.897   2.579   4.014
    1C        C  124   4.088   2.676   4.134
    1C        C  125   4.031   2.636   4.257
    1C        C  126   4.201   2.759   4.377
    1C        C  127   4.093   2.669   4.379
    1C        C  128   4.250   2.814   4.497
    1C        C  129   4.200   2.764   4.619
    1C        C  130   4.333   2.931   4.740
    1C        C  131   4.248   2.816   4.741
    1C        C  132   4.356   3.001   4.860
    1C        C  133   4.288   2.959   4.975
    1C        C  134   3.170   2.470   2.081
    1C        C  135   3.035   2.508   2.086
    1C        C  136   3.259   2.482   2.188
    1C        C  137   3.196   2.522   2.308
    1C        C  138   3.404   2.484   2.429
    1C        C  139   3.265   2.504   2.430
    1C        C  140   3.479   2.480   2.549
    1C        C  141   3.408   2.493   2.671
    1C        C  142   3.621   2.490   2.793
    1C        C  143   3.479   2.489   2.792
    1C        C  144   3.693   2.503   2.914
    1C        C  145   3.625   2.499   3.037
    1C        C  146   3.831   2.545   3.159
    1C        C  147   3.695   2.507   3.159
    1C        C  148   3.901   2.566   3.279
    1C        C  149   3.835   2.542   3.402
    1C        C  150   4.024   2.637   3.522
    1C        C  151   3.898   2.573   3.525
    1C        C  152   4.085   2.670   3.645
    1C        C  153   4.024   2.637   3.768
    1C        C  154   4.199   2.758   3.886
    1C        C  155   4.083   2.677   3.889
    1C        C  156   4.248   2.809   4.008
    1C        C  157   4.199   2.764   4.133
    1C        C  158   4.346   2.915   4.252
    1C        C  159   4.252   2.810   4.255
    1C        C  160   4.386   2.976   4.373
    1C        C  161   4.339   2.924   4.496
    1C        C  162   4.446   3.109   4.615
    1C        C  163   4.371   2.989   4.617
    1C        C  164   4.477   3.176   4.735
    1C        C  165   4.435   3.118   4.857
    1C        C  166   4.516   3.316   4.974
    1C        C  167   4.476   3.182   4.975
    1C        C  168   3.473   2.438   2.074
    1C        C  169   3.397   2.457   2.190
    1C        C  170   3.616   2.465   2.310
    1C        C  171   3.474   2.463   2.308
    1C        C  172   3.693   2.483   2.427
    1C        C  173   3.620   2.482   2.548
    1C        C  174   3.824   2.542   2.667
    1C        C  175   3.689   2.499   2.670
    1C        C  176   3.893   2.563   2.788
    1C        C  177   3.830   2.539   2.912
    1C        C  178   4.023   2.625   3.030
    1C        C  179   3.896   2.564   3.034
    1C        C  180   4.084   2.664   3.151
    1C        C  181   4.028   2.628   3.276
    1C        C  182   4.196   2.755   3.397
    1C        C  183   4.086   2.667   3.399
    1C        C  184   4.248   2.804   3.519
    1C        C  185   4.199   2.753   3.642
    1C        C  186   4.342   2.913   3.764
    1C        C  187   4.252   2.804   3.763
    1C        C  188   4.380   2.974   3.886
    1C        C  189   4.336   2.920   4.009
    1C        C  190   4.447   3.101   4.129
    1C        C  191   4.382   2.976   4.130
    1C        C  192   4.473   3.170   4.250
    1C        C  193   4.439   3.107   4.372
    1C        C  194   4.504   3.311   4.489
    1C        C  195   4.466   3.176   4.492
    1C        C  196   4.523   3.382   4.610
    1C        C  197   4.512   3.314   4.734
    1C        C  198   4.555   3.528   4.848
    1C        C  199   4.532   3.387   4.854
    1C        C  200   4.580   3.613   4.960
    1C        C  201   3.613   2.423   2.073
    1C        C  202   3.824   2.509   2.182
    1C        C  203   3.689   2.462   2.188
    1C        C  204   3.895   2.544   2.300
    1C        C  205   3.829   2.520   2.422
    1C        C  206   4.020   2.616   2.546
    1C        C  207   3.893   2.553   2.544
    1C        C  208   4.082   2.656   2.666
    1C        C  209   4.021   2.624   2.789
    1C        C  210   4.199   2.744   2.908
    1C        C  211   4.088   2.657   2.908
    1C        C  212   4.251   2.795   3.030
    1C        C  213   4.195   2.751   3.152
    1C        C  214   4.338   2.909   3.275
    1C        C  215   4.248   2.800   3.273
    1C        C  216   4.378   2.968   3.396
    1C        C  217   4.338   2.912   3.519
    1C        C  218   4.440   3.098   3.638
    1C        C  219   4.380   2.970   3.641
    1C        C  220   4.461   3.165   3.761
    1C        C  221   4.444   3.100   3.885
    1C        C  222   4.502   3.305   4.002
    1C        C  223   4.473   3.166   4.007
    1C        C  224   4.515   3.378   4.123
    1C        C  225   4.513   3.305   4.244
    1C        C  226   4.521   3.519   4.366
    1C        C  227   4.516   3.378   4.365
    1C        C  228   4.518   3.593   4.486
    1C        C  229   4.525   3.523   4.609
    1C        C  230   4.504   3.738   4.727
    1C        C  231   4.538   3.600   4.726
    1C        C  232   4.497   3.817   4.844
    1C        C  233   4.543   3.748   4.957
    1C        C  234   4.016   2.607   2.066
    1C        C  235   3.895   2.539   2.065
    1C        C  236   4.088   2.644   2.181
    1C        C  237   4.024   2.605   2.300
    1C        C  238   4.196   2.731   2.422
    1C        C  239   4.079   2.650   2.422
    1C        C  240   4.251   2.784   2.541
    1C        C  241   4.194   2.742   2.664
    1C        C  242   4.338   2.901   2.785
    1C        C  243   4.246   2.793   2.785
    1C        C  244   4.380   2.960   2.906
    1C        C  245   4.342   2.904   3.030
    1C        C  246   4.440   3.093   3.151
    1C        C  247   4.376   2.967   3.152
    1C        C  248   4.467   3.159   3.273
    1C        C  249   4.438   3.096   3.396
    1C        C  250   4.500   3.302   3.517
    1C        C  251   4.463   3.166   3.517
    1C        C  252   4.514   3.372   3.639
    1C        C  253   4.500   3.301   3.761
    1C        C  254   4.522   3.515   3.875
    1C        C  255   4.517   3.374   3.880
    1C        C  256   4.514   3.586   3.997
    1C        C  257   4.511   3.519   4.121
    1C        C  258   4.486   3.728   4.240
    1C        C  259   4.510   3.589   4.243
    1C        C  260   4.464   3.797   4.361
    1C        C  261   4.487   3.731   4.484
    1C        C  262   4.419   3.932   4.604
    1C        C  263   4.474   3.803   4.605
    1C        C  264   4.391   4.002   4.724
    1C        C  265   4.437   3.945   4.845
    1C        C  266   4.313   4.128   4.957
    1C        C  267   4.392   4.013   4.958
    1C        C  268   4.261   2.773   2.062
    1C        C  269   4.199   2.731   2.181
    1C        C  270   4.349   2.884   2.302
    1C        C  271   4.254   2.778   2.302
    1C        C  272   4.391   2.948   2.421
    1C        C  273   4.345   2.890   2.542
    1C        C  274   4.444   3.081   2.662
    1C        C  275   4.382   2.954   2.662
    1C        C  276   4.473   3.149   2.782
    1C        C  277   4.445   3.086   2.905
    1C        C  278   4.505   3.290   3.023
    1C        C  279   4.469   3.154   3.027
    1C        C  280   4.513   3.362   3.145
    1C        C  281   4.502   3.296   3.269
    1C        C  282   4.519   3.508   3.389
    1C        C  283   4.510   3.367   3.391
    1C        C  284   4.515   3.582   3.509
    1C        C  285   4.518   3.513   3.632
    1C        C  286   4.488   3.724   3.751
    1C        C  287   4.516   3.586   3.753
    1C        C  288   4.469   3.791   3.874
    1C        C  289   4.492   3.726   3.997
    1C        C  290   4.422   3.929   4.116
    1C        C  291   4.473   3.798   4.118
    1C        C  292   4.392   3.995   4.237
    1C        C  293   4.416   3.930   4.360
    1C        C  294   4.323   4.121   4.477
    1C        C  295   4.388   3.996   4.482
    1C        C  296   4.283   4.183   4.598
    1C        C  297   4.323   4.127   4.721
    1C        C  298   4.202   4.315   4.839
    1C        C  299   4.283   4.197   4.838
    1C        C  300   4.169   4.398   4.950
    1C        C  301   4.347   2.881   2.063
    1C        C  302   4.472   3.063   2.176
    1C        C  303   4.393   2.943   2.180
    1C        C  304   4.485   3.137   2.297
    1C        C  305   4.451   3.075   2.419
    1C        C  306   4.511   3.281   2.538
    1C        C  307   4.472   3.145   2.540
    1C        C  308   4.515   3.356   2.658
    1C        C  309   4.500   3.288   2.781
    1C        C  310   4.527   3.501   2.900
    1C        C  311   4.517   3.360   2.901
    1C        C  312   4.517   3.574   3.021
    1C        C  313   4.515   3.503   3.143
    1C        C  314   4.483   3.714   3.264
    1C        C  315   4.509   3.575   3.265
    1C        C  316   4.468   3.785   3.385
    1C        C  317   4.491   3.721   3.509
    1C        C  318   4.420   3.925   3.627
    1C        C  319   4.476   3.795   3.629
    1C        C  320   4.388   3.988   3.750
    1C        C  321   4.416   3.922   3.871
    1C        C  322   4.313   4.109   3.991
    1C        C  323   4.389   3.990   3.993
    1C        C  324   4.282   4.176   4.112
    1C        C  325   4.324   4.119   4.234
    1C        C  326   4.188   4.285   4.354
    1C        C  327   4.282   4.179   4.354
    1C        C  328   4.137   4.335   4.476
    1C        C  329   4.193   4.291   4.598
    1C        C  330   4.028   4.436   4.712
    1C        C  331   4.140   4.349   4.716
    1C        C  332   3.971   4.490   4.829
    1C        C  333   4.053   4.476   4.943
    1C        C  334   4.550   3.267   2.063
    1C        C  335   4.533   3.128   2.065
    1C        C  336   4.535   3.349   2.176
    1C        C  337   4.512   3.277   2.295
    1C        C  338   4.527   3.491   2.412
    1C        C  339   4.522   3.350   2.415
    1C        C  340   4.524   3.565   2.533
    1C        C  341   4.519   3.497   2.657
    1C        C  342   4.490   3.709   2.773
    1C        C  343   4.518   3.571   2.778
    1C        C  344   4.472   3.780   2.894
    1C        C  345   4.489   3.712   3.017
    1C        C  346   4.419   3.912   3.141
    1C        C  347   4.468   3.779   3.140
    1C        C  348   4.388   3.981   3.260
    1C        C  349   4.422   3.919   3.382
    1C        C  350   4.316   4.104   3.502
    1C        C  351   4.394   3.987   3.503
    1C        C  352   4.269   4.162   3.623
    1C        C  353   4.316   4.110   3.745
    1C        C  354   4.176   4.268   3.866
    1C        C  355   4.273   4.165   3.868
    1C        C  356   4.125   4.319   3.987
    1C        C  357   4.179   4.272   4.109
    1C        C  358   4.014   4.403   4.231
    1C        C  359   4.131   4.324   4.231
    1C        C  360   3.954   4.441   4.354
    1C        C  361   4.017   4.410   4.476
    1C        C  362   3.828   4.520   4.593
    1C        C  363   3.958   4.465   4.592
    1C        C  364   3.762   4.551   4.715
    1C        C  365   3.841   4.544   4.831
    1C        C  366   3.630   4.586   4.954
    1C        C  367   3.769   4.579   4.946
    1C        C  368   4.508   3.563   2.051
    1C        C  369   4.512   3.488   2.170
    1C        C  370   4.492   3.701   2.290
    1C        C  371   4.512   3.561   2.291
    1C        C  372   4.475   3.772   2.411
    1C        C  373   4.492   3.702   2.532
    1C        C  374   4.413   3.906   2.649
    1C        C  375   4.470   3.776   2.651
    1C        C  376   4.385   3.969   2.772
    1C        C  377   4.416   3.909   2.896
    1C        C  378   4.318   4.097   3.012
    1C        C  379   4.390   3.976   3.018
    1C        C  380   4.275   4.157   3.132
    1C        C  381   4.312   4.100   3.256
    1C        C  382   4.176   4.260   3.377
    1C        C  383   4.272   4.156   3.379
    1C        C  384   4.122   4.310   3.498
    1C        C  385   4.175   4.267   3.622
    1C        C  386   4.004   4.393   3.743
    1C        C  387   4.122   4.315   3.744
    1C        C  388   3.945   4.429   3.866
    1C        C  389   4.008   4.398   3.988
    1C        C  390   3.818   4.492   4.110
    1C        C  391   3.947   4.433   4.110
    1C        C  392   3.752   4.515   4.232
    1C        C  393   3.827   4.503   4.351
    1C        C  394   3.620   4.553   4.474
    1C        C  395   3.761   4.539   4.471
    1C        C  396   3.549   4.565   4.596
    1C        C  397   3.622   4.564   4.717
    1C        C  398   3.412   4.549   4.840
    1C        C  399   3.551   4.574   4.839
    1C        C  400   3.345   4.508   4.956
    1C        C  401   4.499   3.702   2.050
    1C        C  402   4.448   3.911   2.168
    1C        C  403   4.482   3.774   2.169
    1C        C  404   4.409   3.976   2.288
    1C        C  405   4.426   3.904   2.408
    1C        C  406   4.326   4.097   2.525
    1C        C  407   4.395   3.974   2.527
    1C        C  408   4.275   4.150   2.645
    1C        C  409   4.310   4.089   2.768
    1C        C  410   4.173   4.253   2.889
    1C        C  411   4.269   4.149   2.889
    1C        C  412   4.124   4.304   3.011
    1C        C  413   4.171   4.253   3.134
    1C        C  414   3.997   4.375   3.252
    1C        C  415   4.117   4.301   3.256
    1C        C  416   3.942   4.416   3.376
    1C        C  417   4.004   4.387   3.499
    1C        C  418   3.810   4.478   3.620
    1C        C  419   3.941   4.425   3.620
    1C        C  420   3.745   4.504   3.742
    1C        C  421   3.816   4.488   3.863
    1C        C  422   3.613   4.539   3.986
    1C        C  423   3.752   4.512   3.987
    1C        C  424   3.543   4.546   4.108
    1C        C  425   3.612   4.537   4.231
    1C        C  426   3.404   4.546   4.357
    1C        C  427   3.545   4.553   4.354
    1C        C  428   3.334   4.547   4.480
    1C        C  429   3.408   4.559   4.600
    1C        C  430   3.197   4.520   4.723
    1C        C  431   3.336   4.549   4.721
    1C        C  432   3.128   4.497   4.845
    1C        C  433   3.207   4.496   4.961
    1C        C  434   4.384   4.119   2.054
    1C        C  435   4.441   3.991   2.054
    1C        C  436   4.297   4.157   2.161
    1C        C  437   4.330   4.094   2.285
    1C        C  438   4.184   4.255   2.402
    1C        C  439   4.286   4.157   2.403
    1C        C  440   4.126   4.301   2.522
    1C        C  441   4.179   4.254   2.644
    1C        C  442   4.004   4.375   2.765
    1C        C  443   4.123   4.300   2.766
    1C        C  444   3.943   4.415   2.886
    1C        C  445   4.007   4.383   3.008
    1C        C  446   3.810   4.470   3.129
    1C        C  447   3.940   4.414   3.129
    1C        C  448   3.745   4.495   3.251
    1C        C  449   3.813   4.474   3.373
    1C        C  450   3.607   4.523   3.497
    1C        C  451   3.746   4.497   3.496
    1C        C  452   3.537   4.532   3.620
    1C        C  453   3.607   4.532   3.743
    1C        C  454   3.398   4.544   3.867
    1C        C  455   3.539   4.547   3.866
    1C        C  456   3.330   4.531   3.991
    1C        C  457   3.402   4.543   4.112
    1C        C  458   3.197   4.498   4.240
    1C        C  459   3.333   4.535   4.236
    1C        C  460   3.128   4.482   4.362
    1C        C  461   3.196   4.517   4.481
    1C        C  462   2.998   4.440   4.604
    1C        C  463   3.126   4.500   4.603
    1C        C  464   2.934   4.402   4.724
    1C        C  465   2.994   4.446   4.845
    1C        C  466   2.805   4.337   4.958
    1C        C  467   2.911   4.429   4.960
    1C        C  468   4.121   4.288   2.043
    1C        C  469   4.187   4.248   2.160
    1C        C  470   4.011   4.378   2.278
    1C        C  471   4.130   4.300   2.279
    1C        C  472   3.943   4.408   2.399
    1C        C  473   4.004   4.372   2.521
    1C        C  474   3.809   4.458   2.642
    1C        C  475   3.939   4.404   2.643
    1C        C  476   3.744   4.490   2.763
    1C        C  477   3.814   4.472   2.884
    1C        C  478   3.607   4.521   3.009
    1C        C  479   3.746   4.495   3.006
    1C        C  480   3.536   4.528   3.131
    1C        C  481   3.607   4.526   3.253
    1C        C  482   3.395   4.537   3.378
    1C        C  483   3.536   4.535   3.375
    1C        C  484   3.324   4.526   3.500
    1C        C  485   3.396   4.531   3.621
    1C        C  486   3.191   4.498   3.748
    1C        C  487   3.328   4.532   3.745
    1C        C  488   3.128   4.473   3.872
    1C        C  489   3.195   4.491   3.995
    1C        C  490   3.003   4.410   4.116
    1C        C  491   3.130   4.472   4.118
    1C        C  492   2.941   4.383   4.240
    1C        C  493   3.001   4.421   4.362
    1C        C  494   2.834   4.296   4.484
    1C        C  495   2.939   4.391   4.485
    1C        C  496   2.776   4.254   4.606
    1C        C  497   2.823   4.313   4.725
    1C        C  498   2.666   4.164   4.847
    1C        C  499   2.759   4.271   4.843
    1C        C  500   2.599   4.116   4.960
    1C        C  501   4.005   4.365   2.040
    1C        C  502   3.813   4.462   2.154
    1C        C  503   3.944   4.408   2.158
    1C        C  504   3.744   4.480   2.275
    1C        C  505   3.811   4.457   2.397
    1C        C  506   3.606   4.515   2.519
    1C        C  507   3.743   4.479   2.518
    1C        C  508   3.535   4.523   2.641
    1C        C  509   3.606   4.522   2.763
    1C        C  510   3.396   4.521   2.886
    1C        C  511   3.537   4.526   2.886
    1C        C  512   3.326   4.518   3.008
    1C        C  513   3.395   4.530   3.131
    1C        C  514   3.190   4.496   3.256
    1C        C  515   3.327   4.530   3.255
    1C        C  516   3.123   4.471   3.377
    1C        C  517   3.186   4.497   3.501
    1C        C  518   2.997   4.413   3.626
    1C        C  519   3.122   4.479   3.626
    1C        C  520   2.942   4.371   3.749
    1C        C  521   3.003   4.407   3.871
    1C        C  522   2.833   4.282   3.997
    1C        C  523   2.944   4.369   3.994
    1C        C  524   2.783   4.237   4.121
    1C        C  525   2.835   4.290   4.242
    1C        C  526   2.698   4.129   4.366
    1C        C  527   2.785   4.240   4.364
    1C        C  528   2.652   4.075   4.488
    1C        C  529   2.690   4.142   4.607
    1C        C  530   2.582   3.961   4.730
    1C        C  531   2.641   4.090   4.729
    1C        C  532   2.541   3.901   4.852
    1C        C  533   2.529   3.994   4.960
    1C        C  534   3.618   4.554   2.037
    1C        C  535   3.751   4.511   2.038
    1C        C  536   3.536   4.536   2.154
    1C        C  537   3.604   4.510   2.276
    1C        C  538   3.394   4.525   2.399
    1C        C  539   3.535   4.527   2.397
    1C        C  540   3.322   4.514   2.520
    1C        C  541   3.394   4.522   2.641
    1C        C  542   3.187   4.485   2.765
    1C        C  543   3.325   4.515   2.764
    1C        C  544   3.123   4.459   2.888
    1C        C  545   3.190   4.479   3.011
    1C        C  546   2.996   4.403   3.133
    1C        C  547   3.123   4.466   3.135
    1C        C  548   2.942   4.364   3.258
    1C        C  549   2.997   4.406   3.381
    1C        C  550   2.833   4.278   3.504
    1C        C  551   2.937   4.373   3.504
    1C        C  552   2.785   4.229   3.628
    1C        C  553   2.832   4.282   3.750
    1C        C  554   2.700   4.121   3.874
    1C        C  555   2.784   4.234   3.874
    1C        C  556   2.659   4.064   3.997
    1C        C  557   2.697   4.124   4.119
    1C        C  558   2.604   3.939   4.246
    1C        C  559   2.667   4.065   4.244
    1C        C  560   2.567   3.878   4.368
    1C        C  561   2.584   3.951   4.488
    1C        C  562   2.532   3.749   4.613
    1C        C  563   2.559   3.887   4.611
    1C        C  564   2.518   3.680   4.736
    1C        C  565   2.522   3.759   4.854
    1C        C  566   2.525   3.547   4.974
    1C        C  567   2.517   3.685   4.973
    1C        C  568   3.329   4.470   2.042
    1C        C  569   3.396   4.512   2.158
    1C        C  570   3.183   4.477   2.279
    1C        C  571   3.321   4.511   2.278
    1C        C  572   3.116   4.455   2.401
    1C        C  573   3.184   4.481   2.521
    1C        C  574   2.989   4.403   2.644
    1C        C  575   3.117   4.462   2.644
    1C        C  576   2.933   4.362   2.767
    1C        C  577   2.995   4.400   2.889
    1C        C  578   2.827   4.275   3.016
    1C        C  579   2.935   4.366   3.012
    1C        C  580   2.778   4.225   3.138
    1C        C  581   2.832   4.276   3.258
    1C        C  582   2.699   4.115   3.386
    1C        C  583   2.782   4.228   3.382
    1C        C  584   2.655   4.060   3.508
    1C        C  585   2.694   4.121   3.629
    1C        C  586   2.597   3.934   3.757
    1C        C  587   2.660   4.061   3.752
    1C        C  588   2.570   3.869   3.880
    1C        C  589   2.595   3.939   4.001
    1C        C  590   2.541   3.737   4.126
    1C        C  591   2.571   3.875   4.124
    1C        C  592   2.525   3.669   4.249
    1C        C  593   2.533   3.741   4.370
    1C        C  594   2.516   3.533   4.498
    1C        C  595   2.518   3.674   4.494
    1C        C  596   2.518   3.460   4.619
    1C        C  597   2.515   3.538   4.737
    1C        C  598   2.533   3.326   4.860
    1C        C  599   2.521   3.467   4.859
    1C        C  600   2.536   3.251   4.979
    1C        C  601   3.194   4.440   2.043
    1C        C  602   2.980   4.398   2.160
    1C        C  603   3.116   4.443   2.158
    1C        C  604   2.924   4.360   2.285
    1C        C  605   2.988   4.394   2.406
    1C        C  606   2.819   4.265   2.527
    1C        C  607   2.924   4.360   2.527
    1C        C  608   2.772   4.217   2.651
    1C        C  609   2.825   4.271   2.771
    1C        C  610   2.684   4.117   2.896
    1C        C  611   2.775   4.225   2.894
    1C        C  612   2.650   4.056   3.019
    1C        C  613   2.690   4.114   3.141
    1C        C  614   2.597   3.927   3.263
    1C        C  615   2.656   4.055   3.265
    1C        C  616   2.578   3.863   3.388
    1C        C  617   2.600   3.929   3.511
    1C        C  618   2.534   3.731   3.636
    1C        C  619   2.572   3.868   3.635
    1C        C  620   2.522   3.662   3.758
    1C        C  621   2.534   3.733   3.880
    1C        C  622   2.520   3.525   4.010
    1C        C  623   2.532   3.666   4.004
    1C        C  624   2.515   3.455   4.133
    1C        C  625   2.517   3.528   4.253
    1C        C  626   2.540   3.320   4.378
    1C        C  627   2.520   3.460   4.377
    1C        C  628   2.560   3.250   4.499
    1C        C  629   2.532   3.320   4.618
    1C        C  630   2.591   3.116   4.742
    1C        C  631   2.547   3.251   4.741
    1C        C  632   2.621   3.051   4.864
    1C        C  633   2.565   3.114   4.979
    1C        C  634   2.779   4.305   2.054
    1C        C  635   2.895   4.384   2.045
    1C        C  636   2.748   4.229   2.168
    1C        C  637   2.811   4.274   2.287
    1C        C  638   2.673   4.109   2.409
    1C        C  639   2.761   4.219   2.407
    1C        C  640   2.640   4.048   2.533
    1C        C  641   2.678   4.111   2.653
    1C        C  642   2.584   3.925   2.777
    1C        C  643   2.641   4.055   2.777
    1C        C  644   2.564   3.858   2.900
    1C        C  645   2.589   3.928   3.019
    1C        C  646   2.535   3.724   3.149
    1C        C  647   2.567   3.861   3.142
    1C        C  648   2.525   3.655   3.272
    1C        C  649   2.540   3.727   3.393
    1C        C  650   2.513   3.518   3.518
    1C        C  651   2.524   3.658   3.515
    1C        C  652   2.519   3.450   3.642
    1C        C  653   2.516   3.521   3.765
    1C        C  654   2.539   3.313   3.889
    1C        C  655   2.524   3.454   3.889
    1C        C  656   2.550   3.246   4.013
    1C        C  657   2.537   3.315   4.135
    1C        C  658   2.600   3.114   4.257
    1C        C  659   2.553   3.247   4.257
    1C        C  660   2.629   3.049   4.380
    1C        C  661   2.604   3.116   4.502
    1C        C  662   2.706   2.930   4.626
    1C        C  663   2.630   3.049   4.624
    1C        C  664   2.745   2.869   4.747
    1C        C  665   2.696   2.929   4.867
    1C        C  666   2.740   2.864   4.983
    1C        C  667   2.672   4.022   2.053
    1C        C  668   2.682   4.105   2.165
    1C        C  669   2.589   3.913   2.291
    1C        C  670   2.642   4.045   2.287
    1C        C  671   2.558   3.849   2.413
    1C        C  672   2.581   3.920   2.533
    1C        C  673   2.525   3.718   2.660
    1C        C  674   2.561   3.855   2.657
    1C        C  675   2.515   3.650   2.783
    1C        C  676   2.531   3.721   2.905
    1C        C  677   2.510   3.512   3.029
    1C        C  678   2.520   3.653   3.028
    1C        C  679   2.513   3.442   3.152
    1C        C  680   2.511   3.514   3.273
    1C        C  681   2.527   3.306   3.398
    1C        C  682   2.506   3.446   3.397
    1C        C  683   2.552   3.240   3.520
    1C        C  684   2.541   3.311   3.642
    1C        C  685   2.602   3.113   3.769
    1C        C  686   2.554   3.245   3.766
    1C        C  687   2.637   3.051   3.892
    1C        C  688   2.599   3.113   4.013
    1C        C  689   2.705   2.930   4.137
    1C        C  690   2.626   3.047   4.135
    1C        C  691   2.747   2.873   4.259
    1C        C  692   2.703   2.929   4.380
    1C        C  693   2.748   2.875   4.503
    1C        C  694   2.627   3.890   2.052
    1C        C  695   2.530   3.705   2.178
    1C        C  696   2.575   3.839   2.172
    1C        C  697   2.513   3.639   2.301
    1C        C  698   2.523   3.713   2.421
    1C        C  699   2.494   3.502   2.541
    1C        C  700   2.506   3.642   2.542
    1C        C  701   2.500   3.436   2.666
    1C        C  702   2.505   3.509   2.787
    1C        C  703   2.528   3.298   2.909
    1C        C  704   2.508   3.437   2.908
    1C        C  705   2.543   3.231   3.033
    1C        C  706   2.534   3.303   3.154
    1C        C  707   2.594   3.101   3.279
    1C        C  708   2.550   3.236   3.278
    1C        C  709   2.631   3.041   3.402
    1C        C  710   2.604   3.108   3.523
    1C        C  711   2.711   2.931   3.650
    1C        C  712   2.630   3.047   3.648
    1C        C  713   2.754   2.875   3.773
    1C        C  714   2.714   2.933   3.895
    1C        C  715   2.750   2.870   4.017
    1C        C  716   2.448   3.501   2.062
    1C        C  717   2.495   3.633   2.063
    1C        C  718   2.461   3.425   2.182
    1C        C  719   2.486   3.499   2.301
    1C        C  720   2.511   3.286   2.424
    1C        C  721   2.491   3.426   2.422
    1C        C  722   2.535   3.221   2.547
    1C        C  723   2.520   3.296   2.666
    1C        C  724   2.590   3.095   2.788
    1C        C  725   2.543   3.228   2.787
    1C        C  726   2.621   3.034   2.912
    1C        C  727   2.590   3.098   3.034
    1C        C  728   2.702   2.920   3.160
    1C        C  729   2.620   3.035   3.157
    1C        C  730   2.748   2.865   3.282
    1C        C  731   2.708   2.923   3.405
    1C        C  732   2.754   2.874   3.529
    1C        C  733   2.486   3.199   2.072
    1C        C  734   2.485   3.284   2.183
    1C        C  735   2.573   3.083   2.306
    1C        C  736   2.517   3.214   2.303
    1C        C  737   2.601   3.015   2.427
    1C        C  738   2.582   3.087   2.546
    1C        C  739   2.702   2.911   2.670
    1C        C  740   2.623   3.028   2.668
    1C        C  741   2.744   2.857   2.793
    1C        C  742   2.701   2.918   2.913
    1C        C  743   2.746   2.867   3.037
    1C        C  744   2.545   3.073   2.073
    1C        C  745   2.680   2.897   2.185
    1C        C  746   2.607   3.018   2.186
    1C        C  747   2.724   2.839   2.306
    1C        C  748   2.688   2.904   2.426
    1C        C  749   2.740   2.852   2.547
    1C        C  750   2.736   2.839   2.070
    1C        C  751   3.657   2.305   1.996
    1C        O  752   3.662   2.189   2.047
    1C        O  753   3.664   2.293   1.857
    1C        C  754   4.628   3.066   1.970
    1C        O  755   4.587   3.026   1.857
    1C        O  756   4.745   3.002   2.011
    1C        C  757   4.474   4.218   1.990
    1C        O  758   4.581   4.261   2.042
    1C        O  759   4.489   4.229   1.852
    1C        C  760   3.588   4.647   1.926
    1C        O  761   3.640   4.761   1.938
    1C        O  762   3.541   4.619   1.798
    1C        C  763   2.897   4.475   1.929
    1C        O  764   2.872   4.437   1.811
    1C        O  765   2.830   4.598   1.937
    1C        C  766   2.324   3.495   1.982
    1C        O  767   2.314   3.433   1.873
    1C        O  768   2.197   3.501   2.041
    1C        C  769   4.710   3.612   5.031
    1C        O  770   4.711   3.563   5.147
    1C        O  771   4.840   3.634   4.983
    1C        C  772   4.275   4.477   5.018
    1C        O  773   4.317   4.441   5.131
    1C        O  774   4.353   4.572   4.951
    1C        C  775   4.140   2.521   5.076
    1C        O  776   4.181   2.405   5.046
    1C        O  777   4.155   2.536   5.215
    1C        C  778   2.901   4.528   5.070
    1C        O  779   2.841   4.638   5.069
    1C        O  780   2.957   4.497   5.194
    1C        C  781   2.491   3.031   5.077
    1C        O  782   2.369   3.002   5.062
    1C        O  783   2.548   3.010   5.202
    1C        C  784   2.403   3.992   5.038
    1C        O  785   2.308   4.065   5.000
    1C        O  786   2.413   3.946   5.170
    1C        C  787   2.939   2.404   2.041
    1C        O  788   2.883   2.401   1.928
    1C        O  789   2.916   2.291   2.118
    1C        C  790   3.188   2.371   5.060
    1C        O  791   3.167   2.261   5.002
    1C        O  792   3.234   2.370   5.193
    1C        H  793   4.283   3.013   5.067
    1C        H  794   4.124   2.853   5.037
    1C        H  795   4.512   3.120   5.054
    1C        H  796   4.510   3.364   5.069
    1C        H  797   4.545   3.801   5.050
    1C        H  798   4.437   3.988   5.052
    1C        H  799   4.293   4.178   5.049
    1C        H  800   4.032   4.536   5.029
    1C        H  801   3.819   4.617   5.032
    1C        H  802   3.584   4.576   5.051
    1C        H  803   3.398   4.451   5.029
    1C        H  804   3.157   4.506   5.055
    1C        H  805   3.867   2.554   5.069
    1C        H  806   3.671   2.452   5.074
    1C        H  807   2.993   2.534   5.062
    1C        H  808   3.445   2.480   5.082
    1C        H  809   2.902   2.752   5.073
    1C        H  810   2.676   2.866   5.069
    1C        H  811   2.495   3.292   5.069
    1C        H  812   2.499   3.502   5.068
    1C        H  813   2.467   3.737   5.052
    1C        H  814   2.646   4.138   5.054
    1C        H  815   2.756   4.318   5.051
    1C        H  816   2.718   2.887   1.976
    1C        H  817   2.811   2.661   1.987
    1C        H  818   3.203   2.443   1.983
    1C        H  819   3.421   2.378   2.002
    1C        H  820   3.872   2.487   1.975
    1C        H  821   4.055   2.638   1.971
    1C        H  822   4.278   2.705   1.982
    1C        H  823   4.360   2.934   1.970
    1C        H  824   4.567   3.313   1.968
    1C        H  825   4.453   3.518   1.972
    1C        H  826   4.450   3.741   1.964
    1C        H  827   3.818   4.552   1.966
    1C        H  828   3.975   4.403   1.945
    1C        H  829   4.144   4.237   1.951
    1C        H  830   4.473   3.952   1.959
    1C        H  831   2.683   3.819   1.994
    1C        H  832   2.696   4.062   1.956
    1C        H  833   2.726   4.301   1.962
    1C        H  834   3.377   4.471   1.946
    1C        H  835   3.154   4.405   1.949
    1C        H  836   2.560   3.028   1.977
    1C        H  837   2.413   3.225   1.997
    1C        H  838   2.476   3.690   1.974
    2V3OU   H29  839   2.803   3.548   1.958
    2V3OU   C27  840   2.785   3.504   2.060
    2V3OU   H27  841   2.730   3.574   2.129
    2V3OU   H28  842   2.733   3.406   2.045
    2V3OU   O11  843   2.912   3.476   2.118
    2V3OU   C15  844   2.923   3.401   2.233
    2V3OU   C13  845   3.054   3.373   2.279
    2V3OU   C14  846   3.079   3.268   2.367
    2V3OU   C16  847   2.974   3.188   2.412
    2V3OU    H6  848   2.996   3.107   2.483
    2V3OU   C12  849   3.213   3.232   2.419
    2V3OU    O2  850   3.236   3.118   2.466
    2V3OU   C10  851   3.328   3.310   2.369
    2V3OU    C8  852   3.458   3.272   2.400
    2V3OU   O10  853   3.492   3.162   2.471
    2V3OU   H26  854   3.410   3.110   2.468
    2V3OU    C6  855   3.567   3.350   2.349
    2V3OU    C5  856   3.540   3.462   2.272
    2V3OU    C4  857   3.704   3.291   2.345
    2V3OU    H4  858   3.726   3.223   2.433
    2V3OU    H5  859   3.711   3.230   2.250
    2V3OU    C2  860   3.815   3.396   2.348
    2V3OU    O6  861   3.806   3.471   2.469
    2V3OU   H21  862   3.760   3.550   2.437
    2V3OU    C3  863   3.784   3.495   2.235
    2V3OU    H2  864   3.869   3.569   2.236
    2V3OU    H3  865   3.788   3.438   2.139
    2V3OU   C25  866   3.952   3.328   2.343
    2V3OU    O7  867   4.001   3.296   2.235
    2V3OU   C26  868   4.025   3.289   2.470
    2V3OU   H22  869   4.064   3.387   2.508
    2V3OU   H23  870   4.121   3.237   2.443
    2V3OU    O8  871   3.956   3.207   2.562
    2V3OU   H24  872   3.928   3.254   2.643
    2V3OU    C1  873   3.649   3.562   2.247
    2V3OU    H1  874   3.627   3.620   2.152
    2V3OU    O3  875   3.657   3.650   2.359
    2V3OU   C19  876   3.622   3.789   2.363
    2V3OU    H9  877   3.520   3.803   2.318
    2V3OU    O4  878   3.715   3.851   2.277
    2V3OU   C20  879   3.846   3.876   2.329
    2V3OU   H10  880   3.898   3.776   2.342
    2V3OU   C24  881   3.611   3.854   2.501
    2V3OU   H16  882   3.545   3.790   2.565
    2V3OU   H17  883   3.566   3.956   2.490
    2V3OU   C23  884   3.748   3.874   2.568
    2V3OU   H15  885   3.790   3.770   2.589
    2V3OU    N1  886   3.733   3.955   2.687
    2V3OU   H19  887   3.800   3.923   2.754
    2V3OU   H20  888   3.639   3.936   2.714
    2V3OU   C21  889   3.845   3.943   2.467
    2V3OU   H11  890   3.952   3.927   2.499
    2V3OU    O5  891   3.825   4.083   2.464
    2V3OU   H18  892   3.774   4.104   2.544
    2V3OU   C22  893   3.916   3.948   2.215
    2V3OU   H12  894   3.864   4.044   2.193
    2V3OU   H13  895   3.903   3.891   2.119
    2V3OU   H14  896   4.023   3.967   2.242
    2V3OU   C11  897   3.163   3.470   2.262
    2V3OU    O1  898   3.140   3.589   2.233
    2V3OU    C9  899   3.301   3.421   2.285
    2V3OU    C7  900   3.406   3.503   2.244
    2V3OU    O9  901   3.386   3.623   2.179
    2V3OU   H25  902   3.289   3.622   2.174
    2V3OU   C17  903   2.821   3.317   2.282
    2V3OU    H7  904   2.726   3.339   2.235
    2V3OU   C18  905   2.844   3.213   2.373
    2V3OU    H8  906   2.770   3.170   2.442
    3SOL     OW  907   3.152   4.462   0.432
    3SOL    HW1  908   3.164   4.482   0.335
    3SOL    HW2  909   3.201   4.529   0.487
    4SOL     OW  910   6.483   6.028   1.697
    4SOL    HW1  911   6.566   5.980   1.666
    4SOL    HW2  912   6.460   6.100   1.631
    5SOL     OW  913   3.878   1.798   3.008
    5SOL    HW1  914   3.824   1.797   2.924
    5SOL    HW2  915   3.872   1.709   3.053
    6SOL     OW  916   4.403   1.157   1.546
    6SOL    HW1  917   4.360   1.235   1.592
    6SOL    HW2  918   4.407   1.080   1.609
    7SOL     OW  919   6.514   3.497   2.222
    7SOL    HW1  920   6.498   3.584   2.268
    7SOL    HW2  921   6.502   3.422   2.287
    8SOL     OW  922   3.025   7.012   6.116
    8SOL    HW1  923   2.986   6.995   6.026
    8SOL    HW2  924   3.053   0.085   6.123
    9SOL     OW  925   6.670   5.654   5.920
    9SOL    HW1  926   6.639   5.657   5.825
    9SOL    HW2  927   6.689   5.559   5.946
   10SOL     OW  928   0.772   4.650   5.953
   10SOL    HW1  929   0.704   4.676   5.884
   10SOL    HW2  930   0.813   4.732   5.992
   11SOL     OW  931   2.890   0.110   0.297
   11SOL    HW1  932   2.834   0.170   0.241
   11SOL    HW2  933   2.943   0.049   0.238
   12SOL     OW  934   3.948   6.146   4.371
   12SOL    HW1  935   4.012   6.185   4.437
   12SOL    HW2  936   3.862   6.197   4.375
   13SOL     OW  937   3.136   5.342   3.770
   13SOL    HW1  938   3.183   5.428   3.788
   13SOL    HW2  939   3.190   5.266   3.805
   14SOL     OW  940   5.125   5.840   6.393
   14SOL    HW1  941   5.110   5.742   6.386
   14SOL    HW2  942   5.091   5.886   6.310
   15SOL     OW  943   0.591   5.305   0.770
   15SOL    HW1  944   0.501   5.342   0.795
   15SOL    HW2  945   0.593   5.207   0.789
   16SOL     OW  946   5.530   3.304   5.509
   16SOL    HW1  947   5.624   3.286   5.536
   16SOL    HW2  948   5.508   3.251   5.427
   17SOL     OW  949   5.487   6.387   5.809
   17SOL    HW1  950   5.501   6.479   5.844
   17SOL    HW2  951   5.460   6.391   5.712
   18SOL     OW  952   3.232   1.095   5.857
   18SOL    HW1  953   3.201   1.048   5.774
   18SOL    HW2  954   3.237   1.029   5.932
   19SOL     OW  955   0.211   6.832   3.201
   19SOL    HW1  956   0.304   6.808   3.229
   19SOL    HW2  957   0.152   6.838   3.282
   20SOL     OW  958   4.803   2.250   4.619
   20SOL    HW1  959   4.784   2.152   4.609
   20SOL    HW2  960   4.888   2.272   4.572
   21SOL     OW  961   3.201   2.118   2.470
   21SOL    HW1  962   3.147   2.194   2.505
   21SOL    HW2  963   3.177   2.101   2.374
   22SOL     OW  964   2.294   6.973   0.424
   22SOL    HW1  965   2.342   7.014   0.502
   22SOL    HW2  966   2.287   6.874   0.437
   23SOL     OW  967   4.699   6.556   3.549
   23SOL    HW1  968   4.599   6.554   3.540
   23SOL    HW2  969   4.724   6.543   3.645
   24SOL     OW  970   5.170   1.296   2.882
   24SOL    HW1  971   5.268   1.279   2.887
   24SOL    HW2  972   5.153   1.393   2.862
   25SOL     OW  973   3.518   6.667   5.277
   25SOL    HW1  974   3.537   6.584   5.225
   25SOL    HW2  975   3.419   6.676   5.291
   26SOL     OW  976   6.337   1.499   0.543
   26SOL    HW1  977   6.412   1.519   0.480
   26SOL    HW2  978   6.282   1.581   0.557
   27SOL     OW  979   0.596   1.551   1.467
   27SOL    HW1  980   0.684   1.574   1.506
   27SOL    HW2  981   0.527   1.616   1.499
   28SOL     OW  982   3.498   1.423   0.097
   28SOL    HW1  983   3.401   1.445   0.106
   28SOL    HW2  984   3.527   1.364   0.173
   29SOL     OW  985   5.232   3.463   1.788
   29SOL    HW1  986   5.234   3.378   1.735
   29SOL    HW2  987   5.235   3.541   1.726
   30SOL     OW  988   3.828   0.710   4.522
   30SOL    HW1  989   3.904   0.688   4.460
   30SOL    HW2  990   3.766   0.632   4.528
   31SOL     OW  991   0.643   1.811   5.962
   31SOL    HW1  992   0.613   1.825   5.867
   31SOL    HW2  993   0.742   1.815   5.967
   32SOL     OW  994   0.019   1.662   3.070
   32SOL    HW1  995   0.072   1.601   3.011
   32SOL    HW2  996   0.018   1.754   3.031
   33SOL     OW  997   2.454   3.818   7.004
   33SOL    HW1  998   2.419   3.873   6.928
   33SOL    HW2  999   2.419   3.856   0.067
   34SOL     OW 1000   2.346   1.669   3.011
   34SOL    HW1 1001   2.369   1.729   2.935
   34SOL    HW2 1002   2.292   1.719   3.079
   35SOL     OW 1003   3.273   2.775   6.910
   35SOL    HW1 1004   3.308   2.683   6.893
   35SOL    HW2 1005   3.346   2.841   6.892
   36SOL     OW 1006   6.848   0.658   5.974
   36SOL    HW1 1007   6.941   0.622   5.962
   36SOL    HW2 1008   6.825   0.661   6.072
   37SOL     OW 1009   1.413   6.989   0.560
   37SOL    HW1 1010   1.338   0.020   0.522
   37SOL    HW2 1011   1.440   0.003   0.649
   38SOL     OW 1012   6.974   4.621   2.469
   38SOL    HW1 1013   6.997   4.556   2.396
   38SOL    HW2 1014   0.026   4.686   2.480
   39SOL     OW 1015   6.389   4.980   6.290
   39SOL    HW1 1016   6.362   5.061   6.342
   39SOL    HW2 1017   6.367   4.898   6.342
   40SOL     OW 1018   5.423   2.347   1.294
   40SOL    HW1 1019   5.331   2.382   1.276
   40SOL    HW2 1020   5.490   2.415   1.268
   41SOL     OW 1021   6.928   6.776   3.992
   41SOL    HW1 1022   0.004   6.778   3.982
   41SOL    HW2 1023   6.894   6.684   3.970
   42SOL     OW 1024   2.400   5.602   5.322
   42SOL    HW1 1025   2.371   5.599   5.227
   42SOL    HW2 1026   2.479   5.541   5.335
   43SOL     OW 1027   5.406   6.520   4.942
   43SOL    HW1 1028   5.494   6.566   4.949
   43SOL    HW2 1029   5.419   6.421   4.946
   44SOL     OW 1030   5.885   1.710   6.215
   44SOL    HW1 1031   5.953   1.724   6.287
   44SOL    HW2 1032   5.794   1.703   6.256
   45SOL     OW 1033   3.485   6.627   3.321
   45SOL    HW1 1034   3.471   6.561   3.395
   45SOL    HW2 1035   3.531   6.708   3.356
   46SOL     OW 1036   1.275   3.242   3.558
   46SOL    HW1 1037   1.357   3.262   3.612
   46SOL    HW2 1038   1.212   3.320   3.564
   47SOL     OW 1039   4.793   4.591   1.610
   47SOL    HW1 1040   4.875   4.571   1.556
   47SOL    HW2 1041   4.737   4.509   1.618
   48SOL     OW 1042   6.777   2.883   6.212
   48SOL    HW1 1043   6.757   2.804   6.270
   48SOL    HW2 1044   6.698   2.944   6.211
   49SOL     OW 1045   4.701   4.109   1.819
   49SOL    HW1 1046   4.630   4.174   1.847
   49SOL    HW2 1047   4.693   4.091   1.721
   50SOL     OW 1048   6.910   2.505   5.494
   50SOL    HW1 1049   6.906   2.432   5.562
   50SOL    HW2 1050   6.821   2.552   5.491
   51SOL     OW 1051   3.326   6.256   2.235
   51SOL    HW1 1052   3.260   6.256   2.311
   51SOL    HW2 1053   3.276   6.261   2.148
   52SOL     OW 1054   5.455   2.707   3.450
   52SOL    HW1 1055   5.443   2.687   3.353
   52SOL    HW2 1056   5.365   2.720   3.493
   53SOL     OW 1057   4.363   0.056   4.735
   53SOL    HW1 1058   4.346   6.992   4.780
   53SOL    HW2 1059   4.276   0.105   4.723
   54SOL     OW 1060   3.923   4.574   0.823
   54SOL    HW1 1061   3.872   4.644   0.772
   54SOL    HW2 1062   3.927   4.490   0.769
   55SOL     OW 1063   3.148   1.427   6.296
   55SOL    HW1 1064   3.209   1.347   6.293
   55SOL    HW2 1065   3.113   1.445   6.204
   56SOL     OW 1066   0.166   0.213   1.020
   56SOL    HW1 1067   0.225   0.137   1.049
   56SOL    HW2 1068   0.076   0.203   1.063
   57SOL     OW 1069   5.321   0.804   0.700
   57SOL    HW1 1070   5.275   0.735   0.644
   57SOL    HW2 1071   5.288   0.895   0.675
   58SOL     OW 1072   6.380   6.968   5.689
   58SOL    HW1 1073   6.321   6.891   5.715
   58SOL    HW2 1074   6.449   6.984   5.761
   59SOL     OW 1075   1.554   1.152   5.959
   59SOL    HW1 1076   1.622   1.209   5.914
   59SOL    HW2 1077   1.516   1.086   5.894
   60SOL     OW 1078   5.430   1.032   5.922
   60SOL    HW1 1079   5.372   1.053   6.001
   60SOL    HW2 1080   5.520   1.073   5.935
   61SOL     OW 1081   5.176   1.743   4.928
   61SOL    HW1 1082   5.218   1.826   4.967
   61SOL    HW2 1083   5.238   1.666   4.940
   62SOL     OW 1084   0.111   1.021   3.178
   62SOL    HW1 1085   0.034   1.066   3.222
   62SOL    HW2 1086   0.078   0.969   3.099
   63SOL     OW 1087   5.715   1.745   3.974
   63SOL    HW1 1088   5.793   1.807   3.965
   63SOL    HW2 1089   5.676   1.728   3.884
   64SOL     OW 1090   0.494   3.721   6.060
   64SOL    HW1 1091   0.436   3.646   6.028
   64SOL    HW2 1092   0.535   3.695   6.147
   65SOL     OW 1093   6.620   4.913   5.191
   65SOL    HW1 1094   6.630   4.995   5.246
   65SOL    HW2 1095   6.688   4.845   5.219
   66SOL     OW 1096   3.814   0.837   6.300
   66SOL    HW1 1097   3.740   0.884   6.252
   66SOL    HW2 1098   3.822   0.744   6.264
   67SOL     OW 1099   5.430   4.381   5.545
   67SOL    HW1 1100   5.418   4.419   5.637
   67SOL    HW2 1101   5.377   4.297   5.536
   68SOL     OW 1102   5.499   0.731   6.670
   68SOL    HW1 1103   5.445   0.731   6.754
   68SOL    HW2 1104   5.546   0.643   6.660
   69SOL     OW 1105   0.951   3.622   6.692
   69SOL    HW1 1106   0.862   3.584   6.665
   69SOL    HW2 1107   1.015   3.548   6.710
   70SOL     OW 1108   5.756   4.998   3.624
   70SOL    HW1 1109   5.771   5.069   3.693
   70SOL    HW2 1110   5.768   4.908   3.665
   71SOL     OW 1111   4.254   1.504   2.886
   71SOL    HW1 1112   4.253   1.424   2.827
   71SOL    HW2 1113   4.298   1.580   2.838
   72SOL     OW 1114   2.691   6.027   4.751
   72SOL    HW1 1115   2.598   6.055   4.773
   72SOL    HW2 1116   2.705   5.933   4.781
   73SOL     OW 1117   3.804   0.768   0.752
   73SOL    HW1 1118   3.903   0.762   0.760
   73SOL    HW2 1119   3.761   0.714   0.824
   74SOL     OW 1120   5.054   6.484   6.116
   74SOL    HW1 1121   5.144   6.519   6.091
   74SOL    HW2 1122   4.993   6.561   6.137
   75SOL     OW 1123   3.993   0.207   6.898
   75SOL    HW1 1124   3.943   0.278   6.849
   75SOL    HW2 1125   3.957   0.117   6.872
   76SOL     OW 1126   2.673   2.707   0.877
   76SOL    HW1 1127   2.623   2.651   0.810
   76SOL    HW2 1128   2.652   2.675   0.969
   77SOL     OW 1129   6.189   6.217   3.900
   77SOL    HW1 1130   6.124   6.282   3.940
   77SOL    HW2 1131   6.279   6.261   3.891
   78SOL     OW 1132   5.791   0.753   5.703
   78SOL    HW1 1133   5.722   0.784   5.769
   78SOL    HW2 1134   5.783   0.654   5.690
   79SOL     OW 1135   2.706   6.790   0.290
   79SOL    HW1 1136   2.655   6.866   0.248
   79SOL    HW2 1137   2.778   6.761   0.227
   80SOL     OW 1138   5.232   2.144   4.301
   80SOL    HW1 1139   5.294   2.196   4.242
   80SOL    HW2 1140   5.283   2.074   4.351
   81SOL     OW 1141   2.037   0.482   3.219
   81SOL    HW1 1142   2.015   0.505   3.124
   81SOL    HW2 1143   1.954   0.459   3.268
   82SOL     OW 1144   6.478   4.691   0.615
   82SOL    HW1 1145   6.508   4.786   0.614
   82SOL    HW2 1146   6.408   4.679   0.685
   83SOL     OW 1147   0.710   0.667   0.586
   83SOL    HW1 1148   0.753   0.757   0.576
   83SOL    HW2 1149   0.614   0.679   0.609
   84SOL     OW 1150   5.379   3.115   3.679
   84SOL    HW1 1151   5.382   3.047   3.752
   84SOL    HW2 1152   5.459   3.175   3.686
   85SOL     OW 1153   2.011   1.436   4.569
   85SOL    HW1 1154   1.979   1.471   4.657
   85SOL    HW2 1155   2.100   1.477   4.548
   86SOL     OW 1156   0.014   0.509   5.005
   86SOL    HW1 1157   0.058   0.482   5.090
   86SOL    HW2 1158   0.053   0.457   4.929
   87SOL     OW 1159   5.118   3.518   0.585
   87SOL    HW1 1160   5.020   3.514   0.600
   87SOL    HW2 1161   5.151   3.428   0.556
   88SOL     OW 1162   3.729   1.605   6.459
   88SOL    HW1 1163   3.725   1.507   6.439
   88SOL    HW2 1164   3.774   1.653   6.384
   89SOL     OW 1165   0.926   2.303   5.612
   89SOL    HW1 1166   0.870   2.222   5.631
   89SOL    HW2 1167   1.011   2.276   5.568
   90SOL     OW 1168   4.244   6.610   2.809
   90SOL    HW1 1169   4.228   6.562   2.723
   90SOL    HW2 1170   4.163   6.661   2.835
   91SOL     OW 1171   4.651   4.434   5.072
   91SOL    HW1 1172   4.620   4.339   5.085
   91SOL    HW2 1173   4.619   4.467   4.983
   92SOL     OW 1174   3.390   3.701   0.393
   92SOL    HW1 1175   3.402   3.795   0.424
   92SOL    HW2 1176   3.424   3.638   0.462
   93SOL     OW 1177   2.783   3.661   6.445
   93SOL    HW1 1178   2.686   3.648   6.425
   93SOL    HW2 1179   2.831   3.683   6.360
   94SOL     OW 1180   2.625   5.915   5.987
   94SOL    HW1 1181   2.561   5.857   6.038
   94SOL    HW2 1182   2.592   6.009   5.985
   95SOL     OW 1183   1.445   0.629   3.131
   95SOL    HW1 1184   1.395   0.590   3.208
   95SOL    HW2 1185   1.493   0.556   3.083
   96SOL     OW 1186   3.525   0.274   4.624
   96SOL    HW1 1187   3.555   0.196   4.569
   96SOL    HW2 1188   3.430   0.260   4.653
   97SOL     OW 1189   1.885   3.419   5.811
   97SOL    HW1 1190   1.942   3.342   5.785
   97SOL    HW2 1191   1.789   3.394   5.801
   98SOL     OW 1192   6.460   4.111   0.704
   98SOL    HW1 1193   6.495   4.167   0.629
   98SOL    HW2 1194   6.491   4.016   0.692
   99SOL     OW 1195   4.642   3.480   1.228
   99SOL    HW1 1196   4.577   3.491   1.304
   99SOL    HW2 1197   4.592   3.454   1.146
  100SOL     OW 1198   0.124   0.355   4.804
  100SOL    HW1 1199   0.080   0.355   4.714
  100SOL    HW2 1200   0.223   0.361   4.793
  101SOL     OW 1201   1.442   5.475   2.007
  101SOL    HW1 1202   1.419   5.378   1.998
  101SOL    HW2 1203   1.399   5.513   2.089
  102SOL     OW 1204   4.190   6.952   2.665
  102SOL    HW1 1205   4.130   0.008   2.671
  102SOL    HW2 1206   4.281   6.977   2.697
  103SOL     OW 1207   3.268   0.984   2.163
  103SOL    HW1 1208   3.303   1.075   2.187
  103SOL    HW2 1209   3.208   0.950   2.236
  104SOL     OW 1210   0.400   5.192   2.603
  104SOL    HW1 1211   0.350   5.107   2.620
  104SOL    HW2 1212   0.337   5.269   2.603
  105SOL     OW 1213   6.818   2.594   6.862
  105SOL    HW1 1214   6.759   2.521   6.827
  105SOL    HW2 1215   6.875   2.630   6.787
  106SOL     OW 1216   4.205   5.772   4.581
  106SOL    HW1 1217   4.216   5.755   4.679
  106SOL    HW2 1218   4.245   5.698   4.529
  107SOL     OW 1219   2.081   1.445   2.152
  107SOL    HW1 1220   2.178   1.448   2.125
  107SOL    HW2 1221   2.025   1.420   2.073
  108SOL     OW 1222   3.972   5.256   5.902
  108SOL    HW1 1223   4.003   5.169   5.940
  108SOL    HW2 1224   3.872   5.260   5.903
  109SOL     OW 1225   6.969   0.560   1.199
  109SOL    HW1 1226   6.925   0.495   1.260
  109SOL    HW2 1227   7.000   0.512   1.116
  110SOL     OW 1228   3.329   5.929   5.565
  110SOL    HW1 1229   3.347   6.026   5.551
  110SOL    HW2 1230   3.232   5.911   5.547
  111SOL     OW 1231   3.055   1.303   4.237
  111SOL    HW1 1232   3.002   1.244   4.299
  111SOL    HW2 1233   3.025   1.287   4.143
  112SOL     OW 1234   4.976   6.725   5.918
  112SOL    HW1 1235   4.934   6.665   5.850
  112SOL    HW2 1236   4.912   6.742   5.992
  113SOL     OW 1237   6.266   5.575   2.960
  113SOL    HW1 1238   6.264   5.525   3.047
  113SOL    HW2 1239   6.249   5.511   2.885
  114SOL     OW 1240   0.686   0.663   0.993
  114SOL    HW1 1241   0.606   0.606   0.979
  114SOL    HW2 1242   0.743   0.625   1.066
  115SOL     OW 1243   4.018   1.358   3.433
  115SOL    HW1 1244   4.077   1.398   3.503
  115SOL    HW2 1245   4.075   1.309   3.366
  116SOL     OW 1246   5.744   4.885   1.473
  116SOL    HW1 1247   5.844   4.888   1.480
  116SOL    HW2 1248   5.708   4.978   1.482
  117SOL     OW 1249   1.447   1.599   0.555
  117SOL    HW1 1250   1.370   1.572   0.497
  117SOL    HW2 1251   1.424   1.582   0.651
  118SOL     OW 1252   2.018   1.233   3.099
  118SOL    HW1 1253   2.118   1.234   3.111
  118SOL    HW2 1254   1.975   1.259   3.185
  119SOL     OW 1255   0.784   1.211   6.715
  119SOL    HW1 1256   0.745   1.180   6.802
  119SOL    HW2 1257   0.872   1.166   6.700
  120SOL     OW 1258   6.346   6.802   0.398
  120SOL    HW1 1259   6.416   6.815   0.328
  120SOL    HW2 1260   6.318   6.892   0.433
  121SOL     OW 1261   2.489   3.553   6.352
  121SOL    HW1 1262   2.529   3.487   6.415
  121SOL    HW2 1263   2.494   3.518   6.259
  122SOL     OW 1264   1.851   4.535   6.314
  122SOL    HW1 1265   1.871   4.502   6.221
  122SOL    HW2 1266   1.936   4.542   6.366
  123SOL     OW 1267   0.115   1.459   1.464
  123SOL    HW1 1268   0.038   1.498   1.413
  123SOL    HW2 1269   0.103   1.360   1.470
  124SOL     OW 1270   4.975   3.163   0.530
  124SOL    HW1 1271   4.981   3.082   0.588
  124SOL    HW2 1272   4.884   3.205   0.541
  125SOL     OW 1273   3.359   1.880   1.794
  125SOL    HW1 1274   3.393   1.968   1.826
  125SOL    HW2 1275   3.434   1.826   1.757
  126SOL     OW 1276   2.710   3.760   1.096
  126SOL    HW1 1277   2.754   3.766   1.185
  126SOL    HW2 1278   2.612   3.746   1.108
  127SOL     OW 1279   0.190   5.145   6.693
  127SOL    HW1 1280   0.155   5.213   6.628
  127SOL    HW2 1281   0.238   5.192   6.767
  128SOL     OW 1282   4.850   2.894   1.336
  128SOL    HW1 1283   4.771   2.922   1.390
  128SOL    HW2 1284   4.820   2.859   1.247
  129SOL     OW 1285   2.453   2.834   6.116
  129SOL    HW1 1286   2.509   2.896   6.062
  129SOL    HW2 1287   2.495   2.821   6.206
  130SOL     OW 1288   0.741   1.300   4.060
  130SOL    HW1 1289   0.698   1.275   3.973
  130SOL    HW2 1290   0.838   1.319   4.045
  131SOL     OW 1291   5.262   2.109   3.558
  131SOL    HW1 1292   5.317   2.088   3.477
  131SOL    HW2 1293   5.195   2.180   3.534
  132SOL     OW 1294   2.468   2.337   1.113
  132SOL    HW1 1295   2.495   2.294   1.027
  132SOL    HW2 1296   2.371   2.361   1.110
  133SOL     OW 1297   4.964   6.373   4.315
  133SOL    HW1 1298   5.004   6.407   4.400
  133SOL    HW2 1299   4.869   6.404   4.308
  134SOL     OW 1300   6.495   1.814   2.414
  134SOL    HW1 1301   6.524   1.735   2.359
  134SOL    HW2 1302   6.426   1.866   2.363
  135SOL     OW 1303   5.860   3.608   3.454
  135SOL    HW1 1304   5.906   3.649   3.533
  135SOL    HW2 1305   5.926   3.597   3.380
  136SOL     OW 1306   3.483   3.877   6.242
  136SOL    HW1 1307   3.483   3.826   6.328
  136SOL    HW2 1308   3.434   3.826   6.172
  137SOL     OW 1309   5.574   1.524   4.611
  137SOL    HW1 1310   5.557   1.571   4.525
  137SOL    HW2 1311   5.570   1.425   4.597
  138SOL     OW 1312   0.798   4.645   3.245
  138SOL    HW1 1313   0.816   4.743   3.235
  138SOL    HW2 1314   0.701   4.631   3.266
  139SOL     OW 1315   2.138   6.751   4.873
  139SOL    HW1 1316   2.114   6.689   4.948
  139SOL    HW2 1317   2.167   6.697   4.793
  140SOL     OW 1318   0.557   5.774   2.822
  140SOL    HW1 1319   0.641   5.720   2.817
  140SOL    HW2 1320   0.550   5.818   2.911
  141SOL     OW 1321   6.203   3.468   4.838
  141SOL    HW1 1322   6.116   3.448   4.791
  141SOL    HW2 1323   6.251   3.382   4.856
  142SOL     OW 1324   1.959   3.982   0.390
  142SOL    HW1 1325   1.926   4.069   0.426
  142SOL    HW2 1326   2.049   3.995   0.349
  143SOL     OW 1327   5.690   4.562   1.070
  143SOL    HW1 1328   5.759   4.603   1.131
  143SOL    HW2 1329   5.684   4.616   0.986
  144SOL     OW 1330   0.952   6.178   6.019
  144SOL    HW1 1331   0.933   6.125   6.102
  144SOL    HW2 1332   0.868   6.187   5.965
  145SOL     OW 1333   6.870   5.939   0.332
  145SOL    HW1 1334   6.914   5.914   0.418
  145SOL    HW2 1335   6.907   5.883   0.258
  146SOL     OW 1336   4.943   0.465   6.280
  146SOL    HW1 1337   4.982   0.483   6.189
  146SOL    HW2 1338   4.844   0.453   6.272
  147SOL     OW 1339   6.242   3.761   6.790
  147SOL    HW1 1340   6.159   3.801   6.829
  147SOL    HW2 1341   6.323   3.804   6.831
  148SOL     OW 1342   0.365   5.524   6.389
  148SOL    HW1 1343   0.443   5.462   6.401
  148SOL    HW2 1344   0.287   5.472   6.354
  149SOL     OW 1345   2.807   1.517   4.128
  149SOL    HW1 1346   2.838   1.501   4.222
  149SOL    HW2 1347   2.708   1.525   4.127
  150SOL     OW 1348   5.690   6.110   6.538
  150SOL    HW1 1349   5.700   6.013   6.560
  150SOL    HW2 1350   5.594   6.137   6.546
  151SOL     OW 1351   3.055   2.383   1.131
  151SOL    HW1 1352   3.056   2.295   1.178
  151SOL    HW2 1353   3.009   2.373   1.043
  152SOL     OW 1354   1.118   0.765   2.916
  152SOL    HW1 1355   1.153   0.743   3.007
  152SOL    HW2 1356   1.184   0.824   2.869
  153SOL     OW 1357   3.089   0.452   1.589
  153SOL    HW1 1358   3.130   0.387   1.525
  153SOL    HW2 1359   3.013   0.499   1.544
  154SOL     OW 1360   0.677   1.931   2.853
  154SOL    HW1 1361   0.739   2.010   2.851
  154SOL    HW2 1362   0.585   1.962   2.878
  155SOL     OW 1363   6.586   1.695   3.196
  155SOL    HW1 1364   6.602   1.780   3.246
  155SOL    HW2 1365   6.549   1.716   3.105
  156SOL     OW 1366   0.651   1.767   0.787
  156SOL    HW1 1367   0.567   1.814   0.758
  156SOL    HW2 1368   0.657   1.770   0.887
  157SOL     OW 1369   5.702   3.141   1.062
  157SOL    HW1 1370   5.722   3.094   0.976
  157SOL    HW2 1371   5.605   3.129   1.084
  158SOL     OW 1372   2.037   5.850   2.526
  158SOL    HW1 1373   1.994   5.924   2.474
  158SOL    HW2 1374   2.047   5.770   2.466
  159SOL     OW 1375   4.321   4.675   2.020
  159SOL    HW1 1376   4.310   4.610   1.945
  159SOL    HW2 1377   4.418   4.684   2.043
  160SOL     OW 1378   6.260   5.512   0.154
  160SOL    HW1 1379   6.270   5.437   0.220
  160SOL    HW2 1380   6.187   5.574   0.183
  161SOL     OW 1381   1.823   5.629   4.320
  161SOL    HW1 1382   1.743   5.583   4.281
  161SOL    HW2 1383   1.899   5.626   4.255
  162SOL     OW 1384   3.733   6.561   6.762
  162SOL    HW1 1385   3.807   6.626   6.745
  162SOL    HW2 1386   3.770   6.468   6.762
  163SOL     OW 1387   5.323   5.863   0.832
  163SOL    HW1 1388   5.327   5.829   0.926
  163SOL    HW2 1389   5.393   5.817   0.777
  164SOL     OW 1390   6.206   4.502   6.968
  164SOL    HW1 1391   6.179   4.477   6.875
  164SOL    HW2 1392   6.282   4.444   6.997
  165SOL     OW 1393   5.338   3.208   1.703
  165SOL    HW1 1394   5.423   3.166   1.736
  165SOL    HW2 1395   5.348   3.231   1.607
  166SOL     OW 1396   0.099   4.877   3.344
  166SOL    HW1 1397   0.059   4.865   3.435
  166SOL    HW2 1398   0.181   4.934   3.352
  167SOL     OW 1399   5.591   2.763   0.369
  167SOL    HW1 1400   5.546   2.787   0.283
  167SOL    HW2 1401   5.614   2.666   0.369
  168SOL     OW 1402   2.440   2.915   1.331
  168SOL    HW1 1403   2.391   2.983   1.277
  168SOL    HW2 1404   2.512   2.873   1.276
  169SOL     OW 1405   4.571   0.744   1.962
  169SOL    HW1 1406   4.651   0.802   1.952
  169SOL    HW2 1407   4.495   0.798   1.999
  170SOL     OW 1408   1.151   1.205   3.670
  170SOL    HW1 1409   1.196   1.226   3.756
  170SOL    HW2 1410   1.154   1.107   3.653
  171SOL     OW 1411   3.770   4.494   0.140
  171SOL    HW1 1412   3.703   4.503   0.213
  171SOL    HW2 1413   3.726   4.457   0.058
  172SOL     OW 1414   5.951   1.822   3.898
  172SOL    HW1 1415   6.016   1.746   3.903
  172SOL    HW2 1416   5.993   1.904   3.936
  173SOL     OW 1417   0.031   2.092   4.603
  173SOL    HW1 1418   7.006   2.174   4.572
  173SOL    HW2 1419   0.128   2.112   4.612
  174SOL     OW 1420   3.281   5.334   4.251
  174SOL    HW1 1421   3.238   5.282   4.178
  174SOL    HW2 1422   3.234   5.315   4.338
  175SOL     OW 1423   2.432   0.086   1.731
  175SOL    HW1 1424   2.501   0.126   1.790
  175SOL    HW2 1425   2.397   0.155   1.668
  176SOL     OW 1426   1.172   4.236   0.936
  176SOL    HW1 1427   1.217   4.299   0.999
  176SOL    HW2 1428   1.242   4.186   0.885
  177SOL     OW 1429   5.986   3.529   2.456
  177SOL    HW1 1430   5.992   3.518   2.555
  177SOL    HW2 1431   5.942   3.448   2.416
  178SOL     OW 1432   2.489   2.445   6.599
  178SOL    HW1 1433   2.400   2.435   6.555
  178SOL    HW2 1434   2.499   2.539   6.633
  179SOL     OW 1435   2.466   1.325   6.107
  179SOL    HW1 1436   2.439   1.364   6.019
  179SOL    HW2 1437   2.406   1.249   6.130
  180SOL     OW 1438   1.601   6.731   6.842
  180SOL    HW1 1439   1.680   6.686   6.884
  180SOL    HW2 1440   1.621   6.749   6.745
  181SOL     OW 1441   2.992   2.423   6.240
  181SOL    HW1 1442   2.960   2.448   6.331
  181SOL    HW2 1443   3.080   2.376   6.247
  182SOL     OW 1444   3.309   1.539   3.946
  182SOL    HW1 1445   3.271   1.627   3.920
  182SOL    HW2 1446   3.292   1.523   4.043
  183SOL     OW 1447   3.418   2.083   3.437
  183SOL    HW1 1448   3.450   2.073   3.531
  183SOL    HW2 1449   3.497   2.100   3.377
  184SOL     OW 1450   1.958   6.240   4.236
  184SOL    HW1 1451   2.039   6.188   4.212
  184SOL    HW2 1452   1.944   6.313   4.168
  185SOL     OW 1453   6.983   1.557   6.392
  185SOL    HW1 1454   0.054   1.527   6.399
  185SOL    HW2 1455   6.932   1.525   6.472
  186SOL     OW 1456   5.721   1.118   3.962
  186SOL    HW1 1457   5.808   1.146   4.003
  186SOL    HW2 1458   5.727   1.127   3.863
  187SOL     OW 1459   4.516   0.324   3.132
  187SOL    HW1 1460   4.564   0.242   3.163
  187SOL    HW2 1461   4.456   0.301   3.055
  188SOL     OW 1462   0.058   1.907   2.916
  188SOL    HW1 1463   0.056   1.854   2.830
  188SOL    HW2 1464   0.153   1.921   2.944
  189SOL     OW 1465   2.403   5.355   1.515
  189SOL    HW1 1466   2.430   5.431   1.455
  189SOL    HW2 1467   2.458   5.358   1.598
  190SOL     OW 1468   4.731   1.559   4.687
  190SOL    HW1 1469   4.671   1.627   4.645
  190SOL    HW2 1470   4.826   1.579   4.663
  191SOL     OW 1471   5.744   6.303   6.908
  191SOL    HW1 1472   5.818   6.284   6.842
  191SOL    HW2 1473   5.657   6.271   6.871
  192SOL     OW 1474   0.652   5.642   1.987
  192SOL    HW1 1475   0.687   5.566   2.041
  192SOL    HW2 1476   0.562   5.669   2.022
  193SOL     OW 1477   4.580   3.063   5.342
  193SOL    HW1 1478   4.490   3.030   5.368
  193SOL    HW2 1479   4.629   3.094   5.424
  194SOL     OW 1480   4.101   0.550   2.919
  194SOL    HW1 1481   4.036   0.498   2.974
  194SOL    HW2 1482   4.109   0.508   2.828
  195SOL     OW 1483   1.913   0.181   4.816
  195SOL    HW1 1484   1.908   0.237   4.898
  195SOL    HW2 1485   1.986   0.114   4.825
  196SOL     OW 1486   2.612   0.510   0.356
  196SOL    HW1 1487   2.605   0.610   0.358
  196SOL    HW2 1488   2.610   0.475   0.450
  197SOL     OW 1489   2.772   0.538   0.813
  197SOL    HW1 1490   2.831   0.457   0.817
  197SOL    HW2 1491   2.676   0.509   0.823
  198SOL     OW 1492   4.772   0.677   2.678
  198SOL    HW1 1493   4.850   0.627   2.639
  198SOL    HW2 1494   4.736   0.628   2.757
  199SOL     OW 1495   0.502   2.555   3.866
  199SOL    HW1 1496   0.439   2.527   3.793
  199SOL    HW2 1497   0.594   2.565   3.828
  200SOL     OW 1498   1.428   3.541   0.647
  200SOL    HW1 1499   1.402   3.634   0.621
  200SOL    HW2 1500   1.378   3.514   0.729
  201SOL     OW 1501   0.181   0.143   6.362
  201SOL    HW1 1502   0.113   0.139   6.289
  201SOL    HW2 1503   0.226   0.054   6.370
  202SOL     OW 1504   3.669   1.079   0.096
  202SOL    HW1 1505   3.720   1.165   0.101
  202SOL    HW2 1506   3.586   1.086   0.152
  203SOL     OW 1507   6.118   2.360   5.618
  203SOL    HW1 1508   6.184   2.285   5.620
  203SOL    HW2 1509   6.049   2.345   5.689
  204SOL     OW 1510   1.003   6.962   4.294
  204SOL    HW1 1511   1.076   0.002   4.319
  204SOL    HW2 1512   1.017   6.874   4.339
  205SOL     OW 1513   1.002   2.635   2.881
  205SOL    HW1 1514   1.079   2.573   2.865
  205SOL    HW2 1515   0.967   2.669   2.793
  206SOL     OW 1516   0.503   4.073   1.074
  206SOL    HW1 1517   0.602   4.080   1.085
  206SOL    HW2 1518   0.479   4.074   0.977
  207SOL     OW 1519   6.292   1.463   3.809
  207SOL    HW1 1520   6.390   1.460   3.789
  207SOL    HW2 1521   6.243   1.403   3.745
  208SOL     OW 1522   6.649   4.388   5.524
  208SOL    HW1 1523   6.600   4.457   5.470
  208SOL    HW2 1524   6.741   4.376   5.487
  209SOL     OW 1525   0.183   5.385   3.989
  209SOL    HW1 1526   0.281   5.369   3.998
  209SOL    HW2 1527   0.164   5.483   4.000
  210SOL     OW 1528   4.563   1.406   0.402
  210SOL    HW1 1529   4.572   1.506   0.400
  210SOL    HW2 1530   4.653   1.364   0.414
  211SOL     OW 1531   1.423   6.443   1.912
  211SOL    HW1 1532   1.417   6.384   1.831
  211SOL    HW2 1533   1.518   6.450   1.941
  212SOL     OW 1534   1.226   3.497   1.660
  212SOL    HW1 1535   1.264   3.575   1.612
  212SOL    HW2 1536   1.292   3.466   1.729
  213SOL     OW 1537   3.017   6.647   0.713
  213SOL    HW1 1538   3.079   6.675   0.639
  213SOL    HW2 1539   3.071   6.605   0.786
  214SOL     OW 1540   3.617   5.550   2.939
  214SOL    HW1 1541   3.519   5.555   2.957
  214SOL    HW2 1542   3.634   5.479   2.870
  215SOL     OW 1543   3.019   3.656   0.457
  215SOL    HW1 1544   3.044   3.576   0.402
  215SOL    HW2 1545   3.034   3.636   0.554
  216SOL     OW 1546   0.788   5.511   3.115
  216SOL    HW1 1547   0.845   5.532   3.195
  216SOL    HW2 1548   0.693   5.535   3.135
  217SOL     OW 1549   1.329   2.714   4.264
  217SOL    HW1 1550   1.348   2.808   4.234
  217SOL    HW2 1551   1.275   2.667   4.194
  218SOL     OW 1552   0.986   3.033   4.374
  218SOL    HW1 1553   0.918   3.103   4.354
  218SOL    HW2 1554   1.076   3.063   4.342
  219SOL     OW 1555   4.222   0.329   0.370
  219SOL    HW1 1556   4.319   0.350   0.359
  219SOL    HW2 1557   4.168   0.384   0.306
  220SOL     OW 1558   2.426   7.002   1.341
  220SOL    HW1 1559   2.469   0.063   1.372
  220SOL    HW2 1560   2.387   6.953   1.419
  221SOL     OW 1561   5.813   4.372   0.859
  221SOL    HW1 1562   5.793   4.468   0.878
  221SOL    HW2 1563   5.797   4.318   0.941
  222SOL     OW 1564   1.227   4.723   5.569
  222SOL    HW1 1565   1.164   4.793   5.537
  222SOL    HW2 1566   1.303   4.765   5.619
  223SOL     OW 1567   6.846   3.162   6.047
  223SOL    HW1 1568   6.797   3.247   6.026
  223SOL    HW2 1569   6.826   3.134   6.141
  224SOL     OW 1570   2.777   1.875   5.910
  224SOL    HW1 1571   2.820   1.921   5.833
  224SOL    HW2 1572   2.800   1.922   5.995
  225SOL     OW 1573   5.173   3.884   6.445
  225SOL    HW1 1574   5.158   3.982   6.428
  225SOL    HW2 1575   5.085   3.837   6.449
  226SOL     OW 1576   0.807   1.159   5.536
  226SOL    HW1 1577   0.791   1.176   5.438
  226SOL    HW2 1578   0.759   1.228   5.590
  227SOL     OW 1579   0.513   4.284   1.969
  227SOL    HW1 1580   0.486   4.281   2.065
  227SOL    HW2 1581   0.600   4.237   1.957
  228SOL     OW 1582   2.306   0.098   3.183
  228SOL    HW1 1583   2.213   0.062   3.191
  228SOL    HW2 1584   2.315   0.149   3.097
  229SOL     OW 1585   6.093   6.044   6.074
  229SOL    HW1 1586   6.090   6.101   6.155
  229SOL    HW2 1587   6.143   5.960   6.094
  230SOL     OW 1588   3.523   5.204   3.564
  230SOL    HW1 1589   3.600   5.252   3.606
  230SOL    HW2 1590   3.554   5.155   3.483
  231SOL     OW 1591   6.004   1.646   0.074
  231SOL    HW1 1592   6.079   1.609   0.130
  231SOL    HW2 1593   5.944   1.571   0.046
  232SOL     OW 1594   0.059   3.304   6.595
  232SOL    HW1 1595   0.084   3.250   6.514
  232SOL    HW2 1596   0.023   3.392   6.566
  233SOL     OW 1597   3.389   1.054   3.183
  233SOL    HW1 1598   3.385   1.086   3.277
  233SOL    HW2 1599   3.423   1.128   3.124
  234SOL     OW 1600   5.073   0.958   6.379
  234SOL    HW1 1601   4.995   1.014   6.354
  234SOL    HW2 1602   5.106   0.984   6.470
  235SOL     OW 1603   4.957   2.830   2.026
  235SOL    HW1 1604   4.884   2.898   2.031
  235SOL    HW2 1605   5.024   2.847   2.098
  236SOL     OW 1606   5.581   2.747   6.726
  236SOL    HW1 1607   5.616   2.836   6.699
  236SOL    HW2 1608   5.508   2.719   6.662
  237SOL     OW 1609   0.116   4.652   2.052
  237SOL    HW1 1610   0.146   4.557   2.051
  237SOL    HW2 1611   0.040   4.665   1.989
  238SOL     OW 1612   5.539   1.139   0.628
  238SOL    HW1 1613   5.481   1.201   0.575
  238SOL    HW2 1614   5.624   1.121   0.578
  239SOL     OW 1615   0.951   4.515   6.477
  239SOL    HW1 1616   0.929   4.419   6.492
  239SOL    HW2 1617   0.940   4.537   6.380
  240SOL     OW 1618   0.086   2.977   3.377
  240SOL    HW1 1619   0.167   2.998   3.432
  240SOL    HW2 1620   0.024   3.055   3.377
  241SOL     OW 1621   2.875   2.268   5.142
  241SOL    HW1 1622   2.831   2.358   5.149
  241SOL    HW2 1623   2.927   2.263   5.056
  242SOL     OW 1624   3.232   4.093   4.530
  242SOL    HW1 1625   3.301   4.080   4.459
  242SOL    HW2 1626   3.268   4.155   4.600
  243SOL     OW 1627   4.411   0.977   6.713
  243SOL    HW1 1628   4.442   1.071   6.725
  243SOL    HW2 1629   4.441   0.922   6.792
  244SOL     OW 1630   6.693   3.645   5.474
  244SOL    HW1 1631   6.789   3.669   5.461
  244SOL    HW2 1632   6.683   3.546   5.473
  245SOL     OW 1633   5.099   2.416   4.085
  245SOL    HW1 1634   5.142   2.465   4.161
  245SOL    HW2 1635   5.038   2.346   4.121
  246SOL     OW 1636   5.187   2.434   3.267
  246SOL    HW1 1637   5.145   2.381   3.340
  246SOL    HW2 1638   5.149   2.527   3.266
  247SOL     OW 1639   2.660   1.643   0.459
  247SOL    HW1 1640   2.609   1.620   0.542
  247SOL    HW2 1641   2.603   1.700   0.400
  248SOL     OW 1642   3.714   1.252   2.831
  248SOL    HW1 1643   3.774   1.224   2.906
  248SOL    HW2 1644   3.754   1.223   2.744
  249SOL     OW 1645   4.899   0.528   4.948
  249SOL    HW1 1646   4.813   0.554   4.991
  249SOL    HW2 1647   4.959   0.486   5.016
  250SOL     OW 1648   5.031   3.508   0.218
  250SOL    HW1 1649   5.088   3.577   0.175
  250SOL    HW2 1650   5.064   3.417   0.192
  251SOL     OW 1651   4.888   3.668   5.334
  251SOL    HW1 1652   4.820   3.624   5.276
  251SOL    HW2 1653   4.980   3.650   5.297
  252SOL     OW 1654   6.833   6.215   5.299
  252SOL    HW1 1655   6.875   6.134   5.339
  252SOL    HW2 1656   6.901   6.289   5.294
  253SOL     OW 1657   2.806   5.277   6.264
  253SOL    HW1 1658   2.847   5.350   6.319
  253SOL    HW2 1659   2.879   5.224   6.220
  254SOL     OW 1660   6.036   2.358   3.865
  254SOL    HW1 1661   5.957   2.419   3.874
  254SOL    HW2 1662   6.049   2.334   3.769
  255SOL     OW 1663   1.703   4.691   5.312
  255SOL    HW1 1664   1.635   4.763   5.298
  255SOL    HW2 1665   1.657   4.603   5.324
  256SOL     OW 1666   6.263   4.139   6.197
  256SOL    HW1 1667   6.166   4.162   6.188
  256SOL    HW2 1668   6.305   4.198   6.266
  257SOL     OW 1669   4.954   0.434   3.777
  257SOL    HW1 1670   4.975   0.338   3.796
  257SOL    HW2 1671   5.002   0.492   3.843
  258SOL     OW 1672   2.357   5.170   4.940
  258SOL    HW1 1673   2.327   5.243   5.002
  258SOL    HW2 1674   2.318   5.083   4.969
  259SOL     OW 1675   6.672   2.076   2.841
  259SOL    HW1 1676   6.649   2.167   2.808
  259SOL    HW2 1677   6.639   2.008   2.775
  260SOL     OW 1678   4.153   6.831   1.919
  260SOL    HW1 1679   4.184   6.792   2.005
  260SOL    HW2 1680   4.074   6.780   1.885
  261SOL     OW 1681   6.569   3.137   0.622
  261SOL    HW1 1682   6.622   3.125   0.538
  261SOL    HW2 1683   6.528   3.050   0.649
  262SOL     OW 1684   0.606   3.579   0.118
  262SOL    HW1 1685   0.653   3.573   0.030
  262SOL    HW2 1686   0.518   3.532   0.112
  263SOL     OW 1687   2.579   0.795   4.743
  263SOL    HW1 1688   2.647   0.854   4.699
  263SOL    HW2 1689   2.627   0.723   4.794
  264SOL     OW 1690   5.624   3.062   6.926
  264SOL    HW1 1691   5.688   3.083   6.999
  264SOL    HW2 1692   5.674   3.043   6.842
  265SOL     OW 1693   5.513   6.708   2.602
  265SOL    HW1 1694   5.444   6.775   2.573
  265SOL    HW2 1695   5.516   6.704   2.701
  266SOL     OW 1696   3.563   2.565   5.977
  266SOL    HW1 1697   3.499   2.638   5.950
  266SOL    HW2 1698   3.559   2.552   6.076
  267SOL     OW 1699   0.786   1.289   6.318
  267SOL    HW1 1700   0.707   1.350   6.328
  267SOL    HW2 1701   0.869   1.343   6.306
  268SOL     OW 1702   3.387   1.196   6.368
  268SOL    HW1 1703   3.344   1.151   6.289
  268SOL    HW2 1704   3.405   1.292   6.346
  269SOL     OW 1705   1.545   3.533   1.416
  269SOL    HW1 1706   1.583   3.598   1.482
  269SOL    HW2 1707   1.503   3.457   1.465
  270SOL     OW 1708   1.129   6.130   0.617
  270SOL    HW1 1709   1.120   6.147   0.715
  270SOL    HW2 1710   1.212   6.173   0.582
  271SOL     OW 1711   0.096   2.040   0.035
  271SOL    HW1 1712   0.028   2.025   6.987
  271SOL    HW2 1713   0.187   2.016   0.001
  272SOL     OW 1714   3.488   5.323   3.885
  272SOL    HW1 1715   3.473   5.232   3.845
  272SOL    HW2 1716   3.581   5.328   3.923
  273SOL     OW 1717   2.486   4.441   4.058
  273SOL    HW1 1718   2.508   4.438   4.156
  273SOL    HW2 1719   2.399   4.395   4.042
  274SOL     OW 1720   4.253   1.883   3.278
  274SOL    HW1 1721   4.185   1.956   3.275
  274SOL    HW2 1722   4.210   1.799   3.309
  275SOL     OW 1723   6.599   5.251   3.550
  275SOL    HW1 1724   6.571   5.238   3.645
  275SOL    HW2 1725   6.566   5.340   3.517
  276SOL     OW 1726   6.549   6.448   2.351
  276SOL    HW1 1727   6.619   6.516   2.328
  276SOL    HW2 1728   6.505   6.472   2.437
  277SOL     OW 1729   1.940   4.215   0.548
  277SOL    HW1 1730   1.937   4.306   0.505
  277SOL    HW2 1731   1.849   4.193   0.584
  278SOL     OW 1732   0.161   4.900   2.189
  278SOL    HW1 1733   0.162   4.823   2.126
  278SOL    HW2 1734   0.234   4.888   2.257
  279SOL     OW 1735   5.653   3.378   4.372
  279SOL    HW1 1736   5.664   3.281   4.347
  279SOL    HW2 1737   5.593   3.384   4.452
  280SOL     OW 1738   2.967   6.737   3.410
  280SOL    HW1 1739   3.030   6.685   3.352
  280SOL    HW2 1740   3.017   6.812   3.454
  281SOL     OW 1741   2.408   4.401   1.293
  281SOL    HW1 1742   2.422   4.314   1.341
  281SOL    HW2 1743   2.468   4.405   1.213
  282SOL     OW 1744   3.068   1.066   6.245
  282SOL    HW1 1745   2.998   1.136   6.254
  282SOL    HW2 1746   3.043   1.004   6.170
  283SOL     OW 1747   6.028   1.706   6.463
  283SOL    HW1 1748   6.106   1.768   6.458
  283SOL    HW2 1749   6.061   1.611   6.463
  284SOL     OW 1750   1.284   3.787   3.863
  284SOL    HW1 1751   1.241   3.746   3.944
  284SOL    HW2 1752   1.270   3.886   3.864
  285SOL     OW 1753   5.734   4.978   4.397
  285SOL    HW1 1754   5.751   5.064   4.348
  285SOL    HW2 1755   5.733   4.995   4.495
  286SOL     OW 1756   3.507   5.423   6.426
  286SOL    HW1 1757   3.426   5.473   6.395
  286SOL    HW2 1758   3.486   5.326   6.433
  287SOL     OW 1759   0.956   3.516   1.185
  287SOL    HW1 1760   1.051   3.488   1.186
  287SOL    HW2 1761   0.916   3.494   1.096
  288SOL     OW 1762   3.269   1.349   6.905
  288SOL    HW1 1763   3.171   1.358   6.885
  288SOL    HW2 1764   3.317   1.430   6.870
  289SOL     OW 1765   1.267   4.550   5.367
  289SOL    HW1 1766   1.283   4.611   5.445
  289SOL    HW2 1767   1.223   4.467   5.398
  290SOL     OW 1768   6.223   2.374   4.722
  290SOL    HW1 1769   6.123   2.378   4.715
  290SOL    HW2 1770   6.251   2.283   4.750
  291SOL     OW 1771   1.484   2.542   4.431
  291SOL    HW1 1772   1.485   2.448   4.399
  291SOL    HW2 1773   1.413   2.593   4.382
  292SOL     OW 1774   1.471   2.635   3.293
  292SOL    HW1 1775   1.492   2.540   3.316
  292SOL    HW2 1776   1.522   2.697   3.353
  293SOL     OW 1777   4.272   6.445   2.593
  293SOL    HW1 1778   4.192   6.395   2.559
  293SOL    HW2 1779   4.350   6.428   2.533
  294SOL     OW 1780   0.863   6.042   6.689
  294SOL    HW1 1781   0.962   6.041   6.673
  294SOL    HW2 1782   0.818   5.992   6.615
  295SOL     OW 1783   3.401   1.639   3.518
  295SOL    HW1 1784   3.376   1.734   3.537
  295SOL    HW2 1785   3.332   1.578   3.558
  296SOL     OW 1786   3.659   2.069   3.323
  296SOL    HW1 1787   3.663   2.042   3.227
  296SOL    HW2 1788   3.635   1.990   3.379
  297SOL     OW 1789   2.832   4.965   3.503
  297SOL    HW1 1790   2.907   4.947   3.440
  297SOL    HW2 1791   2.753   4.908   3.478
  298SOL     OW 1792   3.183   5.724   1.758
  298SOL    HW1 1793   3.148   5.809   1.797
  298SOL    HW2 1794   3.232   5.743   1.673
  299SOL     OW 1795   5.382   3.394   5.963
  299SOL    HW1 1796   5.304   3.358   6.014
  299SOL    HW2 1797   5.378   3.359   5.869
  300SOL     OW 1798   6.527   0.686   2.833
  300SOL    HW1 1799   6.516   0.784   2.818
  300SOL    HW2 1800   6.501   0.636   2.750
  301SOL     OW 1801   4.855   3.250   1.257
  301SOL    HW1 1802   4.799   3.331   1.240
  301SOL    HW2 1803   4.892   3.254   1.350
  302SOL     OW 1804   1.312   0.419   3.289
  302SOL    HW1 1805   1.297   0.388   3.383
  302SOL    HW2 1806   1.282   0.348   3.225
  303SOL     OW 1807   5.851   0.902   2.601
  303SOL    HW1 1808   5.796   0.959   2.538
  303SOL    HW2 1809   5.794   0.874   2.678
  304SOL     OW 1810   2.549   0.423   3.487
  304SOL    HW1 1811   2.535   0.401   3.583
  304SOL    HW2 1812   2.548   0.522   3.475
  305SOL     OW 1813   0.478   3.429   0.409
  305SOL    HW1 1814   0.444   3.339   0.436
  305SOL    HW2 1815   0.442   3.452   0.319
  306SOL     OW 1816   1.862   0.777   3.551
  306SOL    HW1 1817   1.811   0.773   3.636
  306SOL    HW2 1818   1.892   0.686   3.526
  307SOL     OW 1819   4.474   6.884   0.966
  307SOL    HW1 1820   4.548   6.942   0.932
  307SOL    HW2 1821   4.513   6.804   1.012
  308SOL     OW 1822   6.301   4.122   4.912
  308SOL    HW1 1823   6.232   4.052   4.931
  308SOL    HW2 1824   6.391   4.078   4.907
  309SOL     OW 1825   4.102   4.283   5.896
  309SOL    HW1 1826   4.099   4.303   5.994
  309SOL    HW2 1827   4.049   4.200   5.878
  310SOL     OW 1828   6.789   6.435   5.769
  310SOL    HW1 1829   6.859   6.371   5.737
  310SOL    HW2 1830   6.825   6.528   5.766
  311SOL     OW 1831   6.331   5.304   1.606
  311SOL    HW1 1832   6.305   5.289   1.511
  311SOL    HW2 1833   6.430   5.305   1.614
  312SOL     OW 1834   4.593   2.059   5.812
  312SOL    HW1 1835   4.545   1.973   5.794
  312SOL    HW2 1836   4.641   2.052   5.900
  313SOL     OW 1837   3.018   4.220   1.759
  313SOL    HW1 1838   2.970   4.136   1.783
  313SOL    HW2 1839   2.953   4.296   1.755
  314SOL     OW 1840   3.168   5.256   6.946
  314SOL    HW1 1841   3.216   5.310   6.876
  314SOL    HW2 1842   3.148   5.314   0.001
  315SOL     OW 1843   0.764   3.010   3.353
  315SOL    HW1 1844   0.667   3.003   3.331
  315SOL    HW2 1845   0.803   3.090   3.307
  316SOL     OW 1846   2.239   2.389   3.997
  316SOL    HW1 1847   2.306   2.463   3.995
  316SOL    HW2 1848   2.272   2.312   3.942
  317SOL     OW 1849   0.917   0.300   1.512
  317SOL    HW1 1850   0.835   0.274   1.461
  317SOL    HW2 1851   0.904   0.279   1.609
  318SOL     OW 1852   0.800   6.069   0.184
  318SOL    HW1 1853   0.723   6.042   0.127
  318SOL    HW2 1854   0.784   6.039   0.278
  319SOL     OW 1855   0.230   0.546   2.919
  319SOL    HW1 1856   0.134   0.558   2.944
  319SOL    HW2 1857   0.261   0.624   2.865
  320SOL     OW 1858   5.368   2.414   6.683
  320SOL    HW1 1859   5.375   2.513   6.673
  320SOL    HW2 1860   5.292   2.392   6.745
  321SOL     OW 1861   3.051   1.502   1.793
  321SOL    HW1 1862   3.003   1.571   1.846
  321SOL    HW2 1863   3.130   1.468   1.845
  322SOL     OW 1864   3.218   3.417   4.582
  322SOL    HW1 1865   3.167   3.450   4.661
  322SOL    HW2 1866   3.176   3.333   4.548
  323SOL     OW 1867   0.378   3.467   0.103
  323SOL    HW1 1868   0.364   3.425   0.013
  323SOL    HW2 1869   0.289   3.483   0.146
  324SOL     OW 1870   2.215   2.864   4.045
  324SOL    HW1 1871   2.122   2.864   4.006
  324SOL    HW2 1872   2.281   2.845   3.972
  325SOL     OW 1873   2.199   3.052   1.753
  325SOL    HW1 1874   2.268   2.986   1.725
  325SOL    HW2 1875   2.215   3.139   1.707
  326SOL     OW 1876   1.538   5.275   6.495
  326SOL    HW1 1877   1.465   5.218   6.532
  326SOL    HW2 1878   1.512   5.372   6.502
  327SOL     OW 1879   1.402   5.158   3.939
  327SOL    HW1 1880   1.344   5.135   3.861
  327SOL    HW2 1881   1.358   5.128   4.023
  328SOL     OW 1882   3.231   5.034   2.390
  328SOL    HW1 1883   3.226   5.065   2.295
  328SOL    HW2 1884   3.324   5.049   2.425
  329SOL     OW 1885   3.115   3.814   3.953
  329SOL    HW1 1886   3.144   3.734   4.006
  329SOL    HW2 1887   3.125   3.896   4.010
  330SOL     OW 1888   3.542   6.280   1.924
  330SOL    HW1 1889   3.449   6.273   1.888
  330SOL    HW2 1890   3.581   6.188   1.936
  331SOL     OW 1891   4.709   4.794   6.760
  331SOL    HW1 1892   4.779   4.821   6.827
  331SOL    HW2 1893   4.729   4.702   6.726
  332SOL     OW 1894   3.962   2.189   4.513
  332SOL    HW1 1895   3.967   2.205   4.612
  332SOL    HW2 1896   4.043   2.227   4.469
  333SOL     OW 1897   3.188   0.067   6.791
  333SOL    HW1 1898   3.281   0.095   6.769
  333SOL    HW2 1899   3.191   7.016   6.857
  334SOL     OW 1900   2.586   7.006   1.037
  334SOL    HW1 1901   2.554   6.930   0.981
  334SOL    HW2 1902   2.677   6.984   1.073
  335SOL     OW 1903   3.582   6.539   4.113
  335SOL    HW1 1904   3.512   6.559   4.044
  335SOL    HW2 1905   3.666   6.589   4.092
  336SOL     OW 1906   2.387   1.060   3.959
  336SOL    HW1 1907   2.452   1.045   3.884
  336SOL    HW2 1908   2.389   1.156   3.986
  337SOL     OW 1909   0.074   3.636   0.770
  337SOL    HW1 1910   0.140   3.600   0.704
  337SOL    HW2 1911   0.001   3.568   0.783
  338SOL     OW 1912   2.970   2.394   0.855
  338SOL    HW1 1913   3.035   2.368   0.784
  338SOL    HW2 1914   2.880   2.355   0.835
  339SOL     OW 1915   3.832   6.596   4.033
  339SOL    HW1 1916   3.895   6.520   4.019
  339SOL    HW2 1917   3.830   6.653   3.951
  340SOL     OW 1918   5.119   4.100   4.667
  340SOL    HW1 1919   5.102   4.125   4.571
  340SOL    HW2 1920   5.218   4.092   4.682
  341SOL     OW 1921   6.225   6.869   3.928
  341SOL    HW1 1922   6.318   6.837   3.911
  341SOL    HW2 1923   6.201   6.941   3.864
  342SOL     OW 1924   5.556   4.031   0.035
  342SOL    HW1 1925   5.520   3.966   6.991
  342SOL    HW2 1926   5.599   3.981   0.110
  343SOL     OW 1927   1.715   5.880   0.816
  343SOL    HW1 1928   1.721   5.900   0.914
  343SOL    HW2 1929   1.802   5.843   0.784
  344SOL     OW 1930   2.068   5.460   1.695
  344SOL    HW1 1931   2.132   5.536   1.711
  344SOL    HW2 1932   2.092   5.415   1.609
  345SOL     OW 1933   6.778   1.047   5.921
  345SOL    HW1 1934   6.849   0.994   5.873
  345SOL    HW2 1935   6.725   1.098   5.854
  346SOL     OW 1936   2.329   0.303   1.580
  346SOL    HW1 1937   2.240   0.274   1.545
  346SOL    HW2 1938   2.316   0.355   1.665
  347SOL     OW 1939   4.709   6.834   6.447
  347SOL    HW1 1940   4.622   6.805   6.485
  347SOL    HW2 1941   4.695   6.911   6.385
  348SOL     OW 1942   4.763   5.152   1.510
  348SOL    HW1 1943   4.748   5.070   1.566
  348SOL    HW2 1944   4.684   5.214   1.519
  349SOL     OW 1945   6.920   4.486   2.234
  349SOL    HW1 1946   6.837   4.524   2.194
  349SOL    HW2 1947   6.969   4.433   2.165
  350SOL     OW 1948   3.356   3.376   1.664
  350SOL    HW1 1949   3.345   3.439   1.587
  350SOL    HW2 1950   3.317   3.287   1.639
  351SOL     OW 1951   2.467   2.534   0.460
  351SOL    HW1 1952   2.406   2.586   0.400
  351SOL    HW2 1953   2.456   2.437   0.442
  352SOL     OW 1954   3.772   0.016   4.567
  352SOL    HW1 1955   3.853   0.067   4.594
  352SOL    HW2 1956   3.732   6.995   4.648
  353SOL     OW 1957   3.001   0.051   0.867
  353SOL    HW1 1958   2.937   7.002   0.840
  353SOL    HW2 1959   3.076   0.055   0.801
  354SOL     OW 1960   4.291   2.116   0.044
  354SOL    HW1 1961   4.236   2.199   0.039
  354SOL    HW2 1962   4.255   2.056   0.115
  355SOL     OW 1963   6.722   2.734   2.942
  355SOL    HW1 1964   6.763   2.701   2.856
  355SOL    HW2 1965   6.664   2.662   2.981
  356SOL     OW 1966   4.354   5.568   4.455
  356SOL    HW1 1967   4.313   5.490   4.409
  356SOL    HW2 1968   4.446   5.544   4.486
  357SOL     OW 1969   7.023   6.754   5.325
  357SOL    HW1 1970   0.035   6.820   5.392
  357SOL    HW2 1971   6.971   6.803   5.255
  358SOL     OW 1972   5.814   0.432   1.604
  358SOL    HW1 1973   5.858   0.467   1.687
  358SOL    HW2 1974   5.856   0.474   1.523
  359SOL     OW 1975   2.091   2.113   2.285
  359SOL    HW1 1976   2.035   2.122   2.367
  359SOL    HW2 1977   2.187   2.131   2.308
  360SOL     OW 1978   2.686   6.326   6.330
  360SOL    HW1 1979   2.771   6.315   6.382
  360SOL    HW2 1980   2.702   6.298   6.235
  361SOL     OW 1981   5.494   5.562   2.667
  361SOL    HW1 1982   5.399   5.572   2.636
  361SOL    HW2 1983   5.510   5.467   2.693
  362SOL     OW 1984   3.712   3.780   0.615
  362SOL    HW1 1985   3.715   3.878   0.596
  362SOL    HW2 1986   3.620   3.745   0.595
  363SOL     OW 1987   4.031   5.221   3.993
  363SOL    HW1 1988   4.034   5.286   4.069
  363SOL    HW2 1989   3.936   5.203   3.969
  364SOL     OW 1990   0.412   5.659   5.418
  364SOL    HW1 1991   0.365   5.648   5.330
  364SOL    HW2 1992   0.357   5.616   5.490
  365SOL     OW 1993   4.811   6.069   2.332
  365SOL    HW1 1994   4.883   6.122   2.287
  365SOL    HW2 1995   4.723   6.090   2.290
  366SOL     OW 1996   5.797   1.281   0.293
  366SOL    HW1 1997   5.797   1.231   0.380
  366SOL    HW2 1998   5.731   1.239   0.231
  367SOL     OW 1999   5.051   2.735   0.987
  367SOL    HW1 2000   5.123   2.786   1.034
  367SOL    HW2 2001   5.092   2.673   0.920
  368SOL     OW 2002   0.652   4.215   5.138
  368SOL    HW1 2003   0.592   4.267   5.076
  368SOL    HW2 2004   0.710   4.154   5.084
  369SOL     OW 2005   6.477   4.624   1.602
  369SOL    HW1 2006   6.425   4.544   1.574
  369SOL    HW2 2007   6.417   4.688   1.651
  370SOL     OW 2008   3.005   1.688   5.533
  370SOL    HW1 2009   2.936   1.672   5.604
  370SOL    HW2 2010   3.084   1.734   5.573
  371SOL     OW 2011   2.265   3.640   6.443
  371SOL    HW1 2012   2.209   3.674   6.366
  371SOL    HW2 2013   2.348   3.598   6.407
  372SOL     OW 2014   6.981   0.768   5.123
  372SOL    HW1 2015   0.001   0.756   5.213
  372SOL    HW2 2016   6.965   0.678   5.082
  373SOL     OW 2017   6.589   6.465   5.572
  373SOL    HW1 2018   6.626   6.474   5.665
  373SOL    HW2 2019   6.554   6.372   5.559
  374SOL     OW 2020   4.655   6.843   2.386
  374SOL    HW1 2021   4.662   6.770   2.454
  374SOL    HW2 2022   4.621   6.927   2.430
  375SOL     OW 2023   6.800   4.807   3.715
  375SOL    HW1 2024   6.766   4.830   3.806
  375SOL    HW2 2025   6.779   4.712   3.695
  376SOL     OW 2026   1.772   3.518   3.743
  376SOL    HW1 2027   1.837   3.443   3.739
  376SOL    HW2 2028   1.717   3.520   3.660
  377SOL     OW 2029   6.083   2.900   2.238
  377SOL    HW1 2030   6.152   2.899   2.166
  377SOL    HW2 2031   6.010   2.963   2.213
  378SOL     OW 2032   3.705   2.565   5.652
  378SOL    HW1 2033   3.619   2.606   5.622
  378SOL    HW2 2034   3.703   2.467   5.633
  379SOL     OW 2035   5.871   4.095   1.483
  379SOL    HW1 2036   5.898   4.151   1.562
  379SOL    HW2 2037   5.771   4.084   1.483
  380SOL     OW 2038   2.474   1.552   1.896
  380SOL    HW1 2039   2.413   1.485   1.854
  380SOL    HW2 2040   2.538   1.586   1.827
  381SOL     OW 2041   1.826   4.715   1.231
  381SOL    HW1 2042   1.729   4.740   1.223
  381SOL    HW2 2043   1.839   4.622   1.198
  382SOL     OW 2044   4.527   5.732   6.538
  382SOL    HW1 2045   4.433   5.762   6.555
  382SOL    HW2 2046   4.526   5.640   6.499
  383SOL     OW 2047   6.228   2.959   5.993
  383SOL    HW1 2048   6.300   2.913   5.942
  383SOL    HW2 2049   6.268   3.004   6.073
  384SOL     OW 2050   0.942   3.859   5.002
  384SOL    HW1 2051   0.879   3.840   5.078
  384SOL    HW2 2052   1.035   3.839   5.030
  385SOL     OW 2053   5.066   6.301   0.076
  385SOL    HW1 2054   5.076   6.315   7.001
  385SOL    HW2 2055   5.104   6.380   0.125
  386SOL     OW 2056   3.780   6.860   5.175
  386SOL    HW1 2057   3.805   6.938   5.118
  386SOL    HW2 2058   3.863   6.812   5.205
  387SOL     OW 2059   0.465   6.455   3.836
  387SOL    HW1 2060   0.512   6.388   3.779
  387SOL    HW2 2061   0.378   6.418   3.868
  388SOL     OW 2062   0.752   2.166   4.741
  388SOL    HW1 2063   0.657   2.146   4.765
  388SOL    HW2 2064   0.790   2.090   4.689
  389SOL     OW 2065   4.376   4.057   1.683
  389SOL    HW1 2066   4.432   3.974   1.683
  389SOL    HW2 2067   4.410   4.119   1.754
  390SOL     OW 2068   3.587   1.116   0.534
  390SOL    HW1 2069   3.588   1.195   0.596
  390SOL    HW2 2070   3.563   1.146   0.442
  391SOL     OW 2071   2.427   4.129   5.351
  391SOL    HW1 2072   2.357   4.200   5.343
  391SOL    HW2 2073   2.408   4.056   5.285
  392SOL     OW 2074   1.624   3.316   2.746
  392SOL    HW1 2075   1.711   3.365   2.752
  392SOL    HW2 2076   1.559   3.371   2.694
  393SOL     OW 2077   1.289   4.788   0.374
  393SOL    HW1 2078   1.260   4.798   0.469
  393SOL    HW2 2079   1.209   4.790   0.314
  394SOL     OW 2080   0.658   3.028   6.897
  394SOL    HW1 2081   0.595   3.087   6.847
  394SOL    HW2 2082   0.733   3.001   6.837
  395SOL     OW 2083   5.349   4.341   2.051
  395SOL    HW1 2084   5.264   4.289   2.056
  395SOL    HW2 2085   5.351   4.394   1.966
  396SOL     OW 2086   2.458   2.016   2.409
  396SOL    HW1 2087   2.434   2.025   2.313
  396SOL    HW2 2088   2.556   2.033   2.421
  397SOL     OW 2089   5.050   1.288   5.571
  397SOL    HW1 2090   4.993   1.343   5.510
  397SOL    HW2 2091   4.993   1.243   5.639
  398SOL     OW 2092   0.947   6.274   4.584
  398SOL    HW1 2093   0.995   6.244   4.501
  398SOL    HW2 2094   0.864   6.218   4.596
  399SOL     OW 2095   6.363   6.068   4.231
  399SOL    HW1 2096   6.382   5.994   4.167
  399SOL    HW2 2097   6.269   6.101   4.218
  400SOL     OW 2098   6.922   6.969   4.867
  400SOL    HW1 2099   6.913   6.882   4.819
  400SOL    HW2 2100   6.832   7.002   4.895
  401SOL     OW 2101   6.448   0.686   6.206
  401SOL    HW1 2102   6.504   0.605   6.223
  401SOL    HW2 2103   6.501   0.755   6.157
  402SOL     OW 2104   6.102   0.501   2.273
  402SOL    HW1 2105   6.118   0.600   2.278
  402SOL    HW2 2106   6.137   0.466   2.186
  403SOL     OW 2107   3.124   0.081   6.507
  403SOL    HW1 2108   3.156   7.019   6.466
  403SOL    HW2 2109   3.145   0.082   6.605
  404SOL     OW 2110   3.679   6.376   5.359
  404SOL    HW1 2111   3.743   6.397   5.433
  404SOL    HW2 2112   3.695   6.438   5.283
  405SOL     OW 2113   2.198   4.390   3.445
  405SOL    HW1 2114   2.112   4.414   3.401
  405SOL    HW2 2115   2.235   4.470   3.493
  406SOL     OW 2116   0.821   4.821   5.177
  406SOL    HW1 2117   0.828   4.769   5.262
  406SOL    HW2 2118   0.910   4.862   5.156
  407SOL     OW 2119   1.818   2.967   3.505
  407SOL    HW1 2120   1.808   2.984   3.407
  407SOL    HW2 2121   1.836   3.053   3.552
  408SOL     OW 2122   3.851   2.162   2.763
  408SOL    HW1 2123   3.879   2.184   2.669
  408SOL    HW2 2124   3.929   2.126   2.814
  409SOL     OW 2125   7.020   3.714   1.924
  409SOL    HW1 2126   6.962   3.640   1.959
  409SOL    HW2 2127   6.976   3.755   1.844
  410SOL     OW 2128   1.229   2.503   1.256
  410SOL    HW1 2129   1.247   2.412   1.294
  410SOL    HW2 2130   1.159   2.549   1.311
  411SOL     OW 2131   0.200   1.821   1.757
  411SOL    HW1 2132   0.237   1.731   1.782
  411SOL    HW2 2133   0.107   1.809   1.722
  412SOL     OW 2134   2.896   5.086   2.728
  412SOL    HW1 2135   2.928   4.994   2.751
  412SOL    HW2 2136   2.856   5.084   2.636
  413SOL     OW 2137   3.872   4.880   1.950
  413SOL    HW1 2138   3.800   4.810   1.947
  413SOL    HW2 2139   3.831   4.971   1.955
  414SOL     OW 2140   3.506   0.206   4.164
  414SOL    HW1 2141   3.522   0.266   4.086
  414SOL    HW2 2142   3.554   0.241   4.244
  415SOL     OW 2143   0.061   1.700   0.630
  415SOL    HW1 2144   0.084   1.797   0.637
  415SOL    HW2 2145   0.113   1.658   0.555
  416SOL     OW 2146   5.406   4.118   4.659
  416SOL    HW1 2147   5.418   4.209   4.700
  416SOL    HW2 2148   5.485   4.061   4.682
  417SOL     OW 2149   2.030   1.122   6.467
  417SOL    HW1 2150   1.974   1.171   6.401
  417SOL    HW2 2151   2.083   1.051   6.420
  418SOL     OW 2152   3.019   0.048   4.707
  418SOL    HW1 2153   3.043   6.975   4.704
  418SOL    HW2 2154   3.071   0.094   4.780
  419SOL     OW 2155   6.925   6.972   2.049
  419SOL    HW1 2156   6.834   6.987   2.088
  419SOL    HW2 2157   6.984   6.929   2.118
  420SOL     OW 2158   5.426   0.941   6.530
  420SOL    HW1 2159   5.424   0.943   6.430
  420SOL    HW2 2160   5.467   0.854   6.560
  421SOL     OW 2161   5.532   4.405   5.037
  421SOL    HW1 2162   5.574   4.483   4.991
  421SOL    HW2 2163   5.439   4.429   5.065
  422SOL     OW 2164   4.795   1.965   0.967
  422SOL    HW1 2165   4.805   1.874   1.007
  422SOL    HW2 2166   4.727   2.018   1.019
  423SOL     OW 2167   2.607   0.262   6.571
  423SOL    HW1 2168   2.703   0.270   6.598
  423SOL    HW2 2169   2.594   0.178   6.519
  424SOL     OW 2170   1.711   5.558   3.097
  424SOL    HW1 2171   1.745   5.635   3.043
  424SOL    HW2 2172   1.747   5.472   3.059
  425SOL     OW 2173   4.636   0.965   4.694
  425SOL    HW1 2174   4.631   1.009   4.604
  425SOL    HW2 2175   4.620   1.033   4.765
  426SOL     OW 2176   2.465   2.523   4.876
  426SOL    HW1 2177   2.496   2.534   4.781
  426SOL    HW2 2178   2.429   2.610   4.909
  427SOL     OW 2179   4.616   1.557   3.890
  427SOL    HW1 2180   4.651   1.487   3.952
  427SOL    HW2 2181   4.532   1.524   3.846
  428SOL     OW 2182   2.773   0.977   4.631
  428SOL    HW1 2183   2.823   1.061   4.612
  428SOL    HW2 2184   2.818   0.928   4.706
  429SOL     OW 2185   0.862   5.811   3.934
  429SOL    HW1 2186   0.872   5.877   4.009
  429SOL    HW2 2187   0.768   5.777   3.933
  430SOL     OW 2188   1.635   0.035   3.637
  430SOL    HW1 2189   1.704   0.010   3.704
  430SOL    HW2 2190   1.660   0.121   3.593
  431SOL     OW 2191   2.784   2.008   1.089
  431SOL    HW1 2192   2.783   1.973   0.996
  431SOL    HW2 2193   2.733   1.945   1.149
  432SOL     OW 2194   5.281   2.226   0.997
  432SOL    HW1 2195   5.220   2.148   1.011
  432SOL    HW2 2196   5.367   2.195   0.956
  433SOL     OW 2197   3.527   6.656   6.398
  433SOL    HW1 2198   3.488   6.589   6.461
  433SOL    HW2 2199   3.619   6.627   6.371
  434SOL     OW 2200   3.850   6.275   3.750
  434SOL    HW1 2201   3.792   6.270   3.831
  434SOL    HW2 2202   3.845   6.189   3.700
  435SOL     OW 2203   3.630   1.545   5.588
  435SOL    HW1 2204   3.600   1.469   5.530
  435SOL    HW2 2205   3.550   1.588   5.629
  436SOL     OW 2206   3.351   6.010   3.281
  436SOL    HW1 2207   3.251   6.002   3.273
  436SOL    HW2 2208   3.377   6.106   3.287
  437SOL     OW 2209   0.010   1.303   4.468
  437SOL    HW1 2210   6.966   1.329   4.536
  437SOL    HW2 2211   0.018   1.203   4.465
  438SOL     OW 2212   0.895   5.226   3.416
  438SOL    HW1 2213   0.875   5.243   3.320
  438SOL    HW2 2214   0.922   5.131   3.429
  439SOL     OW 2215   6.108   0.787   2.627
  439SOL    HW1 2216   6.029   0.848   2.614
  439SOL    HW2 2217   6.182   0.816   2.566
  440SOL     OW 2218   3.740   0.880   6.941
  440SOL    HW1 2219   3.719   0.796   6.992
  440SOL    HW2 2220   3.707   0.959   6.992
  441SOL     OW 2221   6.629   4.221   3.361
  441SOL    HW1 2222   6.646   4.319   3.358
  441SOL    HW2 2223   6.663   4.183   3.446
  442SOL     OW 2224   4.899   4.422   5.802
  442SOL    HW1 2225   4.892   4.330   5.762
  442SOL    HW2 2226   4.994   4.441   5.824
  443SOL     OW 2227   4.740   4.274   3.014
  443SOL    HW1 2228   4.783   4.323   3.090
  443SOL    HW2 2229   4.811   4.242   2.950
  444SOL     OW 2230   3.736   1.535   0.424
  444SOL    HW1 2231   3.660   1.597   0.402
  444SOL    HW2 2232   3.780   1.504   0.340
  445SOL     OW 2233   2.712   6.243   2.738
  445SOL    HW1 2234   2.673   6.156   2.770
  445SOL    HW2 2235   2.638   6.303   2.707
  446SOL     OW 2236   5.309   5.751   2.995
  446SOL    HW1 2237   5.405   5.744   3.023
  446SOL    HW2 2238   5.250   5.736   3.074
  447SOL     OW 2239   6.366   3.980   6.000
  447SOL    HW1 2240   6.347   4.044   6.074
  447SOL    HW2 2241   6.282   3.933   5.974
  448SOL     OW 2242   2.971   1.290   2.524
  448SOL    HW1 2243   2.951   1.387   2.507
  448SOL    HW2 2244   2.971   1.273   2.623
  449SOL     OW 2245   1.839   2.837   3.757
  449SOL    HW1 2246   1.825   2.891   3.674
  449SOL    HW2 2247   1.911   2.769   3.742
  450SOL     OW 2248   0.311   5.028   3.467
  450SOL    HW1 2249   0.256   5.011   3.549
  450SOL    HW2 2250   0.338   5.124   3.465
  451SOL     OW 2251   0.322   2.474   3.684
  451SOL    HW1 2252   0.261   2.441   3.756
  451SOL    HW2 2253   0.361   2.396   3.635
  452SOL     OW 2254   3.690   6.440   2.839
  452SOL    HW1 2255   3.666   6.344   2.857
  452SOL    HW2 2256   3.609   6.497   2.850
  453SOL     OW 2257   4.248   0.285   0.024
  453SOL    HW1 2258   4.172   0.233   7.009
  453SOL    HW2 2259   4.319   0.221   0.055
  454SOL     OW 2260   6.505   4.270   5.879
  454SOL    HW1 2261   6.408   4.246   5.870
  454SOL    HW2 2262   6.526   4.291   5.974
  455SOL     OW 2263   0.212   4.191   6.035
  455SOL    HW1 2264   0.223   4.218   5.939
  455SOL    HW2 2265   0.270   4.111   6.054
  456SOL     OW 2266   1.898   0.908   3.296
  456SOL    HW1 2267   1.891   0.871   3.388
  456SOL    HW2 2268   1.993   0.903   3.265
  457SOL     OW 2269   1.456   5.829   5.867
  457SOL    HW1 2270   1.541   5.882   5.865
  457SOL    HW2 2271   1.445   5.782   5.779
  458SOL     OW 2272   2.720   1.580   3.287
  458SOL    HW1 2273   2.690   1.616   3.375
  458SOL    HW2 2274   2.642   1.542   3.238
  459SOL     OW 2275   2.130   0.280   5.067
  459SOL    HW1 2276   2.196   0.321   5.130
  459SOL    HW2 2277   2.120   0.338   4.986
  460SOL     OW 2278   1.268   1.422   5.126
  460SOL    HW1 2279   1.298   1.515   5.107
  460SOL    HW2 2280   1.325   1.357   5.074
  461SOL     OW 2281   6.811   4.823   5.402
  461SOL    HW1 2282   6.737   4.759   5.419
  461SOL    HW2 2283   6.864   4.837   5.486
  462SOL     OW 2284   3.458   3.754   4.397
  462SOL    HW1 2285   3.470   3.848   4.429
  462SOL    HW2 2286   3.361   3.731   4.396
  463SOL     OW 2287   6.012   6.901   2.515
  463SOL    HW1 2288   6.059   6.985   2.540
  463SOL    HW2 2289   5.919   6.903   2.550
  464SOL     OW 2290   3.630   6.518   5.950
  464SOL    HW1 2291   3.674   6.439   5.908
  464SOL    HW2 2292   3.545   6.488   5.995
  465SOL     OW 2293   1.255   1.970   0.770
  465SOL    HW1 2294   1.212   2.054   0.737
  465SOL    HW2 2295   1.286   1.915   0.693
  466SOL     OW 2296   3.428   6.290   4.935
  466SOL    HW1 2297   3.394   6.382   4.916
  466SOL    HW2 2298   3.528   6.292   4.943
  467SOL     OW 2299   0.415   2.008   2.908
  467SOL    HW1 2300   0.392   2.052   2.994
  467SOL    HW2 2301   0.392   2.069   2.832
  468SOL     OW 2302   4.472   0.130   6.420
  468SOL    HW1 2303   4.506   0.098   6.331
  468SOL    HW2 2304   4.535   0.200   6.456
  469SOL     OW 2305   2.819   4.352   5.703
  469SOL    HW1 2306   2.908   4.386   5.734
  469SOL    HW2 2307   2.795   4.397   5.617
  470SOL     OW 2308   2.512   5.454   3.254
  470SOL    HW1 2309   2.540   5.381   3.316
  470SOL    HW2 2310   2.463   5.416   3.176
  471SOL     OW 2311   2.621   2.394   3.795
  471SOL    HW1 2312   2.549   2.325   3.793
  471SOL    HW2 2313   2.700   2.360   3.743
  472SOL     OW 2314   6.084   4.408   6.324
  472SOL    HW1 2315   6.106   4.354   6.406
  472SOL    HW2 2316   6.034   4.350   6.260
  473SOL     OW 2317   6.849   2.568   2.721
  473SOL    HW1 2318   6.833   2.496   2.788
  473SOL    HW2 2319   6.849   2.530   2.629
  474SOL     OW 2320   6.453   6.113   4.718
  474SOL    HW1 2321   6.496   6.023   4.703
  474SOL    HW2 2322   6.429   6.153   4.630
  475SOL     OW 2323   5.856   2.189   0.232
  475SOL    HW1 2324   5.825   2.113   0.289
  475SOL    HW2 2325   5.937   2.231   0.273
  476SOL     OW 2326   0.735   4.122   2.056
  476SOL    HW1 2327   0.762   4.027   2.070
  476SOL    HW2 2328   0.760   4.177   2.136
  477SOL     OW 2329   2.741   6.186   3.820
  477SOL    HW1 2330   2.678   6.263   3.823
  477SOL    HW2 2331   2.723   6.125   3.898
  478SOL     OW 2332   4.455   6.005   2.594
  478SOL    HW1 2333   4.481   5.926   2.538
  478SOL    HW2 2334   4.358   6.024   2.584
  479SOL     OW 2335   3.890   3.679   4.197
  479SOL    HW1 2336   3.934   3.603   4.149
  479SOL    HW2 2337   3.791   3.667   4.196
  480SOL     OW 2338   1.402   6.532   2.765
  480SOL    HW1 2339   1.352   6.459   2.719
  480SOL    HW2 2340   1.445   6.497   2.848
  481SOL     OW 2341   0.824   6.013   1.083
  481SOL    HW1 2342   0.851   5.967   0.998
  481SOL    HW2 2343   0.873   6.099   1.091
  482SOL     OW 2344   5.647   4.157   2.428
  482SOL    HW1 2345   5.699   4.243   2.427
  482SOL    HW2 2346   5.654   4.113   2.339
  483SOL     OW 2347   6.090   2.007   2.912
  483SOL    HW1 2348   6.034   1.924   2.904
  483SOL    HW2 2349   6.068   2.054   2.997
  484SOL     OW 2350   2.350   4.431   4.777
  484SOL    HW1 2351   2.276   4.495   4.755
  484SOL    HW2 2352   2.359   4.423   4.876
  485SOL     OW 2353   5.701   3.448   3.000
  485SOL    HW1 2354   5.678   3.381   2.929
  485SOL    HW2 2355   5.793   3.429   3.036
  486SOL     OW 2356   6.236   6.853   6.310
  486SOL    HW1 2357   6.318   6.797   6.316
  486SOL    HW2 2358   6.211   6.885   6.402
  487SOL     OW 2359   0.175   6.631   3.517
  487SOL    HW1 2360   0.248   6.634   3.448
  487SOL    HW2 2361   0.107   6.562   3.490
  488SOL     OW 2362   1.970   6.799   3.261
  488SOL    HW1 2363   1.964   6.705   3.227
  488SOL    HW2 2364   1.900   6.814   3.330
  489SOL     OW 2365   6.801   5.955   4.656
  489SOL    HW1 2366   6.726   5.898   4.687
  489SOL    HW2 2367   6.846   5.996   4.736
  490SOL     OW 2368   1.311   5.480   6.074
  490SOL    HW1 2369   1.392   5.478   6.133
  490SOL    HW2 2370   1.337   5.460   5.980
  491SOL     OW 2371   0.267   2.902   0.307
  491SOL    HW1 2372   0.224   2.933   0.391
  491SOL    HW2 2373   0.200   2.854   0.250
  492SOL     OW 2374   1.291   1.366   5.812
  492SOL    HW1 2375   1.203   1.331   5.781
  492SOL    HW2 2376   1.296   1.361   5.912
  493SOL     OW 2377   2.626   6.735   5.126
  493SOL    HW1 2378   2.720   6.712   5.151
  493SOL    HW2 2379   2.596   6.675   5.051
  494SOL     OW 2380   2.310   0.511   5.521
  494SOL    HW1 2381   2.379   0.438   5.519
  494SOL    HW2 2382   2.338   0.581   5.586
  495SOL     OW 2383   4.424   6.249   5.624
  495SOL    HW1 2384   4.332   6.224   5.656
  495SOL    HW2 2385   4.471   6.168   5.590
  496SOL     OW 2386   6.255   2.274   2.725
  496SOL    HW1 2387   6.174   2.274   2.783
  496SOL    HW2 2388   6.278   2.180   2.699
  497SOL     OW 2389   3.448   0.859   6.384
  497SOL    HW1 2390   3.517   0.789   6.399
  497SOL    HW2 2391   3.480   0.925   6.316
  498SOL     OW 2392   0.360   5.462   2.119
  498SOL    HW1 2393   0.287   5.408   2.162
  498SOL    HW2 2394   0.341   5.470   2.021
  499SOL     OW 2395   3.334   4.629   6.297
  499SOL    HW1 2396   3.425   4.587   6.294
  499SOL    HW2 2397   3.267   4.565   6.256
  500SOL     OW 2398   5.981   2.441   6.496
  500SOL    HW1 2399   6.013   2.359   6.544
  500SOL    HW2 2400   5.906   2.482   6.548
  501SOL     OW 2401   1.475   6.945   2.801
  501SOL    HW1 2402   1.495   6.981   2.711
  501SOL    HW2 2403   1.539   6.872   2.823
  502SOL     OW 2404   1.929   4.579   5.873
  502SOL    HW1 2405   1.946   4.520   5.952
  502SOL    HW2 2406   1.908   4.672   5.905
  503SOL     OW 2407   3.525   4.693   6.645
  503SOL    HW1 2408   3.433   4.726   6.624
  503SOL    HW2 2409   3.581   4.694   6.562
  504SOL     OW 2410   6.562   6.073   1.951
  504SOL    HW1 2411   6.517   6.064   1.862
  504SOL    HW2 2412   6.522   6.150   2.001
  505SOL     OW 2413   4.779   6.785   5.047
  505SOL    HW1 2414   4.696   6.824   5.087
  505SOL    HW2 2415   4.767   6.686   5.036
  506SOL     OW 2416   3.039   5.730   2.986
  506SOL    HW1 2417   3.102   5.702   3.059
  506SOL    HW2 2418   3.073   5.814   2.943
  507SOL     OW 2419   4.048   0.843   1.947
  507SOL    HW1 2420   4.004   0.893   2.021
  507SOL    HW2 2421   4.077   0.753   1.979
  508SOL     OW 2422   0.006   4.071   4.157
  508SOL    HW1 2423   6.938   4.109   4.169
  508SOL    HW2 2424   0.005   4.001   4.086
  509SOL     OW 2425   4.884   0.494   6.808
  509SOL    HW1 2426   4.858   0.539   6.894
  509SOL    HW2 2427   4.960   0.544   6.767
  510SOL     OW 2428   6.279   4.460   6.058
  510SOL    HW1 2429   6.259   4.371   6.017
  510SOL    HW2 2430   6.213   4.528   6.026
  511SOL     OW 2431   1.765   1.581   6.991
  511SOL    HW1 2432   1.809   1.589   0.057
  511SOL    HW2 2433   1.734   1.487   6.978
  512SOL     OW 2434   5.366   2.688   0.199
  512SOL    HW1 2435   5.429   2.659   0.128
  512SOL    HW2 2436   5.319   2.608   0.237
  513SOL     OW 2437   5.253   0.429   2.548
  513SOL    HW1 2438   5.269   0.527   2.540
  513SOL    HW2 2439   5.292   0.383   2.468
  514SOL     OW 2440   6.936   6.863   4.264
  514SOL    HW1 2441   7.017   6.922   4.263
  514SOL    HW2 2442   6.899   6.857   4.171
  515SOL     OW 2443   2.835   0.589   6.390
  515SOL    HW1 2444   2.905   0.518   6.395
  515SOL    HW2 2445   2.869   0.664   6.333
  516SOL     OW 2446   2.639   4.457   1.155
  516SOL    HW1 2447   2.662   4.492   1.064
  516SOL    HW2 2448   2.691   4.374   1.174
  517SOL     OW 2449   3.115   5.199   2.610
  517SOL    HW1 2450   3.047   5.163   2.673
  517SOL    HW2 2451   3.121   5.140   2.530
  518SOL     OW 2452   2.030   3.431   3.589
  518SOL    HW1 2453   2.091   3.493   3.639
  518SOL    HW2 2454   1.996   3.478   3.507
  519SOL     OW 2455   6.456   6.170   3.662
  519SOL    HW1 2456   6.416   6.262   3.666
  519SOL    HW2 2457   6.482   6.142   3.754
  520SOL     OW 2458   1.288   3.425   0.017
  520SOL    HW1 2459   1.335   3.512   0.000
  520SOL    HW2 2460   1.302   3.365   6.962
  521SOL     OW 2461   4.825   4.944   4.240
  521SOL    HW1 2462   4.863   4.915   4.328
  521SOL    HW2 2463   4.739   4.992   4.254
  522SOL     OW 2464   4.430   3.802   1.191
  522SOL    HW1 2465   4.344   3.806   1.243
  522SOL    HW2 2466   4.421   3.736   1.117
  523SOL     OW 2467   0.172   6.111   1.618
  523SOL    HW1 2468   0.138   6.050   1.546
  523SOL    HW2 2469   0.185   6.203   1.580
  524SOL     OW 2470   0.432   2.764   2.256
  524SOL    HW1 2471   0.478   2.824   2.190
  524SOL    HW2 2472   0.451   2.796   2.349
  525SOL     OW 2473   0.975   3.140   6.960
  525SOL    HW1 2474   1.005   3.085   0.015
  525SOL    HW2 2475   0.891   3.188   6.984
  526SOL     OW 2476   3.672   6.828   4.380
  526SOL    HW1 2477   3.698   6.910   4.430
  526SOL    HW2 2478   3.614   6.854   4.302
  527SOL     OW 2479   1.285   1.883   0.035
  527SOL    HW1 2480   1.335   1.969   0.041
  527SOL    HW2 2481   1.257   1.855   0.126
  528SOL     OW 2482   0.025   3.894   3.948
  528SOL    HW1 2483   0.120   3.919   3.927
  528SOL    HW2 2484   6.988   3.937   3.880
  529SOL     OW 2485   2.796   0.155   5.677
  529SOL    HW1 2486   2.804   0.245   5.635
  529SOL    HW2 2487   2.700   0.129   5.683
  530SOL     OW 2488   3.546   3.345   1.866
  530SOL    HW1 2489   3.466   3.350   1.807
  530SOL    HW2 2490   3.522   3.296   1.950
  531SOL     OW 2491   2.615   1.133   2.580
  531SOL    HW1 2492   2.693   1.111   2.520
  531SOL    HW2 2493   2.644   1.123   2.675
  532SOL     OW 2494   2.259   3.326   0.078
  532SOL    HW1 2495   2.174   3.379   0.078
  532SOL    HW2 2496   2.297   3.324   7.009
  533SOL     OW 2497   4.841   6.965   3.493
  533SOL    HW1 2498   4.754   6.923   3.465
  533SOL    HW2 2499   4.824   0.034   3.527
  534SOL     OW 2500   0.929   5.579   1.209
  534SOL    HW1 2501   0.913   5.676   1.224
  534SOL    HW2 2502   0.940   5.533   1.297
  535SOL     OW 2503   6.199   4.229   3.262
  535SOL    HW1 2504   6.272   4.196   3.322
  535SOL    HW2 2505   6.163   4.153   3.208
  536SOL     OW 2506   6.528   6.035   2.993
  536SOL    HW1 2507   6.484   5.960   3.041
  536SOL    HW2 2508   6.482   6.051   2.906
  537SOL     OW 2509   3.939   6.785   4.267
  537SOL    HW1 2510   3.844   6.795   4.296
  537SOL    HW2 2511   3.942   6.731   4.182
  538SOL     OW 2512   2.192   5.024   5.387
  538SOL    HW1 2513   2.155   5.090   5.452
  538SOL    HW2 2514   2.119   4.991   5.327
  539SOL     OW 2515   1.513   5.528   1.433
  539SOL    HW1 2516   1.519   5.442   1.482
  539SOL    HW2 2517   1.599   5.579   1.444
  540SOL     OW 2518   1.933   1.228   4.143
  540SOL    HW1 2519   1.956   1.170   4.221
  540SOL    HW2 2520   1.848   1.195   4.101
  541SOL     OW 2521   4.365   6.068   3.881
  541SOL    HW1 2522   4.279   6.017   3.877
  541SOL    HW2 2523   4.347   6.163   3.907
  542SOL     OW 2524   3.544   5.664   6.665
  542SOL    HW1 2525   3.535   5.755   6.626
  542SOL    HW2 2526   3.577   5.601   6.595
  543SOL     OW 2527   5.779   3.702   4.175
  543SOL    HW1 2528   5.792   3.636   4.101
  543SOL    HW2 2529   5.810   3.792   4.145
  544SOL     OW 2530   0.678   4.746   6.982
  544SOL    HW1 2531   0.651   4.816   0.024
  544SOL    HW2 2532   0.617   4.748   6.903
  545SOL     OW 2533   5.585   1.743   1.368
  545SOL    HW1 2534   5.654   1.759   1.297
  545SOL    HW2 2535   5.496   1.727   1.326
  546SOL     OW 2536   0.298   4.484   2.360
  546SOL    HW1 2537   0.206   4.470   2.325
  546SOL    HW2 2538   0.360   4.503   2.284
  547SOL     OW 2539   3.387   1.984   0.574
  547SOL    HW1 2540   3.342   1.932   0.502
  547SOL    HW2 2541   3.403   2.078   0.542
  548SOL     OW 2542   3.588   3.080   0.806
  548SOL    HW1 2543   3.501   3.032   0.791
  548SOL    HW2 2544   3.589   3.119   0.898
  549SOL     OW 2545   5.308   2.527   0.689
  549SOL    HW1 2546   5.347   2.603   0.636
  549SOL    HW2 2547   5.379   2.491   0.751
  550SOL     OW 2548   6.972   4.416   3.241
  550SOL    HW1 2549   6.977   4.515   3.228
  550SOL    HW2 2550   0.021   4.386   3.304
  551SOL     OW 2551   6.656   0.962   0.869
  551SOL    HW1 2552   6.616   0.890   0.926
  551SOL    HW2 2553   6.686   0.924   0.782
  552SOL     OW 2554   5.371   5.441   4.929
  552SOL    HW1 2555   5.360   5.517   4.864
  552SOL    HW2 2556   5.390   5.477   5.020
  553SOL     OW 2557   3.535   0.531   4.269
  553SOL    HW1 2558   3.523   0.625   4.238
  553SOL    HW2 2559   3.445   0.490   4.284
  554SOL     OW 2560   5.798   5.693   0.139
  554SOL    HW1 2561   5.802   5.647   0.227
  554SOL    HW2 2562   5.707   5.680   0.099
  555SOL     OW 2563   3.535   5.758   5.547
  555SOL    HW1 2564   3.462   5.826   5.553
  555SOL    HW2 2565   3.551   5.734   5.451
  556SOL     OW 2566   5.281   1.894   4.447
  556SOL    HW1 2567   5.249   1.896   4.542
  556SOL    HW2 2568   5.332   1.810   4.430
  557SOL     OW 2569   6.859   4.382   6.225
  557SOL    HW1 2570   6.875   4.414   6.132
  557SOL    HW2 2571   6.831   4.286   6.222
  558SOL     OW 2572   4.133   3.656   3.395
  558SOL    HW1 2573   4.143   3.637   3.298
  558SOL    HW2 2574   4.106   3.751   3.408
  559SOL     OW 2575   6.495   5.648   5.488
  559SOL    HW1 2576   6.508   5.604   5.577
  559SOL    HW2 2577   6.400   5.637   5.459
  560SOL     OW 2578   6.712   2.934   3.871
  560SOL    HW1 2579   6.636   2.976   3.822
  560SOL    HW2 2580   6.680   2.853   3.920
  561SOL     OW 2581   6.821   3.144   6.335
  561SOL    HW1 2582   6.863   3.054   6.347
  561SOL    HW2 2583   6.782   3.175   6.422
  562SOL     OW 2584   5.269   6.873   5.576
  562SOL    HW1 2585   5.191   6.844   5.520
  562SOL    HW2 2586   5.314   6.951   5.532
  563SOL     OW 2587   1.706   1.739   4.353
  563SOL    HW1 2588   1.746   1.736   4.262
  563SOL    HW2 2589   1.650   1.821   4.363
  564SOL     OW 2590   0.124   1.441   6.760
  564SOL    HW1 2591   0.106   1.426   6.662
  564SOL    HW2 2592   0.039   1.470   6.805
  565SOL     OW 2593   3.329   2.913   4.094
  565SOL    HW1 2594   3.238   2.937   4.059
  565SOL    HW2 2595   3.399   2.947   4.031
  566SOL     OW 2596   2.534   4.920   2.787
  566SOL    HW1 2597   2.553   4.956   2.695
  566SOL    HW2 2598   2.531   4.820   2.783
  567SOL     OW 2599   2.722   2.653   0.478
  567SOL    HW1 2600   2.711   2.731   0.539
  567SOL    HW2 2601   2.636   2.603   0.473
  568SOL     OW 2602   5.441   6.929   0.625
  568SOL    HW1 2603   5.414   7.016   0.666
  568SOL    HW2 2604   5.522   6.942   0.567
  569SOL     OW 2605   1.020   2.472   0.232
  569SOL    HW1 2606   1.089   2.485   0.304
  569SOL    HW2 2607   0.999   2.560   0.190
  570SOL     OW 2608   2.799   0.211   5.953
  570SOL    HW1 2609   2.836   0.303   5.967
  570SOL    HW2 2610   2.827   0.178   5.863
  571SOL     OW 2611   2.551   4.903   3.455
  571SOL    HW1 2612   2.486   4.881   3.382
  571SOL    HW2 2613   2.549   5.001   3.473
  572SOL     OW 2614   1.993   5.613   4.738
  572SOL    HW1 2615   1.957   5.673   4.667
  572SOL    HW2 2616   1.973   5.652   4.829
  573SOL     OW 2617   6.538   1.513   5.214
  573SOL    HW1 2618   6.617   1.548   5.264
  573SOL    HW2 2619   6.460   1.504   5.277
  574SOL     OW 2620   3.438   1.027   4.761
  574SOL    HW1 2621   3.513   0.989   4.706
  574SOL    HW2 2622   3.471   1.105   4.814
  575SOL     OW 2623   4.076   2.723   1.138
  575SOL    HW1 2624   3.978   2.705   1.153
  575SOL    HW2 2625   4.121   2.734   1.226
  576SOL     OW 2626   1.909   2.802   2.616
  576SOL    HW1 2627   2.008   2.794   2.605
  576SOL    HW2 2628   1.884   2.898   2.623
  577SOL     OW 2629   0.780   0.424   2.444
  577SOL    HW1 2630   0.860   0.466   2.401
  577SOL    HW2 2631   0.706   0.417   2.378
  578SOL     OW 2632   1.307   5.594   0.399
  578SOL    HW1 2633   1.320   5.693   0.397
  578SOL    HW2 2634   1.321   5.557   0.307
  579SOL     OW 2635   2.015   4.729   2.535
  579SOL    HW1 2636   1.980   4.646   2.577
  579SOL    HW2 2637   2.113   4.721   2.520
  580SOL     OW 2638   4.512   5.010   5.198
  580SOL    HW1 2639   4.512   5.045   5.291
  580SOL    HW2 2640   4.439   4.943   5.187
  581SOL     OW 2641   0.752   3.385   3.878
  581SOL    HW1 2642   0.712   3.293   3.877
  581SOL    HW2 2643   0.801   3.398   3.965
  582SOL     OW 2644   4.772   5.527   3.545
  582SOL    HW1 2645   4.727   5.576   3.619
  582SOL    HW2 2646   4.809   5.440   3.580
  583SOL     OW 2647   3.257   5.432   5.404
  583SOL    HW1 2648   3.216   5.372   5.473
  583SOL    HW2 2649   3.265   5.384   5.318
  584SOL     OW 2650   3.227   6.855   6.402
  584SOL    HW1 2651   3.243   6.847   6.304
  584SOL    HW2 2652   3.305   6.899   6.445
  585SOL     OW 2653   4.259   0.194   1.282
  585SOL    HW1 2654   4.276   0.129   1.208
  585SOL    HW2 2655   4.164   0.187   1.312
  586SOL     OW 2656   3.549   0.309   1.174
  586SOL    HW1 2657   3.515   0.331   1.082
  586SOL    HW2 2658   3.637   0.262   1.166
  587SOL     OW 2659   5.630   2.110   2.237
  587SOL    HW1 2660   5.575   2.051   2.177
  587SOL    HW2 2661   5.588   2.201   2.242
  588SOL     OW 2662   1.719   5.133   1.087
  588SOL    HW1 2663   1.761   5.093   1.006
  588SOL    HW2 2664   1.773   5.111   1.168
  589SOL     OW 2665   3.099   5.613   1.352
  589SOL    HW1 2666   3.040   5.663   1.416
  589SOL    HW2 2667   3.193   5.614   1.385
  590SOL     OW 2668   5.409   1.454   0.734
  590SOL    HW1 2669   5.350   1.446   0.654
  590SOL    HW2 2670   5.502   1.478   0.705
  591SOL     OW 2671   4.621   5.709   3.702
  591SOL    HW1 2672   4.535   5.663   3.681
  591SOL    HW2 2673   4.608   5.808   3.694
  592SOL     OW 2674   4.944   0.859   3.543
  592SOL    HW1 2675   4.974   0.947   3.505
  592SOL    HW2 2676   4.940   0.865   3.643
  593SOL     OW 2677   4.090   2.020   4.924
  593SOL    HW1 2678   4.186   2.045   4.915
  593SOL    HW2 2679   4.032   2.093   4.889
  594SOL     OW 2680   5.875   1.866   0.931
  594SOL    HW1 2681   5.919   1.797   0.874
  594SOL    HW2 2682   5.832   1.821   1.010
  595SOL     OW 2683   5.326   6.090   3.327
  595SOL    HW1 2684   5.348   6.164   3.390
  595SOL    HW2 2685   5.338   6.002   3.373
  596SOL     OW 2686   7.005   4.936   3.602
  596SOL    HW1 2687   6.934   4.881   3.647
  596SOL    HW2 2688   0.061   4.942   3.661
  597SOL     OW 2689   3.173   0.226   6.080
  597SOL    HW1 2690   3.255   0.197   6.029
  597SOL    HW2 2691   3.201   0.279   6.159
  598SOL     OW 2692   3.122   4.056   4.906
  598SOL    HW1 2693   3.132   4.104   4.993
  598SOL    HW2 2694   3.180   3.975   4.905
  599SOL     OW 2695   2.123   6.708   1.827
  599SOL    HW1 2696   2.089   6.781   1.767
  599SOL    HW2 2697   2.166   6.748   1.908
  600SOL     OW 2698   0.349   3.561   5.633
  600SOL    HW1 2699   0.381   3.655   5.621
  600SOL    HW2 2700   0.253   3.561   5.661
  601SOL     OW 2701   1.820   0.968   5.414
  601SOL    HW1 2702   1.836   0.952   5.316
  601SOL    HW2 2703   1.906   0.960   5.464
  602SOL     OW 2704   3.077   0.501   6.038
  602SOL    HW1 2705   3.114   0.413   6.069
  602SOL    HW2 2706   3.098   0.572   6.105
  603SOL     OW 2707   1.742   1.631   5.354
  603SOL    HW1 2708   1.758   1.534   5.376
  603SOL    HW2 2709   1.739   1.684   5.439
  604SOL     OW 2710   0.343   2.609   1.791
  604SOL    HW1 2711   0.319   2.679   1.858
  604SOL    HW2 2712   0.401   2.649   1.720
  605SOL     OW 2713   0.133   4.841   2.508
  605SOL    HW1 2714   0.228   4.851   2.480
  605SOL    HW2 2715   0.092   4.932   2.520
  606SOL     OW 2716   4.492   6.808   5.103
  606SOL    HW1 2717   4.444   6.725   5.131
  606SOL    HW2 2718   4.437   6.888   5.126
  607SOL     OW 2719   0.554   4.906   5.539
  607SOL    HW1 2720   0.526   4.860   5.455
  607SOL    HW2 2721   0.511   4.996   5.545
  608SOL     OW 2722   3.710   0.161   6.967
  608SOL    HW1 2723   3.776   0.092   6.940
  608SOL    HW2 2724   3.625   0.117   6.995
  609SOL     OW 2725   3.769   2.502   1.720
  609SOL    HW1 2726   3.712   2.585   1.726
  609SOL    HW2 2727   3.725   2.428   1.772
  610SOL     OW 2728   4.129   2.107   0.463
  610SOL    HW1 2729   4.129   2.195   0.416
  610SOL    HW2 2730   4.209   2.100   0.522
  611SOL     OW 2731   4.072   6.982   2.953
  611SOL    HW1 2732   4.169   6.980   2.932
  611SOL    HW2 2733   4.022   0.000   2.877
  612SOL     OW 2734   2.952   4.997   5.201
  612SOL    HW1 2735   2.934   5.050   5.118
  612SOL    HW2 2736   2.871   4.943   5.224
  613SOL     OW 2737   5.443   4.805   4.845
  613SOL    HW1 2738   5.433   4.894   4.800
  613SOL    HW2 2739   5.394   4.807   4.932
  614SOL     OW 2740   4.909   4.846   5.133
  614SOL    HW1 2741   4.970   4.876   5.060
  614SOL    HW2 2742   4.847   4.921   5.157
  615SOL     OW 2743   6.948   3.789   0.570
  615SOL    HW1 2744   6.961   3.747   0.660
  615SOL    HW2 2745   6.851   3.784   0.545
  616SOL     OW 2746   6.421   3.007   2.685
  616SOL    HW1 2747   6.434   3.092   2.633
  616SOL    HW2 2748   6.481   3.007   2.765
  617SOL     OW 2749   1.601   5.117   6.811
  617SOL    HW1 2750   1.699   5.099   6.795
  617SOL    HW2 2751   1.572   5.196   6.757
  618SOL     OW 2752   1.699   2.402   1.591
  618SOL    HW1 2753   1.656   2.423   1.503
  618SOL    HW2 2754   1.701   2.484   1.648
  619SOL     OW 2755   1.595   2.137   1.037
  619SOL    HW1 2756   1.651   2.127   0.956
  619SOL    HW2 2757   1.654   2.145   1.118
  620SOL     OW 2758   4.313   1.838   0.690
  620SOL    HW1 2759   4.313   1.923   0.638
  620SOL    HW2 2760   4.258   1.849   0.772
  621SOL     OW 2761   5.929   4.997   6.491
  621SOL    HW1 2762   5.909   5.062   6.418
  621SOL    HW2 2763   5.993   5.038   6.556
  622SOL     OW 2764   1.897   1.231   0.243
  622SOL    HW1 2765   1.943   1.293   0.306
  622SOL    HW2 2766   1.851   1.159   0.296
  623SOL     OW 2767   0.462   6.204   5.580
  623SOL    HW1 2768   0.537   6.139   5.588
  623SOL    HW2 2769   0.498   6.297   5.582
  624SOL     OW 2770   0.471   2.903   2.478
  624SOL    HW1 2771   0.563   2.882   2.510
  624SOL    HW2 2772   0.414   2.930   2.556
  625SOL     OW 2773   3.027   2.141   1.597
  625SOL    HW1 2774   3.097   2.143   1.668
  625SOL    HW2 2775   2.999   2.235   1.576
  626SOL     OW 2776   2.119   5.859   3.638
  626SOL    HW1 2777   2.087   5.842   3.544
  626SOL    HW2 2778   2.118   5.773   3.689
  627SOL     OW 2779   5.357   0.308   0.353
  627SOL    HW1 2780   5.407   0.330   0.437
  627SOL    HW2 2781   5.321   0.393   0.313
  628SOL     OW 2782   4.704   4.868   4.762
  628SOL    HW1 2783   4.786   4.925   4.767
  628SOL    HW2 2784   4.724   4.786   4.708
  629SOL     OW 2785   0.442   0.219   1.249
  629SOL    HW1 2786   0.379   0.244   1.323
  629SOL    HW2 2787   0.434   0.121   1.231
  630SOL     OW 2788   5.201   2.641   2.197
  630SOL    HW1 2789   5.148   2.725   2.213
  630SOL    HW2 2790   5.167   2.569   2.258
  631SOL     OW 2791   3.238   0.640   4.944
  631SOL    HW1 2792   3.186   0.561   4.912
  631SOL    HW2 2793   3.277   0.620   5.034
  632SOL     OW 2794   2.258   1.154   0.427
  632SOL    HW1 2795   2.343   1.122   0.467
  632SOL    HW2 2796   2.242   1.109   0.339
  633SOL     OW 2797   3.195   5.372   0.198
  633SOL    HW1 2798   3.181   5.323   0.285
  633SOL    HW2 2799   3.292   5.394   0.188
  634SOL     OW 2800   4.574   4.687   1.775
  634SOL    HW1 2801   4.539   4.778   1.796
  634SOL    HW2 2802   4.504   4.618   1.794
  635SOL     OW 2803   4.727   6.435   3.277
  635SOL    HW1 2804   4.743   6.475   3.367
  635SOL    HW2 2805   4.752   6.338   3.279
  636SOL     OW 2806   5.191   5.577   6.531
  636SOL    HW1 2807   5.255   5.500   6.542
  636SOL    HW2 2808   5.202   5.641   6.606
  637SOL     OW 2809   5.437   5.085   2.153
  637SOL    HW1 2810   5.443   5.157   2.084
  637SOL    HW2 2811   5.444   4.996   2.108
  638SOL     OW 2812   5.099   1.250   2.451
  638SOL    HW1 2813   5.052   1.308   2.518
  638SOL    HW2 2814   5.076   1.281   2.359
  639SOL     OW 2815   4.787   5.028   2.454
  639SOL    HW1 2816   4.747   5.115   2.424
  639SOL    HW2 2817   4.799   4.968   2.374
  640SOL     OW 2818   2.610   4.273   5.912
  640SOL    HW1 2819   2.549   4.208   5.866
  640SOL    HW2 2820   2.689   4.292   5.853
  641SOL     OW 2821   0.775   5.359   4.203
  641SOL    HW1 2822   0.679   5.329   4.209
  641SOL    HW2 2823   0.811   5.375   4.295
  642SOL     OW 2824   0.347   3.940   4.055
  642SOL    HW1 2825   0.366   4.030   4.096
  642SOL    HW2 2826   0.419   3.876   4.083
  643SOL     OW 2827   6.078   5.781   4.589
  643SOL    HW1 2828   5.984   5.814   4.577
  643SOL    HW2 2829   6.123   5.777   4.500
  644SOL     OW 2830   0.779   6.107   2.770
  644SOL    HW1 2831   0.789   6.065   2.679
  644SOL    HW2 2832   0.704   6.173   2.767
  645SOL     OW 2833   4.699   2.530   4.715
  645SOL    HW1 2834   4.727   2.435   4.698
  645SOL    HW2 2835   4.630   2.532   4.787
  646SOL     OW 2836   1.801   2.038   3.418
  646SOL    HW1 2837   1.741   1.960   3.405
  646SOL    HW2 2838   1.803   2.093   3.334
  647SOL     OW 2839   5.756   2.983   6.704
  647SOL    HW1 2840   5.778   2.953   6.611
  647SOL    HW2 2841   5.838   2.975   6.762
  648SOL     OW 2842   6.008   3.557   2.725
  648SOL    HW1 2843   5.989   3.530   2.819
  648SOL    HW2 2844   6.059   3.643   2.723
  649SOL     OW 2845   4.210   4.227   0.506
  649SOL    HW1 2846   4.304   4.201   0.528
  649SOL    HW2 2847   4.153   4.221   0.588
  650SOL     OW 2848   4.639   4.543   0.614
  650SOL    HW1 2849   4.598   4.518   0.702
  650SOL    HW2 2850   4.589   4.497   0.540
  651SOL     OW 2851   0.570   6.070   0.899
  651SOL    HW1 2852   0.491   6.041   0.953
  651SOL    HW2 2853   0.654   6.051   0.949
  652SOL     OW 2854   5.023   6.608   3.621
  652SOL    HW1 2855   4.926   6.601   3.601
  652SOL    HW2 2856   5.076   6.586   3.538
  653SOL     OW 2857   3.576   5.226   5.235
  653SOL    HW1 2858   3.520   5.217   5.317
  653SOL    HW2 2859   3.545   5.161   5.165
  654SOL     OW 2860   6.739   5.079   6.073
  654SOL    HW1 2861   6.706   5.048   6.162
  654SOL    HW2 2862   6.795   5.161   6.085
  655SOL     OW 2863   0.895   6.974   1.937
  655SOL    HW1 2864   0.859   6.941   2.024
  655SOL    HW2 2865   0.927   0.045   1.947
  656SOL     OW 2866   2.232   6.007   1.789
  656SOL    HW1 2867   2.227   6.103   1.761
  656SOL    HW2 2868   2.306   5.996   1.856
  657SOL     OW 2869   1.980   2.020   1.529
  657SOL    HW1 2870   2.077   2.044   1.519
  657SOL    HW2 2871   1.930   2.097   1.567
  658SOL     OW 2872   3.195   3.200   6.833
  658SOL    HW1 2873   3.244   3.220   6.918
  658SOL    HW2 2874   3.110   3.253   6.831
  659SOL     OW 2875   3.211   6.475   6.223
  659SOL    HW1 2876   3.179   6.564   6.190
  659SOL    HW2 2877   3.137   6.408   6.217
  660SOL     OW 2878   3.896   5.861   1.699
  660SOL    HW1 2879   3.842   5.942   1.675
  660SOL    HW2 2880   3.835   5.782   1.707
  661SOL     OW 2881   4.361   5.915   3.624
  661SOL    HW1 2882   4.264   5.911   3.599
  661SOL    HW2 2883   4.369   5.944   3.719
  662SOL     OW 2884   3.447   0.605   5.146
  662SOL    HW1 2885   3.508   0.679   5.120
  662SOL    HW2 2886   3.469   0.575   5.239
  663SOL     OW 2887   2.236   3.825   5.516
  663SOL    HW1 2888   2.216   3.800   5.421
  663SOL    HW2 2889   2.222   3.745   5.575
  664SOL     OW 2890   6.864   6.293   6.279
  664SOL    HW1 2891   6.851   6.345   6.194
  664SOL    HW2 2892   6.891   6.355   6.352
  665SOL     OW 2893   3.439   5.266   2.953
  665SOL    HW1 2894   3.503   5.213   3.009
  665SOL    HW2 2895   3.387   5.203   2.895
  666SOL     OW 2896   4.446   0.623   2.249
  666SOL    HW1 2897   4.529   0.608   2.194
  666SOL    HW2 2898   4.404   0.709   2.222
  667SOL     OW 2899   0.675   5.340   1.595
  667SOL    HW1 2900   0.727   5.269   1.643
  667SOL    HW2 2901   0.655   5.309   1.502
  668SOL     OW 2902   5.160   6.010   5.815
  668SOL    HW1 2903   5.196   6.090   5.864
  668SOL    HW2 2904   5.132   5.941   5.881
  669SOL     OW 2905   5.812   0.912   3.177
  669SOL    HW1 2906   5.751   0.967   3.233
  669SOL    HW2 2907   5.846   0.967   3.101
  670SOL     OW 2908   2.598   1.734   2.372
  670SOL    HW1 2909   2.513   1.763   2.416
  670SOL    HW2 2910   2.664   1.809   2.374
  671SOL     OW 2911   3.705   6.039   1.361
  671SOL    HW1 2912   3.627   6.101   1.367
  671SOL    HW2 2913   3.753   6.052   1.274
  672SOL     OW 2914   6.795   5.111   1.951
  672SOL    HW1 2915   6.737   5.176   2.000
  672SOL    HW2 2916   6.758   5.018   1.961
  673SOL     OW 2917   5.723   0.321   1.033
  673SOL    HW1 2918   5.767   0.268   0.960
  673SOL    HW2 2919   5.754   0.287   1.122
  674SOL     OW 2920   0.777   1.921   4.899
  674SOL    HW1 2921   0.811   1.832   4.929
  674SOL    HW2 2922   0.853   1.979   4.870
  675SOL     OW 2923   5.847   2.413   2.358
  675SOL    HW1 2924   5.919   2.483   2.361
  675SOL    HW2 2925   5.886   2.327   2.326
  676SOL     OW 2926   2.182   4.861   4.548
  676SOL    HW1 2927   2.135   4.779   4.580
  676SOL    HW2 2928   2.238   4.839   4.468
  677SOL     OW 2929   5.227   0.940   1.639
  677SOL    HW1 2930   5.323   0.917   1.657
  677SOL    HW2 2931   5.174   0.855   1.628
  678SOL     OW 2932   2.427   4.894   4.728
  678SOL    HW1 2933   2.347   4.888   4.669
  678SOL    HW2 2934   2.499   4.833   4.693
  679SOL     OW 2935   5.292   1.490   4.917
  679SOL    HW1 2936   5.280   1.433   4.835
  679SOL    HW2 2937   5.386   1.482   4.949
  680SOL     OW 2938   4.642   5.970   4.327
  680SOL    HW1 2939   4.558   5.918   4.335
  680SOL    HW2 2940   4.628   6.063   4.359
  681SOL     OW 2941   4.274   5.985   2.120
  681SOL    HW1 2942   4.228   5.983   2.032
  681SOL    HW2 2943   4.247   5.905   2.174
  682SOL     OW 2944   6.457   1.382   1.504
  682SOL    HW1 2945   6.532   1.377   1.571
  682SOL    HW2 2946   6.429   1.477   1.493
  683SOL     OW 2947   4.703   2.912   0.589
  683SOL    HW1 2948   4.622   2.958   0.554
  683SOL    HW2 2949   4.677   2.850   0.663
  684SOL     OW 2950   5.933   1.112   6.985
  684SOL    HW1 2951   5.979   1.031   7.020
  684SOL    HW2 2952   5.924   1.106   6.886
  685SOL     OW 2953   2.866   2.318   3.722
  685SOL    HW1 2954   2.915   2.291   3.805
  685SOL    HW2 2955   2.928   2.310   3.643
  686SOL     OW 2956   4.610   1.346   4.538
  686SOL    HW1 2957   4.525   1.326   4.586
  686SOL    HW2 2958   4.660   1.417   4.587
  687SOL     OW 2959   0.822   1.941   4.514
  687SOL    HW1 2960   0.889   1.894   4.572
  687SOL    HW2 2961   0.784   1.876   4.449
  688SOL     OW 2962   0.107   1.252   5.862
  688SOL    HW1 2963   0.182   1.316   5.877
  688SOL    HW2 2964   0.056   1.278   5.780
  689SOL     OW 2965   2.313   4.552   6.101
  689SOL    HW1 2966   2.321   4.506   6.013
  689SOL    HW2 2967   2.223   4.597   6.108
  690SOL     OW 2968   6.918   3.977   3.726
  690SOL    HW1 2969   6.889   3.884   3.705
  690SOL    HW2 2970   6.930   4.028   3.641
  691SOL     OW 2971   3.360   1.513   1.051
  691SOL    HW1 2972   3.306   1.475   1.125
  691SOL    HW2 2973   3.343   1.462   0.967
  692SOL     OW 2974   3.937   1.699   5.308
  692SOL    HW1 2975   3.952   1.744   5.396
  692SOL    HW2 2976   4.013   1.637   5.289
  693SOL     OW 2977   5.177   6.616   3.958
  693SOL    HW1 2978   5.107   6.545   3.953
  693SOL    HW2 2979   5.155   6.690   3.894
  694SOL     OW 2980   4.279   5.709   4.111
  694SOL    HW1 2981   4.313   5.766   4.186
  694SOL    HW2 2982   4.179   5.704   4.116
  695SOL     OW 2983   3.505   5.677   4.159
  695SOL    HW1 2984   3.441   5.604   4.136
  695SOL    HW2 2985   3.491   5.706   4.253
  696SOL     OW 2986   5.078   4.185   3.565
  696SOL    HW1 2987   5.052   4.263   3.621
  696SOL    HW2 2988   5.005   4.116   3.567
  697SOL     OW 2989   1.340   3.133   2.523
  697SOL    HW1 2990   1.409   3.201   2.546
  697SOL    HW2 2991   1.364   3.045   2.565
  698SOL     OW 2992   4.935   6.267   0.982
  698SOL    HW1 2993   4.997   6.254   0.905
  698SOL    HW2 2994   4.983   6.244   1.067
  699SOL     OW 2995   2.173   3.246   6.692
  699SOL    HW1 2996   2.173   3.344   6.677
  699SOL    HW2 2997   2.088   3.218   6.737
  700SOL     OW 2998   3.519   0.165   1.963
  700SOL    HW1 2999   3.485   0.125   2.048
  700SOL    HW2 3000   3.442   0.200   1.909
  701SOL     OW 3001   6.884   4.474   0.635
  701SOL    HW1 3002   6.831   4.406   0.585
  701SOL    HW2 3003   6.925   4.432   0.716
  702SOL     OW 3004   2.040   0.107   4.051
  702SOL    HW1 3005   2.108   0.037   4.030
  702SOL    HW2 3006   2.073   0.196   4.019
  703SOL     OW 3007   3.344   3.495   5.579
  703SOL    HW1 3008   3.335   3.452   5.490
  703SOL    HW2 3009   3.270   3.464   5.639
  704SOL     OW 3010   2.222   2.313   6.239
  704SOL    HW1 3011   2.298   2.317   6.174
  704SOL    HW2 3012   2.255   2.277   6.327
  705SOL     OW 3013   6.389   5.846   3.251
  705SOL    HW1 3014   6.345   5.797   3.326
  705SOL    HW2 3015   6.420   5.935   3.283
  706SOL     OW 3016   4.367   1.696   5.489
  706SOL    HW1 3017   4.408   1.658   5.572
  706SOL    HW2 3018   4.385   1.636   5.412
  707SOL     OW 3019   3.861   5.201   3.432
  707SOL    HW1 3020   3.921   5.251   3.370
  707SOL    HW2 3021   3.821   5.122   3.384
  708SOL     OW 3022   2.570   1.840   3.462
  708SOL    HW1 3023   2.549   1.747   3.490
  708SOL    HW2 3024   2.667   1.859   3.478
  709SOL     OW 3025   1.055   6.597   1.220
  709SOL    HW1 3026   1.097   6.685   1.200
  709SOL    HW2 3027   1.062   6.538   1.139
  710SOL     OW 3028   5.043   2.677   1.792
  710SOL    HW1 3029   5.043   2.593   1.847
  710SOL    HW2 3030   5.052   2.756   1.853
  711SOL     OW 3031   0.041   2.670   6.476
  711SOL    HW1 3032   6.969   2.658   6.452
  711SOL    HW2 3033   0.052   2.659   6.575
  712SOL     OW 3034   5.080   2.080   0.953
  712SOL    HW1 3035   5.099   2.059   0.857
  712SOL    HW2 3036   4.999   2.029   0.982
  713SOL     OW 3037   4.203   2.767   5.327
  713SOL    HW1 3038   4.122   2.824   5.323
  713SOL    HW2 3039   4.185   2.679   5.282
  714SOL     OW 3040   5.563   5.455   4.136
  714SOL    HW1 3041   5.522   5.376   4.090
  714SOL    HW2 3042   5.503   5.485   4.210
  715SOL     OW 3043   6.452   5.517   5.744
  715SOL    HW1 3044   6.425   5.431   5.789
  715SOL    HW2 3045   6.397   5.592   5.780
  716SOL     OW 3046   1.859   1.185   3.351
  716SOL    HW1 3047   1.942   1.187   3.406
  716SOL    HW2 3048   1.851   1.096   3.306
  717SOL     OW 3049   6.177   4.538   3.998
  717SOL    HW1 3050   6.274   4.522   4.013
  717SOL    HW2 3051   6.165   4.626   3.950
  718SOL     OW 3052   4.812   3.162   5.204
  718SOL    HW1 3053   4.863   3.076   5.199
  718SOL    HW2 3054   4.719   3.144   5.235
  719SOL     OW 3055   5.614   0.146   2.325
  719SOL    HW1 3056   5.679   0.133   2.400
  719SOL    HW2 3057   5.660   0.132   2.238
  720SOL     OW 3058   2.526   0.428   6.033
  720SOL    HW1 3059   2.479   0.408   6.119
  720SOL    HW2 3060   2.622   0.447   6.050
  721SOL     OW 3061   1.449   1.500   2.037
  721SOL    HW1 3062   1.404   1.572   1.983
  721SOL    HW2 3063   1.547   1.519   2.043
  722SOL     OW 3064   3.123   0.688   6.228
  722SOL    HW1 3065   3.039   0.743   6.232
  722SOL    HW2 3066   3.144   0.652   6.318
  723SOL     OW 3067   1.700   6.251   3.555
  723SOL    HW1 3068   1.638   6.176   3.532
  723SOL    HW2 3069   1.686   6.327   3.491
  724SOL     OW 3070   0.366   1.355   4.137
  724SOL    HW1 3071   0.271   1.379   4.116
  724SOL    HW2 3072   0.424   1.436   4.130
  725SOL     OW 3073   2.131   4.448   2.483
  725SOL    HW1 3074   2.073   4.470   2.562
  725SOL    HW2 3075   2.225   4.475   2.503
  726SOL     OW 3076   2.380   4.915   0.781
  726SOL    HW1 3077   2.434   4.863   0.715
  726SOL    HW2 3078   2.391   4.876   0.872
  727SOL     OW 3079   4.711   5.387   6.342
  727SOL    HW1 3080   4.801   5.410   6.379
  727SOL    HW2 3081   4.721   5.325   6.265
  728SOL     OW 3082   6.751   3.105   4.337
  728SOL    HW1 3083   6.725   3.081   4.430
  728SOL    HW2 3084   6.670   3.128   4.284
  729SOL     OW 3085   0.234   2.948   1.476
  729SOL    HW1 3086   0.185   2.962   1.562
  729SOL    HW2 3087   0.185   2.993   1.402
  730SOL     OW 3088   5.593   1.037   3.323
  730SOL    HW1 3089   5.533   1.030   3.243
  730SOL    HW2 3090   5.548   1.093   3.393
  731SOL     OW 3091   5.026   4.643   6.747
  731SOL    HW1 3092   5.048   4.636   6.650
  731SOL    HW2 3093   4.989   4.734   6.767
  732SOL     OW 3094   5.573   2.407   2.342
  732SOL    HW1 3095   5.552   2.478   2.275
  732SOL    HW2 3096   5.672   2.399   2.353
  733SOL     OW 3097   5.817   0.766   4.221
  733SOL    HW1 3098   5.759   0.791   4.144
  733SOL    HW2 3099   5.869   0.684   4.198
  734SOL     OW 3100   6.032   4.879   2.899
  734SOL    HW1 3101   6.011   4.788   2.864
  734SOL    HW2 3102   6.024   4.879   2.999
  735SOL     OW 3103   4.605   0.986   1.302
  735SOL    HW1 3104   4.678   0.953   1.362
  735SOL    HW2 3105   4.526   1.013   1.358
  736SOL     OW 3106   1.280   1.834   3.759
  736SOL    HW1 3107   1.296   1.760   3.694
  736SOL    HW2 3108   1.189   1.825   3.799
  737SOL     OW 3109   5.853   1.583   5.946
  737SOL    HW1 3110   5.855   1.629   6.035
  737SOL    HW2 3111   5.917   1.507   5.946
  738SOL     OW 3112   2.475   4.207   1.446
  738SOL    HW1 3113   2.468   4.225   1.544
  738SOL    HW2 3114   2.553   4.147   1.429
  739SOL     OW 3115   3.412   0.360   5.007
  739SOL    HW1 3116   3.497   0.309   4.992
  739SOL    HW2 3117   3.433   0.447   5.052
  740SOL     OW 3118   6.208   1.709   2.800
  740SOL    HW1 3119   6.202   1.689   2.702
  740SOL    HW2 3120   6.117   1.720   2.838
  741SOL     OW 3121   1.691   0.762   4.678
  741SOL    HW1 3122   1.768   0.752   4.616
  741SOL    HW2 3123   1.671   0.860   4.691
  742SOL     OW 3124   2.311   5.823   1.408
  742SOL    HW1 3125   2.255   5.823   1.491
  742SOL    HW2 3126   2.258   5.784   1.332
  743SOL     OW 3127   0.150   6.163   2.904
  743SOL    HW1 3128   0.179   6.233   2.970
  743SOL    HW2 3129   0.229   6.111   2.873
  744SOL     OW 3130   6.248   1.045   0.331
  744SOL    HW1 3131   6.238   1.122   0.395
  744SOL    HW2 3132   6.306   1.073   0.254
  745SOL     OW 3133   2.286   5.893   5.147
  745SOL    HW1 3134   2.274   5.848   5.058
  745SOL    HW2 3135   2.364   5.955   5.143
  746SOL     OW 3136   6.023   4.778   5.582
  746SOL    HW1 3137   6.087   4.703   5.597
  746SOL    HW2 3138   5.972   4.761   5.497
  747SOL     OW 3139   5.256   5.978   4.309
  747SOL    HW1 3140   5.195   6.050   4.341
  747SOL    HW2 3141   5.320   6.016   4.242
  748SOL     OW 3142   5.080   5.380   2.480
  748SOL    HW1 3143   5.000   5.428   2.517
  748SOL    HW2 3144   5.058   5.343   2.390
  749SOL     OW 3145   5.573   3.782   3.750
  749SOL    HW1 3146   5.631   3.738   3.818
  749SOL    HW2 3147   5.588   3.739   3.661
  750SOL     OW 3148   3.460   0.760   1.260
  750SOL    HW1 3149   3.413   0.701   1.325
  750SOL    HW2 3150   3.397   0.788   1.188
  751SOL     OW 3151   5.106   1.563   1.391
  751SOL    HW1 3152   5.079   1.468   1.406
  751SOL    HW2 3153   5.080   1.591   1.299
  752SOL     OW 3154   3.203   2.406   6.471
  752SOL    HW1 3155   3.220   2.330   6.534
  752SOL    HW2 3156   3.133   2.466   6.508
  753SOL     OW 3157   3.140   3.389   5.720
  753SOL    HW1 3158   3.081   3.312   5.697
  753SOL    HW2 3159   3.109   3.429   5.806
  754SOL     OW 3160   4.194   1.195   0.210
  754SOL    HW1 3161   4.265   1.145   0.260
  754SOL    HW2 3162   4.107   1.146   0.217
  755SOL     OW 3163   2.853   4.548   5.470
  755SOL    HW1 3164   2.754   4.558   5.459
  755SOL    HW2 3165   2.896   4.543   5.380
  756SOL     OW 3166   3.203   4.480   0.168
  756SOL    HW1 3167   3.246   4.515   0.085
  756SOL    HW2 3168   3.181   4.383   0.157
  757SOL     OW 3169   1.991   6.733   2.404
  757SOL    HW1 3170   2.042   6.767   2.325
  757SOL    HW2 3171   1.900   6.773   2.405
  758SOL     OW 3172   3.459   1.310   4.118
  758SOL    HW1 3173   3.388   1.368   4.157
  758SOL    HW2 3174   3.481   1.341   4.026
  759SOL     OW 3175   6.986   2.569   3.184
  759SOL    HW1 3176   0.008   2.659   3.185
  759SOL    HW2 3177   0.011   2.508   3.121
  760SOL     OW 3178   6.047   6.698   4.072
  760SOL    HW1 3179   6.085   6.649   4.151
  760SOL    HW2 3180   6.121   6.744   4.024
  761SOL     OW 3181   5.829   4.648   5.845
  761SOL    HW1 3182   5.898   4.578   5.864
  761SOL    HW2 3183   5.870   4.739   5.853
  762SOL     OW 3184   2.316   6.805   5.750
  762SOL    HW1 3185   2.289   6.878   5.812
  762SOL    HW2 3186   2.254   6.803   5.671
  763SOL     OW 3187   5.007   0.140   6.387
  763SOL    HW1 3188   4.971   0.204   6.320
  763SOL    HW2 3189   4.983   0.046   6.361
  764SOL     OW 3190   6.109   1.223   5.099
  764SOL    HW1 3191   6.120   1.210   5.000
  764SOL    HW2 3192   6.093   1.320   5.118
  765SOL     OW 3193   1.319   6.281   0.303
  765SOL    HW1 3194   1.356   6.243   0.388
  765SOL    HW2 3195   1.326   6.214   0.230
  766SOL     OW 3196   2.885   1.978   5.118
  766SOL    HW1 3197   2.925   1.950   5.205
  766SOL    HW2 3198   2.890   2.077   5.109
  767SOL     OW 3199   6.338   6.421   3.792
  767SOL    HW1 3200   6.251   6.467   3.804
  767SOL    HW2 3201   6.394   6.434   3.874
  768SOL     OW 3202   2.234   6.720   3.222
  768SOL    HW1 3203   2.139   6.741   3.245
  768SOL    HW2 3204   2.272   6.794   3.167
  769SOL     OW 3205   3.509   1.531   5.093
  769SOL    HW1 3206   3.562   1.572   5.167
  769SOL    HW2 3207   3.516   1.589   5.011
  770SOL     OW 3208   2.356   4.701   4.417
  770SOL    HW1 3209   2.362   4.674   4.321
  770SOL    HW2 3210   2.418   4.645   4.472
  771SOL     OW 3211   1.415   5.344   3.423
  771SOL    HW1 3212   1.358   5.408   3.475
  771SOL    HW2 3213   1.473   5.293   3.486
  772SOL     OW 3214   5.495   4.902   5.738
  772SOL    HW1 3215   5.582   4.937   5.704
  772SOL    HW2 3216   5.509   4.813   5.782
  773SOL     OW 3217   1.321   3.968   2.873
  773SOL    HW1 3218   1.306   4.038   2.942
  773SOL    HW2 3219   1.354   4.010   2.789
  774SOL     OW 3220   2.687   1.314   2.959
  774SOL    HW1 3221   2.683   1.406   2.922
  774SOL    HW2 3222   2.768   1.304   3.016
  775SOL     OW 3223   1.837   2.642   4.375
  775SOL    HW1 3224   1.869   2.547   4.375
  775SOL    HW2 3225   1.916   2.703   4.362
  776SOL     OW 3226   6.978   0.177   6.827
  776SOL    HW1 3227   6.879   0.166   6.834
  776SOL    HW2 3228   7.023   0.095   6.863
  777SOL     OW 3229   1.478   3.401   1.016
  777SOL    HW1 3230   1.453   3.354   1.101
  777SOL    HW2 3231   1.577   3.409   1.010
  778SOL     OW 3232   2.546   0.220   1.434
  778SOL    HW1 3233   2.463   0.248   1.482
  778SOL    HW2 3234   2.626   0.240   1.490
  779SOL     OW 3235   0.143   2.502   1.662
  779SOL    HW1 3236   0.121   2.555   1.580
  779SOL    HW2 3237   0.223   2.543   1.707
  780SOL     OW 3238   1.190   2.826   4.493
  780SOL    HW1 3239   1.124   2.786   4.430
  780SOL    HW2 3240   1.282   2.821   4.454
  781SOL     OW 3241   6.653   4.998   6.596
  781SOL    HW1 3242   6.682   4.923   6.655
  781SOL    HW2 3243   6.583   5.052   6.643
  782SOL     OW 3244   2.189   4.092   5.609
  782SOL    HW1 3245   2.250   4.015   5.588
  782SOL    HW2 3246   2.097   4.071   5.577
  783SOL     OW 3247   5.484   5.504   0.326
  783SOL    HW1 3248   5.478   5.588   0.271
  783SOL    HW2 3249   5.470   5.527   0.422
  784SOL     OW 3250   2.691   5.593   2.313
  784SOL    HW1 3251   2.660   5.564   2.223
  784SOL    HW2 3252   2.611   5.613   2.371
  785SOL     OW 3253   0.270   1.238   3.825
  785SOL    HW1 3254   0.273   1.333   3.857
  785SOL    HW2 3255   0.363   1.207   3.803
  786SOL     OW 3256   6.663   1.085   2.942
  786SOL    HW1 3257   6.649   1.076   2.843
  786SOL    HW2 3258   6.704   1.174   2.962
  787SOL     OW 3259   2.284   0.124   0.202
  787SOL    HW1 3260   2.369   0.175   0.220
  787SOL    HW2 3261   2.272   0.054   0.271
  788SOL     OW 3262   3.979   2.683   1.682
  788SOL    HW1 3263   4.078   2.670   1.679
  788SOL    HW2 3264   3.933   2.594   1.675
  789SOL     OW 3265   4.302   5.500   2.355
  789SOL    HW1 3266   4.260   5.560   2.287
  789SOL    HW2 3267   4.230   5.453   2.406
  790SOL     OW 3268   1.733   1.566   2.037
  790SOL    HW1 3269   1.815   1.518   2.006
  790SOL    HW2 3270   1.756   1.624   2.115
  791SOL     OW 3271   2.589   6.382   5.538
  791SOL    HW1 3272   2.608   6.337   5.626
  791SOL    HW2 3273   2.525   6.457   5.553
  792SOL     OW 3274   0.833   1.126   1.019
  792SOL    HW1 3275   0.837   1.028   1.000
  792SOL    HW2 3276   0.838   1.141   1.118
  793SOL     OW 3277   4.911   5.957   5.022
  793SOL    HW1 3278   4.966   5.938   4.941
  793SOL    HW2 3279   4.817   5.978   4.994
  794SOL     OW 3280   3.568   3.405   5.049
  794SOL    HW1 3281   3.624   3.417   5.132
  794SOL    HW2 3282   3.581   3.313   5.013
  795SOL     OW 3283   3.931   0.471   6.000
  795SOL    HW1 3284   3.961   0.388   5.951
  795SOL    HW2 3285   3.858   0.515   5.948
  796SOL     OW 3286   2.189   2.830   6.829
  796SOL    HW1 3287   2.159   2.742   6.866
  796SOL    HW2 3288   2.219   2.889   6.903
  797SOL     OW 3289   3.844   0.029   0.918
  797SOL    HW1 3290   3.882   0.107   0.868
  797SOL    HW2 3291   3.750   0.013   0.887
  798SOL     OW 3292   3.231   6.217   1.436
  798SOL    HW1 3293   3.329   6.206   1.420
  798SOL    HW2 3294   3.200   6.306   1.401
  799SOL     OW 3295   0.017   1.729   6.186
  799SOL    HW1 3296   6.995   1.807   6.229
  799SOL    HW2 3297   7.021   1.646   6.238
  800SOL     OW 3298   0.114   1.678   2.115
  800SOL    HW1 3299   0.121   1.763   2.063
  800SOL    HW2 3300   0.038   1.623   2.079
  801SOL     OW 3301   1.959   4.805   5.260
  801SOL    HW1 3302   1.984   4.712   5.285
  801SOL    HW2 3303   1.862   4.820   5.276
  802SOL     OW 3304   4.194   2.204   6.419
  802SOL    HW1 3305   4.215   2.302   6.421
  802SOL    HW2 3306   4.220   2.163   6.507
  803SOL     OW 3307   2.369   0.287   5.862
  803SOL    HW1 3308   2.418   0.290   5.775
  803SOL    HW2 3309   2.425   0.329   5.934
  804SOL     OW 3310   6.412   6.421   1.664
  804SOL    HW1 3311   6.510   6.434   1.679
  804SOL    HW2 3312   6.397   6.339   1.609
  805SOL     OW 3313   1.875   0.042   3.799
  805SOL    HW1 3314   1.945   0.077   3.737
  805SOL    HW2 3315   1.906   6.978   3.838
  806SOL     OW 3316   0.162   0.642   5.633
  806SOL    HW1 3317   0.127   0.634   5.540
  806SOL    HW2 3318   0.262   0.638   5.631
  807SOL     OW 3319   0.726   6.948   4.322
  807SOL    HW1 3320   0.708   6.859   4.364
  807SOL    HW2 3321   0.821   6.951   4.288
  808SOL     OW 3322   5.868   3.169   0.341
  808SOL    HW1 3323   5.891   3.082   0.385
  808SOL    HW2 3324   5.771   3.189   0.354
  809SOL     OW 3325   0.774   5.089   0.028
  809SOL    HW1 3326   0.767   5.134   6.963
  809SOL    HW2 3327   0.825   5.148   0.091
  810SOL     OW 3328   2.725   3.577   0.558
  810SOL    HW1 3329   2.754   3.619   0.644
  810SOL    HW2 3330   2.799   3.519   0.523
  811SOL     OW 3331   5.713   5.117   4.643
  811SOL    HW1 3332   5.776   5.189   4.673
  811SOL    HW2 3333   5.621   5.156   4.631
  812SOL     OW 3334   0.369   2.407   2.765
  812SOL    HW1 3335   0.359   2.496   2.809
  812SOL    HW2 3336   0.280   2.361   2.761
  813SOL     OW 3337   2.634   0.375   4.099
  813SOL    HW1 3338   2.540   0.360   4.127
  813SOL    HW2 3339   2.661   0.305   4.032
  814SOL     OW 3340   6.695   5.857   2.067
  814SOL    HW1 3341   6.793   5.872   2.080
  814SOL    HW2 3342   6.654   5.937   2.023
  815SOL     OW 3343   5.186   2.821   3.823
  815SOL    HW1 3344   5.153   2.739   3.870
  815SOL    HW2 3345   5.268   2.855   3.868
  816SOL     OW 3346   4.604   4.363   0.364
  816SOL    HW1 3347   4.539   4.422   0.318
  816SOL    HW2 3348   4.697   4.387   0.336
  817SOL     OW 3349   1.074   5.183   1.451
  817SOL    HW1 3350   0.999   5.143   1.399
  817SOL    HW2 3351   1.160   5.170   1.402
  818SOL     OW 3352   5.542   2.686   3.887
  818SOL    HW1 3353   5.566   2.691   3.790
  818SOL    HW2 3354   5.490   2.602   3.904
  819SOL     OW 3355   5.563   2.757   1.566
  819SOL    HW1 3356   5.646   2.726   1.613
  819SOL    HW2 3357   5.495   2.684   1.568
  820SOL     OW 3358   3.269   2.146   4.459
  820SOL    HW1 3359   3.185   2.200   4.450
  820SOL    HW2 3360   3.301   2.150   4.554
  821SOL     OW 3361   5.783   5.020   4.887
  821SOL    HW1 3362   5.860   4.967   4.923
  821SOL    HW2 3363   5.769   4.997   4.791
  822SOL     OW 3364   0.332   4.629   3.451
  822SOL    HW1 3365   0.302   4.585   3.366
  822SOL    HW2 3366   0.405   4.695   3.430
  823SOL     OW 3367   0.073   3.916   5.797
  823SOL    HW1 3368   0.102   3.976   5.723
  823SOL    HW2 3369   0.037   3.971   5.872
  824SOL     OW 3370   5.814   1.126   5.203
  824SOL    HW1 3371   5.848   1.033   5.214
  824SOL    HW2 3372   5.819   1.152   5.107
  825SOL     OW 3373   6.508   5.887   0.630
  825SOL    HW1 3374   6.484   5.836   0.547
  825SOL    HW2 3375   6.425   5.923   0.672
  826SOL     OW 3376   3.836   2.360   6.201
  826SOL    HW1 3377   3.840   2.320   6.110
  826SOL    HW2 3378   3.803   2.291   6.266
  827SOL     OW 3379   2.883   4.279   5.318
  827SOL    HW1 3380   2.802   4.290   5.376
  827SOL    HW2 3381   2.896   4.362   5.263
  828SOL     OW 3382   6.332   5.350   5.200
  828SOL    HW1 3383   6.263   5.320   5.134
  828SOL    HW2 3384   6.413   5.382   5.151
  829SOL     OW 3385   3.285   2.929   2.266
  829SOL    HW1 3386   3.276   2.965   2.359
  829SOL    HW2 3387   3.380   2.901   2.250
  830SOL     OW 3388   6.053   4.759   6.723
  830SOL    HW1 3389   5.994   4.788   6.647
  830SOL    HW2 3390   6.065   4.659   6.719
  831SOL     OW 3391   5.670   6.952   1.010
  831SOL    HW1 3392   5.594   7.013   1.034
  831SOL    HW2 3393   5.726   6.995   0.940
  832SOL     OW 3394   4.276   1.084   4.073
  832SOL    HW1 3395   4.253   0.988   4.055
  832SOL    HW2 3396   4.350   1.088   4.140
  833SOL     OW 3397   1.414   3.871   6.761
  833SOL    HW1 3398   1.343   3.816   6.716
  833SOL    HW2 3399   1.383   3.898   6.852
  834SOL     OW 3400   5.016   3.505   6.876
  834SOL    HW1 3401   5.093   3.457   6.918
  834SOL    HW2 3402   4.931   3.474   6.919
  835SOL     OW 3403   1.884   0.411   5.409
  835SOL    HW1 3404   1.845   0.392   5.319
  835SOL    HW2 3405   1.830   0.482   5.455
  836SOL     OW 3406   3.107   1.396   5.540
  836SOL    HW1 3407   3.146   1.482   5.505
  836SOL    HW2 3408   3.031   1.368   5.481
  837SOL     OW 3409   1.346   0.050   1.711
  837SOL    HW1 3410   1.349   6.986   1.661
  837SOL    HW2 3411   1.340   0.125   1.647
  838SOL     OW 3412   2.174   5.924   4.408
  838SOL    HW1 3413   2.235   5.845   4.398
  838SOL    HW2 3414   2.143   5.953   4.318
  839SOL     OW 3415   2.543   1.632   1.420
  839SOL    HW1 3416   2.580   1.651   1.511
  839SOL    HW2 3417   2.618   1.628   1.354
  840SOL     OW 3418   5.999   5.833   7.008
  840SOL    HW1 3419   5.944   5.916   7.000
  840SOL    HW2 3420   5.963   5.778   0.060
  841SOL     OW 3421   3.929   6.058   6.373
  841SOL    HW1 3422   3.891   6.060   6.465
  841SOL    HW2 3423   3.961   5.966   6.352
  842SOL     OW 3424   3.190   6.322   6.956
  842SOL    HW1 3425   3.115   6.310   7.020
  842SOL    HW2 3426   3.255   6.246   6.966
  843SOL     OW 3427   2.690   1.911   2.006
  843SOL    HW1 3428   2.760   1.865   1.952
  843SOL    HW2 3429   2.688   2.008   1.982
  844SOL     OW 3430   0.101   6.845   1.027
  844SOL    HW1 3431   0.189   6.890   1.042
  844SOL    HW2 3432   0.110   6.747   1.046
  845SOL     OW 3433   4.830   2.459   3.330
  845SOL    HW1 3434   4.740   2.502   3.328
  845SOL    HW2 3435   4.897   2.520   3.288
  846SOL     OW 3436   2.718   0.820   6.525
  846SOL    HW1 3437   2.771   0.736   6.516
  846SOL    HW2 3438   2.750   0.887   6.459
  847SOL     OW 3439   2.102   3.346   1.749
  847SOL    HW1 3440   2.188   3.363   1.796
  847SOL    HW2 3441   2.049   3.278   1.801
  848SOL     OW 3442   6.891   6.786   5.812
  848SOL    HW1 3443   6.800   6.764   5.776
  848SOL    HW2 3444   6.950   6.817   5.738
  849SOL     OW 3445   5.952   3.720   0.081
  849SOL    HW1 3446   5.895   3.709   7.023
  849SOL    HW2 3447   5.990   3.812   0.082
  850SOL     OW 3448   0.397   0.372   4.778
  850SOL    HW1 3449   0.419   0.319   4.860
  850SOL    HW2 3450   0.478   0.377   4.720
  851SOL     OW 3451   6.763   3.028   0.065
  851SOL    HW1 3452   6.784   2.935   0.035
  851SOL    HW2 3453   6.832   3.059   0.129
  852SOL     OW 3454   0.222   4.832   0.395
  852SOL    HW1 3455   0.130   4.857   0.367
  852SOL    HW2 3456   0.247   4.884   0.477
  853SOL     OW 3457   2.080   4.238   6.260
  853SOL    HW1 3458   2.101   4.278   6.349
  853SOL    HW2 3459   2.164   4.204   6.218
  854SOL     OW 3460   5.559   6.781   0.183
  854SOL    HW1 3461   5.623   6.771   0.107
  854SOL    HW2 3462   5.582   6.863   0.235
  855SOL     OW 3463   6.227   0.757   0.338
  855SOL    HW1 3464   6.297   0.703   0.291
  855SOL    HW2 3465   6.269   0.839   0.377
  856SOL     OW 3466   1.185   6.495   5.622
  856SOL    HW1 3467   1.172   6.456   5.713
  856SOL    HW2 3468   1.267   6.457   5.580
  857SOL     OW 3469   0.001   5.077   2.549
  857SOL    HW1 3470   0.025   5.107   2.641
  857SOL    HW2 3471   6.959   5.140   2.509
  858SOL     OW 3472   2.987   3.600   1.151
  858SOL    HW1 3473   3.081   3.635   1.151
  858SOL    HW2 3474   2.925   3.672   1.182
  859SOL     OW 3475   5.130   6.094   5.565
  859SOL    HW1 3476   5.148   6.069   5.660
  859SOL    HW2 3477   5.032   6.105   5.550
  860SOL     OW 3478   5.612   2.791   6.299
  860SOL    HW1 3479   5.544   2.835   6.357
  860SOL    HW2 3480   5.575   2.706   6.261
  861SOL     OW 3481   2.063   5.821   3.371
  861SOL    HW1 3482   2.146   5.837   3.318
  861SOL    HW2 3483   1.984   5.854   3.320
  862SOL     OW 3484   2.055   5.100   3.780
  862SOL    HW1 3485   2.145   5.087   3.738
  862SOL    HW2 3486   2.024   5.194   3.764
  863SOL     OW 3487   5.940   1.075   5.960
  863SOL    HW1 3488   6.024   1.072   5.906
  863SOL    HW2 3489   5.899   0.984   5.964
  864SOL     OW 3490   4.877   0.153   4.937
  864SOL    HW1 3491   4.781   0.147   4.909
  864SOL    HW2 3492   4.925   0.220   4.881
  865SOL     OW 3493   1.721   6.745   5.499
  865SOL    HW1 3494   1.707   6.839   5.530
  865SOL    HW2 3495   1.636   6.693   5.508
  866SOL     OW 3496   3.907   6.736   0.801
  866SOL    HW1 3497   3.920   6.640   0.824
  866SOL    HW2 3498   3.990   6.788   0.822
  867SOL     OW 3499   5.608   3.261   0.404
  867SOL    HW1 3500   5.625   3.223   0.495
  867SOL    HW2 3501   5.631   3.358   0.404
  868SOL     OW 3502   0.127   2.301   2.738
  868SOL    HW1 3503   0.074   2.386   2.742
  868SOL    HW2 3504   0.071   2.229   2.700
  869SOL     OW 3505   6.700   3.701   3.775
  869SOL    HW1 3506   6.780   3.642   3.760
  869SOL    HW2 3507   6.682   3.755   3.693
  870SOL     OW 3508   4.072   4.309   1.012
  870SOL    HW1 3509   4.135   4.372   0.965
  870SOL    HW2 3510   4.124   4.249   1.072
  871SOL     OW 3511   5.436   2.265   4.160
  871SOL    HW1 3512   5.458   2.177   4.118
  871SOL    HW2 3513   5.519   2.307   4.196
  872SOL     OW 3514   0.376   2.379   4.728
  872SOL    HW1 3515   0.353   2.401   4.823
  872SOL    HW2 3516   0.389   2.464   4.677
  873SOL     OW 3517   4.260   6.176   5.833
  873SOL    HW1 3518   4.328   6.109   5.804
  873SOL    HW2 3519   4.302   6.242   5.895
  874SOL     OW 3520   5.868   4.359   0.169
  874SOL    HW1 3521   5.935   4.411   0.222
  874SOL    HW2 3522   5.884   4.261   0.181
  875SOL     OW 3523   4.883   5.857   0.431
  875SOL    HW1 3524   4.938   5.775   0.445
  875SOL    HW2 3525   4.938   5.938   0.453
  876SOL     OW 3526   0.443   5.279   1.949
  876SOL    HW1 3527   0.456   5.324   2.037
  876SOL    HW2 3528   0.486   5.189   1.951
  877SOL     OW 3529   3.433   4.119   6.137
  877SOL    HW1 3530   3.340   4.112   6.100
  877SOL    HW2 3531   3.460   4.031   6.176
  878SOL     OW 3532   5.103   0.050   4.082
  878SOL    HW1 3533   5.197   0.021   4.066
  878SOL    HW2 3534   5.086   0.054   4.181
  879SOL     OW 3535   3.743   0.563   1.570
  879SOL    HW1 3536   3.789   0.648   1.593
  879SOL    HW2 3537   3.645   0.571   1.590
  880SOL     OW 3538   3.737   3.957   4.359
  880SOL    HW1 3539   3.718   3.859   4.372
  880SOL    HW2 3540   3.707   4.008   4.439
  881SOL     OW 3541   4.916   3.159   4.896
  881SOL    HW1 3542   4.925   3.258   4.889
  881SOL    HW2 3543   4.831   3.135   4.942
  882SOL     OW 3544   0.942   3.088   3.916
  882SOL    HW1 3545   1.016   3.117   3.855
  882SOL    HW2 3546   0.855   3.092   3.867
  883SOL     OW 3547   3.501   0.987   1.406
  883SOL    HW1 3548   3.436   0.956   1.476
  883SOL    HW2 3549   3.509   0.918   1.334
  884SOL     OW 3550   5.442   3.657   5.947
  884SOL    HW1 3551   5.425   3.559   5.936
  884SOL    HW2 3552   5.372   3.708   5.898
  885SOL     OW 3553   3.379   1.296   5.032
  885SOL    HW1 3554   3.448   1.245   4.980
  885SOL    HW2 3555   3.399   1.394   5.025
  886SOL     OW 3556   3.923   0.018   0.211
  886SOL    HW1 3557   3.986   0.018   0.288
  886SOL    HW2 3558   3.927   0.106   0.164
  887SOL     OW 3559   3.873   6.527   3.549
  887SOL    HW1 3560   3.913   6.602   3.603
  887SOL    HW2 3561   3.855   6.449   3.609
  888SOL     OW 3562   6.783   6.113   3.276
  888SOL    HW1 3563   6.848   6.038   3.262
  888SOL    HW2 3564   6.765   6.158   3.188
  889SOL     OW 3565   6.708   3.474   0.661
  889SOL    HW1 3566   6.795   3.474   0.710
  889SOL    HW2 3567   6.725   3.472   0.562
  890SOL     OW 3568   1.270   5.421   2.983
  890SOL    HW1 3569   1.334   5.424   3.060
  890SOL    HW2 3570   1.320   5.397   2.900
  891SOL     OW 3571   5.848   4.766   0.590
  891SOL    HW1 3572   5.875   4.727   0.678
  891SOL    HW2 3573   5.812   4.858   0.604
  892SOL     OW 3574   2.514   3.866   5.554
  892SOL    HW1 3575   2.418   3.846   5.532
  892SOL    HW2 3576   2.564   3.886   5.470
  893SOL     OW 3577   2.158   6.528   3.038
  893SOL    HW1 3578   2.204   6.581   3.109
  893SOL    HW2 3579   2.153   6.432   3.066
  894SOL     OW 3580   0.967   2.625   2.211
  894SOL    HW1 3581   0.942   2.528   2.217
  894SOL    HW2 3582   1.000   2.646   2.119
  895SOL     OW 3583   0.691   4.868   3.829
  895SOL    HW1 3584   0.764   4.926   3.793
  895SOL    HW2 3585   0.688   4.876   3.929
  896SOL     OW 3586   5.523   5.050   0.904
  896SOL    HW1 3587   5.503   4.979   0.972
  896SOL    HW2 3588   5.544   5.136   0.950
  897SOL     OW 3589   3.875   1.306   7.008
  897SOL    HW1 3590   3.820   1.313   6.925
  897SOL    HW2 3591   3.972   1.310   6.984
  898SOL     OW 3592   3.035   6.468   3.052
  898SOL    HW1 3593   3.094   6.463   2.972
  898SOL    HW2 3594   3.059   6.394   3.116
  899SOL     OW 3595   0.211   6.543   0.263
  899SOL    HW1 3596   0.118   6.535   0.298
  899SOL    HW2 3597   0.235   6.640   0.254
  900SOL     OW 3598   5.740   6.965   0.550
  900SOL    HW1 3599   5.756   6.889   0.613
  900SOL    HW2 3600   5.827   7.004   0.522
  901SOL     OW 3601   2.390   6.857   3.043
  901SOL    HW1 3602   2.461   6.801   3.001
  901SOL    HW2 3603   2.421   6.951   3.052
  902SOL     OW 3604   0.356   2.288   0.595
  902SOL    HW1 3605   0.359   2.211   0.532
  902SOL    HW2 3606   0.321   2.369   0.546
  903SOL     OW 3607   0.129   2.313   0.059
  903SOL    HW1 3608   0.105   2.216   0.057
  903SOL    HW2 3609   0.111   2.350   0.150
  904SOL     OW 3610   2.368   2.259   2.834
  904SOL    HW1 3611   2.271   2.245   2.857
  904SOL    HW2 3612   2.415   2.171   2.835
  905SOL     OW 3613   5.010   1.718   6.834
  905SOL    HW1 3614   4.935   1.722   6.769
  905SOL    HW2 3615   4.980   1.669   6.916
  906SOL     OW 3616   6.884   1.932   6.271
  906SOL    HW1 3617   6.909   2.029   6.269
  906SOL    HW2 3618   6.787   1.922   6.251
  907SOL     OW 3619   5.245   3.260   0.512
  907SOL    HW1 3620   5.309   3.214   0.574
  907SOL    HW2 3621   5.154   3.221   0.523
  908SOL     OW 3622   2.392   4.519   2.560
  908SOL    HW1 3623   2.442   4.476   2.484
  908SOL    HW2 3624   2.407   4.466   2.643
  909SOL     OW 3625   4.480   5.663   1.099
  909SOL    HW1 3626   4.568   5.710   1.092
  909SOL    HW2 3627   4.408   5.721   1.062
  910SOL     OW 3628   3.119   1.856   0.933
  910SOL    HW1 3629   3.040   1.911   0.961
  910SOL    HW2 3630   3.197   1.915   0.916
  911SOL     OW 3631   0.326   6.350   6.608
  911SOL    HW1 3632   0.255   6.351   6.678
  911SOL    HW2 3633   0.411   6.316   6.647
  912SOL     OW 3634   6.369   2.215   3.071
  912SOL    HW1 3635   6.276   2.179   3.068
  912SOL    HW2 3636   6.430   2.154   3.020
  913SOL     OW 3637   4.502   6.838   3.060
  913SOL    HW1 3638   4.592   6.820   3.020
  913SOL    HW2 3639   4.467   6.755   3.103
  914SOL     OW 3640   2.511   6.873   6.174
  914SOL    HW1 3641   2.504   6.806   6.100
  914SOL    HW2 3642   2.526   6.964   6.135
  915SOL     OW 3643   6.061   4.494   6.720
  915SOL    HW1 3644   6.050   4.413   6.663
  915SOL    HW2 3645   5.981   4.504   6.780
  916SOL     OW 3646   1.680   2.656   1.706
  916SOL    HW1 3647   1.773   2.655   1.743
  916SOL    HW2 3648   1.615   2.636   1.780
  917SOL     OW 3649   0.540   6.681   0.411
  917SOL    HW1 3650   0.519   6.589   0.444
  917SOL    HW2 3651   0.638   6.688   0.392
  918SOL     OW 3652   3.345   0.562   0.562
  918SOL    HW1 3653   3.410   0.543   0.489
  918SOL    HW2 3654   3.252   0.553   0.527
  919SOL     OW 3655   5.791   1.567   2.840
  919SOL    HW1 3656   5.703   1.613   2.831
  919SOL    HW2 3657   5.785   1.498   2.913
  920SOL     OW 3658   2.495   3.754   1.694
  920SOL    HW1 3659   2.443   3.669   1.687
  920SOL    HW2 3660   2.440   3.823   1.742
  921SOL     OW 3661   5.063   6.007   4.062
  921SOL    HW1 3662   4.966   5.984   4.067
  921SOL    HW2 3663   5.115   5.927   4.033
  922SOL     OW 3664   4.034   3.808   4.977
  922SOL    HW1 3665   3.939   3.791   5.005
  922SOL    HW2 3666   4.036   3.841   4.883
  923SOL     OW 3667   2.418   3.340   6.871
  923SOL    HW1 3668   2.449   3.281   6.796
  923SOL    HW2 3669   2.496   3.389   6.910
  924SOL     OW 3670   6.199   4.117   1.673
  924SOL    HW1 3671   6.283   4.091   1.626
  924SOL    HW2 3672   6.126   4.052   1.650
  925SOL     OW 3673   0.296   2.561   0.131
  925SOL    HW1 3674   0.312   2.553   0.032
  925SOL    HW2 3675   0.291   2.470   0.171
  926SOL     OW 3676   6.859   0.817   1.211
  926SOL    HW1 3677   6.881   0.720   1.227
  926SOL    HW2 3678   6.772   0.824   1.163
  927SOL     OW 3679   5.319   3.670   3.844
  927SOL    HW1 3680   5.399   3.725   3.825
  927SOL    HW2 3681   5.238   3.713   3.805
  928SOL     OW 3682   2.453   5.761   0.436
  928SOL    HW1 3683   2.502   5.806   0.510
  928SOL    HW2 3684   2.370   5.813   0.414
  929SOL     OW 3685   6.988   1.102   0.080
  929SOL    HW1 3686   0.013   1.178   0.124
  929SOL    HW2 3687   7.016   1.095   7.007
  930SOL     OW 3688   5.042   6.028   6.595
  930SOL    HW1 3689   4.973   6.087   6.552
  930SOL    HW2 3690   5.095   5.983   6.523
  931SOL     OW 3691   6.918   1.718   4.953
  931SOL    HW1 3692   6.892   1.623   4.935
  931SOL    HW2 3693   6.889   1.776   4.876
  932SOL     OW 3694   2.368   1.853   2.807
  932SOL    HW1 3695   2.329   1.871   2.716
  932SOL    HW2 3696   2.427   1.930   2.833
  933SOL     OW 3697   1.484   5.425   3.152
  933SOL    HW1 3698   1.576   5.463   3.146
  933SOL    HW2 3699   1.475   5.372   3.236
  934SOL     OW 3700   2.678   5.577   5.930
  934SOL    HW1 3701   2.767   5.621   5.916
  934SOL    HW2 3702   2.661   5.564   6.027
  935SOL     OW 3703   5.267   4.367   4.149
  935SOL    HW1 3704   5.201   4.299   4.180
  935SOL    HW2 3705   5.320   4.330   4.072
  936SOL     OW 3706   1.191   6.583   6.021
  936SOL    HW1 3707   1.110   6.632   5.990
  936SOL    HW2 3708   1.216   6.614   6.113
  937SOL     OW 3709   5.583   1.572   5.455
  937SOL    HW1 3710   5.551   1.479   5.437
  937SOL    HW2 3711   5.524   1.614   5.524
  938SOL     OW 3712   6.405   5.408   4.375
  938SOL    HW1 3713   6.413   5.465   4.293
  938SOL    HW2 3714   6.320   5.428   4.422
  939SOL     OW 3715   0.179   6.870   3.965
  939SOL    HW1 3716   0.203   6.792   3.906
  939SOL    HW2 3717   0.224   6.952   3.931
  940SOL     OW 3718   0.538   3.758   0.666
  940SOL    HW1 3719   0.589   3.802   0.592
  940SOL    HW2 3720   0.547   3.812   0.750
  941SOL     OW 3721   5.165   0.531   6.430
  941SOL    HW1 3722   5.208   0.443   6.410
  941SOL    HW2 3723   5.078   0.538   6.381
  942SOL     OW 3724   6.032   6.635   1.398
  942SOL    HW1 3725   5.946   6.599   1.364
  942SOL    HW2 3726   6.108   6.580   1.363
  943SOL     OW 3727   1.657   4.881   2.723
  943SOL    HW1 3728   1.682   4.786   2.705
  943SOL    HW2 3729   1.578   4.905   2.667
  944SOL     OW 3730   0.736   5.379   4.748
  944SOL    HW1 3731   0.806   5.317   4.783
  944SOL    HW2 3732   0.677   5.332   4.683
  945SOL     OW 3733   0.110   4.594   5.471
  945SOL    HW1 3734   0.028   4.601   5.415
  945SOL    HW2 3735   0.126   4.498   5.496
  946SOL     OW 3736   4.577   4.823   4.411
  946SOL    HW1 3737   4.523   4.872   4.341
  946SOL    HW2 3738   4.596   4.885   4.487
  947SOL     OW 3739   3.495   3.057   3.931
  947SOL    HW1 3740   3.565   3.112   3.885
  947SOL    HW2 3741   3.409   3.107   3.934
  948SOL     OW 3742   4.688   1.378   2.696
  948SOL    HW1 3743   4.646   1.317   2.763
  948SOL    HW2 3744   4.725   1.459   2.743
  949SOL     OW 3745   3.075   5.907   0.458
  949SOL    HW1 3746   3.152   5.937   0.514
  949SOL    HW2 3747   3.105   5.834   0.397
  950SOL     OW 3748   5.822   5.718   2.422
  950SOL    HW1 3749   5.756   5.758   2.485
  950SOL    HW2 3750   5.780   5.710   2.331
  951SOL     OW 3751   1.177   0.079   3.712
  951SOL    HW1 3752   1.200   0.157   3.654
  951SOL    HW2 3753   1.173   0.108   3.808
  952SOL     OW 3754   4.174   2.258   2.942
  952SOL    HW1 3755   4.262   2.246   2.895
  952SOL    HW2 3756   4.117   2.178   2.926
  953SOL     OW 3757   5.958   5.840   4.911
  953SOL    HW1 3758   6.015   5.775   4.860
  953SOL    HW2 3759   5.960   5.818   5.008
  954SOL     OW 3760   3.820   6.115   2.365
  954SOL    HW1 3761   3.794   6.211   2.368
  954SOL    HW2 3762   3.863   6.095   2.277
  955SOL     OW 3763   1.917   4.360   0.048
  955SOL    HW1 3764   1.901   4.418   6.991
  955SOL    HW2 3765   1.844   4.375   0.115
  956SOL     OW 3766   6.700   0.612   1.460
  956SOL    HW1 3767   6.637   0.656   1.524
  956SOL    HW2 3768   6.793   0.643   1.478
  957SOL     OW 3769   6.186   1.996   1.610
  957SOL    HW1 3770   6.208   1.915   1.664
  957SOL    HW2 3771   6.271   2.037   1.576
  958SOL     OW 3772   4.298   6.306   2.193
  958SOL    HW1 3773   4.220   6.359   2.161
  958SOL    HW2 3774   4.272   6.209   2.198
  959SOL     OW 3775   3.505   6.435   4.593
  959SOL    HW1 3776   3.530   6.498   4.519
  959SOL    HW2 3777   3.452   6.359   4.557
  960SOL     OW 3778   1.726   0.225   1.045
  960SOL    HW1 3779   1.626   0.232   1.038
  960SOL    HW2 3780   1.763   0.195   0.958
  961SOL     OW 3781   4.256   6.627   3.087
  961SOL    HW1 3782   4.167   6.646   3.127
  961SOL    HW2 3783   4.250   6.630   2.987
  962SOL     OW 3784   6.791   1.269   4.183
  962SOL    HW1 3785   6.817   1.179   4.219
  962SOL    HW2 3786   6.868   1.310   4.136
  963SOL     OW 3787   4.477   1.124   0.294
  963SOL    HW1 3788   4.479   1.035   0.339
  963SOL    HW2 3789   4.525   1.191   0.350
  964SOL     OW 3790   4.538   5.250   5.461
  964SOL    HW1 3791   4.539   5.163   5.510
  964SOL    HW2 3792   4.630   5.289   5.462
  965SOL     OW 3793   6.165   1.784   2.050
  965SOL    HW1 3794   6.142   1.763   1.955
  965SOL    HW2 3795   6.167   1.700   2.103
  966SOL     OW 3796   5.205   2.708   3.564
  966SOL    HW1 3797   5.120   2.668   3.530
  966SOL    HW2 3798   5.195   2.733   3.660
  967SOL     OW 3799   2.948   5.132   7.001
  967SOL    HW1 3800   3.032   5.178   6.971
  967SOL    HW2 3801   2.877   5.145   6.932
  968SOL     OW 3802   3.805   6.772   1.467
  968SOL    HW1 3803   3.877   6.840   1.457
  968SOL    HW2 3804   3.733   6.790   1.400
  969SOL     OW 3805   2.570   5.170   5.267
  969SOL    HW1 3806   2.575   5.266   5.294
  969SOL    HW2 3807   2.648   5.120   5.303
  970SOL     OW 3808   5.565   0.569   5.993
  970SOL    HW1 3809   5.626   0.494   5.967
  970SOL    HW2 3810   5.540   0.560   6.089
  971SOL     OW 3811   0.032   3.316   2.570
  971SOL    HW1 3812   0.091   3.396   2.561
  971SOL    HW2 3813   0.066   3.258   2.645
  972SOL     OW 3814   6.781   2.624   1.862
  972SOL    HW1 3815   6.801   2.528   1.843
  972SOL    HW2 3816   6.716   2.631   1.937
  973SOL     OW 3817   0.564   4.737   6.711
  973SOL    HW1 3818   0.617   4.777   6.636
  973SOL    HW2 3819   0.513   4.658   6.677
  974SOL     OW 3820   0.719   5.310   2.331
  974SOL    HW1 3821   0.697   5.213   2.318
  974SOL    HW2 3822   0.635   5.362   2.345
  975SOL     OW 3823   2.526   6.771   0.475
  975SOL    HW1 3824   2.575   6.793   0.560
  975SOL    HW2 3825   2.581   6.797   0.396
  976SOL     OW 3826   6.921   3.853   1.220
  976SOL    HW1 3827   7.016   3.829   1.201
  976SOL    HW2 3828   6.914   3.889   1.313
  977SOL     OW 3829   0.471   0.885   2.135
  977SOL    HW1 3830   0.519   0.944   2.200
  977SOL    HW2 3831   0.374   0.910   2.132
  978SOL     OW 3832   5.292   1.541   0.939
  978SOL    HW1 3833   5.327   1.508   1.027
  978SOL    HW2 3834   5.351   1.508   0.865
  979SOL     OW 3835   0.623   2.889   6.412
  979SOL    HW1 3836   0.529   2.913   6.436
  979SOL    HW2 3837   0.687   2.951   6.458
  980SOL     OW 3838   4.418   1.270   4.699
  980SOL    HW1 3839   4.327   1.279   4.740
  980SOL    HW2 3840   4.482   1.238   4.769
  981SOL     OW 3841   0.626   0.089   4.759
  981SOL    HW1 3842   0.688   0.095   4.681
  981SOL    HW2 3843   0.535   0.062   4.728
  982SOL     OW 3844   0.979   1.460   5.504
  982SOL    HW1 3845   0.981   1.559   5.488
  982SOL    HW2 3846   1.004   1.412   5.420
  983SOL     OW 3847   7.005   3.452   2.834
  983SOL    HW1 3848   0.001   3.483   2.927
  983SOL    HW2 3849   0.042   3.376   2.810
  984SOL     OW 3850   1.466   2.096   2.741
  984SOL    HW1 3851   1.418   2.182   2.756
  984SOL    HW2 3852   1.405   2.020   2.763
  985SOL     OW 3853   6.541   4.150   4.491
  985SOL    HW1 3854   6.481   4.131   4.414
  985SOL    HW2 3855   6.622   4.090   4.487
  986SOL     OW 3856   4.599   5.254   1.278
  986SOL    HW1 3857   4.679   5.202   1.307
  986SOL    HW2 3858   4.575   5.321   1.348
  987SOL     OW 3859   5.624   6.529   2.410
  987SOL    HW1 3860   5.611   6.440   2.454
  987SOL    HW2 3861   5.574   6.598   2.462
  988SOL     OW 3862   3.290   3.779   2.434
  988SOL    HW1 3863   3.253   3.871   2.422
  988SOL    HW2 3864   3.215   3.713   2.440
  989SOL     OW 3865   6.522   2.096   0.149
  989SOL    HW1 3866   6.483   2.040   0.222
  989SOL    HW2 3867   6.476   2.075   0.063
  990SOL     OW 3868   3.713   0.200   2.651
  990SOL    HW1 3869   3.684   0.119   2.702
  990SOL    HW2 3870   3.692   0.282   2.705
  991SOL     OW 3871   6.763   4.570   3.552
  991SOL    HW1 3872   6.862   4.565   3.538
  991SOL    HW2 3873   6.717   4.521   3.478
  992SOL     OW 3874   0.969   3.108   1.430
  992SOL    HW1 3875   0.933   3.147   1.515
  992SOL    HW2 3876   1.029   3.175   1.386
  993SOL     OW 3877   0.704   3.880   0.876
  993SOL    HW1 3878   0.716   3.920   0.967
  993SOL    HW2 3879   0.771   3.920   0.813
  994SOL     OW 3880   3.522   5.136   1.200
  994SOL    HW1 3881   3.525   5.040   1.175
  994SOL    HW2 3882   3.426   5.164   1.211
  995SOL     OW 3883   4.282   3.161   5.820
  995SOL    HW1 3884   4.358   3.118   5.773
  995SOL    HW2 3885   4.223   3.206   5.753
  996SOL     OW 3886   3.752   5.421   5.334
  996SOL    HW1 3887   3.684   5.357   5.298
  996SOL    HW2 3888   3.779   5.485   5.263
  997SOL     OW 3889   1.311   6.808   3.311
  997SOL    HW1 3890   1.342   6.884   3.367
  997SOL    HW2 3891   1.231   6.836   3.257
  998SOL     OW 3892   6.566   0.131   6.286
  998SOL    HW1 3893   6.642   0.175   6.238
  998SOL    HW2 3894   6.509   0.082   6.220
  999SOL     OW 3895   4.986   3.935   1.606
  999SOL    HW1 3896   4.969   3.883   1.522
  999SOL    HW2 3897   5.084   3.943   1.621
 1000SOL     OW 3898   4.209   1.289   1.704
 1000SOL    HW1 3899   4.142   1.357   1.734
 1000SOL    HW2 3900   4.162   1.212   1.662
 1001SOL     OW 3901   3.259   5.997   2.243
 1001SOL    HW1 3902   3.300   6.087   2.258
 1001SOL    HW2 3903   3.318   5.942   2.184
 1002SOL     OW 3904   5.439   2.066   1.321
 1002SOL    HW1 3905   5.431   2.165   1.332
 1002SOL    HW2 3906   5.519   2.045   1.265
 1003SOL     OW 3907   1.751   5.739   2.635
 1003SOL    HW1 3908   1.835   5.754   2.583
 1003SOL    HW2 3909   1.682   5.805   2.605
 1004SOL     OW 3910   6.621   1.255   2.532
 1004SOL    HW1 3911   6.631   1.340   2.583
 1004SOL    HW2 3912   6.607   1.276   2.435
 1005SOL     OW 3913   1.463   4.189   3.928
 1005SOL    HW1 3914   1.495   4.097   3.904
 1005SOL    HW2 3915   1.509   4.256   3.870
 1006SOL     OW 3916   2.207   4.041   0.327
 1006SOL    HW1 3917   2.242   3.952   0.298
 1006SOL    HW2 3918   2.203   4.102   0.248
 1007SOL     OW 3919   4.130   1.745   6.334
 1007SOL    HW1 3920   4.146   1.843   6.323
 1007SOL    HW2 3921   4.135   1.721   6.431
 1008SOL     OW 3922   0.040   3.541   5.163
 1008SOL    HW1 3923   6.997   3.587   5.221
 1008SOL    HW2 3924   0.089   3.472   5.216
 1009SOL     OW 3925   6.214   4.576   5.625
 1009SOL    HW1 3926   6.241   4.481   5.609
 1009SOL    HW2 3927   6.286   4.638   5.595
 1010SOL     OW 3928   2.829   2.531   1.424
 1010SOL    HW1 3929   2.895   2.574   1.364
 1010SOL    HW2 3930   2.798   2.445   1.384
 1011SOL     OW 3931   0.249   5.861   3.570
 1011SOL    HW1 3932   0.289   5.770   3.581
 1011SOL    HW2 3933   0.180   5.875   3.641
 1012SOL     OW 3934   6.817   6.886   2.304
 1012SOL    HW1 3935   6.826   6.845   2.395
 1012SOL    HW2 3936   6.908   6.905   2.267
 1013SOL     OW 3937   6.713   1.207   6.133
 1013SOL    HW1 3938   6.670   1.289   6.094
 1013SOL    HW2 3939   6.728   1.140   6.060
 1014SOL     OW 3940   0.900   3.790   4.760
 1014SOL    HW1 3941   0.916   3.813   4.856
 1014SOL    HW2 3942   0.972   3.830   4.704
 1015SOL     OW 3943   2.573   0.533   6.324
 1015SOL    HW1 3944   2.659   0.546   6.374
 1015SOL    HW2 3945   2.530   0.621   6.309
 1016SOL     OW 3946   4.321   4.817   1.409
 1016SOL    HW1 3947   4.233   4.770   1.413
 1016SOL    HW2 3948   4.393   4.757   1.443
 1017SOL     OW 3949   2.799   1.708   1.312
 1017SOL    HW1 3950   2.854   1.775   1.362
 1017SOL    HW2 3951   2.858   1.633   1.283
 1018SOL     OW 3952   0.013   4.603   3.520
 1018SOL    HW1 3953   0.094   4.593   3.462
 1018SOL    HW2 3954   0.042   4.614   3.615
 1019SOL     OW 3955   6.732   5.065   0.337
 1019SOL    HW1 3956   6.704   5.046   0.243
 1019SOL    HW2 3957   6.788   4.989   0.371
 1020SOL     OW 3958   6.005   0.786   1.374
 1020SOL    HW1 3959   6.008   0.825   1.466
 1020SOL    HW2 3960   5.949   0.845   1.315
 1021SOL     OW 3961   6.560   6.268   2.144
 1021SOL    HW1 3962   6.611   6.190   2.179
 1021SOL    HW2 3963   6.563   6.342   2.211
 1022SOL     OW 3964   2.398   5.551   5.854
 1022SOL    HW1 3965   2.414   5.609   5.774
 1022SOL    HW2 3966   2.480   5.549   5.911
 1023SOL     OW 3967   0.282   0.392   2.473
 1023SOL    HW1 3968   0.264   0.491   2.478
 1023SOL    HW2 3969   0.270   0.352   2.564
 1024SOL     OW 3970   0.719   1.683   4.384
 1024SOL    HW1 3971   0.775   1.653   4.461
 1024SOL    HW2 3972   0.638   1.730   4.418
 1025SOL     OW 3973   4.792   2.884   0.332
 1025SOL    HW1 3974   4.705   2.881   0.284
 1025SOL    HW2 3975   4.778   2.857   0.428
 1026SOL     OW 3976   2.751   2.664   1.650
 1026SOL    HW1 3977   2.829   2.715   1.687
 1026SOL    HW2 3978   2.780   2.611   1.571
 1027SOL     OW 3979   1.940   0.073   1.638
 1027SOL    HW1 3980   1.985   7.010   1.616
 1027SOL    HW2 3981   1.937   0.086   1.737
 1028SOL     OW 3982   1.398   6.585   3.105
 1028SOL    HW1 3983   1.438   6.667   3.148
 1028SOL    HW2 3984   1.323   6.551   3.160
 1029SOL     OW 3985   1.219   2.373   6.095
 1029SOL    HW1 3986   1.237   2.275   6.101
 1029SOL    HW2 3987   1.297   2.418   6.050
 1030SOL     OW 3988   3.543   3.049   1.507
 1030SOL    HW1 3989   3.604   2.984   1.461
 1030SOL    HW2 3990   3.565   3.052   1.605
 1031SOL     OW 3991   4.345   3.178   1.401
 1031SOL    HW1 3992   4.444   3.174   1.391
 1031SOL    HW2 3993   4.320   3.161   1.496
 1032SOL     OW 3994   2.400   1.313   5.102
 1032SOL    HW1 3995   2.458   1.337   5.025
 1032SOL    HW2 3996   2.329   1.382   5.114
 1033SOL     OW 3997   1.808   5.851   2.208
 1033SOL    HW1 3998   1.786   5.798   2.127
 1033SOL    HW2 3999   1.894   5.901   2.193
 1034SOL     OW 4000   1.647   6.258   4.247
 1034SOL    HW1 4001   1.617   6.255   4.343
 1034SOL    HW2 4002   1.746   6.246   4.243
 1035SOL     OW 4003   0.256   2.175   6.346
 1035SOL    HW1 4004   0.206   2.254   6.381
 1035SOL    HW2 4005   0.277   2.189   6.249
 1036SOL     OW 4006   3.963   1.058   1.474
 1036SOL    HW1 4007   3.874   1.012   1.479
 1036SOL    HW2 4008   3.949   1.156   1.466
 1037SOL     OW 4009   1.364   1.690   3.099
 1037SOL    HW1 4010   1.290   1.697   3.032
 1037SOL    HW2 4011   1.452   1.688   3.051
 1038SOL     OW 4012   1.702   0.987   6.117
 1038SOL    HW1 4013   1.657   1.044   6.047
 1038SOL    HW2 4014   1.801   0.994   6.107
 1039SOL     OW 4015   3.264   3.436   4.059
 1039SOL    HW1 4016   3.360   3.442   4.031
 1039SOL    HW2 4017   3.256   3.373   4.137
 1040SOL     OW 4018   5.285   1.056   2.530
 1040SOL    HW1 4019   5.207   1.111   2.498
 1040SOL    HW2 4020   5.271   1.030   2.625
 1041SOL     OW 4021   0.085   6.939   3.463
 1041SOL    HW1 4022   0.161   6.879   3.486
 1041SOL    HW2 4023   0.099   0.005   3.505
 1042SOL     OW 4024   4.475   5.039   3.006
 1042SOL    HW1 4025   4.478   5.000   3.098
 1042SOL    HW2 4026   4.457   5.137   3.012
 1043SOL     OW 4027   4.263   2.297   3.507
 1043SOL    HW1 4028   4.357   2.330   3.506
 1043SOL    HW2 4029   4.214   2.332   3.427
 1044SOL     OW 4030   6.272   5.597   1.688
 1044SOL    HW1 4031   6.243   5.503   1.703
 1044SOL    HW2 4032   6.361   5.611   1.731
 1045SOL     OW 4033   3.400   0.466   2.998
 1045SOL    HW1 4034   3.327   0.456   3.065
 1045SOL    HW2 4035   3.392   0.556   2.954
 1046SOL     OW 4036   1.965   1.552   0.794
 1046SOL    HW1 4037   2.041   1.574   0.855
 1046SOL    HW2 4038   1.881   1.592   0.830
 1047SOL     OW 4039   3.217   0.458   4.007
 1047SOL    HW1 4040   3.147   0.527   4.023
 1047SOL    HW2 4041   3.241   0.455   3.910
 1048SOL     OW 4042   3.333   5.593   2.157
 1048SOL    HW1 4043   3.262   5.664   2.160
 1048SOL    HW2 4044   3.289   5.504   2.142
 1049SOL     OW 4045   5.226   6.994   3.685
 1049SOL    HW1 4046   5.248   6.951   3.598
 1049SOL    HW2 4047   5.306   6.989   3.746
 1050SOL     OW 4048   3.730   5.794   2.692
 1050SOL    HW1 4049   3.773   5.745   2.768
 1050SOL    HW2 4050   3.777   5.882   2.679
 1051SOL     OW 4051   0.144   5.983   0.472
 1051SOL    HW1 4052   0.128   5.885   0.476
 1051SOL    HW2 4053   0.122   6.024   0.560
 1052SOL     OW 4054   5.021   0.970   5.008
 1052SOL    HW1 4055   4.981   1.047   5.059
 1052SOL    HW2 4056   5.106   0.942   5.053
 1053SOL     OW 4057   5.567   3.985   2.643
 1053SOL    HW1 4058   5.591   4.039   2.562
 1053SOL    HW2 4059   5.641   3.921   2.662
 1054SOL     OW 4060   3.095   3.171   0.892
 1054SOL    HW1 4061   3.167   3.104   0.872
 1054SOL    HW2 4062   3.018   3.155   0.830
 1055SOL     OW 4063   4.533   6.493   6.419
 1055SOL    HW1 4064   4.536   6.448   6.508
 1055SOL    HW2 4065   4.581   6.437   6.352
 1056SOL     OW 4066   0.584   3.964   0.471
 1056SOL    HW1 4067   0.588   3.897   0.397
 1056SOL    HW2 4068   0.635   4.045   0.445
 1057SOL     OW 4069   3.871   2.129   1.591
 1057SOL    HW1 4070   3.816   2.058   1.548
 1057SOL    HW2 4071   3.841   2.219   1.558
 1058SOL     OW 4072   4.691   2.815   3.409
 1058SOL    HW1 4073   4.735   2.859   3.331
 1058SOL    HW2 4074   4.728   2.852   3.494
 1059SOL     OW 4075   2.188   6.953   2.306
 1059SOL    HW1 4076   2.137   0.010   2.334
 1059SOL    HW2 4077   2.273   6.946   2.359
 1060SOL     OW 4078   0.139   5.120   4.047
 1060SOL    HW1 4079   0.043   5.098   4.061
 1060SOL    HW2 4080   0.146   5.211   4.004
 1061SOL     OW 4081   6.481   3.592   6.754
 1061SOL    HW1 4082   6.546   3.627   6.822
 1061SOL    HW2 4083   6.415   3.663   6.731
 1062SOL     OW 4084   3.954   6.186   5.377
 1062SOL    HW1 4085   3.869   6.146   5.344
 1062SOL    HW2 4086   3.935   6.277   5.415
 1063SOL     OW 4087   0.130   6.966   0.110
 1063SOL    HW1 4088   0.141   0.041   0.099
 1063SOL    HW2 4089   0.197   6.918   0.054
 1064SOL     OW 4090   0.339   4.507   1.593
 1064SOL    HW1 4091   0.312   4.426   1.540
 1064SOL    HW2 4092   0.413   4.554   1.546
 1065SOL     OW 4093   3.305   0.565   3.777
 1065SOL    HW1 4094   3.229   0.603   3.725
 1065SOL    HW2 4095   3.361   0.640   3.814
 1066SOL     OW 4096   4.661   6.813   2.118
 1066SOL    HW1 4097   4.640   6.855   2.206
 1066SOL    HW2 4098   4.662   6.883   2.047
 1067SOL     OW 4099   2.163   0.825   6.923
 1067SOL    HW1 4100   2.250   0.795   6.962
 1067SOL    HW2 4101   2.117   0.747   6.880
 1068SOL     OW 4102   5.839   3.981   1.055
 1068SOL    HW1 4103   5.851   4.078   1.074
 1068SOL    HW2 4104   5.906   3.928   1.107
 1069SOL     OW 4105   5.393   5.374   0.785
 1069SOL    HW1 4106   5.423   5.308   0.854
 1069SOL    HW2 4107   5.312   5.422   0.819
 1070SOL     OW 4108   2.510   7.008   2.329
 1070SOL    HW1 4109   2.474   0.062   2.277
 1070SOL    HW2 4110   2.503   6.925   2.273
 1071SOL     OW 4111   1.337   1.917   4.509
 1071SOL    HW1 4112   1.296   1.999   4.549
 1071SOL    HW2 4113   1.279   1.886   4.433
 1072SOL     OW 4114   2.324   1.030   1.811
 1072SOL    HW1 4115   2.305   0.953   1.751
 1072SOL    HW2 4116   2.342   1.111   1.756
 1073SOL     OW 4117   5.556   2.134   3.099
 1073SOL    HW1 4118   5.614   2.083   3.164
 1073SOL    HW2 4119   5.615   2.181   3.033
 1074SOL     OW 4120   2.749   4.862   1.843
 1074SOL    HW1 4121   2.658   4.830   1.815
 1074SOL    HW2 4122   2.784   4.804   1.916
 1075SOL     OW 4123   6.151   1.631   4.212
 1075SOL    HW1 4124   6.211   1.575   4.269
 1075SOL    HW2 4125   6.134   1.719   4.258
 1076SOL     OW 4126   1.369   2.904   5.925
 1076SOL    HW1 4127   1.386   2.888   6.022
 1076SOL    HW2 4128   1.287   2.854   5.898
 1077SOL     OW 4129   0.039   6.814   0.330
 1077SOL    HW1 4130   0.086   6.828   0.417
 1077SOL    HW2 4131   0.081   6.871   0.259
 1078SOL     OW 4132   6.113   0.186   3.142
 1078SOL    HW1 4133   6.096   0.111   3.206
 1078SOL    HW2 4134   6.202   0.174   3.099
 1079SOL     OW 4135   1.394   5.212   1.924
 1079SOL    HW1 4136   1.468   5.157   1.887
 1079SOL    HW2 4137   1.308   5.189   1.878
 1080SOL     OW 4138   2.470   5.658   4.606
 1080SOL    HW1 4139   2.423   5.665   4.518
 1080SOL    HW2 4140   2.548   5.595   4.597
 1081SOL     OW 4141   0.116   5.448   4.634
 1081SOL    HW1 4142   0.041   5.447   4.568
 1081SOL    HW2 4143   0.131   5.356   4.668
 1082SOL     OW 4144   5.696   1.941   5.719
 1082SOL    HW1 4145   5.689   2.037   5.744
 1082SOL    HW2 4146   5.782   1.925   5.671
 1083SOL     OW 4147   4.715   3.049   6.954
 1083SOL    HW1 4148   4.761   3.110   6.890
 1083SOL    HW2 4149   4.672   3.103   0.003
 1084SOL     OW 4150   6.667   6.797   6.316
 1084SOL    HW1 4151   6.678   6.895   6.328
 1084SOL    HW2 4152   6.741   6.748   6.362
 1085SOL     OW 4153   2.147   3.602   3.770
 1085SOL    HW1 4154   2.128   3.687   3.819
 1085SOL    HW2 4155   2.125   3.524   3.828
 1086SOL     OW 4156   6.306   5.552   6.434
 1086SOL    HW1 4157   6.381   5.616   6.417
 1086SOL    HW2 4158   6.311   5.519   6.528
 1087SOL     OW 4159   1.110   1.307   5.319
 1087SOL    HW1 4160   1.170   1.246   5.372
 1087SOL    HW2 4161   1.159   1.339   5.238
 1088SOL     OW 4162   0.142   5.264   3.244
 1088SOL    HW1 4163   0.062   5.286   3.301
 1088SOL    HW2 4164   0.222   5.251   3.302
 1089SOL     OW 4165   0.927   5.473   5.054
 1089SOL    HW1 4166   1.017   5.447   5.087
 1089SOL    HW2 4167   0.933   5.497   4.957
 1090SOL     OW 4168   5.036   2.217   3.081
 1090SOL    HW1 4169   4.958   2.198   3.140
 1090SOL    HW2 4170   5.115   2.165   3.114
 1091SOL     OW 4171   1.928   3.569   3.389
 1091SOL    HW1 4172   1.832   3.565   3.416
 1091SOL    HW2 4173   1.968   3.656   3.420
 1092SOL     OW 4174   0.368   5.275   0.477
 1092SOL    HW1 4175   0.440   5.339   0.449
 1092SOL    HW2 4176   0.308   5.320   0.544
 1093SOL     OW 4177   2.648   6.813   1.391
 1093SOL    HW1 4178   2.726   6.834   1.333
 1093SOL    HW2 4179   2.572   6.873   1.368
 1094SOL     OW 4180   0.578   6.716   2.729
 1094SOL    HW1 4181   0.529   6.800   2.704
 1094SOL    HW2 4182   0.675   6.736   2.740
 1095SOL     OW 4183   0.458   2.092   6.823
 1095SOL    HW1 4184   0.464   2.089   6.723
 1095SOL    HW2 4185   0.412   2.177   6.850
 1096SOL     OW 4186   3.414   4.287   1.196
 1096SOL    HW1 4187   3.478   4.362   1.178
 1096SOL    HW2 4188   3.328   4.304   1.149
 1097SOL     OW 4189   2.236   5.576   3.001
 1097SOL    HW1 4190   2.171   5.581   3.077
 1097SOL    HW2 4191   2.187   5.578   2.914
 1098SOL     OW 4192   6.153   4.271   6.547
 1098SOL    HW1 4193   6.250   4.254   6.529
 1098SOL    HW2 4194   6.104   4.183   6.549
 1099SOL     OW 4195   4.503   1.231   6.802
 1099SOL    HW1 4196   4.407   1.253   6.784
 1099SOL    HW2 4197   4.560   1.275   6.733
 1100SOL     OW 4198   3.865   0.962   4.011
 1100SOL    HW1 4199   3.889   1.043   3.960
 1100SOL    HW2 4200   3.805   0.904   3.956
 1101SOL     OW 4201   5.260   4.225   4.961
 1101SOL    HW1 4202   5.258   4.285   5.041
 1101SOL    HW2 4203   5.278   4.278   4.879
 1102SOL     OW 4204   2.674   1.393   4.550
 1102SOL    HW1 4205   2.580   1.359   4.553
 1102SOL    HW2 4206   2.710   1.396   4.643
 1103SOL     OW 4207   2.226   1.267   0.140
 1103SOL    HW1 4208   2.152   1.298   0.199
 1103SOL    HW2 4209   2.216   1.306   0.049
 1104SOL     OW 4210   1.680   4.139   3.576
 1104SOL    HW1 4211   1.694   4.147   3.478
 1104SOL    HW2 4212   1.765   4.107   3.619
 1105SOL     OW 4213   4.912   2.861   4.816
 1105SOL    HW1 4214   4.846   2.808   4.869
 1105SOL    HW2 4215   4.904   2.958   4.841
 1106SOL     OW 4216   0.541   1.069   0.707
 1106SOL    HW1 4217   0.486   1.022   0.637
 1106SOL    HW2 4218   0.483   1.092   0.785
 1107SOL     OW 4219   0.775   0.898   0.194
 1107SOL    HW1 4220   0.752   0.982   0.146
 1107SOL    HW2 4221   0.831   0.840   0.135
 1108SOL     OW 4222   3.924   6.599   4.779
 1108SOL    HW1 4223   3.864   6.650   4.840
 1108SOL    HW2 4224   4.016   6.637   4.782
 1109SOL     OW 4225   5.716   1.518   4.191
 1109SOL    HW1 4226   5.656   1.500   4.270
 1109SOL    HW2 4227   5.690   1.605   4.150
 1110SOL     OW 4228   3.667   0.566   3.587
 1110SOL    HW1 4229   3.764   0.566   3.563
 1110SOL    HW2 4230   3.633   0.472   3.586
 1111SOL     OW 4231   5.586   4.217   6.101
 1111SOL    HW1 4232   5.641   4.292   6.065
 1111SOL    HW2 4233   5.638   4.131   6.097
 1112SOL     OW 4234   6.667   0.441   3.397
 1112SOL    HW1 4235   6.639   0.423   3.491
 1112SOL    HW2 4236   6.763   0.469   3.395
 1113SOL     OW 4237   6.346   4.279   1.362
 1113SOL    HW1 4238   6.345   4.377   1.380
 1113SOL    HW2 4239   6.272   4.256   1.299
 1114SOL     OW 4240   3.454   2.412   6.335
 1114SOL    HW1 4241   3.510   2.336   6.366
 1114SOL    HW2 4242   3.380   2.429   6.401
 1115SOL     OW 4243   4.256   4.027   5.362
 1115SOL    HW1 4244   4.275   3.997   5.456
 1115SOL    HW2 4245   4.328   4.090   5.332
 1116SOL     OW 4246   5.884   0.228   7.016
 1116SOL    HW1 4247   5.869   0.140   6.973
 1116SOL    HW2 4248   5.807   0.250   0.053
 1117SOL     OW 4249   0.876   2.040   1.667
 1117SOL    HW1 4250   0.863   2.026   1.765
 1117SOL    HW2 4251   0.972   2.065   1.650
 1118SOL     OW 4252   2.413   5.349   0.159
 1118SOL    HW1 4253   2.394   5.365   0.062
 1118SOL    HW2 4254   2.467   5.265   0.168
 1119SOL     OW 4255   4.383   4.491   1.821
 1119SOL    HW1 4256   4.321   4.464   1.748
 1119SOL    HW2 4257   4.435   4.411   1.851
 1120SOL     OW 4258   6.156   5.863   1.067
 1120SOL    HW1 4259   6.152   5.808   0.984
 1120SOL    HW2 4260   6.157   5.960   1.044
 1121SOL     OW 4261   0.395   4.404   5.284
 1121SOL    HW1 4262   0.379   4.474   5.214
 1121SOL    HW2 4263   0.403   4.314   5.240
 1122SOL     OW 4264   6.245   2.939   2.034
 1122SOL    HW1 4265   6.250   2.990   1.948
 1122SOL    HW2 4266   6.336   2.938   2.076
 1123SOL     OW 4267   4.760   2.429   3.836
 1123SOL    HW1 4268   4.783   2.486   3.915
 1123SOL    HW2 4269   4.666   2.449   3.807
 1124SOL     OW 4270   0.939   3.510   5.985
 1124SOL    HW1 4271   0.842   3.489   5.977
 1124SOL    HW2 4272   0.989   3.472   5.907
 1125SOL     OW 4273   1.833   3.212   4.326
 1125SOL    HW1 4274   1.886   3.240   4.407
 1125SOL    HW2 4275   1.837   3.113   4.317
 1126SOL     OW 4276   5.204   6.337   5.475
 1126SOL    HW1 4277   5.189   6.241   5.498
 1126SOL    HW2 4278   5.121   6.390   5.493
 1127SOL     OW 4279   5.512   6.795   4.759
 1127SOL    HW1 4280   5.473   6.711   4.797
 1127SOL    HW2 4281   5.564   6.772   4.677
 1128SOL     OW 4282   6.036   1.801   4.834
 1128SOL    HW1 4283   5.995   1.799   4.925
 1128SOL    HW2 4284   6.135   1.812   4.842
 1129SOL     OW 4285   1.707   6.562   0.503
 1129SOL    HW1 4286   1.648   6.569   0.423
 1129SOL    HW2 4287   1.753   6.649   0.519
 1130SOL     OW 4288   1.895   5.118   1.820
 1130SOL    HW1 4289   1.855   5.204   1.787
 1130SOL    HW2 4290   1.825   5.047   1.820
 1131SOL     OW 4291   1.670   0.469   4.746
 1131SOL    HW1 4292   1.668   0.567   4.727
 1131SOL    HW2 4293   1.583   0.428   4.718
 1132SOL     OW 4294   4.378   0.256   2.903
 1132SOL    HW1 4295   4.403   0.270   2.808
 1132SOL    HW2 4296   4.278   0.251   2.911
 1133SOL     OW 4297   0.756   0.942   0.475
 1133SOL    HW1 4298   0.786   1.034   0.500
 1133SOL    HW2 4299   0.768   0.929   0.376
 1134SOL     OW 4300   5.584   0.167   1.748
 1134SOL    HW1 4301   5.644   0.158   1.669
 1134SOL    HW2 4302   5.637   0.199   1.827
 1135SOL     OW 4303   2.531   6.959   3.860
 1135SOL    HW1 4304   2.595   6.892   3.824
 1135SOL    HW2 4305   2.567   0.028   3.844
 1136SOL     OW 4306   3.391   4.905   3.042
 1136SOL    HW1 4307   3.399   4.915   2.943
 1136SOL    HW2 4308   3.482   4.894   3.082
 1137SOL     OW 4309   0.522   5.970   6.785
 1137SOL    HW1 4310   0.534   6.046   6.849
 1137SOL    HW2 4311   0.517   5.884   6.835
 1138SOL     OW 4312   1.384   2.301   5.164
 1138SOL    HW1 4313   1.479   2.315   5.193
 1138SOL    HW2 4314   1.347   2.220   5.209
 1139SOL     OW 4315   2.563   4.774   3.998
 1139SOL    HW1 4316   2.513   4.690   3.979
 1139SOL    HW2 4317   2.516   4.852   3.956
 1140SOL     OW 4318   2.419   0.221   2.691
 1140SOL    HW1 4319   2.419   0.121   2.683
 1140SOL    HW2 4320   2.463   0.261   2.611
 1141SOL     OW 4321   6.267   5.517   6.770
 1141SOL    HW1 4322   6.249   5.616   6.774
 1141SOL    HW2 4323   6.332   5.493   6.842
 1142SOL     OW 4324   2.669   0.074   3.399
 1142SOL    HW1 4325   2.586   0.128   3.386
 1142SOL    HW2 4326   2.644   7.001   3.412
 1143SOL     OW 4327   1.248   2.678   2.624
 1143SOL    HW1 4328   1.197   2.698   2.541
 1143SOL    HW2 4329   1.311   2.753   2.644
 1144SOL     OW 4330   5.426   4.390   2.731
 1144SOL    HW1 4331   5.503   4.439   2.771
 1144SOL    HW2 4332   5.425   4.296   2.764
 1145SOL     OW 4333   1.230   2.534   0.429
 1145SOL    HW1 4334   1.222   2.526   0.528
 1145SOL    HW2 4335   1.234   2.630   0.402
 1146SOL     OW 4336   0.483   1.821   1.501
 1146SOL    HW1 4337   0.441   1.905   1.534
 1146SOL    HW2 4338   0.579   1.838   1.479
 1147SOL     OW 4339   2.799   5.645   0.888
 1147SOL    HW1 4340   2.836   5.627   0.979
 1147SOL    HW2 4341   2.873   5.666   0.824
 1148SOL     OW 4342   3.916   6.305   1.303
 1148SOL    HW1 4343   3.908   6.301   1.403
 1148SOL    HW2 4344   3.906   6.400   1.272
 1149SOL     OW 4345   5.594   2.926   1.384
 1149SOL    HW1 4346   5.559   2.863   1.454
 1149SOL    HW2 4347   5.615   3.014   1.425
 1150SOL     OW 4348   0.727   4.130   0.281
 1150SOL    HW1 4349   0.805   4.190   0.266
 1150SOL    HW2 4350   0.712   4.075   0.199
 1151SOL     OW 4351   6.061   4.721   4.641
 1151SOL    HW1 4352   6.103   4.631   4.631
 1151SOL    HW2 4353   6.036   4.756   4.550
 1152SOL     OW 4354   4.627   6.018   6.505
 1152SOL    HW1 4355   4.673   5.929   6.502
 1152SOL    HW2 4356   4.563   6.024   6.428
 1153SOL     OW 4357   6.727   6.791   1.619
 1153SOL    HW1 4358   6.722   6.857   1.694
 1153SOL    HW2 4359   6.636   6.779   1.579
 1154SOL     OW 4360   0.770   3.995   1.150
 1154SOL    HW1 4361   0.689   3.958   1.195
 1154SOL    HW2 4362   0.848   3.935   1.166
 1155SOL     OW 4363   2.093   5.880   5.342
 1155SOL    HW1 4364   2.126   5.938   5.417
 1155SOL    HW2 4365   2.148   5.896   5.260
 1156SOL     OW 4366   4.382   1.900   5.037
 1156SOL    HW1 4367   4.290   1.908   5.076
 1156SOL    HW2 4368   4.416   1.807   5.052
 1157SOL     OW 4369   5.272   1.006   5.690
 1157SOL    HW1 4370   5.295   0.999   5.787
 1157SOL    HW2 4371   5.177   0.979   5.676
 1158SOL     OW 4372   6.434   6.220   4.450
 1158SOL    HW1 4373   6.420   6.161   4.370
 1158SOL    HW2 4374   6.348   6.267   4.472
 1159SOL     OW 4375   5.904   6.780   3.259
 1159SOL    HW1 4376   5.866   6.872   3.248
 1159SOL    HW2 4377   6.003   6.782   3.246
 1160SOL     OW 4378   4.266   5.556   2.043
 1160SOL    HW1 4379   4.247   5.581   1.948
 1160SOL    HW2 4380   4.357   5.517   2.050
 1161SOL     OW 4381   0.046   5.332   6.568
 1161SOL    HW1 4382   6.989   5.274   6.560
 1161SOL    HW2 4383   0.017   5.428   6.576
 1162SOL     OW 4384   2.409   2.738   5.578
 1162SOL    HW1 4385   2.453   2.783   5.501
 1162SOL    HW2 4386   2.363   2.654   5.547
 1163SOL     OW 4387   6.105   4.526   1.696
 1163SOL    HW1 4388   6.189   4.481   1.665
 1163SOL    HW2 4389   6.104   4.529   1.796
 1164SOL     OW 4390   5.461   2.649   5.456
 1164SOL    HW1 4391   5.548   2.692   5.432
 1164SOL    HW2 4392   5.401   2.716   5.499
 1165SOL     OW 4393   4.232   5.907   3.024
 1165SOL    HW1 4394   4.204   5.952   3.109
 1165SOL    HW2 4395   4.271   5.975   2.962
 1166SOL     OW 4396   1.930   5.417   6.573
 1166SOL    HW1 4397   1.902   5.426   6.668
 1166SOL    HW2 4398   1.901   5.327   6.538
 1167SOL     OW 4399   4.949   4.813   1.296
 1167SOL    HW1 4400   4.857   4.821   1.257
 1167SOL    HW2 4401   4.961   4.722   1.334
 1168SOL     OW 4402   6.224   2.705   1.522
 1168SOL    HW1 4403   6.196   2.610   1.534
 1168SOL    HW2 4404   6.289   2.711   1.446
 1169SOL     OW 4405   5.308   1.732   5.280
 1169SOL    HW1 4406   5.351   1.730   5.370
 1169SOL    HW2 4407   5.377   1.723   5.209
 1170SOL     OW 4408   5.361   0.243   3.033
 1170SOL    HW1 4409   5.262   0.240   3.041
 1170SOL    HW2 4410   5.400   0.162   3.078
 1171SOL     OW 4411   2.551   6.993   0.210
 1171SOL    HW1 4412   2.508   6.961   0.294
 1171SOL    HW2 4413   2.552   0.070   0.209
 1172SOL     OW 4414   5.164   4.377   1.150
 1172SOL    HW1 4415   5.218   4.329   1.220
 1172SOL    HW2 4416   5.223   4.441   1.101
 1173SOL     OW 4417   2.884   1.431   1.562
 1173SOL    HW1 4418   2.909   1.500   1.630
 1173SOL    HW2 4419   2.915   1.459   1.472
 1174SOL     OW 4420   3.441   3.874   2.062
 1174SOL    HW1 4421   3.439   3.784   2.108
 1174SOL    HW2 4422   3.459   3.945   2.130
 1175SOL     OW 4423   4.766   3.669   6.228
 1175SOL    HW1 4424   4.701   3.595   6.210
 1175SOL    HW2 4425   4.719   3.757   6.220
 1176SOL     OW 4426   5.357   3.776   6.615
 1176SOL    HW1 4427   5.301   3.758   6.696
 1176SOL    HW2 4428   5.303   3.825   6.547
 1177SOL     OW 4429   6.763   3.984   5.032
 1177SOL    HW1 4430   6.768   3.884   5.039
 1177SOL    HW2 4431   6.668   4.012   5.027
 1178SOL     OW 4432   2.611   3.745   0.331
 1178SOL    HW1 4433   2.641   3.703   0.417
 1178SOL    HW2 4434   2.689   3.749   0.268
 1179SOL     OW 4435   2.620   5.653   0.248
 1179SOL    HW1 4436   2.603   5.688   0.156
 1179SOL    HW2 4437   2.563   5.702   0.313
 1180SOL     OW 4438   2.842   6.361   3.448
 1180SOL    HW1 4439   2.905   6.382   3.522
 1180SOL    HW2 4440   2.856   6.266   3.418
 1181SOL     OW 4441   0.157   5.348   6.291
 1181SOL    HW1 4442   0.085   5.417   6.274
 1181SOL    HW2 4443   0.137   5.300   6.377
 1182SOL     OW 4444   3.901   4.839   3.394
 1182SOL    HW1 4445   3.994   4.834   3.433
 1182SOL    HW2 4446   3.903   4.806   3.300
 1183SOL     OW 4447   2.172   3.861   6.827
 1183SOL    HW1 4448   2.259   3.842   6.781
 1183SOL    HW2 4449   2.172   3.956   6.859
 1184SOL     OW 4450   0.074   1.149   4.942
 1184SOL    HW1 4451   0.103   1.244   4.957
 1184SOL    HW2 4452   7.006   1.148   4.902
 1185SOL     OW 4453   0.425   1.573   0.631
 1185SOL    HW1 4454   0.445   1.486   0.676
 1185SOL    HW2 4455   0.449   1.648   0.692
 1186SOL     OW 4456   5.816   6.440   5.728
 1186SOL    HW1 4457   5.767   6.496   5.661
 1186SOL    HW2 4458   5.762   6.434   5.812
 1187SOL     OW 4459   6.271   6.494   6.968
 1187SOL    HW1 4460   6.259   6.554   6.889
 1187SOL    HW2 4461   6.336   6.536   0.008
 1188SOL     OW 4462   3.832   6.085   5.705
 1188SOL    HW1 4463   3.871   6.128   5.623
 1188SOL    HW2 4464   3.905   6.050   5.762
 1189SOL     OW 4465   6.291   2.431   2.100
 1189SOL    HW1 4466   6.205   2.381   2.111
 1189SOL    HW2 4467   6.294   2.474   2.010
 1190SOL     OW 4468   2.852   5.764   3.966
 1190SOL    HW1 4469   2.877   5.775   4.062
 1190SOL    HW2 4470   2.930   5.726   3.916
 1191SOL     OW 4471   4.745   5.114   4.019
 1191SOL    HW1 4472   4.808   5.056   4.072
 1191SOL    HW2 4473   4.682   5.056   3.968
 1192SOL     OW 4474   4.074   5.487   3.035
 1192SOL    HW1 4475   4.082   5.569   2.978
 1192SOL    HW2 4476   4.005   5.502   3.105
 1193SOL     OW 4477   6.351   3.257   5.288
 1193SOL    HW1 4478   6.397   3.316   5.222
 1193SOL    HW2 4479   6.417   3.222   5.353
 1194SOL     OW 4480   5.687   0.115   1.514
 1194SOL    HW1 4481   5.773   0.075   1.483
 1194SOL    HW2 4482   5.667   0.196   1.459
 1195SOL     OW 4483   6.780   4.185   0.644
 1195SOL    HW1 4484   6.728   4.233   0.574
 1195SOL    HW2 4485   6.745   4.208   0.735
 1196SOL     OW 4486   0.140   5.653   2.800
 1196SOL    HW1 4487   0.191   5.703   2.730
 1196SOL    HW2 4488   0.164   5.689   2.891
 1197SOL     OW 4489   4.386   0.679   5.148
 1197SOL    HW1 4490   4.325   0.752   5.119
 1197SOL    HW2 4491   4.444   0.711   5.222
 1198SOL     OW 4492   1.072   2.758   2.425
 1198SOL    HW1 4493   1.031   2.693   2.361
 1198SOL    HW2 4494   1.025   2.846   2.418
 1199SOL     OW 4495   3.979   4.287   1.576
 1199SOL    HW1 4496   3.976   4.187   1.569
 1199SOL    HW2 4497   3.893   4.326   1.544
 1200SOL     OW 4498   3.123   3.636   4.166
 1200SOL    HW1 4499   3.154   3.639   4.261
 1200SOL    HW2 4500   3.163   3.556   4.121
 1201SOL     OW 4501   1.000   0.813   4.206
 1201SOL    HW1 4502   1.061   0.834   4.129
 1201SOL    HW2 4503   0.949   0.896   4.231
 1202SOL     OW 4504   0.639   5.676   5.600
 1202SOL    HW1 4505   0.567   5.656   5.533
 1202SOL    HW2 4506   0.723   5.701   5.552
 1203SOL     OW 4507   6.004   6.221   0.196
 1203SOL    HW1 4508   6.028   6.239   0.291
 1203SOL    HW2 4509   5.907   6.201   0.188
 1204SOL     OW 4510   3.371   6.313   1.700
 1204SOL    HW1 4511   3.286   6.343   1.656
 1204SOL    HW2 4512   3.447   6.370   1.668
 1205SOL     OW 4513   4.850   3.681   1.247
 1205SOL    HW1 4514   4.764   3.630   1.239
 1205SOL    HW2 4515   4.926   3.623   1.217
 1206SOL     OW 4516   2.934   2.680   5.326
 1206SOL    HW1 4517   2.955   2.627   5.409
 1206SOL    HW2 4518   2.922   2.776   5.351
 1207SOL     OW 4519   2.119   6.132   1.356
 1207SOL    HW1 4520   2.108   6.163   1.451
 1207SOL    HW2 4521   2.118   6.032   1.354
 1208SOL     OW 4522   3.165   3.792   1.091
 1208SOL    HW1 4523   3.088   3.841   1.050
 1208SOL    HW2 4524   3.216   3.745   1.019
 1209SOL     OW 4525   4.904   1.170   4.633
 1209SOL    HW1 4526   4.976   1.110   4.668
 1209SOL    HW2 4527   4.854   1.210   4.710
 1210SOL     OW 4528   3.114   0.666   3.628
 1210SOL    HW1 4529   3.080   0.585   3.580
 1210SOL    HW2 4530   3.178   0.715   3.569
 1211SOL     OW 4531   0.978   3.661   1.886
 1211SOL    HW1 4532   1.004   3.635   1.793
 1211SOL    HW2 4533   0.984   3.581   1.946
 1212SOL     OW 4534   6.329   0.718   6.818
 1212SOL    HW1 4535   6.265   0.675   6.881
 1212SOL    HW2 4536   6.421   0.715   6.857
 1213SOL     OW 4537   6.622   2.130   0.660
 1213SOL    HW1 4538   6.638   2.109   0.563
 1213SOL    HW2 4539   6.663   2.218   0.682
 1214SOL     OW 4540   0.728   2.176   6.913
 1214SOL    HW1 4541   0.701   2.137   6.825
 1214SOL    HW2 4542   0.726   2.276   6.907
 1215SOL     OW 4543   1.122   4.480   3.801
 1215SOL    HW1 4544   1.214   4.452   3.772
 1215SOL    HW2 4545   1.105   4.444   3.893
 1216SOL     OW 4546   4.832   0.805   1.187
 1216SOL    HW1 4547   4.750   0.859   1.168
 1216SOL    HW2 4548   4.901   0.823   1.118
 1217SOL     OW 4549   2.069   4.578   0.351
 1217SOL    HW1 4550   1.982   4.530   0.360
 1217SOL    HW2 4551   2.062   4.647   0.279
 1218SOL     OW 4552   2.351   4.245   4.315
 1218SOL    HW1 4553   2.348   4.211   4.222
 1218SOL    HW2 4554   2.290   4.191   4.373
 1219SOL     OW 4555   5.812   6.113   1.516
 1219SOL    HW1 4556   5.731   6.058   1.493
 1219SOL    HW2 4557   5.813   6.129   1.615
 1220SOL     OW 4558   0.935   4.934   3.499
 1220SOL    HW1 4559   0.999   4.863   3.469
 1220SOL    HW2 4560   0.894   4.908   3.586
 1221SOL     OW 4561   5.854   3.497   6.164
 1221SOL    HW1 4562   5.805   3.433   6.103
 1221SOL    HW2 4563   5.812   3.588   6.157
 1222SOL     OW 4564   6.470   7.021   6.735
 1222SOL    HW1 4565   6.382   0.036   6.709
 1222SOL    HW2 4566   6.487   0.015   6.832
 1223SOL     OW 4567   3.988   0.610   0.972
 1223SOL    HW1 4568   4.003   0.677   1.045
 1223SOL    HW2 4569   3.904   0.559   0.991
 1224SOL     OW 4570   2.996   5.777   0.056
 1224SOL    HW1 4571   2.979   5.680   0.045
 1224SOL    HW2 4572   2.909   5.826   0.066
 1225SOL     OW 4573   3.698   3.619   6.757
 1225SOL    HW1 4574   3.647   3.704   6.744
 1225SOL    HW2 4575   3.772   3.614   6.690
 1226SOL     OW 4576   2.440   5.089   1.011
 1226SOL    HW1 4577   2.353   5.058   1.048
 1226SOL    HW2 4578   2.471   5.170   1.061
 1227SOL     OW 4579   6.128   3.944   0.104
 1227SOL    HW1 4580   6.089   3.998   0.179
 1227SOL    HW2 4581   6.133   3.999   0.022
 1228SOL     OW 4582   4.544   2.865   6.816
 1228SOL    HW1 4583   4.616   2.933   6.801
 1228SOL    HW2 4584   4.525   2.858   6.914
 1229SOL     OW 4585   3.895   5.339   6.246
 1229SOL    HW1 4586   3.824   5.402   6.215
 1229SOL    HW2 4587   3.984   5.373   6.218
 1230SOL     OW 4588   4.847   0.269   3.523
 1230SOL    HW1 4589   4.851   0.305   3.430
 1230SOL    HW2 4590   4.898   0.328   3.585
 1231SOL     OW 4591   1.378   3.731   4.316
 1231SOL    HW1 4592   1.376   3.827   4.289
 1231SOL    HW2 4593   1.385   3.725   4.416
 1232SOL     OW 4594   0.488   2.454   6.248
 1232SOL    HW1 4595   0.564   2.465   6.185
 1232SOL    HW2 4596   0.402   2.463   6.198
 1233SOL     OW 4597   1.053   3.244   4.157
 1233SOL    HW1 4598   1.033   3.175   4.088
 1233SOL    HW2 4599   0.967   3.284   4.189
 1234SOL     OW 4600   6.301   4.140   4.645
 1234SOL    HW1 4601   6.296   4.138   4.745
 1234SOL    HW2 4602   6.395   4.119   4.616
 1235SOL     OW 4603   0.108   5.457   2.408
 1235SOL    HW1 4604   0.148   5.457   2.499
 1235SOL    HW2 4605   0.091   5.552   2.379
 1236SOL     OW 4606   4.989   1.283   0.363
 1236SOL    HW1 4607   5.009   1.348   0.290
 1236SOL    HW2 4608   4.894   1.294   0.392
 1237SOL     OW 4609   2.335   4.785   5.820
 1237SOL    HW1 4610   2.392   4.794   5.902
 1237SOL    HW2 4611   2.363   4.704   5.769
 1238SOL     OW 4612   2.250   0.889   0.623
 1238SOL    HW1 4613   2.152   0.892   0.607
 1238SOL    HW2 4614   2.298   0.875   0.536
 1239SOL     OW 4615   0.039   6.762   6.258
 1239SOL    HW1 4616   7.017   6.739   6.344
 1239SOL    HW2 4617   7.015   6.839   6.215
 1240SOL     OW 4618   5.460   5.772   1.696
 1240SOL    HW1 4619   5.499   5.713   1.625
 1240SOL    HW2 4620   5.363   5.749   1.709
 1241SOL     OW 4621   6.334   3.869   3.770
 1241SOL    HW1 4622   6.376   3.794   3.822
 1241SOL    HW2 4623   6.327   3.842   3.674
 1242SOL     OW 4624   0.436   3.482   1.864
 1242SOL    HW1 4625   0.342   3.513   1.845
 1242SOL    HW2 4626   0.500   3.553   1.836
 1243SOL     OW 4627   0.763   6.872   5.130
 1243SOL    HW1 4628   0.725   6.811   5.199
 1243SOL    HW2 4629   0.858   6.893   5.153
 1244SOL     OW 4630   6.530   6.472   3.530
 1244SOL    HW1 4631   6.461   6.456   3.601
 1244SOL    HW2 4632   6.582   6.389   3.514
 1245SOL     OW 4633   5.161   4.167   6.481
 1245SOL    HW1 4634   5.106   4.231   6.535
 1245SOL    HW2 4635   5.249   4.210   6.458
 1246SOL     OW 4636   2.115   6.245   1.627
 1246SOL    HW1 4637   2.097   6.341   1.605
 1246SOL    HW2 4638   2.094   6.228   1.723
 1247SOL     OW 4639   2.891   0.191   6.721
 1247SOL    HW1 4640   2.828   0.135   6.774
 1247SOL    HW2 4641   2.971   0.137   6.696
 1248SOL     OW 4642   2.388   6.936   4.568
 1248SOL    HW1 4643   2.288   6.932   4.576
 1248SOL    HW2 4644   2.413   6.993   4.491
 1249SOL     OW 4645   5.937   2.168   2.242
 1249SOL    HW1 4646   5.964   2.072   2.236
 1249SOL    HW2 4647   5.837   2.175   2.242
 1250SOL     OW 4648   6.772   4.641   4.448
 1250SOL    HW1 4649   6.818   4.552   4.455
 1250SOL    HW2 4650   6.810   4.703   4.517
 1251SOL     OW 4651   3.100   6.734   4.405
 1251SOL    HW1 4652   3.111   6.638   4.378
 1251SOL    HW2 4653   3.122   6.745   4.501
 1252SOL     OW 4654   3.809   3.290   5.794
 1252SOL    HW1 4655   3.788   3.220   5.862
 1252SOL    HW2 4656   3.838   3.373   5.840
 1253SOL     OW 4657   3.312   5.055   1.563
 1253SOL    HW1 4658   3.256   5.030   1.642
 1253SOL    HW2 4659   3.356   5.143   1.579
 1254SOL     OW 4660   6.563   3.291   2.398
 1254SOL    HW1 4661   6.626   3.213   2.404
 1254SOL    HW2 4662   6.603   3.370   2.444
 1255SOL     OW 4663   6.772   1.783   4.687
 1255SOL    HW1 4664   6.822   1.855   4.638
 1255SOL    HW2 4665   6.779   1.697   4.636
 1256SOL     OW 4666   6.996   6.987   2.897
 1256SOL    HW1 4667   6.940   6.908   2.872
 1256SOL    HW2 4668   7.010   6.987   2.996
 1257SOL     OW 4669   6.534   6.980   3.542
 1257SOL    HW1 4670   6.504   6.887   3.524
 1257SOL    HW2 4671   6.627   6.993   3.507
 1258SOL     OW 4672   1.228   5.079   3.728
 1258SOL    HW1 4673   1.200   4.990   3.765
 1258SOL    HW2 4674   1.229   5.075   3.628
 1259SOL     OW 4675   3.728   2.128   4.395
 1259SOL    HW1 4676   3.815   2.169   4.422
 1259SOL    HW2 4677   3.673   2.110   4.477
 1260SOL     OW 4678   1.126   1.371   6.734
 1260SOL    HW1 4679   1.058   1.444   6.730
 1260SOL    HW2 4680   1.202   1.398   6.793
 1261SOL     OW 4681   0.003   5.772   6.414
 1261SOL    HW1 4682   0.032   5.785   6.319
 1261SOL    HW2 4683   6.982   5.855   6.447
 1262SOL     OW 4684   5.103   5.124   1.117
 1262SOL    HW1 4685   5.123   5.190   1.044
 1262SOL    HW2 4686   5.157   5.147   1.198
 1263SOL     OW 4687   0.499   0.792   2.557
 1263SOL    HW1 4688   0.586   0.743   2.555
 1263SOL    HW2 4689   0.434   0.744   2.615
 1264SOL     OW 4690   0.536   4.147   6.500
 1264SOL    HW1 4691   0.471   4.144   6.424
 1264SOL    HW2 4692   0.552   4.242   6.527
 1265SOL     OW 4693   6.246   5.029   4.326
 1265SOL    HW1 4694   6.225   5.070   4.414
 1265SOL    HW2 4695   6.239   5.099   4.254
 1266SOL     OW 4696   0.694   0.643   4.272
 1266SOL    HW1 4697   0.642   0.646   4.186
 1266SOL    HW2 4698   0.644   0.692   4.343
 1267SOL     OW 4699   4.775   0.851   1.488
 1267SOL    HW1 4700   4.748   0.759   1.515
 1267SOL    HW2 4701   4.745   0.917   1.557
 1268SOL     OW 4702   2.829   2.744   6.501
 1268SOL    HW1 4703   2.889   2.665   6.490
 1268SOL    HW2 4704   2.791   2.771   6.412
 1269SOL     OW 4705   5.815   2.985   3.690
 1269SOL    HW1 4706   5.727   2.998   3.645
 1269SOL    HW2 4707   5.810   3.019   3.784
 1270SOL     OW 4708   2.088   4.446   2.172
 1270SOL    HW1 4709   2.114   4.542   2.161
 1270SOL    HW2 4710   2.089   4.422   2.269
 1271SOL     OW 4711   3.440   0.783   2.052
 1271SOL    HW1 4712   3.459   0.823   1.963
 1271SOL    HW2 4713   3.396   0.850   2.111
 1272SOL     OW 4714   6.337   4.524   6.578
 1272SOL    HW1 4715   6.242   4.517   6.610
 1272SOL    HW2 4716   6.396   4.474   6.641
 1273SOL     OW 4717   1.658   3.724   5.421
 1273SOL    HW1 4718   1.562   3.740   5.442
 1273SOL    HW2 4719   1.666   3.670   5.337
 1274SOL     OW 4720   0.591   4.244   1.279
 1274SOL    HW1 4721   0.647   4.322   1.252
 1274SOL    HW2 4722   0.559   4.196   1.198
 1275SOL     OW 4723   3.064   0.206   3.363
 1275SOL    HW1 4724   3.042   0.303   3.370
 1275SOL    HW2 4725   3.005   0.163   3.295
 1276SOL     OW 4726   5.396   4.996   4.506
 1276SOL    HW1 4727   5.360   5.047   4.584
 1276SOL    HW2 4728   5.388   4.898   4.524
 1277SOL     OW 4729   1.496   5.249   0.304
 1277SOL    HW1 4730   1.499   5.276   0.207
 1277SOL    HW2 4731   1.588   5.258   0.343
 1278SOL     OW 4732   1.319   6.955   4.077
 1278SOL    HW1 4733   1.397   6.936   4.137
 1278SOL    HW2 4734   1.329   6.903   3.992
 1279SOL     OW 4735   2.329   4.062   6.128
 1279SOL    HW1 4736   2.419   4.047   6.170
 1279SOL    HW2 4737   2.328   4.019   6.037
 1280SOL     OW 4738   4.417   0.106   3.783
 1280SOL    HW1 4739   4.479   0.154   3.721
 1280SOL    HW2 4740   4.455   0.108   3.876
 1281SOL     OW 4741   2.720   5.611   3.761
 1281SOL    HW1 4742   2.773   5.660   3.830
 1281SOL    HW2 4743   2.754   5.517   3.753
 1282SOL     OW 4744   0.118   2.764   0.122
 1282SOL    HW1 4745   0.046   2.776   0.053
 1282SOL    HW2 4746   0.167   2.678   0.104
 1283SOL     OW 4747   6.315   3.989   5.566
 1283SOL    HW1 4748   6.367   3.910   5.533
 1283SOL    HW2 4749   6.378   4.057   5.604
 1284SOL     OW 4750   4.008   0.810   1.161
 1284SOL    HW1 4751   3.919   0.815   1.207
 1284SOL    HW2 4752   4.076   0.858   1.216
 1285SOL     OW 4753   4.282   1.315   5.646
 1285SOL    HW1 4754   4.279   1.223   5.685
 1285SOL    HW2 4755   4.277   1.310   5.546
 1286SOL     OW 4756   4.615   2.466   1.013
 1286SOL    HW1 4757   4.538   2.434   1.069
 1286SOL    HW2 4758   4.697   2.471   1.069
 1287SOL     OW 4759   5.408   4.717   5.464
 1287SOL    HW1 4760   5.496   4.708   5.418
 1287SOL    HW2 4761   5.337   4.673   5.408
 1288SOL     OW 4762   4.072   4.905   5.492
 1288SOL    HW1 4763   4.135   4.858   5.554
 1288SOL    HW2 4764   4.092   5.003   5.492
 1289SOL     OW 4765   0.045   0.682   1.931
 1289SOL    HW1 4766   0.027   0.634   1.845
 1289SOL    HW2 4767   7.004   0.758   1.941
 1290SOL     OW 4768   1.421   6.868   1.542
 1290SOL    HW1 4769   1.492   6.901   1.480
 1290SOL    HW2 4770   1.464   6.821   1.619
 1291SOL     OW 4771   6.443   4.903   4.168
 1291SOL    HW1 4772   6.384   4.912   4.248
 1291SOL    HW2 4773   6.395   4.939   4.087
 1292SOL     OW 4774   0.760   5.387   2.070
 1292SOL    HW1 4775   0.839   5.327   2.056
 1292SOL    HW2 4776   0.728   5.377   2.164
 1293SOL     OW 4777   2.402   2.270   0.402
 1293SOL    HW1 4778   2.439   2.189   0.449
 1293SOL    HW2 4779   2.361   2.242   0.316
 1294SOL     OW 4780   1.641   4.208   6.363
 1294SOL    HW1 4781   1.635   4.245   6.456
 1294SOL    HW2 4782   1.620   4.281   6.297
 1295SOL     OW 4783   0.473   3.503   1.434
 1295SOL    HW1 4784   0.405   3.431   1.446
 1295SOL    HW2 4785   0.510   3.500   1.342
 1296SOL     OW 4786   4.745   6.944   5.367
 1296SOL    HW1 4787   4.750   0.010   5.411
 1296SOL    HW2 4788   4.666   6.941   5.306
 1297SOL     OW 4789   1.121   6.249   1.598
 1297SOL    HW1 4790   1.215   6.247   1.566
 1297SOL    HW2 4791   1.066   6.307   1.538
 1298SOL     OW 4792   4.855   5.856   3.288
 1298SOL    HW1 4793   4.911   5.928   3.247
 1298SOL    HW2 4794   4.871   5.853   3.386
 1299SOL     OW 4795   1.973   2.972   3.947
 1299SOL    HW1 4796   1.959   3.065   3.913
 1299SOL    HW2 4797   1.929   2.906   3.885
 1300SOL     OW 4798   1.780   3.352   1.555
 1300SOL    HW1 4799   1.801   3.381   1.461
 1300SOL    HW2 4800   1.681   3.355   1.569
 1301SOL     OW 4801   0.727   6.624   2.050
 1301SOL    HW1 4802   0.628   6.619   2.050
 1301SOL    HW2 4803   0.762   6.601   1.959
 1302SOL     OW 4804   5.229   0.880   5.128
 1302SOL    HW1 4805   5.226   0.787   5.167
 1302SOL    HW2 4806   5.312   0.926   5.159
 1303SOL     OW 4807   4.163   0.664   1.684
 1303SOL    HW1 4808   4.083   0.724   1.678
 1303SOL    HW2 4809   4.206   0.675   1.773
 1304SOL     OW 4810   2.003   1.229   1.530
 1304SOL    HW1 4811   1.921   1.186   1.568
 1304SOL    HW2 4812   2.017   1.318   1.573
 1305SOL     OW 4813   5.985   4.451   5.931
 1305SOL    HW1 4814   6.050   4.376   5.913
 1305SOL    HW2 4815   5.907   4.415   5.981
 1306SOL     OW 4816   1.366   5.834   4.522
 1306SOL    HW1 4817   1.293   5.901   4.533
 1306SOL    HW2 4818   1.418   5.854   4.439
 1307SOL     OW 4819   2.011   3.841   4.025
 1307SOL    HW1 4820   2.001   3.937   4.051
 1307SOL    HW2 4821   2.006   3.784   4.107
 1308SOL     OW 4822   6.724   6.950   5.973
 1308SOL    HW1 4823   6.646   6.999   5.934
 1308SOL    HW2 4824   6.798   6.947   5.906
 1309SOL     OW 4825   5.369   4.647   5.733
 1309SOL    HW1 4826   5.423   4.693   5.663
 1309SOL    HW2 4827   5.272   4.651   5.707
 1310SOL     OW 4828   0.390   4.492   3.696
 1310SOL    HW1 4829   0.359   4.546   3.617
 1310SOL    HW2 4830   0.440   4.552   3.759
 1311SOL     OW 4831   6.395   5.913   6.622
 1311SOL    HW1 4832   6.488   5.934   6.653
 1311SOL    HW2 4833   6.351   5.852   6.688
 1312SOL     OW 4834   1.686   0.330   0.084
 1312SOL    HW1 4835   1.684   0.372   0.175
 1312SOL    HW2 4836   1.692   0.231   0.094
 1313SOL     OW 4837   6.796   5.297   2.686
 1313SOL    HW1 4838   6.785   5.267   2.592
 1313SOL    HW2 4839   6.722   5.260   2.742
 1314SOL     OW 4840   3.499   1.863   4.474
 1314SOL    HW1 4841   3.478   1.766   4.458
 1314SOL    HW2 4842   3.462   1.918   4.400
 1315SOL     OW 4843   6.774   0.899   3.717
 1315SOL    HW1 4844   6.758   0.842   3.636
 1315SOL    HW2 4845   6.690   0.902   3.771
 1316SOL     OW 4846   3.626   6.985   4.823
 1316SOL    HW1 4847   3.669   0.033   4.877
 1316SOL    HW2 4848   3.535   7.015   4.794
 1317SOL     OW 4849   1.648   4.375   5.098
 1317SOL    HW1 4850   1.615   4.362   5.192
 1317SOL    HW2 4851   1.747   4.392   5.100
 1318SOL     OW 4852   1.433   2.496   6.695
 1318SOL    HW1 4853   1.336   2.500   6.717
 1318SOL    HW2 4854   1.477   2.582   6.722
 1319SOL     OW 4855   0.159   5.636   6.822
 1319SOL    HW1 4856   0.254   5.664   6.829
 1319SOL    HW2 4857   0.146   5.548   6.868
 1320SOL     OW 4858   2.683   3.102   6.846
 1320SOL    HW1 4859   2.700   3.039   6.770
 1320SOL    HW2 4860   2.600   3.155   6.827
 1321SOL     OW 4861   4.655   2.480   6.308
 1321SOL    HW1 4862   4.612   2.400   6.267
 1321SOL    HW2 4863   4.600   2.512   6.385
 1322SOL     OW 4864   3.716   1.481   4.233
 1322SOL    HW1 4865   3.774   1.549   4.190
 1322SOL    HW2 4866   3.622   1.514   4.236
 1323SOL     OW 4867   3.420   6.203   0.678
 1323SOL    HW1 4868   3.477   6.194   0.760
 1323SOL    HW2 4869   3.437   6.126   0.617
 1324SOL     OW 4870   0.701   3.540   0.572
 1324SOL    HW1 4871   0.665   3.493   0.491
 1324SOL    HW2 4872   0.636   3.611   0.601
 1325SOL     OW 4873   4.285   6.274   5.198
 1325SOL    HW1 4874   4.287   6.174   5.188
 1325SOL    HW2 4875   4.252   6.298   5.289
 1326SOL     OW 4876   4.915   4.273   5.275
 1326SOL    HW1 4877   4.939   4.291   5.370
 1326SOL    HW2 4878   4.982   4.210   5.235
 1327SOL     OW 4879   0.375   6.447   1.203
 1327SOL    HW1 4880   0.363   6.479   1.297
 1327SOL    HW2 4881   0.303   6.484   1.145
 1328SOL     OW 4882   2.017   2.969   6.667
 1328SOL    HW1 4883   2.090   2.947   6.732
 1328SOL    HW2 4884   1.964   3.046   6.701
 1329SOL     OW 4885   6.838   1.922   3.224
 1329SOL    HW1 4886   6.936   1.938   3.227
 1329SOL    HW2 4887   6.819   1.827   3.250
 1330SOL     OW 4888   0.557   2.296   1.086
 1330SOL    HW1 4889   0.592   2.388   1.104
 1330SOL    HW2 4890   0.505   2.264   1.165
 1331SOL     OW 4891   4.717   2.698   2.710
 1331SOL    HW1 4892   4.644   2.677   2.775
 1331SOL    HW2 4893   4.765   2.781   2.740
 1332SOL     OW 4894   2.270   6.640   0.335
 1332SOL    HW1 4895   2.348   6.702   0.338
 1332SOL    HW2 4896   2.264   6.598   0.245
 1333SOL     OW 4897   2.971   3.790   3.143
 1333SOL    HW1 4898   2.958   3.694   3.119
 1333SOL    HW2 4899   2.934   3.806   3.235
 1334SOL     OW 4900   6.183   1.850   3.682
 1334SOL    HW1 4901   6.195   1.949   3.693
 1334SOL    HW2 4902   6.210   1.804   3.766
 1335SOL     OW 4903   1.892   1.996   1.842
 1335SOL    HW1 4904   1.850   1.914   1.803
 1335SOL    HW2 4905   1.866   2.076   1.789
 1336SOL     OW 4906   3.985   1.276   5.261
 1336SOL    HW1 4907   3.971   1.178   5.251
 1336SOL    HW2 4908   3.896   1.322   5.266
 1337SOL     OW 4909   6.843   1.609   3.256
 1337SOL    HW1 4910   6.904   1.603   3.178
 1337SOL    HW2 4911   6.750   1.628   3.225
 1338SOL     OW 4912   0.202   4.275   4.294
 1338SOL    HW1 4913   0.278   4.271   4.228
 1338SOL    HW2 4914   0.135   4.204   4.272
 1339SOL     OW 4915   6.754   0.943   0.391
 1339SOL    HW1 4916   6.714   0.982   0.474
 1339SOL    HW2 4917   6.775   0.847   0.406
 1340SOL     OW 4918   5.545   1.717   2.819
 1340SOL    HW1 4919   5.451   1.693   2.843
 1340SOL    HW2 4920   5.547   1.808   2.778
 1341SOL     OW 4921   3.877   6.051   0.056
 1341SOL    HW1 4922   3.804   6.119   0.055
 1341SOL    HW2 4923   3.941   6.070   7.006
 1342SOL     OW 4924   2.996   5.234   6.622
 1342SOL    HW1 4925   3.040   5.171   6.559
 1342SOL    HW2 4926   2.924   5.185   6.673
 1343SOL     OW 4927   5.449   5.310   2.824
 1343SOL    HW1 4928   5.360   5.330   2.783
 1343SOL    HW2 4929   5.447   5.218   2.864
 1344SOL     OW 4930   0.301   6.313   4.234
 1344SOL    HW1 4931   0.398   6.288   4.231
 1344SOL    HW2 4932   0.289   6.407   4.203
 1345SOL     OW 4933   0.754   4.597   2.264
 1345SOL    HW1 4934   0.678   4.626   2.323
 1345SOL    HW2 4935   0.803   4.677   2.232
 1346SOL     OW 4936   1.882   5.264   6.342
 1346SOL    HW1 4937   1.838   5.324   6.276
 1346SOL    HW2 4938   1.924   5.187   6.295
 1347SOL     OW 4939   1.339   6.674   6.899
 1347SOL    HW1 4940   1.437   6.694   6.903
 1347SOL    HW2 4941   1.292   6.747   6.848
 1348SOL     OW 4942   7.023   6.532   5.507
 1348SOL    HW1 4943   0.008   6.606   5.441
 1348SOL    HW2 4944   0.050   6.555   5.590
 1349SOL     OW 4945   5.248   2.559   4.278
 1349SOL    HW1 4946   5.344   2.573   4.254
 1349SOL    HW2 4947   5.235   2.574   4.376
 1350SOL     OW 4948   4.544   5.061   6.057
 1350SOL    HW1 4949   4.641   5.086   6.057
 1350SOL    HW2 4950   4.521   5.020   6.146
 1351SOL     OW 4951   5.891   2.586   4.205
 1351SOL    HW1 4952   5.835   2.647   4.261
 1351SOL    HW2 4953   5.976   2.633   4.180
 1352SOL     OW 4954   6.721   6.266   3.504
 1352SOL    HW1 4955   6.757   6.231   3.417
 1352SOL    HW2 4956   6.763   6.217   3.580
 1353SOL     OW 4957   1.503   1.912   0.477
 1353SOL    HW1 4958   1.426   1.857   0.446
 1353SOL    HW2 4959   1.556   1.862   0.545
 1354SOL     OW 4960   0.318   4.058   1.842
 1354SOL    HW1 4961   0.392   4.040   1.907
 1354SOL    HW2 4962   0.278   4.148   1.862
 1355SOL     OW 4963   6.046   3.508   4.161
 1355SOL    HW1 4964   6.124   3.478   4.215
 1355SOL    HW2 4965   5.965   3.514   4.220
 1356SOL     OW 4966   3.538   3.030   1.797
 1356SOL    HW1 4967   3.605   3.028   1.872
 1356SOL    HW2 4968   3.452   3.067   1.831
 1357SOL     OW 4969   0.024   4.472   6.397
 1357SOL    HW1 4970   6.994   4.442   6.318
 1357SOL    HW2 4971   6.995   4.539   6.450
 1358SOL     OW 4972   6.195   6.806   0.117
 1358SOL    HW1 4973   6.136   6.775   0.192
 1358SOL    HW2 4974   6.267   6.739   0.101
 1359SOL     OW 4975   6.597   4.931   2.120
 1359SOL    HW1 4976   6.600   4.944   2.219
 1359SOL    HW2 4977   6.533   4.997   2.079
 1360SOL     OW 4978   3.265   3.184   0.298
 1360SOL    HW1 4979   3.232   3.095   0.266
 1360SOL    HW2 4980   3.255   3.189   0.398
 1361SOL     OW 4981   6.862   4.389   4.527
 1361SOL    HW1 4982   6.953   4.425   4.505
 1361SOL    HW2 4983   6.862   4.354   4.620
 1362SOL     OW 4984   3.928   3.911   2.913
 1362SOL    HW1 4985   3.908   3.829   2.967
 1362SOL    HW2 4986   4.015   3.950   2.942
 1363SOL     OW 4987   0.517   5.284   4.265
 1363SOL    HW1 4988   0.552   5.221   4.334
 1363SOL    HW2 4989   0.426   5.317   4.294
 1364SOL     OW 4990   4.593   4.046   0.243
 1364SOL    HW1 4991   4.500   4.019   0.264
 1364SOL    HW2 4992   4.595   4.144   0.221
 1365SOL     OW 4993   0.611   4.386   6.604
 1365SOL    HW1 4994   0.532   4.430   6.648
 1365SOL    HW2 4995   0.666   4.339   6.673
 1366SOL     OW 4996   1.447   6.529   5.970
 1366SOL    HW1 4997   1.354   6.565   5.977
 1366SOL    HW2 4998   1.488   6.559   5.884
 1367SOL     OW 4999   2.062   0.692   2.480
 1367SOL    HW1 5000   2.079   0.784   2.443
 1367SOL    HW2 5001   1.964   0.679   2.492
 1368SOL     OW 5002   5.460   6.861   5.214
 1368SOL    HW1 5003   5.467   6.943   5.157
 1368SOL    HW2 5004   5.414   6.789   5.163
 1369SOL     OW 5005   1.944   6.108   2.972
 1369SOL    HW1 5006   1.893   6.176   3.024
 1369SOL    HW2 5007   1.915   6.110   2.876
 1370SOL     OW 5008   3.697   0.777   2.238
 1370SOL    HW1 5009   3.604   0.742   2.244
 1370SOL    HW2 5010   3.755   0.710   2.192
 1371SOL     OW 5011   4.637   1.090   4.453
 1371SOL    HW1 5012   4.635   1.189   4.466
 1371SOL    HW2 5013   4.714   1.066   4.393
 1372SOL     OW 5014   1.951   2.608   1.198
 1372SOL    HW1 5015   1.852   2.609   1.182
 1372SOL    HW2 5016   1.970   2.560   1.283
 1373SOL     OW 5017   6.266   4.681   0.299
 1373SOL    HW1 5018   6.251   4.708   0.394
 1373SOL    HW2 5019   6.247   4.758   0.238
 1374SOL     OW 5020   4.654   2.310   0.769
 1374SOL    HW1 5021   4.667   2.362   0.853
 1374SOL    HW2 5022   4.605   2.225   0.789
 1375SOL     OW 5023   6.470   5.375   6.097
 1375SOL    HW1 5024   6.402   5.358   6.025
 1375SOL    HW2 5025   6.433   5.439   6.164
 1376SOL     OW 5026   4.780   2.591   4.059
 1376SOL    HW1 5027   4.701   2.584   4.120
 1376SOL    HW2 5028   4.799   2.687   4.038
 1377SOL     OW 5029   0.500   4.370   6.134
 1377SOL    HW1 5030   0.581   4.413   6.174
 1377SOL    HW2 5031   0.452   4.436   6.076
 1378SOL     OW 5032   0.939   2.537   5.748
 1378SOL    HW1 5033   0.924   2.454   5.695
 1378SOL    HW2 5034   0.917   2.519   5.844
 1379SOL     OW 5035   3.556   5.971   2.922
 1379SOL    HW1 5036   3.524   6.064   2.943
 1379SOL    HW2 5037   3.526   5.945   2.831
 1380SOL     OW 5038   6.580   0.175   2.758
 1380SOL    HW1 5039   6.557   0.165   2.855
 1380SOL    HW2 5040   6.539   0.101   2.705
 1381SOL     OW 5041   5.312   2.940   0.125
 1381SOL    HW1 5042   5.327   2.845   0.152
 1381SOL    HW2 5043   5.340   3.000   0.200
 1382SOL     OW 5044   5.937   5.176   5.944
 1382SOL    HW1 5045   5.939   5.266   5.900
 1382SOL    HW2 5046   5.972   5.107   5.880
 1383SOL     OW 5047   0.841   1.172   0.136
 1383SOL    HW1 5048   0.932   1.140   0.161
 1383SOL    HW2 5049   0.800   1.219   0.214
 1384SOL     OW 5050   3.021   1.682   3.670
 1384SOL    HW1 5051   3.020   1.588   3.634
 1384SOL    HW2 5052   2.990   1.681   3.765
 1385SOL     OW 5053   6.570   2.557   3.096
 1385SOL    HW1 5054   6.480   2.598   3.112
 1385SOL    HW2 5055   6.570   2.463   3.131
 1386SOL     OW 5056   2.225   3.093   4.248
 1386SOL    HW1 5057   2.142   3.037   4.257
 1386SOL    HW2 5058   2.298   3.037   4.210
 1387SOL     OW 5059   3.683   0.218   4.379
 1387SOL    HW1 5060   3.683   0.299   4.438
 1387SOL    HW2 5061   3.713   0.139   4.432
 1388SOL     OW 5062   6.727   0.353   4.050
 1388SOL    HW1 5063   6.739   0.432   4.110
 1388SOL    HW2 5064   6.775   0.369   3.964
 1389SOL     OW 5065   6.800   0.122   4.167
 1389SOL    HW1 5066   6.806   0.106   4.265
 1389SOL    HW2 5067   6.791   0.220   4.150
 1390SOL     OW 5068   4.114   1.879   0.899
 1390SOL    HW1 5069   4.017   1.858   0.904
 1390SOL    HW2 5070   4.126   1.978   0.890
 1391SOL     OW 5071   5.970   0.949   5.594
 1391SOL    HW1 5072   6.025   1.005   5.656
 1391SOL    HW2 5073   5.917   0.883   5.646
 1392SOL     OW 5074   4.411   5.874   6.230
 1392SOL    HW1 5075   4.357   5.791   6.218
 1392SOL    HW2 5076   4.357   5.941   6.281
 1393SOL     OW 5077   6.433   1.639   6.554
 1393SOL    HW1 5078   6.409   1.605   6.463
 1393SOL    HW2 5079   6.350   1.669   6.601
 1394SOL     OW 5080   4.510   6.242   3.656
 1394SOL    HW1 5081   4.434   6.247   3.721
 1394SOL    HW2 5082   4.475   6.241   3.563
 1395SOL     OW 5083   0.824   4.944   3.222
 1395SOL    HW1 5084   0.877   4.979   3.144
 1395SOL    HW2 5085   0.879   4.951   3.305
 1396SOL     OW 5086   1.874   1.169   4.741
 1396SOL    HW1 5087   1.948   1.132   4.797
 1396SOL    HW2 5088   1.826   1.240   4.791
 1397SOL     OW 5089   0.599   4.994   4.911
 1397SOL    HW1 5090   0.576   4.917   4.851
 1397SOL    HW2 5091   0.694   4.984   4.943
 1398SOL     OW 5092   1.529   1.103   0.779
 1398SOL    HW1 5093   1.436   1.137   0.773
 1398SOL    HW2 5094   1.586   1.169   0.827
 1399SOL     OW 5095   4.097   6.972   0.417
 1399SOL    HW1 5096   4.125   0.021   0.479
 1399SOL    HW2 5097   4.022   6.919   0.458
 1400SOL     OW 5098   6.782   0.457   4.547
 1400SOL    HW1 5099   6.713   0.400   4.591
 1400SOL    HW2 5100   6.749   0.488   4.458
 1401SOL     OW 5101   5.520   0.858   3.871
 1401SOL    HW1 5102   5.421   0.845   3.874
 1401SOL    HW2 5103   5.541   0.946   3.829
 1402SOL     OW 5104   5.596   4.075   1.501
 1402SOL    HW1 5105   5.628   3.988   1.538
 1402SOL    HW2 5106   5.554   4.060   1.412
 1403SOL     OW 5107   3.880   3.542   0.011
 1403SOL    HW1 5108   3.902   3.632   0.049
 1403SOL    HW2 5109   3.820   3.553   6.955
 1404SOL     OW 5110   4.742   0.050   0.987
 1404SOL    HW1 5111   4.690   0.117   1.040
 1404SOL    HW2 5112   4.773   7.000   1.047
 1405SOL     OW 5113   2.016   3.572   0.960
 1405SOL    HW1 5114   2.089   3.542   1.021
 1405SOL    HW2 5115   2.010   3.672   0.963
 1406SOL     OW 5116   2.174   3.283   1.331
 1406SOL    HW1 5117   2.110   3.210   1.308
 1406SOL    HW2 5118   2.240   3.250   1.399
 1407SOL     OW 5119   0.844   3.096   2.006
 1407SOL    HW1 5120   0.819   3.082   2.101
 1407SOL    HW2 5121   0.922   3.159   2.001
 1408SOL     OW 5122   5.564   5.916   6.297
 1408SOL    HW1 5123   5.659   5.886   6.291
 1408SOL    HW2 5124   5.530   5.900   6.389
 1409SOL     OW 5125   0.138   0.828   6.125
 1409SOL    HW1 5126   0.105   0.811   6.218
 1409SOL    HW2 5127   0.117   0.749   6.067
 1410SOL     OW 5128   2.918   2.732   5.921
 1410SOL    HW1 5129   2.935   2.820   5.878
 1410SOL    HW2 5130   2.844   2.685   5.872
 1411SOL     OW 5131   3.877   5.696   0.226
 1411SOL    HW1 5132   3.909   5.650   0.309
 1411SOL    HW2 5133   3.847   5.789   0.249
 1412SOL     OW 5134   1.515   2.652   0.500
 1412SOL    HW1 5135   1.514   2.620   0.595
 1412SOL    HW2 5136   1.598   2.705   0.484
 1413SOL     OW 5137   1.956   1.501   4.830
 1413SOL    HW1 5138   2.023   1.427   4.835
 1413SOL    HW2 5139   1.884   1.484   4.898
 1414SOL     OW 5140   1.004   3.477   2.459
 1414SOL    HW1 5141   1.095   3.437   2.446
 1414SOL    HW2 5142   0.994   3.507   2.554
 1415SOL     OW 5143   2.442   2.150   4.376
 1415SOL    HW1 5144   2.520   2.089   4.364
 1415SOL    HW2 5145   2.389   2.123   4.456
 1416SOL     OW 5146   4.032   6.951   5.678
 1416SOL    HW1 5147   3.982   6.929   5.762
 1416SOL    HW2 5148   4.128   6.926   5.689
 1417SOL     OW 5149   3.016   2.959   6.332
 1417SOL    HW1 5150   3.061   2.875   6.362
 1417SOL    HW2 5151   2.925   2.938   6.298
 1418SOL     OW 5152   3.722   3.470   0.350
 1418SOL    HW1 5153   3.782   3.394   0.376
 1418SOL    HW2 5154   3.776   3.554   0.342
 1419SOL     OW 5155   1.924   4.843   3.656
 1419SOL    HW1 5156   1.987   4.910   3.696
 1419SOL    HW2 5157   1.871   4.800   3.729
 1420SOL     OW 5158   3.820   5.352   2.514
 1420SOL    HW1 5159   3.862   5.442   2.504
 1420SOL    HW2 5160   3.765   5.350   2.597
 1421SOL     OW 5161   1.077   4.913   5.482
 1421SOL    HW1 5162   1.004   4.962   5.530
 1421SOL    HW2 5163   1.144   4.979   5.448
 1422SOL     OW 5164   2.796   3.826   5.916
 1422SOL    HW1 5165   2.875   3.801   5.860
 1422SOL    HW2 5166   2.815   3.912   5.963
 1423SOL     OW 5167   4.156   0.782   4.855
 1423SOL    HW1 5168   4.181   0.697   4.809
 1423SOL    HW2 5169   4.072   0.818   4.815
 1424SOL     OW 5170   5.702   3.231   6.393
 1424SOL    HW1 5171   5.658   3.215   6.305
 1424SOL    HW2 5172   5.640   3.206   6.467
 1425SOL     OW 5173   3.712   6.254   4.402
 1425SOL    HW1 5174   3.713   6.348   4.434
 1425SOL    HW2 5175   3.673   6.195   4.472
 1426SOL     OW 5176   2.230   1.716   6.508
 1426SOL    HW1 5177   2.184   1.627   6.497
 1426SOL    HW2 5178   2.305   1.707   6.573
 1427SOL     OW 5179   1.386   1.191   3.171
 1427SOL    HW1 5180   1.320   1.179   3.246
 1427SOL    HW2 5181   1.351   1.257   3.106
 1428SOL     OW 5182   6.773   3.021   2.696
 1428SOL    HW1 5183   6.698   3.022   2.763
 1428SOL    HW2 5184   6.815   2.930   2.695
 1429SOL     OW 5185   6.028   1.659   0.798
 1429SOL    HW1 5186   6.064   1.640   0.707
 1429SOL    HW2 5187   6.017   1.573   0.849
 1430SOL     OW 5188   2.151   4.122   3.466
 1430SOL    HW1 5189   2.127   4.104   3.562
 1430SOL    HW2 5190   2.195   4.211   3.458
 1431SOL     OW 5191   2.677   1.462   6.317
 1431SOL    HW1 5192   2.650   1.411   6.399
 1431SOL    HW2 5193   2.597   1.507   6.277
 1432SOL     OW 5194   2.218   1.142   1.054
 1432SOL    HW1 5195   2.216   1.181   0.962
 1432SOL    HW2 5196   2.155   1.193   1.112
 1433SOL     OW 5197   3.063   0.443   4.453
 1433SOL    HW1 5198   3.069   0.509   4.527
 1433SOL    HW2 5199   2.967   0.432   4.425
 1434SOL     OW 5200   0.069   2.621   6.731
 1434SOL    HW1 5201   0.145   2.559   6.712
 1434SOL    HW2 5202   0.078   2.655   6.825
 1435SOL     OW 5203   0.634   0.148   4.006
 1435SOL    HW1 5204   0.643   0.160   4.105
 1435SOL    HW2 5205   0.569   0.074   3.988
 1436SOL     OW 5206   5.714   2.298   0.886
 1436SOL    HW1 5207   5.648   2.224   0.882
 1436SOL    HW2 5208   5.758   2.299   0.977
 1437SOL     OW 5209   4.332   1.925   6.171
 1437SOL    HW1 5210   4.237   1.943   6.196
 1437SOL    HW2 5211   4.349   1.958   6.078
 1438SOL     OW 5212   2.508   0.911   2.002
 1438SOL    HW1 5213   2.431   0.974   2.004
 1438SOL    HW2 5214   2.543   0.904   1.909
 1439SOL     OW 5215   6.742   5.387   6.740
 1439SOL    HW1 5216   6.775   5.324   6.670
 1439SOL    HW2 5217   6.779   5.479   6.722
 1440SOL     OW 5218   3.917   3.064   3.550
 1440SOL    HW1 5219   3.931   3.056   3.649
 1440SOL    HW2 5220   3.853   2.994   3.520
 1441SOL     OW 5221   0.230   3.094   4.424
 1441SOL    HW1 5222   0.248   3.072   4.520
 1441SOL    HW2 5223   0.132   3.103   4.410
 1442SOL     OW 5224   4.798   4.387   0.145
 1442SOL    HW1 5225   4.817   4.385   0.047
 1442SOL    HW2 5226   4.870   4.339   0.194
 1443SOL     OW 5227   0.745   1.191   3.457
 1443SOL    HW1 5228   0.727   1.098   3.489
 1443SOL    HW2 5229   0.806   1.237   3.521
 1444SOL     OW 5230   4.465   0.386   3.409
 1444SOL    HW1 5231   4.517   0.331   3.475
 1444SOL    HW2 5232   4.491   0.361   3.316
 1445SOL     OW 5233   0.237   2.149   1.440
 1445SOL    HW1 5234   0.255   2.106   1.528
 1445SOL    HW2 5235   0.139   2.158   1.427
 1446SOL     OW 5236   4.332   2.116   1.260
 1446SOL    HW1 5237   4.382   2.122   1.347
 1446SOL    HW2 5238   4.243   2.075   1.277
 1447SOL     OW 5239   6.657   1.311   5.085
 1447SOL    HW1 5240   6.635   1.298   4.988
 1447SOL    HW2 5241   6.602   1.386   5.122
 1448SOL     OW 5242   5.242   1.512   6.877
 1448SOL    HW1 5243   5.270   1.606   6.897
 1448SOL    HW2 5244   5.271   1.489   6.784
 1449SOL     OW 5245   4.948   6.594   0.679
 1449SOL    HW1 5246   4.934   6.500   0.648
 1449SOL    HW2 5247   4.932   6.657   0.603
 1450SOL     OW 5248   5.633   3.273   2.765
 1450SOL    HW1 5249   5.642   3.303   2.670
 1450SOL    HW2 5250   5.676   3.184   2.775
 1451SOL     OW 5251   1.949   6.887   2.931
 1451SOL    HW1 5252   1.938   6.986   2.918
 1451SOL    HW2 5253   2.040   6.860   2.901
 1452SOL     OW 5254   5.318   0.609   4.933
 1452SOL    HW1 5255   5.302   0.642   5.025
 1452SOL    HW2 5256   5.417   0.598   4.919
 1453SOL     OW 5257   4.901   4.170   4.864
 1453SOL    HW1 5258   4.990   4.170   4.819
 1453SOL    HW2 5259   4.893   4.252   4.921
 1454SOL     OW 5260   5.019   3.020   1.518
 1454SOL    HW1 5261   4.997   2.983   1.608
 1454SOL    HW2 5262   4.968   2.969   1.448
 1455SOL     OW 5263   0.961   0.766   1.909
 1455SOL    HW1 5264   1.058   0.742   1.908
 1455SOL    HW2 5265   0.910   0.702   1.851
 1456SOL     OW 5266   6.776   6.890   4.460
 1456SOL    HW1 5267   6.847   6.883   4.530
 1456SOL    HW2 5268   6.815   6.867   4.371
 1457SOL     OW 5269   1.705   0.710   3.786
 1457SOL    HW1 5270   1.627   0.648   3.783
 1457SOL    HW2 5271   1.706   0.758   3.874
 1458SOL     OW 5272   5.164   6.910   6.006
 1458SOL    HW1 5273   5.098   6.840   5.979
 1458SOL    HW2 5274   5.197   6.891   6.099
 1459SOL     OW 5275   2.718   6.037   6.652
 1459SOL    HW1 5276   2.690   5.951   6.694
 1459SOL    HW2 5277   2.804   6.068   6.693
 1460SOL     OW 5278   1.145   6.445   0.140
 1460SOL    HW1 5279   1.195   6.451   0.054
 1460SOL    HW2 5280   1.205   6.407   0.211
 1461SOL     OW 5281   5.871   4.440   2.994
 1461SOL    HW1 5282   5.815   4.517   3.026
 1461SOL    HW2 5283   5.935   4.413   3.065
 1462SOL     OW 5284   6.235   1.129   0.820
 1462SOL    HW1 5285   6.238   1.038   0.860
 1462SOL    HW2 5286   6.218   1.197   0.892
 1463SOL     OW 5287   0.847   0.345   5.093
 1463SOL    HW1 5288   0.757   0.387   5.093
 1463SOL    HW2 5289   0.843   0.258   5.043
 1464SOL     OW 5290   0.133   6.373   0.526
 1464SOL    HW1 5291   0.156   6.464   0.561
 1464SOL    HW2 5292   0.194   6.350   0.450
 1465SOL     OW 5293   0.194   0.244   4.133
 1465SOL    HW1 5294   0.270   0.309   4.127
 1465SOL    HW2 5295   0.109   0.295   4.146
 1466SOL     OW 5296   6.333   5.847   2.392
 1466SOL    HW1 5297   6.364   5.816   2.482
 1466SOL    HW2 5298   6.236   5.871   2.396
 1467SOL     OW 5299   1.247   1.196   3.413
 1467SOL    HW1 5300   1.200   1.238   3.490
 1467SOL    HW2 5301   1.334   1.156   3.444
 1468SOL     OW 5302   5.308   5.888   3.954
 1468SOL    HW1 5303   5.381   5.821   3.938
 1468SOL    HW2 5304   5.252   5.896   3.872
 1469SOL     OW 5305   0.441   0.138   2.793
 1469SOL    HW1 5306   0.478   0.174   2.879
 1469SOL    HW2 5307   0.352   0.181   2.775
 1470SOL     OW 5308   1.278   0.909   3.166
 1470SOL    HW1 5309   1.327   0.996   3.169
 1470SOL    HW2 5310   1.340   0.837   3.135
 1471SOL     OW 5311   0.150   0.372   0.449
 1471SOL    HW1 5312   0.101   0.287   0.469
 1471SOL    HW2 5313   0.105   0.420   0.374
 1472SOL     OW 5314   4.890   0.506   5.821
 1472SOL    HW1 5315   4.960   0.513   5.891
 1472SOL    HW2 5316   4.933   0.503   5.731
 1473SOL     OW 5317   6.180   5.770   2.721
 1473SOL    HW1 5318   6.268   5.746   2.679
 1473SOL    HW2 5319   6.180   5.739   2.816
 1474SOL     OW 5320   5.992   5.379   4.345
 1474SOL    HW1 5321   5.932   5.420   4.414
 1474SOL    HW2 5322   6.054   5.314   4.389
 1475SOL     OW 5323   6.772   0.595   2.750
 1475SOL    HW1 5324   6.814   0.515   2.794
 1475SOL    HW2 5325   6.697   0.629   2.806
 1476SOL     OW 5326   1.562   1.903   2.232
 1476SOL    HW1 5327   1.649   1.867   2.198
 1476SOL    HW2 5328   1.577   1.950   2.318
 1477SOL     OW 5329   3.101   0.050   4.975
 1477SOL    HW1 5330   3.176   0.097   5.022
 1477SOL    HW2 5331   3.099   6.978   5.004
 1478SOL     OW 5332   6.344   5.205   1.120
 1478SOL    HW1 5333   6.374   5.289   1.076
 1478SOL    HW2 5334   6.267   5.166   1.069
 1479SOL     OW 5335   2.212   4.584   0.602
 1479SOL    HW1 5336   2.168   4.569   0.514
 1479SOL    HW2 5337   2.310   4.561   0.595
 1480SOL     OW 5338   1.913   0.895   7.008
 1480SOL    HW1 5339   1.999   0.861   6.970
 1480SOL    HW2 5340   1.839   0.832   6.985
 1481SOL     OW 5341   6.081   1.815   5.966
 1481SOL    HW1 5342   6.012   1.884   5.992
 1481SOL    HW2 5343   6.172   1.851   5.984
 1482SOL     OW 5344   5.346   0.945   0.415
 1482SOL    HW1 5345   5.277   0.949   0.343
 1482SOL    HW2 5346   5.308   0.982   0.500
 1483SOL     OW 5347   6.677   2.833   0.381
 1483SOL    HW1 5348   6.768   2.803   0.350
 1483SOL    HW2 5349   6.607   2.785   0.328
 1484SOL     OW 5350   6.614   4.626   2.494
 1484SOL    HW1 5351   6.578   4.633   2.587
 1484SOL    HW2 5352   6.684   4.696   2.479
 1485SOL     OW 5353   5.614   3.047   3.546
 1485SOL    HW1 5354   5.618   3.112   3.471
 1485SOL    HW2 5355   5.519   3.023   3.566
 1486SOL     OW 5356   4.858   2.671   3.118
 1486SOL    HW1 5357   4.891   2.713   3.033
 1486SOL    HW2 5358   4.804   2.590   3.097
 1487SOL     OW 5359   5.874   1.454   5.560
 1487SOL    HW1 5360   5.815   1.463   5.641
 1487SOL    HW2 5361   5.826   1.402   5.490
 1488SOL     OW 5362   5.006   0.796   3.213
 1488SOL    HW1 5363   5.058   0.737   3.275
 1488SOL    HW2 5364   5.056   0.881   3.198
 1489SOL     OW 5365   4.011   5.026   4.834
 1489SOL    HW1 5366   4.057   5.106   4.797
 1489SOL    HW2 5367   4.036   4.945   4.781
 1490SOL     OW 5368   1.227   1.468   0.409
 1490SOL    HW1 5369   1.186   1.418   0.333
 1490SOL    HW2 5370   1.179   1.446   0.494
 1491SOL     OW 5371   0.139   3.721   3.674
 1491SOL    HW1 5372   0.179   3.802   3.717
 1491SOL    HW2 5373   0.166   3.717   3.578
 1492SOL     OW 5374   5.159   2.109   1.668
 1492SOL    HW1 5375   5.216   2.191   1.668
 1492SOL    HW2 5376   5.168   2.063   1.756
 1493SOL     OW 5377   4.540   0.137   5.272
 1493SOL    HW1 5378   4.552   0.137   5.172
 1493SOL    HW2 5379   4.583   0.219   5.310
 1494SOL     OW 5380   3.807   2.589   5.901
 1494SOL    HW1 5381   3.813   2.578   5.802
 1494SOL    HW2 5382   3.714   2.565   5.931
 1495SOL     OW 5383   0.587   3.202   3.082
 1495SOL    HW1 5384   0.675   3.197   3.034
 1495SOL    HW2 5385   0.534   3.278   3.047
 1496SOL     OW 5386   6.373   0.429   2.353
 1496SOL    HW1 5387   6.281   0.420   2.313
 1496SOL    HW2 5388   6.425   0.346   2.337
 1497SOL     OW 5389   6.731   5.421   4.148
 1497SOL    HW1 5390   6.802   5.455   4.210
 1497SOL    HW2 5391   6.750   5.326   4.125
 1498SOL     OW 5392   2.431   4.614   6.362
 1498SOL    HW1 5393   2.393   4.561   6.437
 1498SOL    HW2 5394   2.406   4.572   6.275
 1499SOL     OW 5395   1.217   3.495   4.985
 1499SOL    HW1 5396   1.291   3.436   5.017
 1499SOL    HW2 5397   1.139   3.439   4.956
 1500SOL     OW 5398   5.680   0.277   0.167
 1500SOL    HW1 5399   5.617   0.301   0.093
 1500SOL    HW2 5400   5.685   0.353   0.232
 1501SOL     OW 5401   4.178   0.028   6.764
 1501SOL    HW1 5402   4.165   0.127   6.756
 1501SOL    HW2 5403   4.228   0.008   6.848
 1502SOL     OW 5404   6.427   6.646   0.108
 1502SOL    HW1 5405   6.452   6.579   0.177
 1502SOL    HW2 5406   6.507   6.703   0.087
 1503SOL     OW 5407   2.467   2.940   6.976
 1503SOL    HW1 5408   2.494   2.846   6.997
 1503SOL    HW2 5409   2.547   2.993   6.949
 1504SOL     OW 5410   3.190   6.763   4.969
 1504SOL    HW1 5411   3.107   6.728   4.925
 1504SOL    HW2 5412   3.269   6.745   4.909
 1505SOL     OW 5413   5.651   6.906   5.438
 1505SOL    HW1 5414   5.593   6.897   5.357
 1505SOL    HW2 5415   5.663   6.816   5.481
 1506SOL     OW 5416   0.765   5.397   3.750
 1506SOL    HW1 5417   0.862   5.375   3.734
 1506SOL    HW2 5418   0.756   5.442   3.839
 1507SOL     OW 5419   1.999   1.661   5.236
 1507SOL    HW1 5420   1.911   1.707   5.250
 1507SOL    HW2 5421   2.073   1.728   5.244
 1508SOL     OW 5422   4.286   7.015   0.735
 1508SOL    HW1 5423   4.210   0.035   0.688
 1508SOL    HW2 5424   4.364   0.054   0.736
 1509SOL     OW 5425   4.517   3.189   6.495
 1509SOL    HW1 5426   4.607   3.180   6.539
 1509SOL    HW2 5427   4.524   3.159   6.400
 1510SOL     OW 5428   0.243   2.263   4.507
 1510SOL    HW1 5429   0.297   2.291   4.587
 1510SOL    HW2 5430   0.208   2.345   4.461
 1511SOL     OW 5431   2.589   1.598   6.896
 1511SOL    HW1 5432   2.662   1.557   6.841
 1511SOL    HW2 5433   2.584   1.551   6.984
 1512SOL     OW 5434   6.878   0.361   1.381
 1512SOL    HW1 5435   6.786   0.350   1.417
 1512SOL    HW2 5436   6.936   0.287   1.414
 1513SOL     OW 5437   3.519   6.965   4.201
 1513SOL    HW1 5438   3.430   6.921   4.189
 1513SOL    HW2 5439   3.511   0.039   4.180
 1514SOL     OW 5440   5.737   1.918   5.263
 1514SOL    HW1 5441   5.668   1.954   5.326
 1514SOL    HW2 5442   5.761   1.825   5.290
 1515SOL     OW 5443   0.203   4.298   5.486
 1515SOL    HW1 5444   0.182   4.263   5.394
 1515SOL    HW2 5445   0.300   4.324   5.490
 1516SOL     OW 5446   0.782   1.678   0.569
 1516SOL    HW1 5447   0.740   1.721   0.650
 1516SOL    HW2 5448   0.801   1.748   0.501
 1517SOL     OW 5449   4.093   5.915   3.521
 1517SOL    HW1 5450   4.080   5.817   3.534
 1517SOL    HW2 5451   4.018   5.965   3.564
 1518SOL     OW 5452   6.700   4.449   0.039
 1518SOL    HW1 5453   6.607   4.413   0.037
 1518SOL    HW2 5454   6.759   4.385   0.088
 1519SOL     OW 5455   6.378   4.527   1.047
 1519SOL    HW1 5456   6.451   4.472   1.006
 1519SOL    HW2 5457   6.404   4.553   1.140
 1520SOL     OW 5458   2.087   3.509   2.473
 1520SOL    HW1 5459   2.085   3.560   2.387
 1520SOL    HW2 5460   2.085   3.411   2.454
 1521SOL     OW 5461   1.446   3.659   0.025
 1521SOL    HW1 5462   1.507   3.694   6.978
 1521SOL    HW2 5463   1.499   3.611   0.096
 1522SOL     OW 5464   6.214   1.831   6.287
 1522SOL    HW1 5465   6.303   1.849   6.326
 1522SOL    HW2 5466   6.222   1.758   6.218
 1523SOL     OW 5467   6.252   2.744   0.954
 1523SOL    HW1 5468   6.307   2.663   0.933
 1523SOL    HW2 5469   6.183   2.756   0.883
 1524SOL     OW 5470   0.260   1.333   1.213
 1524SOL    HW1 5471   0.349   1.310   1.252
 1524SOL    HW2 5472   0.207   1.386   1.279
 1525SOL     OW 5473   3.874   1.579   5.810
 1525SOL    HW1 5474   3.969   1.550   5.822
 1525SOL    HW2 5475   3.864   1.626   5.723
 1526SOL     OW 5476   0.251   1.669   1.332
 1526SOL    HW1 5477   0.229   1.611   1.410
 1526SOL    HW2 5478   0.347   1.696   1.338
 1527SOL     OW 5479   3.560   1.682   4.861
 1527SOL    HW1 5480   3.581   1.734   4.778
 1527SOL    HW2 5481   3.527   1.744   4.932
 1528SOL     OW 5482   4.674   6.494   3.018
 1528SOL    HW1 5483   4.576   6.480   3.008
 1528SOL    HW2 5484   4.702   6.474   3.112
 1529SOL     OW 5485   4.036   0.671   6.192
 1529SOL    HW1 5486   3.993   0.582   6.174
 1529SOL    HW2 5487   4.116   0.682   6.133
 1530SOL     OW 5488   3.033   6.743   2.053
 1530SOL    HW1 5489   3.003   6.817   2.113
 1530SOL    HW2 5490   2.989   6.752   1.964
 1531SOL     OW 5491   6.785   0.115   3.689
 1531SOL    HW1 5492   6.770   0.036   3.750
 1531SOL    HW2 5493   6.807   0.082   3.598
 1532SOL     OW 5494   3.395   2.293   5.379
 1532SOL    HW1 5495   3.318   2.305   5.317
 1532SOL    HW2 5496   3.386   2.356   5.456
 1533SOL     OW 5497   6.565   3.580   0.298
 1533SOL    HW1 5498   6.472   3.559   0.327
 1533SOL    HW2 5499   6.565   3.610   0.203
 1534SOL     OW 5500   0.913   5.490   0.407
 1534SOL    HW1 5501   0.924   5.563   0.474
 1534SOL    HW2 5502   0.990   5.426   0.414
 1535SOL     OW 5503   5.613   4.599   4.435
 1535SOL    HW1 5504   5.563   4.515   4.415
 1535SOL    HW2 5505   5.660   4.630   4.352
 1536SOL     OW 5506   2.300   5.683   4.382
 1536SOL    HW1 5507   2.355   5.663   4.301
 1536SOL    HW2 5508   2.249   5.602   4.409
 1537SOL     OW 5509   2.421   5.911   3.900
 1537SOL    HW1 5510   2.354   5.985   3.893
 1537SOL    HW2 5511   2.449   5.883   3.808
 1538SOL     OW 5512   2.424   4.659   6.711
 1538SOL    HW1 5513   2.379   4.586   6.659
 1538SOL    HW2 5514   2.516   4.630   6.737
 1539SOL     OW 5515   3.399   4.431   1.644
 1539SOL    HW1 5516   3.449   4.344   1.640
 1539SOL    HW2 5517   3.449   4.495   1.702
 1540SOL     OW 5518   0.813   0.084   4.561
 1540SOL    HW1 5519   0.836   0.086   4.464
 1540SOL    HW2 5520   0.869   0.014   4.607
 1541SOL     OW 5521   4.233   2.663   1.381
 1541SOL    HW1 5522   4.180   2.578   1.375
 1541SOL    HW2 5523   4.330   2.642   1.390
 1542SOL     OW 5524   0.520   5.940   1.335
 1542SOL    HW1 5525   0.528   6.039   1.321
 1542SOL    HW2 5526   0.567   5.915   1.420
 1543SOL     OW 5527   3.109   3.457   3.817
 1543SOL    HW1 5528   3.036   3.500   3.870
 1543SOL    HW2 5529   3.183   3.429   3.878
 1544SOL     OW 5530   3.035   3.923   2.683
 1544SOL    HW1 5531   3.029   3.902   2.781
 1544SOL    HW2 5532   3.117   3.978   2.666
 1545SOL     OW 5533   6.299   0.923   5.039
 1545SOL    HW1 5534   6.343   0.981   4.970
 1545SOL    HW2 5535   6.244   0.854   4.993
 1546SOL     OW 5536   6.438   6.649   6.392
 1546SOL    HW1 5537   6.473   6.603   6.473
 1546SOL    HW2 5538   6.506   6.715   6.359
 1547SOL     OW 5539   3.032   4.855   2.814
 1547SOL    HW1 5540   3.113   4.867   2.757
 1547SOL    HW2 5541   3.058   4.858   2.911
 1548SOL     OW 5542   4.017   4.772   5.265
 1548SOL    HW1 5543   4.039   4.818   5.351
 1548SOL    HW2 5544   4.004   4.674   5.282
 1549SOL     OW 5545   6.991   2.229   1.517
 1549SOL    HW1 5546   6.982   2.198   1.611
 1549SOL    HW2 5547   6.966   2.325   1.510
 1550SOL     OW 5548   2.151   6.235   5.093
 1550SOL    HW1 5549   2.142   6.204   4.998
 1550SOL    HW2 5550   2.208   6.318   5.096
 1551SOL     OW 5551   1.594   3.022   1.293
 1551SOL    HW1 5552   1.508   2.973   1.279
 1551SOL    HW2 5553   1.602   3.049   1.389
 1552SOL     OW 5554   1.564   0.420   1.378
 1552SOL    HW1 5555   1.527   0.467   1.297
 1552SOL    HW2 5556   1.565   0.322   1.361
 1553SOL     OW 5557   5.861   2.037   6.967
 1553SOL    HW1 5558   5.904   2.054   0.033
 1553SOL    HW2 5559   5.918   1.974   6.914
 1554SOL     OW 5560   4.414   2.414   3.044
 1554SOL    HW1 5561   4.326   2.377   3.013
 1554SOL    HW2 5562   4.473   2.338   3.072
 1555SOL     OW 5563   4.779   1.373   4.880
 1555SOL    HW1 5564   4.789   1.427   4.963
 1555SOL    HW2 5565   4.765   1.434   4.802
 1556SOL     OW 5566   3.602   0.265   0.758
 1556SOL    HW1 5567   3.513   0.311   0.750
 1556SOL    HW2 5568   3.587   0.170   0.786
 1557SOL     OW 5569   1.780   2.146   1.267
 1557SOL    HW1 5570   1.800   2.185   1.357
 1557SOL    HW2 5571   1.783   2.046   1.273
 1558SOL     OW 5572   6.496   3.176   5.541
 1558SOL    HW1 5573   6.538   3.182   5.631
 1558SOL    HW2 5574   6.425   3.106   5.542
 1559SOL     OW 5575   1.378   4.184   2.619
 1559SOL    HW1 5576   1.374   4.091   2.582
 1559SOL    HW2 5577   1.408   4.247   2.547
 1560SOL     OW 5578   4.009   1.186   0.610
 1560SOL    HW1 5579   4.086   1.143   0.657
 1560SOL    HW2 5580   3.953   1.115   0.566
 1561SOL     OW 5581   5.486   6.225   2.071
 1561SOL    HW1 5582   5.575   6.255   2.105
 1561SOL    HW2 5583   5.416   6.293   2.095
 1562SOL     OW 5584   3.228   0.045   1.930
 1562SOL    HW1 5585   3.167   7.017   1.991
 1562SOL    HW2 5586   3.219   0.010   1.837
 1563SOL     OW 5587   3.292   2.147   4.763
 1563SOL    HW1 5588   3.384   2.176   4.734
 1563SOL    HW2 5589   3.264   2.200   4.842
 1564SOL     OW 5590   1.262   1.782   2.260
 1564SOL    HW1 5591   1.237   1.691   2.226
 1564SOL    HW2 5592   1.362   1.793   2.256
 1565SOL     OW 5593   3.733   6.287   4.007
 1565SOL    HW1 5594   3.799   6.238   4.063
 1565SOL    HW2 5595   3.719   6.379   4.044
 1566SOL     OW 5596   5.042   4.640   3.642
 1566SOL    HW1 5597   5.099   4.644   3.559
 1566SOL    HW2 5598   4.992   4.726   3.652
 1567SOL     OW 5599   5.945   5.922   5.815
 1567SOL    HW1 5600   5.990   5.996   5.864
 1567SOL    HW2 5601   5.928   5.846   5.878
 1568SOL     OW 5602   2.182   6.305   3.175
 1568SOL    HW1 5603   2.224   6.215   3.191
 1568SOL    HW2 5604   2.097   6.311   3.229
 1569SOL     OW 5605   2.943   0.125   2.891
 1569SOL    HW1 5606   2.955   0.223   2.903
 1569SOL    HW2 5607   3.009   0.076   2.947
 1570SOL     OW 5608   3.046   6.967   0.131
 1570SOL    HW1 5609   3.101   6.886   0.152
 1570SOL    HW2 5610   2.999   6.954   0.044
 1571SOL     OW 5611   1.212   2.704   3.505
 1571SOL    HW1 5612   1.151   2.690   3.582
 1571SOL    HW2 5613   1.179   2.651   3.427
 1572SOL     OW 5614   1.686   4.931   1.855
 1572SOL    HW1 5615   1.736   4.866   1.799
 1572SOL    HW2 5616   1.666   4.890   1.944
 1573SOL     OW 5617   4.548   5.333   1.548
 1573SOL    HW1 5618   4.500   5.415   1.582
 1573SOL    HW2 5619   4.549   5.263   1.620
 1574SOL     OW 5620   6.335   3.569   1.724
 1574SOL    HW1 5621   6.259   3.569   1.789
 1574SOL    HW2 5622   6.415   3.612   1.766
 1575SOL     OW 5623   1.210   1.128   1.404
 1575SOL    HW1 5624   1.243   1.135   1.498
 1575SOL    HW2 5625   1.131   1.188   1.391
 1576SOL     OW 5626   0.419   6.065   2.179
 1576SOL    HW1 5627   0.461   6.156   2.177
 1576SOL    HW2 5628   0.346   6.061   2.111
 1577SOL     OW 5629   2.970   0.347   6.422
 1577SOL    HW1 5630   3.066   0.345   6.392
 1577SOL    HW2 5631   2.928   0.259   6.402
 1578SOL     OW 5632   4.050   0.786   0.497
 1578SOL    HW1 5633   3.963   0.833   0.509
 1578SOL    HW2 5634   4.068   0.729   0.577
 1579SOL     OW 5635   1.359   2.646   1.813
 1579SOL    HW1 5636   1.265   2.624   1.840
 1579SOL    HW2 5637   1.414   2.661   1.896
 1580SOL     OW 5638   3.100   3.810   2.909
 1580SOL    HW1 5639   3.197   3.801   2.934
 1580SOL    HW2 5640   3.044   3.810   2.992
 1581SOL     OW 5641   0.339   4.204   6.303
 1581SOL    HW1 5642   0.267   4.165   6.247
 1581SOL    HW2 5643   0.381   4.281   6.255
 1582SOL     OW 5644   4.537   6.468   5.753
 1582SOL    HW1 5645   4.591   6.509   5.680
 1582SOL    HW2 5646   4.486   6.390   5.717
 1583SOL     OW 5647   0.936   5.731   4.636
 1583SOL    HW1 5648   0.963   5.636   4.651
 1583SOL    HW2 5649   0.955   5.784   4.718
 1584SOL     OW 5650   0.879   5.738   6.478
 1584SOL    HW1 5651   0.949   5.792   6.431
 1584SOL    HW2 5652   0.797   5.795   6.492
 1585SOL     OW 5653   3.982   0.744   3.318
 1585SOL    HW1 5654   3.988   0.694   3.405
 1585SOL    HW2 5655   4.057   0.715   3.259
 1586SOL     OW 5656   2.635   5.502   4.061
 1586SOL    HW1 5657   2.707   5.502   4.131
 1586SOL    HW2 5658   2.622   5.409   4.027
 1587SOL     OW 5659   1.543   6.214   5.754
 1587SOL    HW1 5660   1.587   6.128   5.783
 1587SOL    HW2 5661   1.586   6.291   5.801
 1588SOL     OW 5662   4.909   0.569   2.239
 1588SOL    HW1 5663   4.892   0.486   2.292
 1588SOL    HW2 5664   4.981   0.623   2.284
 1589SOL     OW 5665   6.403   3.996   2.689
 1589SOL    HW1 5666   6.331   3.927   2.680
 1589SOL    HW2 5667   6.392   4.045   2.775
 1590SOL     OW 5668   5.735   2.375   3.366
 1590SOL    HW1 5669   5.637   2.385   3.379
 1590SOL    HW2 5670   5.772   2.315   3.437
 1591SOL     OW 5671   0.096   5.945   1.421
 1591SOL    HW1 5672   0.143   5.861   1.396
 1591SOL    HW2 5673   0.028   5.967   1.352
 1592SOL     OW 5674   1.449   4.058   0.128
 1592SOL    HW1 5675   1.427   4.046   0.224
 1592SOL    HW2 5676   1.398   3.992   0.073
 1593SOL     OW 5677   1.202   0.079   6.463
 1593SOL    HW1 5678   1.191   0.146   6.536
 1593SOL    HW2 5679   1.119   0.024   6.456
 1594SOL     OW 5680   0.151   0.671   2.193
 1594SOL    HW1 5681   0.096   0.658   2.110
 1594SOL    HW2 5682   0.213   0.594   2.205
 1595SOL     OW 5683   1.633   4.224   0.010
 1595SOL    HW1 5684   1.605   4.174   0.092
 1595SOL    HW2 5685   1.732   4.217   7.021
 1596SOL     OW 5686   6.002   4.114   2.806
 1596SOL    HW1 5687   5.941   4.096   2.729
 1596SOL    HW2 5688   6.054   4.198   2.789
 1597SOL     OW 5689   2.992   5.351   1.344
 1597SOL    HW1 5690   3.025   5.268   1.391
 1597SOL    HW2 5691   3.069   5.413   1.329
 1598SOL     OW 5692   1.681   5.550   6.667
 1598SOL    HW1 5693   1.761   5.536   6.609
 1598SOL    HW2 5694   1.637   5.636   6.642
 1599SOL     OW 5695   3.755   5.245   4.064
 1599SOL    HW1 5696   3.809   5.265   4.146
 1599SOL    HW2 5697   3.747   5.146   4.053
 1600SOL     OW 5698   3.408   0.622   2.731
 1600SOL    HW1 5699   3.447   0.712   2.751
 1600SOL    HW2 5700   3.464   0.576   2.662
 1601SOL     OW 5701   6.179   6.539   4.249
 1601SOL    HW1 5702   6.278   6.542   4.265
 1601SOL    HW2 5703   6.132   6.582   4.327
 1602SOL     OW 5704   4.618   5.340   4.157
 1602SOL    HW1 5705   4.619   5.381   4.065
 1602SOL    HW2 5706   4.679   5.261   4.159
 1603SOL     OW 5707   2.913   5.754   4.587
 1603SOL    HW1 5708   2.974   5.830   4.562
 1603SOL    HW2 5709   2.956   5.668   4.560
 1604SOL     OW 5710   4.235   4.843   2.230
 1604SOL    HW1 5711   4.248   4.777   2.155
 1604SOL    HW2 5712   4.246   4.796   2.318
 1605SOL     OW 5713   5.633   5.410   1.786
 1605SOL    HW1 5714   5.713   5.434   1.731
 1605SOL    HW2 5715   5.559   5.378   1.726
 1606SOL     OW 5716   4.184   5.868   3.911
 1606SOL    HW1 5717   4.221   5.819   3.990
 1606SOL    HW2 5718   4.165   5.804   3.837
 1607SOL     OW 5719   4.183   7.021   2.316
 1607SOL    HW1 5720   4.217   0.055   2.391
 1607SOL    HW2 5721   4.164   6.929   2.350
 1608SOL     OW 5722   6.926   1.179   3.305
 1608SOL    HW1 5723   6.846   1.238   3.312
 1608SOL    HW2 5724   6.903   1.087   3.336
 1609SOL     OW 5725   3.159   6.110   0.687
 1609SOL    HW1 5726   3.255   6.138   0.675
 1609SOL    HW2 5727   3.147   6.068   0.776
 1610SOL     OW 5728   3.712   6.253   0.058
 1610SOL    HW1 5729   3.670   6.289   6.997
 1610SOL    HW2 5730   3.641   6.233   0.125
 1611SOL     OW 5731   1.399   4.072   1.131
 1611SOL    HW1 5732   1.473   4.019   1.088
 1611SOL    HW2 5733   1.339   4.010   1.181
 1612SOL     OW 5734   2.819   5.378   1.146
 1612SOL    HW1 5735   2.891   5.398   1.212
 1612SOL    HW2 5736   2.764   5.460   1.131
 1613SOL     OW 5737   0.976   5.868   2.607
 1613SOL    HW1 5738   1.045   5.914   2.663
 1613SOL    HW2 5739   0.923   5.936   2.557
 1614SOL     OW 5740   5.712   2.173   6.038
 1614SOL    HW1 5741   5.699   2.178   5.939
 1614SOL    HW2 5742   5.651   2.239   6.083
 1615SOL     OW 5743   0.361   5.302   6.803
 1615SOL    HW1 5744   0.375   5.294   6.902
 1615SOL    HW2 5745   0.448   5.319   6.758
 1616SOL     OW 5746   3.717   0.808   5.119
 1616SOL    HW1 5747   3.674   0.852   5.198
 1616SOL    HW2 5748   3.790   0.867   5.084
 1617SOL     OW 5749   5.032   6.794   3.820
 1617SOL    HW1 5750   5.051   6.886   3.786
 1617SOL    HW2 5751   5.015   6.733   3.743
 1618SOL     OW 5752   1.961   6.118   2.478
 1618SOL    HW1 5753   1.936   6.145   2.385
 1618SOL    HW2 5754   1.984   6.200   2.531
 1619SOL     OW 5755   1.031   5.175   6.919
 1619SOL    HW1 5756   1.098   5.166   6.993
 1619SOL    HW2 5757   1.006   5.084   6.885
 1620SOL     OW 5758   2.888   5.014   0.975
 1620SOL    HW1 5759   2.969   4.972   1.016
 1620SOL    HW2 5760   2.806   4.987   1.026
 1621SOL     OW 5761   5.734   6.225   1.101
 1621SOL    HW1 5762   5.704   6.134   1.130
 1621SOL    HW2 5763   5.730   6.231   1.001
 1622SOL     OW 5764   0.635   4.088   5.766
 1622SOL    HW1 5765   0.613   4.165   5.825
 1622SOL    HW2 5766   0.590   4.101   5.677
 1623SOL     OW 5767   0.900   2.326   4.928
 1623SOL    HW1 5768   0.844   2.271   4.866
 1623SOL    HW2 5769   0.966   2.379   4.874
 1624SOL     OW 5770   3.316   0.956   0.511
 1624SOL    HW1 5771   3.414   0.970   0.497
 1624SOL    HW2 5772   3.277   1.038   0.555
 1625SOL     OW 5773   2.201   5.184   0.257
 1625SOL    HW1 5774   2.279   5.245   0.240
 1625SOL    HW2 5775   2.136   5.228   0.318
 1626SOL     OW 5776   3.046   1.876   2.567
 1626SOL    HW1 5777   3.063   1.974   2.577
 1626SOL    HW2 5778   2.980   1.862   2.493
 1627SOL     OW 5779   5.188   2.629   4.516
 1627SOL    HW1 5780   5.193   2.617   4.615
 1627SOL    HW2 5781   5.093   2.641   4.489
 1628SOL     OW 5782   5.090   5.770   6.717
 1628SOL    HW1 5783   5.086   5.870   6.714
 1628SOL    HW2 5784   5.012   5.732   6.668
 1629SOL     OW 5785   2.947   2.198   3.475
 1629SOL    HW1 5786   2.860   2.233   3.439
 1629SOL    HW2 5787   2.977   2.120   3.420
 1630SOL     OW 5788   0.358   3.915   6.944
 1630SOL    HW1 5789   0.370   3.977   6.867
 1630SOL    HW2 5790   0.260   3.905   6.964
 1631SOL     OW 5791   6.949   3.508   1.132
 1631SOL    HW1 5792   6.869   3.535   1.078
 1631SOL    HW2 5793   6.924   3.504   1.228
 1632SOL     OW 5794   5.568   4.482   2.432
 1632SOL    HW1 5795   5.480   4.459   2.392
 1632SOL    HW2 5796   5.556   4.509   2.527
 1633SOL     OW 5797   4.811   3.997   3.921
 1633SOL    HW1 5798   4.801   4.003   4.020
 1633SOL    HW2 5799   4.900   3.956   3.900
 1634SOL     OW 5800   4.039   0.436   4.594
 1634SOL    HW1 5801   4.130   0.461   4.625
 1634SOL    HW2 5802   4.038   0.427   4.495
 1635SOL     OW 5803   3.558   4.696   5.814
 1635SOL    HW1 5804   3.602   4.782   5.789
 1635SOL    HW2 5805   3.557   4.686   5.914
 1636SOL     OW 5806   4.065   6.157   1.120
 1636SOL    HW1 5807   4.014   6.224   1.174
 1636SOL    HW2 5808   4.008   6.124   1.045
 1637SOL     OW 5809   6.856   6.755   3.274
 1637SOL    HW1 5810   6.903   6.677   3.232
 1637SOL    HW2 5811   6.877   6.757   3.372
 1638SOL     OW 5812   0.247   3.326   1.472
 1638SOL    HW1 5813   0.156   3.309   1.510
 1638SOL    HW2 5814   0.244   3.316   1.372
 1639SOL     OW 5815   6.760   4.062   1.421
 1639SOL    HW1 5816   6.811   3.993   1.472
 1639SOL    HW2 5817   6.815   4.145   1.411
 1640SOL     OW 5818   5.932   0.084   1.269
 1640SOL    HW1 5819   5.977   0.064   1.183
 1640SOL    HW2 5820   5.941   0.006   1.331
 1641SOL     OW 5821   6.906   2.270   3.793
 1641SOL    HW1 5822   6.876   2.182   3.756
 1641SOL    HW2 5823   6.827   2.319   3.831
 1642SOL     OW 5824   6.634   2.806   6.719
 1642SOL    HW1 5825   6.549   2.807   6.666
 1642SOL    HW2 5826   6.653   2.712   6.749
 1643SOL     OW 5827   3.200   4.993   3.499
 1643SOL    HW1 5828   3.172   5.060   3.430
 1643SOL    HW2 5829   3.185   5.030   3.590
 1644SOL     OW 5830   6.028   2.760   0.348
 1644SOL    HW1 5831   6.018   2.674   0.397
 1644SOL    HW2 5832   6.077   2.826   0.406
 1645SOL     OW 5833   2.777   0.487   6.096
 1645SOL    HW1 5834   2.803   0.507   6.190
 1645SOL    HW2 5835   2.834   0.540   6.033
 1646SOL     OW 5836   1.641   5.666   6.284
 1646SOL    HW1 5837   1.610   5.760   6.296
 1646SOL    HW2 5838   1.741   5.662   6.291
 1647SOL     OW 5839   5.835   3.051   3.936
 1647SOL    HW1 5840   5.770   2.993   3.986
 1647SOL    HW2 5841   5.916   3.066   3.993
 1648SOL     OW 5842   4.841   5.832   0.147
 1648SOL    HW1 5843   4.829   5.836   0.246
 1648SOL    HW2 5844   4.890   5.914   0.116
 1649SOL     OW 5845   3.139   0.236   3.775
 1649SOL    HW1 5846   3.094   0.155   3.738
 1649SOL    HW2 5847   3.133   0.234   3.875
 1650SOL     OW 5848   1.718   4.886   6.178
 1650SOL    HW1 5849   1.661   4.811   6.211
 1650SOL    HW2 5850   1.667   4.972   6.184
 1651SOL     OW 5851   0.601   2.722   3.436
 1651SOL    HW1 5852   0.698   2.728   3.458
 1651SOL    HW2 5853   0.548   2.715   3.520
 1652SOL     OW 5854   1.056   2.737   1.743
 1652SOL    HW1 5855   0.957   2.725   1.746
 1652SOL    HW2 5856   1.080   2.802   1.671
 1653SOL     OW 5857   0.469   5.428   2.372
 1653SOL    HW1 5858   0.403   5.450   2.444
 1653SOL    HW2 5859   0.429   5.448   2.283
 1654SOL     OW 5860   0.798   2.766   1.685
 1654SOL    HW1 5861   0.711   2.812   1.703
 1654SOL    HW2 5862   0.817   2.767   1.587
 1655SOL     OW 5863   0.211   1.466   4.434
 1655SOL    HW1 5864   0.282   1.445   4.366
 1655SOL    HW2 5865   0.138   1.398   4.426
 1656SOL     OW 5866   2.401   5.660   4.084
 1656SOL    HW1 5867   2.414   5.753   4.050
 1656SOL    HW2 5868   2.489   5.613   4.088
 1657SOL     OW 5869   0.038   1.061   5.178
 1657SOL    HW1 5870   0.039   0.961   5.188
 1657SOL    HW2 5871   0.071   1.085   5.087
 1658SOL     OW 5872   6.841   6.974   0.314
 1658SOL    HW1 5873   6.865   0.045   0.336
 1658SOL    HW2 5874   6.925   6.919   0.310
 1659SOL     OW 5875   3.880   6.957   6.891
 1659SOL    HW1 5876   3.877   6.893   6.968
 1659SOL    HW2 5877   3.934   6.916   6.817
 1660SOL     OW 5878   1.685   6.484   1.994
 1660SOL    HW1 5879   1.733   6.403   1.959
 1660SOL    HW2 5880   1.661   6.470   2.090
 1661SOL     OW 5881   2.516   4.425   2.338
 1661SOL    HW1 5882   2.574   4.483   2.281
 1661SOL    HW2 5883   2.452   4.375   2.280
 1662SOL     OW 5884   0.153   1.279   5.385
 1662SOL    HW1 5885   0.216   1.211   5.423
 1662SOL    HW2 5886   0.081   1.233   5.333
 1663SOL     OW 5887   5.070   5.007   2.121
 1663SOL    HW1 5888   4.976   4.985   2.149
 1663SOL    HW2 5889   5.134   4.968   2.188
 1664SOL     OW 5890   1.147   0.553   5.365
 1664SOL    HW1 5891   1.091   0.544   5.447
 1664SOL    HW2 5892   1.087   0.569   5.286
 1665SOL     OW 5893   1.462   3.301   1.566
 1665SOL    HW1 5894   1.373   3.255   1.561
 1665SOL    HW2 5895   1.532   3.235   1.589
 1666SOL     OW 5896   5.384   6.606   6.220
 1666SOL    HW1 5897   5.472   6.654   6.213
 1666SOL    HW2 5898   5.329   6.647   6.292
 1667SOL     OW 5899   6.920   6.988   1.199
 1667SOL    HW1 5900   6.988   6.952   1.135
 1667SOL    HW2 5901   6.940   6.955   1.291
 1668SOL     OW 5902   5.381   5.130   3.750
 1668SOL    HW1 5903   5.312   5.095   3.813
 1668SOL    HW2 5904   5.443   5.192   3.798
 1669SOL     OW 5905   6.892   4.316   5.767
 1669SOL    HW1 5906   6.893   4.328   5.667
 1669SOL    HW2 5907   6.905   4.405   5.811
 1670SOL     OW 5908   1.344   4.913   5.842
 1670SOL    HW1 5909   1.246   4.895   5.835
 1670SOL    HW2 5910   1.382   4.862   5.919
 1671SOL     OW 5911   5.016   1.970   2.826
 1671SOL    HW1 5912   5.053   2.062   2.830
 1671SOL    HW2 5913   4.947   1.958   2.897
 1672SOL     OW 5914   1.041   3.542   0.105
 1672SOL    HW1 5915   1.100   3.469   0.070
 1672SOL    HW2 5916   0.966   3.502   0.157
 1673SOL     OW 5917   2.055   1.847   4.515
 1673SOL    HW1 5918   2.056   1.783   4.591
 1673SOL    HW2 5919   1.995   1.924   4.536
 1674SOL     OW 5920   5.839   2.773   1.934
 1674SOL    HW1 5921   5.905   2.708   1.972
 1674SOL    HW2 5922   5.873   2.806   1.846
 1675SOL     OW 5923   4.781   0.427   1.262
 1675SOL    HW1 5924   4.743   0.431   1.354
 1675SOL    HW2 5925   4.727   0.484   1.200
 1676SOL     OW 5926   2.268   2.544   2.656
 1676SOL    HW1 5927   2.251   2.586   2.567
 1676SOL    HW2 5928   2.281   2.445   2.644
 1677SOL     OW 5929   3.853   4.044   3.178
 1677SOL    HW1 5930   3.857   4.004   3.086
 1677SOL    HW2 5931   3.787   3.993   3.233
 1678SOL     OW 5932   0.639   6.509   1.255
 1678SOL    HW1 5933   0.661   6.416   1.283
 1678SOL    HW2 5934   0.542   6.513   1.229
 1679SOL     OW 5935   1.940   1.255   5.283
 1679SOL    HW1 5936   2.040   1.245   5.276
 1679SOL    HW2 5937   1.896   1.169   5.259
 1680SOL     OW 5938   5.273   2.901   4.428
 1680SOL    HW1 5939   5.180   2.928   4.454
 1680SOL    HW2 5940   5.289   2.806   4.452
 1681SOL     OW 5941   1.603   5.634   4.540
 1681SOL    HW1 5942   1.578   5.731   4.531
 1681SOL    HW2 5943   1.662   5.607   4.465
 1682SOL     OW 5944   2.887   0.817   6.233
 1682SOL    HW1 5945   2.835   0.889   6.279
 1682SOL    HW2 5946   2.886   0.833   6.134
 1683SOL     OW 5947   5.554   5.695   3.125
 1683SOL    HW1 5948   5.638   5.747   3.137
 1683SOL    HW2 5949   5.575   5.601   3.099
 1684SOL     OW 5950   1.271   4.404   1.792
 1684SOL    HW1 5951   1.217   4.357   1.862
 1684SOL    HW2 5952   1.281   4.345   1.712
 1685SOL     OW 5953   1.810   1.744   5.592
 1685SOL    HW1 5954   1.753   1.683   5.646
 1685SOL    HW2 5955   1.869   1.798   5.653
 1686SOL     OW 5956   4.191   5.647   3.707
 1686SOL    HW1 5957   4.108   5.592   3.695
 1686SOL    HW2 5958   4.272   5.589   3.692
 1687SOL     OW 5959   0.285   4.335   1.823
 1687SOL    HW1 5960   0.285   4.407   1.753
 1687SOL    HW2 5961   0.370   4.339   1.874
 1688SOL     OW 5962   1.809   2.249   3.600
 1688SOL    HW1 5963   1.792   2.164   3.549
 1688SOL    HW2 5964   1.725   2.304   3.602
 1689SOL     OW 5965   6.488   1.361   2.305
 1689SOL    HW1 5966   6.423   1.287   2.289
 1689SOL    HW2 5967   6.502   1.412   2.220
 1690SOL     OW 5968   1.130   3.465   4.005
 1690SOL    HW1 5969   1.118   3.555   4.046
 1690SOL    HW2 5970   1.105   3.394   4.071
 1691SOL     OW 5971   4.880   3.707   4.354
 1691SOL    HW1 5972   4.842   3.691   4.263
 1691SOL    HW2 5973   4.901   3.619   4.397
 1692SOL     OW 5974   5.526   5.307   1.558
 1692SOL    HW1 5975   5.438   5.301   1.511
 1692SOL    HW2 5976   5.593   5.250   1.511
 1693SOL     OW 5977   0.275   1.875   4.734
 1693SOL    HW1 5978   0.232   1.847   4.648
 1693SOL    HW2 5979   0.239   1.819   4.809
 1694SOL     OW 5980   6.212   0.941   4.520
 1694SOL    HW1 5981   6.300   0.938   4.473
 1694SOL    HW2 5982   6.203   1.027   4.571
 1695SOL     OW 5983   3.630   0.492   6.953
 1695SOL    HW1 5984   3.656   0.417   6.893
 1695SOL    HW2 5985   3.559   0.462   7.017
 1696SOL     OW 5986   3.883   5.369   0.754
 1696SOL    HW1 5987   3.970   5.327   0.730
 1696SOL    HW2 5988   3.896   5.429   0.833
 1697SOL     OW 5989   5.996   2.286   0.667
 1697SOL    HW1 5990   6.019   2.329   0.754
 1697SOL    HW2 5991   5.958   2.195   0.683
 1698SOL     OW 5992   3.717   0.951   1.544
 1698SOL    HW1 5993   3.702   0.985   1.637
 1698SOL    HW2 5994   3.631   0.949   1.494
 1699SOL     OW 5995   2.426   1.555   6.271
 1699SOL    HW1 5996   2.342   1.596   6.237
 1699SOL    HW2 5997   2.440   1.466   6.227
 1700SOL     OW 5998   5.730   3.326   3.826
 1700SOL    HW1 5999   5.688   3.257   3.885
 1700SOL    HW2 6000   5.829   3.325   3.840
 1701SOL     OW 6001   6.504   5.163   4.525
 1701SOL    HW1 6002   6.431   5.230   4.512
 1701SOL    HW2 6003   6.494   5.120   4.615
 1702SOL     OW 6004   1.619   0.794   6.347
 1702SOL    HW1 6005   1.665   0.734   6.412
 1702SOL    HW2 6006   1.687   0.837   6.287
 1703SOL     OW 6007   3.720   1.648   6.029
 1703SOL    HW1 6008   3.785   1.653   5.953
 1703SOL    HW2 6009   3.668   1.563   6.023
 1704SOL     OW 6010   1.787   1.622   0.234
 1704SOL    HW1 6011   1.805   1.706   0.285
 1704SOL    HW2 6012   1.748   1.554   0.296
 1705SOL     OW 6013   4.101   2.208   2.035
 1705SOL    HW1 6014   4.046   2.165   2.106
 1705SOL    HW2 6015   4.045   2.225   1.954
 1706SOL     OW 6016   4.169   1.589   0.986
 1706SOL    HW1 6017   4.136   1.572   0.893
 1706SOL    HW2 6018   4.180   1.688   1.000
 1707SOL     OW 6019   5.012   1.882   3.320
 1707SOL    HW1 6020   5.085   1.924   3.265
 1707SOL    HW2 6021   4.970   1.808   3.268
 1708SOL     OW 6022   3.786   5.577   2.024
 1708SOL    HW1 6023   3.710   5.600   1.963
 1708SOL    HW2 6024   3.758   5.507   2.089
 1709SOL     OW 6025   4.680   6.227   0.864
 1709SOL    HW1 6026   4.670   6.261   0.770
 1709SOL    HW2 6027   4.774   6.243   0.895
 1710SOL     OW 6028   4.183   5.278   3.333
 1710SOL    HW1 6029   4.151   5.222   3.409
 1710SOL    HW2 6030   4.178   5.225   3.248
 1711SOL     OW 6031   2.595   5.199   5.863
 1711SOL    HW1 6032   2.615   5.113   5.909
 1711SOL    HW2 6033   2.646   5.204   5.777
 1712SOL     OW 6034   0.472   2.446   5.175
 1712SOL    HW1 6035   0.503   2.354   5.150
 1712SOL    HW2 6036   0.548   2.511   5.167
 1713SOL     OW 6037   3.744   1.053   3.184
 1713SOL    HW1 6038   3.793   1.097   3.108
 1713SOL    HW2 6039   3.723   1.121   3.254
 1714SOL     OW 6040   3.204   2.176   6.669
 1714SOL    HW1 6041   3.290   2.127   6.680
 1714SOL    HW2 6042   3.176   2.215   6.757
 1715SOL     OW 6043   1.956   6.133   2.134
 1715SOL    HW1 6044   1.926   6.182   2.052
 1715SOL    HW2 6045   2.055   6.117   2.129
 1716SOL     OW 6046   4.649   0.355   3.905
 1716SOL    HW1 6047   4.725   0.306   3.948
 1716SOL    HW2 6048   4.654   0.452   3.928
 1717SOL     OW 6049   4.000   6.155   5.105
 1717SOL    HW1 6050   3.908   6.130   5.076
 1717SOL    HW2 6051   4.000   6.172   5.204
 1718SOL     OW 6052   2.041   2.138   2.578
 1718SOL    HW1 6053   1.993   2.205   2.634
 1718SOL    HW2 6054   2.104   2.086   2.635
 1719SOL     OW 6055   1.596   4.569   1.446
 1719SOL    HW1 6056   1.537   4.566   1.527
 1719SOL    HW2 6057   1.545   4.610   1.370
 1720SOL     OW 6058   0.011   2.898   6.150
 1720SOL    HW1 6059   6.939   2.882   6.178
 1720SOL    HW2 6060   0.060   2.944   6.224
 1721SOL     OW 6061   1.444   0.256   2.290
 1721SOL    HW1 6062   1.507   0.281   2.217
 1721SOL    HW2 6063   1.451   0.157   2.307
 1722SOL     OW 6064   2.900   1.956   3.068
 1722SOL    HW1 6065   2.885   2.053   3.047
 1722SOL    HW2 6066   2.979   1.923   3.016
 1723SOL     OW 6067   4.920   2.298   0.075
 1723SOL    HW1 6068   4.912   2.267   0.170
 1723SOL    HW2 6069   4.878   2.231   0.014
 1724SOL     OW 6070   6.244   2.387   1.511
 1724SOL    HW1 6071   6.271   2.322   1.440
 1724SOL    HW2 6072   6.318   2.397   1.577
 1725SOL     OW 6073   1.861   4.517   6.799
 1725SOL    HW1 6074   1.767   4.489   6.777
 1725SOL    HW2 6075   1.893   4.583   6.731
 1726SOL     OW 6076   5.868   4.265   3.782
 1726SOL    HW1 6077   5.903   4.357   3.798
 1726SOL    HW2 6078   5.936   4.213   3.731
 1727SOL     OW 6079   3.822   3.485   3.604
 1727SOL    HW1 6080   3.753   3.415   3.624
 1727SOL    HW2 6081   3.818   3.556   3.674
 1728SOL     OW 6082   5.028   4.586   5.527
 1728SOL    HW1 6083   5.029   4.486   5.523
 1728SOL    HW2 6084   4.938   4.620   5.498
 1729SOL     OW 6085   1.685   3.669   1.602
 1729SOL    HW1 6086   1.781   3.689   1.625
 1729SOL    HW2 6087   1.629   3.674   1.685
 1730SOL     OW 6088   2.413   5.941   4.779
 1730SOL    HW1 6089   2.327   5.930   4.827
 1730SOL    HW2 6090   2.425   5.865   4.715
 1731SOL     OW 6091   5.283   4.861   4.007
 1731SOL    HW1 6092   5.332   4.935   4.054
 1731SOL    HW2 6093   5.187   4.864   4.033
 1732SOL     OW 6094   1.945   4.412   6.100
 1732SOL    HW1 6095   2.015   4.373   6.160
 1732SOL    HW2 6096   1.867   4.350   6.093
 1733SOL     OW 6097   2.925   3.941   0.094
 1733SOL    HW1 6098   2.841   3.996   0.091
 1733SOL    HW2 6099   2.992   3.978   0.029
 1734SOL     OW 6100   6.569   3.214   1.094
 1734SOL    HW1 6101   6.534   3.248   1.181
 1734SOL    HW2 6102   6.559   3.115   1.091
 1735SOL     OW 6103   4.470   5.358   0.235
 1735SOL    HW1 6104   4.515   5.270   0.224
 1735SOL    HW2 6105   4.384   5.358   0.185
 1736SOL     OW 6106   4.187   3.784   1.395
 1736SOL    HW1 6107   4.190   3.868   1.448
 1736SOL    HW2 6108   4.115   3.724   1.431
 1737SOL     OW 6109   5.352   0.933   4.277
 1737SOL    HW1 6110   5.279   0.933   4.345
 1737SOL    HW2 6111   5.315   0.959   4.188
 1738SOL     OW 6112   2.033   4.032   4.267
 1738SOL    HW1 6113   1.986   3.944   4.273
 1738SOL    HW2 6114   2.072   4.056   4.356
 1739SOL     OW 6115   5.613   0.055   3.386
 1739SOL    HW1 6116   5.647   0.001   3.464
 1739SOL    HW2 6117   5.590   0.147   3.418
 1740SOL     OW 6118   6.891   2.111   4.848
 1740SOL    HW1 6119   6.822   2.175   4.816
 1740SOL    HW2 6120   6.960   2.097   4.777
 1741SOL     OW 6121   1.557   1.960   4.295
 1741SOL    HW1 6122   1.471   1.927   4.331
 1741SOL    HW2 6123   1.545   2.053   4.260
 1742SOL     OW 6124   5.909   0.137   5.869
 1742SOL    HW1 6125   5.995   0.096   5.899
 1742SOL    HW2 6126   5.868   0.188   5.945
 1743SOL     OW 6127   1.323   1.525   3.342
 1743SOL    HW1 6128   1.315   1.580   3.259
 1743SOL    HW2 6129   1.272   1.439   3.330
 1744SOL     OW 6130   5.517   2.412   3.571
 1744SOL    HW1 6131   5.465   2.484   3.617
 1744SOL    HW2 6132   5.475   2.392   3.483
 1745SOL     OW 6133   5.991   6.213   0.878
 1745SOL    HW1 6134   5.901   6.250   0.857
 1745SOL    HW2 6135   6.011   6.228   0.975
 1746SOL     OW 6136   1.610   3.885   3.851
 1746SOL    HW1 6137   1.703   3.869   3.817
 1746SOL    HW2 6138   1.546   3.877   3.774
 1747SOL     OW 6139   3.873   1.704   1.874
 1747SOL    HW1 6140   3.793   1.721   1.932
 1747SOL    HW2 6141   3.915   1.791   1.848
 1748SOL     OW 6142   6.763   1.540   4.584
 1748SOL    HW1 6143   6.790   1.546   4.487
 1748SOL    HW2 6144   6.706   1.459   4.597
 1749SOL     OW 6145   2.764   5.857   1.184
 1749SOL    HW1 6146   2.772   5.931   1.252
 1749SOL    HW2 6147   2.760   5.896   1.092
 1750SOL     OW 6148   4.074   0.563   5.219
 1750SOL    HW1 6149   4.040   0.601   5.132
 1750SOL    HW2 6150   4.169   0.590   5.232
 1751SOL     OW 6151   6.252   2.448   5.152
 1751SOL    HW1 6152   6.336   2.500   5.167
 1751SOL    HW2 6153   6.274   2.358   5.117
 1752SOL     OW 6154   6.535   1.476   1.110
 1752SOL    HW1 6155   6.563   1.392   1.063
 1752SOL    HW2 6156   6.445   1.462   1.151
 1753SOL     OW 6157   6.947   1.548   1.268
 1753SOL    HW1 6158   6.931   1.646   1.282
 1753SOL    HW2 6159   6.946   1.528   1.170
 1754SOL     OW 6160   3.124   5.952   5.835
 1754SOL    HW1 6161   3.118   5.956   5.735
 1754SOL    HW2 6162   3.126   5.857   5.865
 1755SOL     OW 6163   6.614   6.856   5.045
 1755SOL    HW1 6164   6.545   6.815   4.986
 1755SOL    HW2 6165   6.688   6.790   5.059
 1756SOL     OW 6166   5.293   0.323   6.059
 1756SOL    HW1 6167   5.259   0.322   6.153
 1756SOL    HW2 6168   5.373   0.263   6.051
 1757SOL     OW 6169   2.539   5.143   4.011
 1757SOL    HW1 6170   2.464   5.086   3.977
 1757SOL    HW2 6171   2.619   5.085   4.028
 1758SOL     OW 6172   1.917   6.875   5.282
 1758SOL    HW1 6173   1.987   6.919   5.337
 1758SOL    HW2 6174   1.848   6.834   5.342
 1759SOL     OW 6175   1.272   5.865   6.252
 1759SOL    HW1 6176   1.247   5.815   6.168
 1759SOL    HW2 6177   1.322   5.948   6.228
 1760SOL     OW 6178   6.129   0.686   4.615
 1760SOL    HW1 6179   6.173   0.618   4.556
 1760SOL    HW2 6180   6.135   0.776   4.573
 1761SOL     OW 6181   6.910   1.839   1.148
 1761SOL    HW1 6182   6.935   1.778   1.073
 1761SOL    HW2 6183   6.914   1.934   1.116
 1762SOL     OW 6184   0.989   1.637   5.284
 1762SOL    HW1 6185   0.960   1.714   5.340
 1762SOL    HW2 6186   1.089   1.629   5.288
 1763SOL     OW 6187   1.487   3.959   5.165
 1763SOL    HW1 6188   1.551   3.982   5.239
 1763SOL    HW2 6189   1.454   3.866   5.178
 1764SOL     OW 6190   1.555   4.132   1.838
 1764SOL    HW1 6191   1.583   4.123   1.742
 1764SOL    HW2 6192   1.608   4.069   1.894
 1765SOL     OW 6193   4.862   2.985   1.761
 1765SOL    HW1 6194   4.801   2.979   1.839
 1765SOL    HW2 6195   4.956   3.000   1.793
 1766SOL     OW 6196   4.341   4.620   3.720
 1766SOL    HW1 6197   4.407   4.547   3.706
 1766SOL    HW2 6198   4.307   4.617   3.815
 1767SOL     OW 6199   6.862   5.673   2.244
 1767SOL    HW1 6200   6.779   5.669   2.299
 1767SOL    HW2 6201   6.940   5.697   2.303
 1768SOL     OW 6202   4.671   5.916   1.901
 1768SOL    HW1 6203   4.590   5.901   1.959
 1768SOL    HW2 6204   4.682   6.014   1.885
 1769SOL     OW 6205   6.067   0.878   6.698
 1769SOL    HW1 6206   6.137   0.838   6.757
 1769SOL    HW2 6207   5.994   0.811   6.682
 1770SOL     OW 6208   1.477   4.894   5.579
 1770SOL    HW1 6209   1.437   4.942   5.656
 1770SOL    HW2 6210   1.570   4.928   5.563
 1771SOL     OW 6211   0.941   3.992   6.956
 1771SOL    HW1 6212   0.991   4.016   6.873
 1771SOL    HW2 6213   0.946   3.893   6.970
 1772SOL     OW 6214   3.142   5.040   3.785
 1772SOL    HW1 6215   3.044   5.055   3.770
 1772SOL    HW2 6216   3.156   4.962   3.846
 1773SOL     OW 6217   1.100   0.310   4.914
 1773SOL    HW1 6218   1.026   0.354   4.966
 1773SOL    HW2 6219   1.082   0.320   4.816
 1774SOL     OW 6220   5.760   6.620   1.358
 1774SOL    HW1 6221   5.716   6.556   1.296
 1774SOL    HW2 6222   5.694   6.691   1.384
 1775SOL     OW 6223   1.462   5.349   6.780
 1775SOL    HW1 6224   1.476   5.447   6.762
 1775SOL    HW2 6225   1.381   5.317   6.730
 1776SOL     OW 6226   4.586   1.146   5.278
 1776SOL    HW1 6227   4.599   1.241   5.248
 1776SOL    HW2 6228   4.671   1.112   5.318
 1777SOL     OW 6229   4.306   6.683   6.595
 1777SOL    HW1 6230   4.353   6.752   6.651
 1777SOL    HW2 6231   4.362   6.600   6.590
 1778SOL     OW 6232   5.492   1.257   4.073
 1778SOL    HW1 6233   5.579   1.215   4.046
 1778SOL    HW2 6234   5.419   1.190   4.063
 1779SOL     OW 6235   5.491   0.251   4.795
 1779SOL    HW1 6236   5.583   0.275   4.765
 1779SOL    HW2 6237   5.460   0.169   4.747
 1780SOL     OW 6238   1.398   5.087   5.060
 1780SOL    HW1 6239   1.455   5.150   5.112
 1780SOL    HW2 6240   1.302   5.114   5.068
 1781SOL     OW 6241   4.506   0.118   4.034
 1781SOL    HW1 6242   4.480   0.112   4.130
 1781SOL    HW2 6243   4.598   0.156   4.027
 1782SOL     OW 6244   1.811   1.970   2.495
 1782SOL    HW1 6245   1.874   2.043   2.523
 1782SOL    HW2 6246   1.853   1.881   2.512
 1783SOL     OW 6247   2.266   3.542   5.617
 1783SOL    HW1 6248   2.297   3.476   5.549
 1783SOL    HW2 6249   2.325   3.537   5.697
 1784SOL     OW 6250   2.502   0.572   0.907
 1784SOL    HW1 6251   2.466   0.487   0.946
 1784SOL    HW2 6252   2.425   0.633   0.885
 1785SOL     OW 6253   0.656   6.699   4.372
 1785SOL    HW1 6254   0.656   6.599   4.360
 1785SOL    HW2 6255   0.585   6.724   4.438
 1786SOL     OW 6256   2.071   5.584   0.614
 1786SOL    HW1 6257   2.094   5.512   0.680
 1786SOL    HW2 6258   2.013   5.546   0.542
 1787SOL     OW 6259   1.903   2.970   5.731
 1787SOL    HW1 6260   1.934   3.064   5.717
 1787SOL    HW2 6261   1.981   2.908   5.718
 1788SOL     OW 6262   4.403   4.048   0.585
 1788SOL    HW1 6263   4.417   3.949   0.588
 1788SOL    HW2 6264   4.471   4.093   0.644
 1789SOL     OW 6265   6.797   3.564   1.796
 1789SOL    HW1 6266   6.708   3.573   1.842
 1789SOL    HW2 6267   6.825   3.468   1.797
 1790SOL     OW 6268   2.999   2.223   4.409
 1790SOL    HW1 6269   2.934   2.150   4.389
 1790SOL    HW2 6270   3.040   2.256   4.323
 1791SOL     OW 6271   6.460   0.666   3.637
 1791SOL    HW1 6272   6.422   0.581   3.671
 1791SOL    HW2 6273   6.407   0.697   3.558
 1792SOL     OW 6274   6.874   2.377   5.217
 1792SOL    HW1 6275   6.871   2.457   5.277
 1792SOL    HW2 6276   6.873   2.294   5.273
 1793SOL     OW 6277   0.519   1.302   4.956
 1793SOL    HW1 6278   0.487   1.397   4.963
 1793SOL    HW2 6279   0.440   1.241   4.954
 1794SOL     OW 6280   6.737   0.292   6.129
 1794SOL    HW1 6281   6.827   0.271   6.166
 1794SOL    HW2 6282   6.744   0.361   6.058
 1795SOL     OW 6283   5.947   4.618   0.289
 1795SOL    HW1 6284   5.848   4.635   0.292
 1795SOL    HW2 6285   5.983   4.646   0.200
 1796SOL     OW 6286   1.288   0.039   5.176
 1796SOL    HW1 6287   1.319   0.130   5.202
 1796SOL    HW2 6288   1.258   0.041   5.080
 1797SOL     OW 6289   2.335   6.302   4.779
 1797SOL    HW1 6290   2.433   6.283   4.771
 1797SOL    HW2 6291   2.317   6.352   4.864
 1798SOL     OW 6292   3.471   3.573   4.696
 1798SOL    HW1 6293   3.401   3.503   4.681
 1798SOL    HW2 6294   3.456   3.649   4.632
 1799SOL     OW 6295   3.125   0.456   6.918
 1799SOL    HW1 6296   3.142   0.520   6.993
 1799SOL    HW2 6297   3.095   0.368   6.955
 1800SOL     OW 6298   5.293   3.947   3.755
 1800SOL    HW1 6299   5.334   4.020   3.700
 1800SOL    HW2 6300   5.219   3.904   3.702
 1801SOL     OW 6301   1.141   1.253   2.047
 1801SOL    HW1 6302   1.209   1.274   2.118
 1801SOL    HW2 6303   1.173   1.287   1.959
 1802SOL     OW 6304   6.185   4.810   3.584
 1802SOL    HW1 6305   6.128   4.867   3.524
 1802SOL    HW2 6306   6.272   4.792   3.538
 1803SOL     OW 6307   0.086   6.207   2.567
 1803SOL    HW1 6308   7.012   6.216   2.590
 1803SOL    HW2 6309   0.135   6.287   2.601
 1804SOL     OW 6310   3.038   3.660   6.265
 1804SOL    HW1 6311   2.974   3.662   6.188
 1804SOL    HW2 6312   3.051   3.565   6.295
 1805SOL     OW 6313   0.274   6.599   6.497
 1805SOL    HW1 6314   0.293   6.512   6.542
 1805SOL    HW2 6315   0.269   6.586   6.398
 1806SOL     OW 6316   6.974   2.704   2.268
 1806SOL    HW1 6317   6.893   2.650   2.288
 1806SOL    HW2 6318   6.963   2.796   2.305
 1807SOL     OW 6319   6.439   4.060   1.515
 1807SOL    HW1 6320   6.534   4.052   1.547
 1807SOL    HW2 6321   6.433   4.136   1.450
 1808SOL     OW 6322   5.011   2.518   5.775
 1808SOL    HW1 6323   4.915   2.512   5.804
 1808SOL    HW2 6324   5.017   2.571   5.691
 1809SOL     OW 6325   3.725   2.096   5.217
 1809SOL    HW1 6326   3.770   2.174   5.261
 1809SOL    HW2 6327   3.794   2.038   5.174
 1810SOL     OW 6328   0.453   6.960   3.893
 1810SOL    HW1 6329   0.458   6.916   3.983
 1810SOL    HW2 6330   0.428   6.893   3.824
 1811SOL     OW 6331   3.854   5.088   2.365
 1811SOL    HW1 6332   3.898   5.171   2.400
 1811SOL    HW2 6333   3.788   5.112   2.295
 1812SOL     OW 6334   4.332   0.272   6.206
 1812SOL    HW1 6335   4.339   0.181   6.247
 1812SOL    HW2 6336   4.320   0.340   6.278
 1813SOL     OW 6337   4.646   4.887   2.833
 1813SOL    HW1 6338   4.572   4.942   2.871
 1813SOL    HW2 6339   4.625   4.863   2.738
 1814SOL     OW 6340   0.799   6.757   0.272
 1814SOL    HW1 6341   0.740   6.809   0.211
 1814SOL    HW2 6342   0.857   6.696   0.218
 1815SOL     OW 6343   5.712   5.990   2.122
 1815SOL    HW1 6344   5.799   5.944   2.140
 1815SOL    HW2 6345   5.728   6.073   2.069
 1816SOL     OW 6346   4.152   5.758   5.671
 1816SOL    HW1 6347   4.145   5.670   5.623
 1816SOL    HW2 6348   4.060   5.791   5.693
 1817SOL     OW 6349   2.452   1.504   3.249
 1817SOL    HW1 6350   2.425   1.410   3.268
 1817SOL    HW2 6351   2.396   1.540   3.175
 1818SOL     OW 6352   2.255   6.531   0.109
 1818SOL    HW1 6353   2.182   6.496   0.050
 1818SOL    HW2 6354   2.344   6.517   0.064
 1819SOL     OW 6355   1.355   4.848   3.080
 1819SOL    HW1 6356   1.360   4.933   3.027
 1819SOL    HW2 6357   1.371   4.868   3.177
 1820SOL     OW 6358   4.313   6.780   3.310
 1820SOL    HW1 6359   4.263   6.840   3.372
 1820SOL    HW2 6360   4.249   6.737   3.246
 1821SOL     OW 6361   4.070   1.225   2.364
 1821SOL    HW1 6362   4.070   1.143   2.421
 1821SOL    HW2 6363   4.044   1.200   2.271
 1822SOL     OW 6364   0.751   3.083   2.261
 1822SOL    HW1 6365   0.653   3.102   2.263
 1822SOL    HW2 6366   0.767   2.984   2.266
 1823SOL     OW 6367   3.471   6.901   2.566
 1823SOL    HW1 6368   3.459   6.945   2.656
 1823SOL    HW2 6369   3.467   6.802   2.577
 1824SOL     OW 6370   4.177   3.875   0.955
 1824SOL    HW1 6371   4.095   3.903   1.005
 1824SOL    HW2 6372   4.242   3.951   0.952
 1825SOL     OW 6373   2.026   2.173   5.230
 1825SOL    HW1 6374   1.937   2.218   5.222
 1825SOL    HW2 6375   2.058   2.178   5.325
 1826SOL     OW 6376   3.408   2.076   1.969
 1826SOL    HW1 6377   3.490   2.132   1.957
 1826SOL    HW2 6378   3.421   2.012   2.045
 1827SOL     OW 6379   5.683   4.666   0.374
 1827SOL    HW1 6380   5.619   4.739   0.350
 1827SOL    HW2 6381   5.748   4.700   0.442
 1828SOL     OW 6382   1.350   3.345   5.852
 1828SOL    HW1 6383   1.293   3.278   5.900
 1828SOL    HW2 6384   1.446   3.322   5.863
 1829SOL     OW 6385   3.884   0.541   4.064
 1829SOL    HW1 6386   3.830   0.611   4.111
 1829SOL    HW2 6387   3.867   0.452   4.105
 1830SOL     OW 6388   5.777   6.868   4.875
 1830SOL    HW1 6389   5.694   6.814   4.888
 1830SOL    HW2 6390   5.766   6.957   4.918
 1831SOL     OW 6391   5.180   5.317   2.754
 1831SOL    HW1 6392   5.122   5.317   2.672
 1831SOL    HW2 6393   5.122   5.327   2.835
 1832SOL     OW 6394   2.358   3.730   0.770
 1832SOL    HW1 6395   2.407   3.657   0.723
 1832SOL    HW2 6396   2.265   3.736   0.732
 1833SOL     OW 6397   4.861   0.470   1.766
 1833SOL    HW1 6398   4.803   0.421   1.700
 1833SOL    HW2 6399   4.956   0.441   1.754
 1834SOL     OW 6400   2.211   2.407   0.156
 1834SOL    HW1 6401   2.136   2.429   0.219
 1834SOL    HW2 6402   2.213   2.308   0.141
 1835SOL     OW 6403   6.954   5.026   1.356
 1835SOL    HW1 6404   6.983   5.009   1.451
 1835SOL    HW2 6405   7.008   4.969   1.294
 1836SOL     OW 6406   5.301   1.735   1.965
 1836SOL    HW1 6407   5.283   1.678   1.885
 1836SOL    HW2 6408   5.278   1.830   1.944
 1837SOL     OW 6409   2.840   1.240   6.214
 1837SOL    HW1 6410   2.852   1.255   6.115
 1837SOL    HW2 6411   2.787   1.316   6.252
 1838SOL     OW 6412   5.890   1.361   0.722
 1838SOL    HW1 6413   5.816   1.338   0.786
 1838SOL    HW2 6414   5.865   1.444   0.672
 1839SOL     OW 6415   5.770   1.697   0.222
 1839SOL    HW1 6416   5.861   1.669   0.190
 1839SOL    HW2 6417   5.722   1.743   0.148
 1840SOL     OW 6418   4.335   7.017   2.923
 1840SOL    HW1 6419   4.359   0.091   2.929
 1840SOL    HW2 6420   4.393   6.964   2.984
 1841SOL     OW 6421   2.243   0.464   2.473
 1841SOL    HW1 6422   2.327   0.508   2.442
 1841SOL    HW2 6423   2.169   0.532   2.477
 1842SOL     OW 6424   1.742   4.885   0.661
 1842SOL    HW1 6425   1.660   4.931   0.625
 1842SOL    HW2 6426   1.777   4.822   0.591
 1843SOL     OW 6427   3.418   1.439   4.611
 1843SOL    HW1 6428   3.458   1.430   4.702
 1843SOL    HW2 6429   3.319   1.451   4.618
 1844SOL     OW 6430   4.569   1.712   6.605
 1844SOL    HW1 6431   4.533   1.639   6.546
 1844SOL    HW2 6432   4.500   1.736   6.674
 1845SOL     OW 6433   2.416   1.267   3.096
 1845SOL    HW1 6434   2.361   1.306   3.022
 1845SOL    HW2 6435   2.511   1.298   3.087
 1846SOL     OW 6436   4.587   1.191   2.854
 1846SOL    HW1 6437   4.604   1.113   2.793
 1846SOL    HW2 6438   4.567   1.157   2.946
 1847SOL     OW 6439   2.030   0.122   4.336
 1847SOL    HW1 6440   1.937   0.155   4.347
 1847SOL    HW2 6441   2.051   0.113   4.239
 1848SOL     OW 6442   2.059   5.643   4.167
 1848SOL    HW1 6443   2.159   5.637   4.168
 1848SOL    HW2 6444   2.020   5.554   4.144
 1849SOL     OW 6445   4.521   2.473   2.607
 1849SOL    HW1 6446   4.530   2.506   2.700
 1849SOL    HW2 6447   4.550   2.544   2.542
 1850SOL     OW 6448   5.369   2.293   2.107
 1850SOL    HW1 6449   5.427   2.346   2.168
 1850SOL    HW2 6450   5.273   2.301   2.137
 1851SOL     OW 6451   0.092   3.155   5.994
 1851SOL    HW1 6452   0.114   3.072   6.046
 1851SOL    HW2 6453   7.017   3.173   6.000
 1852SOL     OW 6454   1.608   4.851   2.131
 1852SOL    HW1 6455   1.512   4.823   2.131
 1852SOL    HW2 6456   1.614   4.947   2.159
 1853SOL     OW 6457   0.562   2.979   4.706
 1853SOL    HW1 6458   0.584   2.923   4.786
 1853SOL    HW2 6459   0.470   3.017   4.717
 1854SOL     OW 6460   0.638   6.081   3.279
 1854SOL    HW1 6461   0.622   6.017   3.354
 1854SOL    HW2 6462   0.712   6.048   3.221
 1855SOL     OW 6463   4.948   3.442   4.841
 1855SOL    HW1 6464   4.869   3.493   4.876
 1855SOL    HW2 6465   5.026   3.458   4.901
 1856SOL     OW 6466   3.929   3.824   6.866
 1856SOL    HW1 6467   4.002   3.762   6.837
 1856SOL    HW2 6468   3.888   3.790   6.951
 1857SOL     OW 6469   5.105   0.944   0.256
 1857SOL    HW1 6470   5.137   0.976   0.167
 1857SOL    HW2 6471   5.009   0.968   0.267
 1858SOL     OW 6472   4.533   2.385   4.484
 1858SOL    HW1 6473   4.617   2.412   4.530
 1858SOL    HW2 6474   4.539   2.289   4.456
 1859SOL     OW 6475   6.001   2.194   5.059
 1859SOL    HW1 6476   5.917   2.154   5.023
 1859SOL    HW2 6477   5.992   2.294   5.058
 1860SOL     OW 6478   1.305   1.710   4.996
 1860SOL    HW1 6479   1.249   1.779   5.040
 1860SOL    HW2 6480   1.400   1.741   4.992
 1861SOL     OW 6481   6.790   0.891   3.066
 1861SOL    HW1 6482   6.736   0.829   3.123
 1861SOL    HW2 6483   6.736   0.972   3.044
 1862SOL     OW 6484   1.986   6.286   6.632
 1862SOL    HW1 6485   1.998   6.198   6.677
 1862SOL    HW2 6486   2.072   6.315   6.591
 1863SOL     OW 6487   0.485   3.238   1.582
 1863SOL    HW1 6488   0.503   3.311   1.648
 1863SOL    HW2 6489   0.390   3.242   1.553
 1864SOL     OW 6490   3.051   6.251   3.236
 1864SOL    HW1 6491   3.034   6.153   3.246
 1864SOL    HW2 6492   3.086   6.288   3.322
 1865SOL     OW 6493   4.903   1.329   6.817
 1865SOL    HW1 6494   4.944   1.398   6.876
 1865SOL    HW2 6495   4.812   1.360   6.788
 1866SOL     OW 6496   0.670   4.276   4.066
 1866SOL    HW1 6497   0.664   4.352   4.002
 1866SOL    HW2 6498   0.765   4.242   4.068
 1867SOL     OW 6499   2.392   2.142   1.325
 1867SOL    HW1 6500   2.373   2.203   1.403
 1867SOL    HW2 6501   2.389   2.195   1.240
 1868SOL     OW 6502   5.639   4.254   5.431
 1868SOL    HW1 6503   5.565   4.309   5.468
 1868SOL    HW2 6504   5.726   4.280   5.474
 1869SOL     OW 6505   4.419   2.253   4.172
 1869SOL    HW1 6506   4.457   2.193   4.101
 1869SOL    HW2 6507   4.403   2.344   4.133
 1870SOL     OW 6508   1.492   4.261   4.183
 1870SOL    HW1 6509   1.589   4.252   4.207
 1870SOL    HW2 6510   1.477   4.230   4.090
 1871SOL     OW 6511   0.946   6.432   0.508
 1871SOL    HW1 6512   0.966   6.348   0.459
 1871SOL    HW2 6513   0.989   6.509   0.461
 1872SOL     OW 6514   3.113   2.107   0.522
 1872SOL    HW1 6515   3.020   2.129   0.495
 1872SOL    HW2 6516   3.153   2.045   0.454
 1873SOL     OW 6517   6.297   1.018   6.955
 1873SOL    HW1 6518   6.223   0.953   6.935
 1873SOL    HW2 6519   6.263   1.111   6.945
 1874SOL     OW 6520   1.169   6.258   6.460
 1874SOL    HW1 6521   1.219   6.333   6.502
 1874SOL    HW2 6522   1.092   6.294   6.408
 1875SOL     OW 6523   6.038   5.390   6.880
 1875SOL    HW1 6524   6.131   5.407   6.847
 1875SOL    HW2 6525   5.973   5.439   6.823
 1876SOL     OW 6526   5.758   6.808   6.461
 1876SOL    HW1 6527   5.829   6.876   6.440
 1876SOL    HW2 6528   5.801   6.721   6.485
 1877SOL     OW 6529   0.340   1.132   2.353
 1877SOL    HW1 6530   0.329   1.051   2.294
 1877SOL    HW2 6531   0.388   1.106   2.436
 1878SOL     OW 6532   0.541   4.549   3.206
 1878SOL    HW1 6533   0.563   4.599   3.122
 1878SOL    HW2 6534   0.445   4.520   3.203
 1879SOL     OW 6535   3.465   5.898   5.212
 1879SOL    HW1 6536   3.500   5.884   5.120
 1879SOL    HW2 6537   3.424   5.813   5.246
 1880SOL     OW 6538   0.117   2.060   3.518
 1880SOL    HW1 6539   0.211   2.039   3.492
 1880SOL    HW2 6540   0.090   2.003   3.596
 1881SOL     OW 6541   0.797   2.271   3.880
 1881SOL    HW1 6542   0.881   2.238   3.923
 1881SOL    HW2 6543   0.718   2.226   3.922
 1882SOL     OW 6544   1.290   6.119   7.019
 1882SOL    HW1 6545   1.227   6.074   0.060
 1882SOL    HW2 6546   1.256   6.211   6.998
 1883SOL     OW 6547   1.546   3.684   3.112
 1883SOL    HW1 6548   1.624   3.717   3.165
 1883SOL    HW2 6549   1.465   3.680   3.172
 1884SOL     OW 6550   2.962   0.835   0.678
 1884SOL    HW1 6551   2.904   0.754   0.686
 1884SOL    HW2 6552   2.989   0.848   0.583
 1885SOL     OW 6553   0.162   2.877   1.048
 1885SOL    HW1 6554   0.255   2.894   1.016
 1885SOL    HW2 6555   0.142   2.935   1.127
 1886SOL     OW 6556   2.279   2.052   6.713
 1886SOL    HW1 6557   2.242   2.123   6.774
 1886SOL    HW2 6558   2.206   1.989   6.687
 1887SOL     OW 6559   0.869   5.753   5.464
 1887SOL    HW1 6560   0.826   5.731   5.377
 1887SOL    HW2 6561   0.955   5.702   5.473
 1888SOL     OW 6562   2.194   1.912   6.344
 1888SOL    HW1 6563   2.209   1.840   6.412
 1888SOL    HW2 6564   2.229   1.999   6.380
 1889SOL     OW 6565   4.292   2.614   0.078
 1889SOL    HW1 6566   4.214   2.621   0.141
 1889SOL    HW2 6567   4.268   2.553   0.003
 1890SOL     OW 6568   0.446   5.792   6.366
 1890SOL    HW1 6569   0.416   5.838   6.282
 1890SOL    HW2 6570   0.425   5.694   6.360
 1891SOL     OW 6571   5.305   3.463   5.395
 1891SOL    HW1 6572   5.370   3.402   5.441
 1891SOL    HW2 6573   5.351   3.548   5.370
 1892SOL     OW 6574   3.634   5.299   1.445
 1892SOL    HW1 6575   3.551   5.345   1.413
 1892SOL    HW2 6576   3.654   5.327   1.539
 1893SOL     OW 6577   3.750   2.115   3.729
 1893SOL    HW1 6578   3.792   2.130   3.639
 1893SOL    HW2 6579   3.806   2.158   3.799
 1894SOL     OW 6580   4.553   3.844   1.448
 1894SOL    HW1 6581   4.538   3.767   1.509
 1894SOL    HW2 6582   4.522   3.819   1.356
 1895SOL     OW 6583   6.385   1.190   2.649
 1895SOL    HW1 6584   6.479   1.196   2.616
 1895SOL    HW2 6585   6.331   1.265   2.611
 1896SOL     OW 6586   6.368   1.644   4.390
 1896SOL    HW1 6587   6.324   1.597   4.466
 1896SOL    HW2 6588   6.464   1.664   4.413
 1897SOL     OW 6589   5.669   4.976   3.126
 1897SOL    HW1 6590   5.726   5.053   3.153
 1897SOL    HW2 6591   5.575   4.992   3.156
 1898SOL     OW 6592   5.499   5.564   1.133
 1898SOL    HW1 6593   5.523   5.606   1.045
 1898SOL    HW2 6594   5.456   5.633   1.191
 1899SOL     OW 6595   0.214   2.986   2.926
 1899SOL    HW1 6596   0.232   2.961   3.021
 1899SOL    HW2 6597   0.172   2.908   2.878
 1900SOL     OW 6598   1.278   6.154   5.878
 1900SOL    HW1 6599   1.224   6.234   5.851
 1900SOL    HW2 6600   1.376   6.176   5.870
 1901SOL     OW 6601   1.452   0.387   6.991
 1901SOL    HW1 6602   1.529   0.336   0.005
 1901SOL    HW2 6603   1.473   0.485   6.992
 1902SOL     OW 6604   0.804   3.220   4.297
 1902SOL    HW1 6605   0.740   3.207   4.222
 1902SOL    HW2 6606   0.758   3.201   4.384
 1903SOL     OW 6607   6.429   4.014   3.318
 1903SOL    HW1 6608   6.480   4.100   3.328
 1903SOL    HW2 6609   6.437   3.981   3.224
 1904SOL     OW 6610   0.007   0.430   4.117
 1904SOL    HW1 6611   0.029   0.527   4.111
 1904SOL    HW2 6612   6.957   0.409   4.053
 1905SOL     OW 6613   0.517   2.455   4.129
 1905SOL    HW1 6614   0.596   2.393   4.133
 1905SOL    HW2 6615   0.518   2.503   4.041
 1906SOL     OW 6616   2.201   6.556   6.148
 1906SOL    HW1 6617   2.188   6.653   6.171
 1906SOL    HW2 6618   2.281   6.522   6.197
 1907SOL     OW 6619   3.167   6.578   3.302
 1907SOL    HW1 6620   3.215   6.581   3.214
 1907SOL    HW2 6621   3.232   6.564   3.376
 1908SOL     OW 6622   4.290   1.561   6.133
 1908SOL    HW1 6623   4.283   1.660   6.131
 1908SOL    HW2 6624   4.370   1.534   6.186
 1909SOL     OW 6625   2.092   4.591   4.732
 1909SOL    HW1 6626   2.039   4.509   4.712
 1909SOL    HW2 6627   2.092   4.607   4.831
 1910SOL     OW 6628   5.141   2.244   6.200
 1910SOL    HW1 6629   5.093   2.157   6.208
 1910SOL    HW2 6630   5.083   2.310   6.152
 1911SOL     OW 6631   6.584   2.338   5.082
 1911SOL    HW1 6632   6.616   2.267   5.145
 1911SOL    HW2 6633   6.594   2.428   5.126
 1912SOL     OW 6634   3.074   6.973   2.465
 1912SOL    HW1 6635   3.038   0.038   2.494
 1912SOL    HW2 6636   3.172   6.982   2.445
 1913SOL     OW 6637   1.703   5.749   4.970
 1913SOL    HW1 6638   1.632   5.792   5.025
 1913SOL    HW2 6639   1.671   5.661   4.936
 1914SOL     OW 6640   2.621   2.444   6.174
 1914SOL    HW1 6641   2.683   2.521   6.162
 1914SOL    HW2 6642   2.534   2.476   6.211
 1915SOL     OW 6643   4.289   0.629   6.007
 1915SOL    HW1 6644   4.217   0.646   5.939
 1915SOL    HW2 6645   4.318   0.533   6.001
 1916SOL     OW 6646   3.423   5.900   2.056
 1916SOL    HW1 6647   3.469   5.931   1.972
 1916SOL    HW2 6648   3.492   5.869   2.121
 1917SOL     OW 6649   2.900   3.699   4.527
 1917SOL    HW1 6650   2.857   3.638   4.593
 1917SOL    HW2 6651   2.929   3.783   4.574
 1918SOL     OW 6652   5.720   6.072   5.830
 1918SOL    HW1 6653   5.747   6.137   5.759
 1918SOL    HW2 6654   5.796   6.008   5.847
 1919SOL     OW 6655   1.092   6.141   2.442
 1919SOL    HW1 6656   1.171   6.080   2.448
 1919SOL    HW2 6657   1.009   6.091   2.466
 1920SOL     OW 6658   0.463   5.650   3.605
 1920SOL    HW1 6659   0.538   5.657   3.671
 1920SOL    HW2 6660   0.498   5.669   3.513
 1921SOL     OW 6661   1.328   5.902   6.768
 1921SOL    HW1 6662   1.244   5.856   6.796
 1921SOL    HW2 6663   1.380   5.931   6.848
 1922SOL     OW 6664   3.792   3.219   1.720
 1922SOL    HW1 6665   3.767   3.284   1.648
 1922SOL    HW2 6666   3.723   3.222   1.793
 1923SOL     OW 6667   2.337   0.964   1.218
 1923SOL    HW1 6668   2.296   0.983   1.307
 1923SOL    HW2 6669   2.295   1.022   1.149
 1924SOL     OW 6670   6.540   4.660   1.975
 1924SOL    HW1 6671   6.464   4.723   1.959
 1924SOL    HW2 6672   6.513   4.568   1.945
 1925SOL     OW 6673   3.182   3.841   1.758
 1925SOL    HW1 6674   3.260   3.783   1.777
 1925SOL    HW2 6675   3.196   3.931   1.799
 1926SOL     OW 6676   1.394   0.088   4.774
 1926SOL    HW1 6677   1.490   0.091   4.747
 1926SOL    HW2 6678   1.347   0.017   4.721
 1927SOL     OW 6679   4.150   3.685   6.778
 1927SOL    HW1 6680   4.206   3.764   6.753
 1927SOL    HW2 6681   4.192   3.638   6.856
 1928SOL     OW 6682   6.960   3.387   5.779
 1928SOL    HW1 6683   6.872   3.364   5.819
 1928SOL    HW2 6684   6.958   3.369   5.681
 1929SOL     OW 6685   1.366   6.026   1.489
 1929SOL    HW1 6686   1.310   6.092   1.439
 1929SOL    HW2 6687   1.426   5.978   1.426
 1930SOL     OW 6688   6.376   4.384   6.337
 1930SOL    HW1 6689   6.290   4.393   6.288
 1930SOL    HW2 6690   6.376   4.443   6.417
 1931SOL     OW 6691   0.427   3.548   3.259
 1931SOL    HW1 6692   0.477   3.514   3.338
 1931SOL    HW2 6693   0.454   3.643   3.240
 1932SOL     OW 6694   4.802   3.912   1.994
 1932SOL    HW1 6695   4.743   3.964   1.932
 1932SOL    HW2 6696   4.829   3.970   2.070
 1933SOL     OW 6697   2.994   4.378   0.621
 1933SOL    HW1 6698   3.050   4.425   0.552
 1933SOL    HW2 6699   2.934   4.312   0.575
 1934SOL     OW 6700   0.923   6.820   5.450
 1934SOL    HW1 6701   1.014   6.844   5.417
 1934SOL    HW2 6702   0.925   6.727   5.488
 1935SOL     OW 6703   2.309   6.980   4.261
 1935SOL    HW1 6704   2.401   7.018   4.271
 1935SOL    HW2 6705   2.244   0.010   4.316
 1936SOL     OW 6706   5.495   5.926   4.756
 1936SOL    HW1 6707   5.576   5.985   4.767
 1936SOL    HW2 6708   5.416   5.983   4.734
 1937SOL     OW 6709   4.224   6.879   1.466
 1937SOL    HW1 6710   4.270   6.902   1.552
 1937SOL    HW2 6711   4.129   6.908   1.471
 1938SOL     OW 6712   3.851   1.208   3.573
 1938SOL    HW1 6713   3.905   1.274   3.521
 1938SOL    HW2 6714   3.854   1.119   3.527
 1939SOL     OW 6715   1.646   0.927   4.069
 1939SOL    HW1 6716   1.630   1.026   4.059
 1939SOL    HW2 6717   1.572   0.887   4.124
 1940SOL     OW 6718   5.707   5.431   6.802
 1940SOL    HW1 6719   5.637   5.365   6.827
 1940SOL    HW2 6720   5.757   5.397   6.722
 1941SOL     OW 6721   6.095   4.026   3.052
 1941SOL    HW1 6722   6.060   4.086   2.980
 1941SOL    HW2 6723   6.059   3.934   3.040
 1942SOL     OW 6724   6.000   5.774   2.166
 1942SOL    HW1 6725   6.065   5.800   2.237
 1942SOL    HW2 6726   6.030   5.810   2.078
 1943SOL     OW 6727   2.737   5.397   2.640
 1943SOL    HW1 6728   2.802   5.465   2.607
 1943SOL    HW2 6729   2.760   5.372   2.734
 1944SOL     OW 6730   5.528   1.885   6.592
 1944SOL    HW1 6731   5.544   1.913   6.497
 1944SOL    HW2 6732   5.444   1.926   6.626
 1945SOL     OW 6733   4.405   5.317   3.032
 1945SOL    HW1 6734   4.327   5.324   2.969
 1945SOL    HW2 6735   4.417   5.404   3.080
 1946SOL     OW 6736   1.443   0.061   0.854
 1946SOL    HW1 6737   1.460   7.020   0.929
 1946SOL    HW2 6738   1.400   0.144   0.891
 1947SOL     OW 6739   5.671   6.353   4.685
 1947SOL    HW1 6740   5.572   6.359   4.668
 1947SOL    HW2 6741   5.689   6.367   4.782
 1948SOL     OW 6742   0.207   5.121   4.528
 1948SOL    HW1 6743   0.130   5.141   4.589
 1948SOL    HW2 6744   0.195   5.170   4.442
 1949SOL     OW 6745   4.226   4.522   5.902
 1949SOL    HW1 6746   4.170   4.449   5.942
 1949SOL    HW2 6747   4.241   4.503   5.805
 1950SOL     OW 6748   3.941   3.562   6.332
 1950SOL    HW1 6749   3.844   3.580   6.320
 1950SOL    HW2 6750   3.958   3.530   6.425
 1951SOL     OW 6751   5.341   1.816   0.022
 1951SOL    HW1 6752   5.395   1.800   6.964
 1951SOL    HW2 6753   5.394   1.871   0.088
 1952SOL     OW 6754   3.684   1.678   1.021
 1952SOL    HW1 6755   3.585   1.688   1.027
 1952SOL    HW2 6756   3.719   1.642   1.107
 1953SOL     OW 6757   6.921   1.960   6.864
 1953SOL    HW1 6758   6.897   1.924   6.775
 1953SOL    HW2 6759   6.848   2.021   6.897
 1954SOL     OW 6760   5.384   2.030   3.337
 1954SOL    HW1 6761   5.377   2.066   3.244
 1954SOL    HW2 6762   5.456   2.080   3.386
 1955SOL     OW 6763   1.504   7.020   2.298
 1955SOL    HW1 6764   1.567   0.040   2.234
 1955SOL    HW2 6765   1.467   6.937   2.258
 1956SOL     OW 6766   5.008   6.156   2.943
 1956SOL    HW1 6767   4.914   6.124   2.954
 1956SOL    HW2 6768   5.041   6.132   2.852
 1957SOL     OW 6769   0.278   5.820   4.567
 1957SOL    HW1 6770   0.328   5.901   4.535
 1957SOL    HW2 6771   0.190   5.848   4.606
 1958SOL     OW 6772   5.536   3.460   4.855
 1958SOL    HW1 6773   5.629   3.429   4.873
 1958SOL    HW2 6774   5.538   3.548   4.807
 1959SOL     OW 6775   1.125   2.769   5.941
 1959SOL    HW1 6776   1.037   2.801   5.906
 1959SOL    HW2 6777   1.143   2.677   5.905
 1960SOL     OW 6778   6.212   4.935   0.752
 1960SOL    HW1 6779   6.171   4.930   0.661
 1960SOL    HW2 6780   6.253   4.846   0.775
 1961SOL     OW 6781   5.956   4.887   4.088
 1961SOL    HW1 6782   5.962   4.798   4.134
 1961SOL    HW2 6783   5.859   4.910   4.074
 1962SOL     OW 6784   1.500   6.152   3.775
 1962SOL    HW1 6785   1.544   6.124   3.860
 1962SOL    HW2 6786   1.551   6.115   3.697
 1963SOL     OW 6787   0.604   0.657   1.986
 1963SOL    HW1 6788   0.655   0.574   2.010
 1963SOL    HW2 6789   0.626   0.729   2.051
 1964SOL     OW 6790   4.659   2.886   1.580
 1964SOL    HW1 6791   4.574   2.881   1.634
 1964SOL    HW2 6792   4.733   2.920   1.638
 1965SOL     OW 6793   0.213   3.453   2.381
 1965SOL    HW1 6794   0.217   3.367   2.331
 1965SOL    HW2 6795   0.262   3.524   2.330
 1966SOL     OW 6796   0.341   4.890   4.532
 1966SOL    HW1 6797   0.287   4.971   4.553
 1966SOL    HW2 6798   0.388   4.903   4.445
 1967SOL     OW 6799   5.176   2.683   6.057
 1967SOL    HW1 6800   5.139   2.591   6.040
 1967SOL    HW2 6801   5.171   2.703   6.154
 1968SOL     OW 6802   2.607   5.755   6.711
 1968SOL    HW1 6803   2.538   5.773   6.641
 1968SOL    HW2 6804   2.645   5.664   6.697
 1969SOL     OW 6805   6.930   2.395   1.756
 1969SOL    HW1 6806   7.009   2.446   1.722
 1969SOL    HW2 6807   6.961   2.310   1.798
 1970SOL     OW 6808   1.676   0.582   5.933
 1970SOL    HW1 6809   1.699   0.668   5.887
 1970SOL    HW2 6810   1.618   0.527   5.873
 1971SOL     OW 6811   6.778   0.059   6.419
 1971SOL    HW1 6812   6.835   0.138   6.440
 1971SOL    HW2 6813   6.683   0.089   6.405
 1972SOL     OW 6814   0.555   3.531   3.762
 1972SOL    HW1 6815   0.644   3.489   3.748
 1972SOL    HW2 6816   0.513   3.494   3.845
 1973SOL     OW 6817   3.587   2.734   1.747
 1973SOL    HW1 6818   3.540   2.794   1.811
 1973SOL    HW2 6819   3.550   2.749   1.655
 1974SOL     OW 6820   6.046   6.376   4.075
 1974SOL    HW1 6821   6.112   6.429   4.129
 1974SOL    HW2 6822   5.954   6.390   4.112
 1975SOL     OW 6823   1.918   0.630   4.145
 1975SOL    HW1 6824   1.911   0.558   4.214
 1975SOL    HW2 6825   1.936   0.589   4.055
 1976SOL     OW 6826   0.420   6.027   0.401
 1976SOL    HW1 6827   0.488   6.005   0.471
 1976SOL    HW2 6828   0.328   6.017   0.440
 1977SOL     OW 6829   0.688   2.882   3.766
 1977SOL    HW1 6830   0.756   2.926   3.708
 1977SOL    HW2 6831   0.697   2.783   3.759
 1978SOL     OW 6832   0.981   1.727   4.344
 1978SOL    HW1 6833   1.014   1.700   4.434
 1978SOL    HW2 6834   0.902   1.671   4.319
 1979SOL     OW 6835   6.771   4.664   4.776
 1979SOL    HW1 6836   6.807   4.581   4.733
 1979SOL    HW2 6837   6.679   4.645   4.811
 1980SOL     OW 6838   3.358   0.388   0.783
 1980SOL    HW1 6839   3.261   0.400   0.806
 1980SOL    HW2 6840   3.379   0.438   0.699
 1981SOL     OW 6841   5.516   2.517   2.816
 1981SOL    HW1 6842   5.499   2.490   2.721
 1981SOL    HW2 6843   5.430   2.543   2.859
 1982SOL     OW 6844   6.114   5.118   5.182
 1982SOL    HW1 6845   6.113   5.114   5.082
 1982SOL    HW2 6846   6.191   5.065   5.217
 1983SOL     OW 6847   1.618   2.389   3.319
 1983SOL    HW1 6848   1.691   2.327   3.293
 1983SOL    HW2 6849   1.605   2.387   3.418
 1984SOL     OW 6850   4.601   1.867   6.191
 1984SOL    HW1 6851   4.503   1.871   6.175
 1984SOL    HW2 6852   4.632   1.772   6.187
 1985SOL     OW 6853   0.721   1.277   2.261
 1985SOL    HW1 6854   0.817   1.280   2.290
 1985SOL    HW2 6855   0.716   1.283   2.161
 1986SOL     OW 6856   1.173   1.738   6.866
 1986SOL    HW1 6857   1.218   1.798   6.932
 1986SOL    HW2 6858   1.187   1.772   6.773
 1987SOL     OW 6859   2.882   3.016   1.768
 1987SOL    HW1 6860   2.939   2.934   1.763
 1987SOL    HW2 6861   2.939   3.094   1.794
 1988SOL     OW 6862   4.910   4.373   6.919
 1988SOL    HW1 6863   4.990   4.402   6.972
 1988SOL    HW2 6864   4.914   4.274   6.904
 1989SOL     OW 6865   2.335   0.674   4.641
 1989SOL    HW1 6866   2.424   0.713   4.665
 1989SOL    HW2 6867   2.349   0.599   4.576
 1990SOL     OW 6868   3.127   0.572   1.844
 1990SOL    HW1 6869   3.120   0.528   1.933
 1990SOL    HW2 6870   3.062   0.531   1.780
 1991SOL     OW 6871   3.695   5.294   5.835
 1991SOL    HW1 6872   3.658   5.292   5.928
 1991SOL    HW2 6873   3.653   5.369   5.784
 1992SOL     OW 6874   2.933   0.037   5.473
 1992SOL    HW1 6875   2.914   0.062   5.568
 1992SOL    HW2 6876   2.898   0.107   5.412
 1993SOL     OW 6877   3.693   3.742   5.630
 1993SOL    HW1 6878   3.673   3.807   5.556
 1993SOL    HW2 6879   3.775   3.771   5.679
 1994SOL     OW 6880   0.411   2.144   2.391
 1994SOL    HW1 6881   0.343   2.143   2.318
 1994SOL    HW2 6882   0.434   2.239   2.413
 1995SOL     OW 6883   6.352   1.973   2.259
 1995SOL    HW1 6884   6.409   2.042   2.215
 1995SOL    HW2 6885   6.276   1.949   2.199
 1996SOL     OW 6886   3.283   2.690   0.941
 1996SOL    HW1 6887   3.351   2.705   0.869
 1996SOL    HW2 6888   3.272   2.592   0.958
 1997SOL     OW 6889   5.874   1.342   4.852
 1997SOL    HW1 6890   5.969   1.313   4.849
 1997SOL    HW2 6891   5.817   1.274   4.806
 1998SOL     OW 6892   2.896   3.774   6.721
 1998SOL    HW1 6893   2.828   3.836   6.759
 1998SOL    HW2 6894   2.878   3.760   6.624
 1999SOL     OW 6895   2.492   0.548   2.374
 1999SOL    HW1 6896   2.506   0.520   2.279
 1999SOL    HW2 6897   2.515   0.472   2.435
 2000SOL     OW 6898   4.196   1.344   4.866
 2000SOL    HW1 6899   4.202   1.344   4.965
 2000SOL    HW2 6900   4.100   1.351   4.839
 2001SOL     OW 6901   3.525   2.216   1.636
 2001SOL    HW1 6902   3.571   2.247   1.719
 2001SOL    HW2 6903   3.566   2.130   1.606
 2002SOL     OW 6904   1.580   6.303   6.088
 2002SOL    HW1 6905   1.505   6.251   6.127
 2002SOL    HW2 6906   1.544   6.375   6.029
 2003SOL     OW 6907   5.058   0.164   3.804
 2003SOL    HW1 6908   5.071   0.127   3.897
 2003SOL    HW2 6909   5.104   0.104   3.738
 2004SOL     OW 6910   4.474   0.980   4.233
 2004SOL    HW1 6911   4.409   0.910   4.261
 2004SOL    HW2 6912   4.550   0.983   4.298
 2005SOL     OW 6913   1.318   5.627   6.698
 2005SOL    HW1 6914   1.325   5.723   6.722
 2005SOL    HW2 6915   1.347   5.615   6.603
 2006SOL     OW 6916   5.012   4.392   3.735
 2006SOL    HW1 6917   4.933   4.408   3.796
 2006SOL    HW2 6918   5.047   4.480   3.703
 2007SOL     OW 6919   4.917   5.146   0.140
 2007SOL    HW1 6920   4.978   5.072   0.164
 2007SOL    HW2 6921   4.970   5.227   0.114
 2008SOL     OW 6922   0.111   5.972   3.841
 2008SOL    HW1 6923   0.039   5.905   3.820
 2008SOL    HW2 6924   0.084   6.024   3.923
 2009SOL     OW 6925   6.239   0.572   1.552
 2009SOL    HW1 6926   6.282   0.492   1.594
 2009SOL    HW2 6927   6.214   0.637   1.623
 2010SOL     OW 6928   1.750   0.955   1.386
 2010SOL    HW1 6929   1.686   0.934   1.312
 2010SOL    HW2 6930   1.707   1.019   1.451
 2011SOL     OW 6931   6.843   2.520   4.982
 2011SOL    HW1 6932   6.864   2.465   5.062
 2011SOL    HW2 6933   6.782   2.595   5.008
 2012SOL     OW 6934   0.961   3.568   1.614
 2012SOL    HW1 6935   0.978   3.659   1.575
 2012SOL    HW2 6936   1.046   3.516   1.615
 2013SOL     OW 6937   5.231   1.833   2.768
 2013SOL    HW1 6938   5.151   1.890   2.788
 2013SOL    HW2 6939   5.204   1.737   2.766
 2014SOL     OW 6940   1.065   5.685   3.253
 2014SOL    HW1 6941   1.044   5.751   3.181
 2014SOL    HW2 6942   1.161   5.658   3.246
 2015SOL     OW 6943   3.278   1.115   0.025
 2015SOL    HW1 6944   3.258   1.209   7.021
 2015SOL    HW2 6945   3.288   1.058   6.966
 2016SOL     OW 6946   0.957   5.055   4.570
 2016SOL    HW1 6947   0.990   5.062   4.664
 2016SOL    HW2 6948   0.896   4.976   4.562
 2017SOL     OW 6949   3.238   6.612   3.718
 2017SOL    HW1 6950   3.331   6.575   3.712
 2017SOL    HW2 6951   3.242   6.712   3.720
 2018SOL     OW 6952   0.251   5.537   5.649
 2018SOL    HW1 6953   0.196   5.455   5.633
 2018SOL    HW2 6954   0.341   5.510   5.684
 2019SOL     OW 6955   5.278   2.940   1.025
 2019SOL    HW1 6956   5.298   3.031   1.063
 2019SOL    HW2 6957   5.280   2.945   0.925
 2020SOL     OW 6958   1.531   5.262   5.217
 2020SOL    HW1 6959   1.627   5.239   5.205
 2020SOL    HW2 6960   1.509   5.266   5.314
 2021SOL     OW 6961   1.920   0.381   2.840
 2021SOL    HW1 6962   2.003   0.404   2.789
 2021SOL    HW2 6963   1.893   0.459   2.897
 2022SOL     OW 6964   1.734   3.737   1.968
 2022SOL    HW1 6965   1.652   3.721   1.913
 2022SOL    HW2 6966   1.727   3.686   2.054
 2023SOL     OW 6967   6.946   1.507   6.920
 2023SOL    HW1 6968   6.930   1.603   6.942
 2023SOL    HW2 6969   6.880   1.450   6.968
 2024SOL     OW 6970   7.023   0.949   2.915
 2024SOL    HW1 6971   6.993   1.025   2.857
 2024SOL    HW2 6972   6.946   0.916   2.969
 2025SOL     OW 6973   1.610   2.051   1.615
 2025SOL    HW1 6974   1.552   2.065   1.534
 2025SOL    HW2 6975   1.662   1.966   1.604
 2026SOL     OW 6976   2.039   2.089   6.142
 2026SOL    HW1 6977   2.067   2.181   6.171
 2026SOL    HW2 6978   2.113   2.024   6.159
 2027SOL     OW 6979   0.747   0.955   1.854
 2027SOL    HW1 6980   0.756   1.044   1.900
 2027SOL    HW2 6981   0.826   0.898   1.877
 2028SOL     OW 6982   3.606   1.395   0.624
 2028SOL    HW1 6983   3.637   1.443   0.541
 2028SOL    HW2 6984   3.651   1.435   0.704
 2029SOL     OW 6985   0.763   0.370   6.659
 2029SOL    HW1 6986   0.701   0.299   6.692
 2029SOL    HW2 6987   0.769   0.443   6.727
 2030SOL     OW 6988   1.555   2.329   3.586
 2030SOL    HW1 6989   1.485   2.260   3.603
 2030SOL    HW2 6990   1.525   2.417   3.623
 2031SOL     OW 6991   5.528   6.044   1.858
 2031SOL    HW1 6992   5.490   6.100   1.931
 2031SOL    HW2 6993   5.583   6.101   1.797
 2032SOL     OW 6994   5.357   6.307   0.959
 2032SOL    HW1 6995   5.268   6.291   0.916
 2032SOL    HW2 6996   5.356   6.275   1.053
 2033SOL     OW 6997   4.275   4.685   6.145
 2033SOL    HW1 6998   4.358   4.740   6.145
 2033SOL    HW2 6999   4.265   4.639   6.057
 2034SOL     OW 7000   1.988   6.296   3.367
 2034SOL    HW1 7001   1.922   6.242   3.420
 2034SOL    HW2 7002   2.060   6.329   3.428
 2035SOL     OW 7003   6.810   2.011   2.486
 2035SOL    HW1 7004   6.760   1.969   2.411
 2035SOL    HW2 7005   6.762   2.094   2.516
 2036SOL     OW 7006   0.326   5.746   1.349
 2036SOL    HW1 7007   0.351   5.703   1.436
 2036SOL    HW2 7008   0.393   5.816   1.325
 2037SOL     OW 7009   6.749   2.475   5.937
 2037SOL    HW1 7010   6.727   2.474   6.034
 2037SOL    HW2 7011   6.848   2.469   5.924
 2038SOL     OW 7012   0.963   1.837   6.444
 2038SOL    HW1 7013   0.898   1.805   6.513
 2038SOL    HW2 7014   0.914   1.862   6.360
 2039SOL     OW 7015   0.367   6.127   3.161
 2039SOL    HW1 7016   0.456   6.126   3.206
 2039SOL    HW2 7017   0.372   6.185   3.080
 2040SOL     OW 7018   3.898   3.041   4.546
 2040SOL    HW1 7019   3.863   3.002   4.461
 2040SOL    HW2 7020   3.976   3.101   4.526
 2041SOL     OW 7021   5.954   5.786   6.450
 2041SOL    HW1 7022   6.040   5.834   6.467
 2041SOL    HW2 7023   5.969   5.688   6.452
 2042SOL     OW 7024   5.873   5.344   0.641
 2042SOL    HW1 7025   5.824   5.317   0.558
 2042SOL    HW2 7026   5.967   5.311   0.636
 2043SOL     OW 7027   6.652   5.316   2.086
 2043SOL    HW1 7028   6.619   5.309   2.180
 2043SOL    HW2 7029   6.657   5.412   2.059
 2044SOL     OW 7030   5.592   0.594   1.672
 2044SOL    HW1 7031   5.682   0.555   1.655
 2044SOL    HW2 7032   5.555   0.558   1.757
 2045SOL     OW 7033   1.541   4.457   5.356
 2045SOL    HW1 7034   1.441   4.453   5.349
 2045SOL    HW2 7035   1.567   4.478   5.450
 2046SOL     OW 7036   6.463   0.913   4.397
 2046SOL    HW1 7037   6.553   0.883   4.429
 2046SOL    HW2 7038   6.473   0.957   4.307
 2047SOL     OW 7039   4.533   2.068   0.813
 2047SOL    HW1 7040   4.518   2.051   0.910
 2047SOL    HW2 7041   4.511   1.986   0.761
 2048SOL     OW 7042   3.476   6.346   6.893
 2048SOL    HW1 7043   3.380   6.361   6.917
 2048SOL    HW2 7044   3.493   6.378   6.800
 2049SOL     OW 7045   4.770   2.339   6.670
 2049SOL    HW1 7046   4.682   2.386   6.659
 2049SOL    HW2 7047   4.759   2.265   6.737
 2050SOL     OW 7048   6.137   2.890   3.880
 2050SOL    HW1 7049   6.106   2.978   3.845
 2050SOL    HW2 7050   6.112   2.818   3.816
 2051SOL     OW 7051   6.971   4.868   6.607
 2051SOL    HW1 7052   6.926   4.792   6.560
 2051SOL    HW2 7053   6.921   4.890   6.690
 2052SOL     OW 7054   0.462   3.188   6.816
 2052SOL    HW1 7055   0.373   3.148   6.792
 2052SOL    HW2 7056   0.477   3.270   6.761
 2053SOL     OW 7057   5.989   0.781   0.634
 2053SOL    HW1 7058   6.030   0.694   0.605
 2053SOL    HW2 7059   6.008   0.851   0.565
 2054SOL     OW 7060   5.411   3.166   1.125
 2054SOL    HW1 7061   5.409   3.189   1.223
 2054SOL    HW2 7062   5.399   3.249   1.071
 2055SOL     OW 7063   5.648   2.968   2.849
 2055SOL    HW1 7064   5.653   2.960   2.949
 2055SOL    HW2 7065   5.668   2.879   2.809
 2056SOL     OW 7066   1.932   1.730   2.529
 2056SOL    HW1 7067   1.971   1.750   2.439
 2056SOL    HW2 7068   1.978   1.651   2.568
 2057SOL     OW 7069   5.547   2.224   3.763
 2057SOL    HW1 7070   5.569   2.127   3.754
 2057SOL    HW2 7071   5.539   2.264   3.672
 2058SOL     OW 7072   1.156   1.682   2.932
 2058SOL    HW1 7073   1.082   1.748   2.921
 2058SOL    HW2 7074   1.161   1.624   2.850
 2059SOL     OW 7075   2.170   6.611   6.720
 2059SOL    HW1 7076   2.181   6.692   6.778
 2059SOL    HW2 7077   2.139   6.640   6.629
 2060SOL     OW 7078   0.009   4.329   0.918
 2060SOL    HW1 7079   0.099   4.295   0.889
 2060SOL    HW2 7080   6.989   4.262   0.978
 2061SOL     OW 7081   0.196   1.747   2.659
 2061SOL    HW1 7082   0.115   1.796   2.626
 2061SOL    HW2 7083   0.218   1.673   2.596
 2062SOL     OW 7084   5.319   0.167   3.422
 2062SOL    HW1 7085   5.269   0.202   3.501
 2062SOL    HW2 7086   5.382   0.238   3.389
 2063SOL     OW 7087   0.634   0.827   6.897
 2063SOL    HW1 7088   0.573   0.777   6.958
 2063SOL    HW2 7089   0.612   0.804   6.802
 2064SOL     OW 7090   0.906   1.781   6.023
 2064SOL    HW1 7091   0.975   1.845   5.990
 2064SOL    HW2 7092   0.949   1.711   6.080
 2065SOL     OW 7093   5.809   3.728   2.210
 2065SOL    HW1 7094   5.780   3.683   2.125
 2065SOL    HW2 7095   5.734   3.727   2.275
 2066SOL     OW 7096   0.786   5.525   3.983
 2066SOL    HW1 7097   0.870   5.576   4.002
 2066SOL    HW2 7098   0.762   5.469   4.062
 2067SOL     OW 7099   0.191   6.607   0.677
 2067SOL    HW1 7100   0.191   6.563   0.767
 2067SOL    HW2 7101   0.105   6.656   0.664
 2068SOL     OW 7102   1.741   1.361   5.446
 2068SOL    HW1 7103   1.827   1.318   5.420
 2068SOL    HW2 7104   1.668   1.328   5.386
 2069SOL     OW 7105   0.349   2.535   3.172
 2069SOL    HW1 7106   0.333   2.453   3.227
 2069SOL    HW2 7107   0.446   2.557   3.171
 2070SOL     OW 7108   1.839   0.116   2.417
 2070SOL    HW1 7109   1.769   0.167   2.365
 2070SOL    HW2 7110   1.920   0.173   2.429
 2071SOL     OW 7111   0.463   6.416   4.616
 2071SOL    HW1 7112   0.381   6.469   4.635
 2071SOL    HW2 7113   0.504   6.446   4.530
 2072SOL     OW 7114   4.255   5.998   1.697
 2072SOL    HW1 7115   4.338   6.036   1.657
 2072SOL    HW2 7116   4.203   5.950   1.627
 2073SOL     OW 7117   3.836   6.372   4.690
 2073SOL    HW1 7118   3.779   6.398   4.612
 2073SOL    HW2 7119   3.876   6.455   4.730
 2074SOL     OW 7120   0.694   2.094   6.653
 2074SOL    HW1 7121   0.664   2.169   6.595
 2074SOL    HW2 7122   0.670   2.007   6.609
 2075SOL     OW 7123   5.247   3.046   1.382
 2075SOL    HW1 7124   5.167   3.053   1.442
 2075SOL    HW2 7125   5.235   2.969   1.320
 2076SOL     OW 7126   5.331   6.170   7.014
 2076SOL    HW1 7127   5.306   6.229   0.068
 2076SOL    HW2 7128   5.252   6.161   6.953
 2077SOL     OW 7129   5.279   2.792   1.961
 2077SOL    HW1 7130   5.256   2.768   2.055
 2077SOL    HW2 7131   5.304   2.709   1.910
 2078SOL     OW 7132   2.424   5.938   6.221
 2078SOL    HW1 7133   2.373   6.006   6.169
 2078SOL    HW2 7134   2.371   5.853   6.226
 2079SOL     OW 7135   5.575   1.455   3.409
 2079SOL    HW1 7136   5.501   1.427   3.470
 2079SOL    HW2 7137   5.537   1.473   3.318
 2080SOL     OW 7138   2.397   1.253   4.821
 2080SOL    HW1 7139   2.300   1.234   4.836
 2080SOL    HW2 7140   2.410   1.296   4.732
 2081SOL     OW 7141   1.453   5.832   5.084
 2081SOL    HW1 7142   1.418   5.922   5.110
 2081SOL    HW2 7143   1.388   5.786   5.024
 2082SOL     OW 7144   5.827   0.410   2.314
 2082SOL    HW1 7145   5.842   0.313   2.333
 2082SOL    HW2 7146   5.915   0.455   2.296
 2083SOL     OW 7147   4.088   4.213   6.454
 2083SOL    HW1 7148   4.022   4.164   6.512
 2083SOL    HW2 7149   4.107   4.159   6.372
 2084SOL     OW 7150   6.840   3.486   4.038
 2084SOL    HW1 7151   6.847   3.586   4.040
 2084SOL    HW2 7152   6.757   3.460   3.988
 2085SOL     OW 7153   5.245   0.795   6.863
 2085SOL    HW1 7154   5.190   0.850   6.925
 2085SOL    HW2 7155   5.188   0.763   6.787
 2086SOL     OW 7156   2.835   5.826   6.154
 2086SOL    HW1 7157   2.815   5.845   6.250
 2086SOL    HW2 7158   2.761   5.862   6.097
 2087SOL     OW 7159   4.752   6.783   1.498
 2087SOL    HW1 7160   4.773   6.691   1.532
 2087SOL    HW2 7161   4.671   6.818   1.545
 2088SOL     OW 7162   3.113   5.398   0.648
 2088SOL    HW1 7163   3.070   5.370   0.734
 2088SOL    HW2 7164   3.089   5.493   0.630
 2089SOL     OW 7165   3.908   1.499   0.183
 2089SOL    HW1 7166   4.005   1.502   0.205
 2089SOL    HW2 7167   3.892   1.430   0.112
 2090SOL     OW 7168   4.141   3.363   4.771
 2090SOL    HW1 7169   4.226   3.337   4.818
 2090SOL    HW2 7170   4.133   3.462   4.769
 2091SOL     OW 7171   0.338   6.568   7.017
 2091SOL    HW1 7172   0.286   6.579   0.077
 2091SOL    HW2 7173   0.435   6.586   0.012
 2092SOL     OW 7174   4.994   5.575   0.762
 2092SOL    HW1 7175   4.915   5.636   0.755
 2092SOL    HW2 7176   5.028   5.575   0.856
 2093SOL     OW 7177   1.464   2.084   1.394
 2093SOL    HW1 7178   1.427   2.150   1.328
 2093SOL    HW2 7179   1.452   1.992   1.358
 2094SOL     OW 7180   6.171   1.712   1.773
 2094SOL    HW1 7181   6.078   1.746   1.782
 2094SOL    HW2 7182   6.169   1.618   1.739
 2095SOL     OW 7183   6.064   0.295   3.879
 2095SOL    HW1 7184   5.964   0.286   3.887
 2095SOL    HW2 7185   6.104   0.303   3.970
 2096SOL     OW 7186   4.894   3.753   2.592
 2096SOL    HW1 7187   4.836   3.815   2.540
 2096SOL    HW2 7188   4.874   3.762   2.690
 2097SOL     OW 7189   1.209   2.752   6.634
 2097SOL    HW1 7190   1.155   2.674   6.666
 2097SOL    HW2 7191   1.216   2.749   6.534
 2098SOL     OW 7192   3.709   5.535   3.464
 2098SOL    HW1 7193   3.780   5.518   3.396
 2098SOL    HW2 7194   3.628   5.574   3.419
 2099SOL     OW 7195   2.596   2.120   4.657
 2099SOL    HW1 7196   2.499   2.142   4.645
 2099SOL    HW2 7197   2.643   2.198   4.698
 2100SOL     OW 7198   3.851   4.096   6.195
 2100SOL    HW1 7199   3.845   4.091   6.294
 2100SOL    HW2 7200   3.789   4.029   6.154
 2101SOL     OW 7201   1.555   6.461   2.269
 2101SOL    HW1 7202   1.483   6.461   2.338
 2101SOL    HW2 7203   1.583   6.367   2.250
 2102SOL     OW 7204   0.435   5.073   1.772
 2102SOL    HW1 7205   0.432   5.172   1.787
 2102SOL    HW2 7206   0.358   5.030   1.819
 2103SOL     OW 7207   3.111   3.913   6.874
 2103SOL    HW1 7208   3.189   3.858   6.903
 2103SOL    HW2 7209   3.058   3.863   6.805
 2104SOL     OW 7210   1.163   3.424   6.680
 2104SOL    HW1 7211   1.192   3.340   6.726
 2104SOL    HW2 7212   1.242   3.485   6.669
 2105SOL     OW 7213   5.683   5.206   3.874
 2105SOL    HW1 7214   5.703   5.134   3.941
 2105SOL    HW2 7215   5.768   5.251   3.847
 2106SOL     OW 7216   3.887   4.849   0.263
 2106SOL    HW1 7217   3.813   4.912   0.239
 2106SOL    HW2 7218   3.965   4.865   0.203
 2107SOL     OW 7219   4.356   2.893   5.714
 2107SOL    HW1 7220   4.313   2.890   5.804
 2107SOL    HW2 7221   4.436   2.832   5.713
 2108SOL     OW 7222   6.653   6.730   5.732
 2108SOL    HW1 7223   6.571   6.707   5.784
 2108SOL    HW2 7224   6.627   6.751   5.638
 2109SOL     OW 7225   5.310   6.305   3.514
 2109SOL    HW1 7226   5.284   6.274   3.606
 2109SOL    HW2 7227   5.334   6.402   3.518
 2110SOL     OW 7228   3.278   3.761   6.071
 2110SOL    HW1 7229   3.268   3.732   5.976
 2110SOL    HW2 7230   3.230   3.698   6.131
 2111SOL     OW 7231   0.329   1.785   6.608
 2111SOL    HW1 7232   0.350   1.720   6.681
 2111SOL    HW2 7233   0.249   1.752   6.557
 2112SOL     OW 7234   4.361   1.878   1.037
 2112SOL    HW1 7235   4.399   1.792   1.003
 2112SOL    HW2 7236   4.268   1.889   1.003
 2113SOL     OW 7237   1.133   0.143   3.954
 2113SOL    HW1 7238   1.159   0.069   4.016
 2113SOL    HW2 7239   1.056   0.193   3.993
 2114SOL     OW 7240   1.759   2.818   0.416
 2114SOL    HW1 7241   1.833   2.756   0.442
 2114SOL    HW2 7242   1.778   2.909   0.451
 2115SOL     OW 7243   1.994   4.669   3.003
 2115SOL    HW1 7244   2.057   4.615   2.947
 2115SOL    HW2 7245   2.027   4.764   3.007
 2116SOL     OW 7246   0.047   4.687   3.138
 2116SOL    HW1 7247   0.088   4.715   3.052
 2116SOL    HW2 7248   0.081   4.745   3.212
 2117SOL     OW 7249   0.091   4.897   1.150
 2117SOL    HW1 7250   0.164   4.955   1.113
 2117SOL    HW2 7251   0.032   4.866   1.075
 2118SOL     OW 7252   0.260   3.673   2.566
 2118SOL    HW1 7253   0.314   3.636   2.642
 2118SOL    HW2 7254   0.240   3.599   2.501
 2119SOL     OW 7255   2.435   5.572   0.919
 2119SOL    HW1 7256   2.388   5.523   0.993
 2119SOL    HW2 7257   2.377   5.647   0.887
 2120SOL     OW 7258   6.835   5.508   3.654
 2120SOL    HW1 7259   6.876   5.592   3.618
 2120SOL    HW2 7260   6.739   5.524   3.675
 2121SOL     OW 7261   1.228   4.529   5.898
 2121SOL    HW1 7262   1.165   4.466   5.852
 2121SOL    HW2 7263   1.245   4.608   5.839
 2122SOL     OW 7264   6.062   4.407   5.358
 2122SOL    HW1 7265   6.104   4.348   5.289
 2122SOL    HW2 7266   5.974   4.440   5.324
 2123SOL     OW 7267   0.417   4.356   2.843
 2123SOL    HW1 7268   0.370   4.341   2.756
 2123SOL    HW2 7269   0.393   4.445   2.879
 2124SOL     OW 7270   2.379   1.171   1.569
 2124SOL    HW1 7271   2.384   1.270   1.564
 2124SOL    HW2 7272   2.317   1.137   1.497
 2125SOL     OW 7273   1.507   0.166   0.348
 2125SOL    HW1 7274   1.512   0.082   0.403
 2125SOL    HW2 7275   1.537   0.146   0.255
 2126SOL     OW 7276   3.147   0.764   1.468
 2126SOL    HW1 7277   3.071   0.701   1.479
 2126SOL    HW2 7278   3.127   0.829   1.394
 2127SOL     OW 7279   5.974   3.427   4.706
 2127SOL    HW1 7280   5.954   3.351   4.643
 2127SOL    HW2 7281   5.979   3.512   4.654
 2128SOL     OW 7282   0.051   3.713   4.775
 2128SOL    HW1 7283   0.113   3.727   4.853
 2128SOL    HW2 7284   0.100   3.731   4.690
 2129SOL     OW 7285   4.345   2.989   5.419
 2129SOL    HW1 7286   4.305   2.906   5.381
 2129SOL    HW2 7287   4.354   2.979   5.518
 2130SOL     OW 7288   5.005   7.022   2.910
 2130SOL    HW1 7289   5.016   6.924   2.930
 2130SOL    HW2 7290   5.090   0.034   2.871
 2131SOL     OW 7291   6.919   1.053   1.372
 2131SOL    HW1 7292   6.992   1.092   1.317
 2131SOL    HW2 7293   6.887   0.968   1.330
 2132SOL     OW 7294   4.731   2.632   1.309
 2132SOL    HW1 7295   4.797   2.613   1.236
 2132SOL    HW2 7296   4.772   2.610   1.397
 2133SOL     OW 7297   2.910   2.789   5.630
 2133SOL    HW1 7298   2.933   2.838   5.546
 2133SOL    HW2 7299   2.928   2.692   5.618
 2134SOL     OW 7300   0.370   2.187   0.875
 2134SOL    HW1 7301   0.386   2.185   0.776
 2134SOL    HW2 7302   0.457   2.200   0.922
 2135SOL     OW 7303   0.907   4.242   4.355
 2135SOL    HW1 7304   0.838   4.175   4.379
 2135SOL    HW2 7305   0.960   4.267   4.436
 2136SOL     OW 7306   2.581   4.973   2.523
 2136SOL    HW1 7307   2.641   4.899   2.491
 2136SOL    HW2 7308   2.552   5.028   2.445
 2137SOL     OW 7309   2.896   5.253   5.363
 2137SOL    HW1 7310   2.895   5.337   5.309
 2137SOL    HW2 7311   2.943   5.181   5.312
 2138SOL     OW 7312   5.860   0.428   2.909
 2138SOL    HW1 7313   5.928   0.496   2.936
 2138SOL    HW2 7314   5.823   0.452   2.819
 2139SOL     OW 7315   4.038   0.642   4.329
 2139SOL    HW1 7316   3.971   0.662   4.256
 2139SOL    HW2 7317   4.056   0.544   4.331
 2140SOL     OW 7318   3.060   6.456   4.331
 2140SOL    HW1 7319   3.143   6.464   4.275
 2140SOL    HW2 7320   3.020   6.365   4.317
 2141SOL     OW 7321   6.237   3.435   2.092
 2141SOL    HW1 7322   6.254   3.515   2.148
 2141SOL    HW2 7323   6.230   3.354   2.150
 2142SOL     OW 7324   0.484   1.509   3.636
 2142SOL    HW1 7325   0.466   1.484   3.541
 2142SOL    HW2 7326   0.542   1.590   3.638
 2143SOL     OW 7327   2.123   5.091   1.107
 2143SOL    HW1 7328   2.059   5.014   1.109
 2143SOL    HW2 7329   2.139   5.118   1.012
 2144SOL     OW 7330   0.477   4.922   4.304
 2144SOL    HW1 7331   0.547   4.975   4.352
 2144SOL    HW2 7332   0.517   4.877   4.225
 2145SOL     OW 7333   4.142   6.644   4.046
 2145SOL    HW1 7334   4.123   6.579   3.972
 2145SOL    HW2 7335   4.193   6.721   4.008
 2146SOL     OW 7336   2.019   2.239   1.041
 2146SOL    HW1 7337   2.078   2.292   1.101
 2146SOL    HW2 7338   2.011   2.146   1.076
 2147SOL     OW 7339   6.205   1.726   6.669
 2147SOL    HW1 7340   6.156   1.656   6.618
 2147SOL    HW2 7341   6.141   1.775   6.728
 2148SOL     OW 7342   6.700   3.213   6.562
 2148SOL    HW1 7343   6.658   3.145   6.623
 2148SOL    HW2 7344   6.631   3.277   6.530
 2149SOL     OW 7345   1.568   1.380   1.282
 2149SOL    HW1 7346   1.502   1.314   1.246
 2149SOL    HW2 7347   1.581   1.364   1.380
 2150SOL     OW 7348   2.548   2.123   1.789
 2150SOL    HW1 7349   2.565   2.207   1.840
 2150SOL    HW2 7350   2.605   2.123   1.707
 2151SOL     OW 7351   0.987   6.344   6.849
 2151SOL    HW1 7352   0.996   6.273   6.918
 2151SOL    HW2 7353   0.904   6.329   6.796
 2152SOL     OW 7354   3.959   4.834   2.487
 2152SOL    HW1 7355   3.917   4.920   2.459
 2152SOL    HW2 7356   3.888   4.770   2.515
 2153SOL     OW 7357   4.943   1.676   2.001
 2153SOL    HW1 7358   4.897   1.763   2.016
 2153SOL    HW2 7359   4.876   1.605   1.982
 2154SOL     OW 7360   2.512   0.110   4.398
 2154SOL    HW1 7361   2.488   0.195   4.444
 2154SOL    HW2 7362   2.586   0.127   4.333
 2155SOL     OW 7363   4.125   6.842   1.146
 2155SOL    HW1 7364   4.127   6.756   1.197
 2155SOL    HW2 7365   4.139   6.823   1.049
 2156SOL     OW 7366   6.626   0.246   4.718
 2156SOL    HW1 7367   6.671   0.209   4.799
 2156SOL    HW2 7368   6.538   0.286   4.744
 2157SOL     OW 7369   4.852   5.723   3.895
 2157SOL    HW1 7370   4.834   5.791   3.966
 2157SOL    HW2 7371   4.772   5.716   3.835
 2158SOL     OW 7372   3.874   5.774   0.656
 2158SOL    HW1 7373   3.825   5.689   0.638
 2158SOL    HW2 7374   3.962   5.773   0.607
 2159SOL     OW 7375   1.433   0.621   4.986
 2159SOL    HW1 7376   1.440   0.521   4.989
 2159SOL    HW2 7377   1.525   0.661   4.980
 2160SOL     OW 7378   5.321   4.779   6.429
 2160SOL    HW1 7379   5.256   4.709   6.400
 2160SOL    HW2 7380   5.352   4.831   6.349
 2161SOL     OW 7381   6.728   4.069   1.905
 2161SOL    HW1 7382   6.724   3.979   1.861
 2161SOL    HW2 7383   6.768   4.135   1.842
 2162SOL     OW 7384   2.593   0.040   2.994
 2162SOL    HW1 7385   2.646   0.039   2.909
 2162SOL    HW2 7386   2.613   6.980   3.047
 2163SOL     OW 7387   1.686   4.127   0.635
 2163SOL    HW1 7388   1.611   4.099   0.695
 2163SOL    HW2 7389   1.650   4.154   0.546
 2164SOL     OW 7390   2.211   2.248   6.901
 2164SOL    HW1 7391   2.177   2.320   6.840
 2164SOL    HW2 7392   2.297   2.277   6.942
 2165SOL     OW 7393   0.574   2.128   3.958
 2165SOL    HW1 7394   0.532   2.055   3.905
 2165SOL    HW2 7395   0.560   2.110   4.056
 2166SOL     OW 7396   0.863   3.557   4.606
 2166SOL    HW1 7397   0.888   3.483   4.669
 2166SOL    HW2 7398   0.845   3.641   4.659
 2167SOL     OW 7399   0.373   2.904   3.806
 2167SOL    HW1 7400   0.467   2.898   3.841
 2167SOL    HW2 7401   0.309   2.902   3.883
 2168SOL     OW 7402   0.955   1.534   2.721
 2168SOL    HW1 7403   0.914   1.622   2.741
 2168SOL    HW2 7404   0.961   1.522   2.621
 2169SOL     OW 7405   0.037   0.449   0.973
 2169SOL    HW1 7406   0.061   0.466   0.878
 2169SOL    HW2 7407   0.079   0.364   1.004
 2170SOL     OW 7408   7.008   3.977   4.594
 2170SOL    HW1 7409   0.033   3.891   4.580
 2170SOL    HW2 7410   6.973   3.980   4.688
 2171SOL     OW 7411   0.480   5.638   1.566
 2171SOL    HW1 7412   0.546   5.611   1.496
 2171SOL    HW2 7413   0.452   5.557   1.619
 2172SOL     OW 7414   2.143   2.221   5.841
 2172SOL    HW1 7415   2.110   2.314   5.856
 2172SOL    HW2 7416   2.069   2.156   5.858
 2173SOL     OW 7417   4.611   0.469   5.891
 2173SOL    HW1 7418   4.709   0.453   5.886
 2173SOL    HW2 7419   4.567   0.437   5.807
 2174SOL     OW 7420   6.801   6.647   5.095
 2174SOL    HW1 7421   6.766   6.629   5.187
 2174SOL    HW2 7422   6.859   6.571   5.066
 2175SOL     OW 7423   1.768   2.747   4.951
 2175SOL    HW1 7424   1.772   2.840   4.986
 2175SOL    HW2 7425   1.790   2.747   4.853
 2176SOL     OW 7426   5.039   1.641   1.142
 2176SOL    HW1 7427   5.091   1.656   1.058
 2176SOL    HW2 7428   4.959   1.701   1.143
 2177SOL     OW 7429   6.501   0.679   2.361
 2177SOL    HW1 7430   6.448   0.600   2.333
 2177SOL    HW2 7431   6.533   0.729   2.281
 2178SOL     OW 7432   0.999   1.218   2.339
 2178SOL    HW1 7433   1.063   1.245   2.266
 2178SOL    HW2 7434   1.006   1.119   2.352
 2179SOL     OW 7435   1.831   3.321   6.073
 2179SOL    HW1 7436   1.833   3.364   5.982
 2179SOL    HW2 7437   1.899   3.248   6.076
 2180SOL     OW 7438   1.513   2.996   2.297
 2180SOL    HW1 7439   1.517   2.896   2.303
 2180SOL    HW2 7440   1.531   3.035   2.387
 2181SOL     OW 7441   4.471   4.980   4.206
 2181SOL    HW1 7442   4.494   5.005   4.112
 2181SOL    HW2 7443   4.380   5.016   4.228
 2182SOL     OW 7444   0.923   4.959   3.766
 2182SOL    HW1 7445   1.004   4.901   3.771
 2182SOL    HW2 7446   0.932   5.034   3.833
 2183SOL     OW 7447   2.520   4.083   0.254
 2183SOL    HW1 7448   2.567   4.047   0.335
 2183SOL    HW2 7449   2.434   4.034   0.241
 2184SOL     OW 7450   4.412   7.004   6.627
 2184SOL    HW1 7451   4.421   0.043   6.549
 2184SOL    HW2 7452   4.325   7.021   6.673
 2185SOL     OW 7453   1.308   1.097   6.489
 2185SOL    HW1 7454   1.340   1.147   6.570
 2185SOL    HW2 7455   1.331   1.000   6.498
 2186SOL     OW 7456   6.074   6.142   6.343
 2186SOL    HW1 7457   6.013   6.179   6.413
 2186SOL    HW2 7458   6.144   6.086   6.386
 2187SOL     OW 7459   0.060   6.488   2.299
 2187SOL    HW1 7460   6.992   6.487   2.339
 2187SOL    HW2 7461   0.066   6.421   2.225
 2188SOL     OW 7462   1.925   5.306   5.675
 2188SOL    HW1 7463   1.949   5.397   5.641
 2188SOL    HW2 7464   1.989   5.238   5.638
 2189SOL     OW 7465   1.705   0.418   2.115
 2189SOL    HW1 7466   1.632   0.466   2.066
 2189SOL    HW2 7467   1.792   0.434   2.069
 2190SOL     OW 7468   6.830   3.306   1.865
 2190SOL    HW1 7469   6.914   3.252   1.861
 2190SOL    HW2 7470   6.824   3.350   1.954
 2191SOL     OW 7471   2.834   1.371   5.424
 2191SOL    HW1 7472   2.847   1.452   5.367
 2191SOL    HW2 7473   2.736   1.358   5.441
 2192SOL     OW 7474   4.990   0.529   2.601
 2192SOL    HW1 7475   5.035   0.614   2.630
 2192SOL    HW2 7476   5.059   0.457   2.592
 2193SOL     OW 7477   7.013   0.266   6.147
 2193SOL    HW1 7478   0.017   0.251   6.052
 2193SOL    HW2 7479   0.043   0.342   6.185
 2194SOL     OW 7480   1.226   4.012   6.371
 2194SOL    HW1 7481   1.164   4.073   6.321
 2194SOL    HW2 7482   1.277   4.064   6.439
 2195SOL     OW 7483   0.045   6.362   5.304
 2195SOL    HW1 7484   0.023   6.420   5.383
 2195SOL    HW2 7485   0.133   6.317   5.320
 2196SOL     OW 7486   3.112   6.312   4.950
 2196SOL    HW1 7487   3.191   6.357   4.993
 2196SOL    HW2 7488   3.107   6.338   4.854
 2197SOL     OW 7489   3.000   3.459   6.496
 2197SOL    HW1 7490   2.926   3.526   6.504
 2197SOL    HW2 7491   3.071   3.480   6.563
 2198SOL     OW 7492   6.100   0.050   1.031
 2198SOL    HW1 7493   6.158   0.066   1.111
 2198SOL    HW2 7494   6.156   0.039   0.950
 2199SOL     OW 7495   5.266   0.287   4.481
 2199SOL    HW1 7496   5.255   0.348   4.559
 2199SOL    HW2 7497   5.362   0.259   4.474
 2200SOL     OW 7498   2.307   1.610   3.724
 2200SOL    HW1 7499   2.392   1.613   3.671
 2200SOL    HW2 7500   2.307   1.684   3.790
 2201SOL     OW 7501   6.241   2.792   2.634
 2201SOL    HW1 7502   6.151   2.830   2.610
 2201SOL    HW2 7503   6.300   2.865   2.668
 2202SOL     OW 7504   3.457   5.654   1.875
 2202SOL    HW1 7505   3.378   5.686   1.824
 2202SOL    HW2 7506   3.428   5.626   1.967
 2203SOL     OW 7507   2.710   3.198   1.370
 2203SOL    HW1 7508   2.770   3.275   1.349
 2203SOL    HW2 7509   2.766   3.118   1.394
 2204SOL     OW 7510   4.166   2.519   0.980
 2204SOL    HW1 7511   4.214   2.441   1.021
 2204SOL    HW2 7512   4.155   2.591   1.048
 2205SOL     OW 7513   1.223   0.290   0.050
 2205SOL    HW1 7514   1.142   0.311   7.019
 2205SOL    HW2 7515   1.304   0.324   0.004
 2206SOL     OW 7516   2.772   4.755   5.894
 2206SOL    HW1 7517   2.790   4.853   5.889
 2206SOL    HW2 7518   2.855   4.705   5.871
 2207SOL     OW 7519   3.383   4.618   6.937
 2207SOL    HW1 7520   3.400   4.526   6.974
 2207SOL    HW2 7521   3.413   4.621   6.842
 2208SOL     OW 7522   0.750   5.126   2.967
 2208SOL    HW1 7523   0.712   5.200   2.911
 2208SOL    HW2 7524   0.844   5.149   2.992
 2209SOL     OW 7525   2.530   6.567   4.908
 2209SOL    HW1 7526   2.469   6.585   4.831
 2209SOL    HW2 7527   2.604   6.505   4.879
 2210SOL     OW 7528   6.646   5.449   2.909
 2210SOL    HW1 7529   6.718   5.481   2.848
 2210SOL    HW2 7530   6.636   5.513   2.986
 2211SOL     OW 7531   6.503   0.799   0.576
 2211SOL    HW1 7532   6.498   0.736   0.654
 2211SOL    HW2 7533   6.469   0.889   0.604
 2212SOL     OW 7534   1.325   5.481   0.140
 2212SOL    HW1 7535   1.245   5.425   0.163
 2212SOL    HW2 7536   1.394   5.423   0.096
 2213SOL     OW 7537   4.125   2.599   5.639
 2213SOL    HW1 7538   4.220   2.611   5.611
 2213SOL    HW2 7539   4.091   2.684   5.679
 2214SOL     OW 7540   3.198   3.503   5.050
 2214SOL    HW1 7541   3.108   3.501   5.094
 2214SOL    HW2 7542   3.192   3.456   4.962
 2215SOL     OW 7543   5.843   1.091   6.716
 2215SOL    HW1 7544   5.792   1.011   6.749
 2215SOL    HW2 7545   5.838   1.094   6.616
 2216SOL     OW 7546   0.286   0.082   5.876
 2216SOL    HW1 7547   0.381   0.055   5.885
 2216SOL    HW2 7548   0.227   0.016   5.922
 2217SOL     OW 7549   4.757   0.303   2.901
 2217SOL    HW1 7550   4.708   0.383   2.867
 2217SOL    HW2 7551   4.847   0.330   2.933
 2218SOL     OW 7552   6.658   5.013   0.055
 2218SOL    HW1 7553   6.705   5.075   7.016
 2218SOL    HW2 7554   6.566   5.048   0.073
 2219SOL     OW 7555   6.014   2.066   1.128
 2219SOL    HW1 7556   5.976   2.060   1.036
 2219SOL    HW2 7557   6.114   2.078   1.123
 2220SOL     OW 7558   1.701   5.631   5.554
 2220SOL    HW1 7559   1.672   5.636   5.459
 2220SOL    HW2 7560   1.662   5.549   5.597
 2221SOL     OW 7561   6.336   1.517   4.919
 2221SOL    HW1 7562   6.298   1.481   5.004
 2221SOL    HW2 7563   6.329   1.617   4.919
 2222SOL     OW 7564   6.056   0.350   0.951
 2222SOL    HW1 7565   6.124   0.283   0.982
 2222SOL    HW2 7566   6.102   0.434   0.922
 2223SOL     OW 7567   5.781   1.079   6.443
 2223SOL    HW1 7568   5.829   1.024   6.376
 2223SOL    HW2 7569   5.691   1.105   6.407
 2224SOL     OW 7570   6.090   3.418   1.282
 2224SOL    HW1 7571   6.158   3.469   1.336
 2224SOL    HW2 7572   6.095   3.446   1.187
 2225SOL     OW 7573   6.475   6.717   3.472
 2225SOL    HW1 7574   6.376   6.716   3.487
 2225SOL    HW2 7575   6.511   6.625   3.481
 2226SOL     OW 7576   3.550   5.591   1.167
 2226SOL    HW1 7577   3.486   5.614   1.094
 2226SOL    HW2 7578   3.611   5.518   1.137
 2227SOL     OW 7579   5.106   2.785   1.335
 2227SOL    HW1 7580   5.079   2.691   1.316
 2227SOL    HW2 7581   5.025   2.843   1.341
 2228SOL     OW 7582   3.713   5.111   0.270
 2228SOL    HW1 7583   3.708   5.203   0.231
 2228SOL    HW2 7584   3.621   5.071   0.272
 2229SOL     OW 7585   3.865   3.198   5.543
 2229SOL    HW1 7586   3.782   3.208   5.488
 2229SOL    HW2 7587   3.842   3.212   5.640
 2230SOL     OW 7588   5.254   6.983   1.022
 2230SOL    HW1 7589   5.162   6.944   1.015
 2230SOL    HW2 7590   5.322   6.913   0.999
 2231SOL     OW 7591   0.144   0.663   0.280
 2231SOL    HW1 7592   0.129   0.712   0.366
 2231SOL    HW2 7593   0.084   0.701   0.210
 2232SOL     OW 7594   1.419   1.239   4.972
 2232SOL    HW1 7595   1.435   1.140   4.971
 2232SOL    HW2 7596   1.371   1.265   4.887
 2233SOL     OW 7597   2.639   2.919   0.613
 2233SOL    HW1 7598   2.706   2.925   0.687
 2233SOL    HW2 7599   2.579   2.999   0.617
 2234SOL     OW 7600   3.349   1.399   0.792
 2234SOL    HW1 7601   3.432   1.408   0.736
 2234SOL    HW2 7602   3.314   1.305   0.784
 2235SOL     OW 7603   2.339   6.888   1.606
 2235SOL    HW1 7604   2.377   6.796   1.617
 2235SOL    HW2 7605   2.387   6.952   1.666
 2236SOL     OW 7606   1.557   3.658   6.113
 2236SOL    HW1 7607   1.649   3.698   6.106
 2236SOL    HW2 7608   1.496   3.705   6.049
 2237SOL     OW 7609   5.971   4.464   4.366
 2237SOL    HW1 7610   6.015   4.441   4.280
 2237SOL    HW2 7611   6.038   4.504   4.428
 2238SOL     OW 7612   4.677   5.276   2.696
 2238SOL    HW1 7613   4.692   5.342   2.623
 2238SOL    HW2 7614   4.718   5.188   2.670
 2239SOL     OW 7615   4.694   6.238   4.098
 2239SOL    HW1 7616   4.670   6.178   4.022
 2239SOL    HW2 7617   4.733   6.184   4.173
 2240SOL     OW 7618   3.443   5.384   2.567
 2240SOL    HW1 7619   3.448   5.435   2.481
 2240SOL    HW2 7620   3.385   5.433   2.632
 2241SOL     OW 7621   6.732   6.493   2.075
 2241SOL    HW1 7622   6.765   6.520   2.165
 2241SOL    HW2 7623   6.685   6.404   2.082
 2242SOL     OW 7624   4.954   3.267   2.289
 2242SOL    HW1 7625   4.927   3.345   2.345
 2242SOL    HW2 7626   4.907   3.185   2.322
 2243SOL     OW 7627   1.959   6.869   6.894
 2243SOL    HW1 7628   1.926   6.964   6.898
 2243SOL    HW2 7629   2.059   6.869   6.888
 2244SOL     OW 7630   2.926   6.983   1.720
 2244SOL    HW1 7631   2.974   6.918   1.661
 2244SOL    HW2 7632   2.831   6.954   1.732
 2245SOL     OW 7633   0.714   1.338   1.306
 2245SOL    HW1 7634   0.715   1.423   1.358
 2245SOL    HW2 7635   0.621   1.302   1.301
 2246SOL     OW 7636   2.435   0.710   4.301
 2246SOL    HW1 7637   2.490   0.790   4.325
 2246SOL    HW2 7638   2.461   0.633   4.360
 2247SOL     OW 7639   3.090   3.055   3.110
 2247SOL    HW1 7640   3.052   2.969   3.144
 2247SOL    HW2 7641   3.186   3.061   3.135
 2248SOL     OW 7642   6.586   3.911   4.708
 2248SOL    HW1 7643   6.525   3.874   4.638
 2248SOL    HW2 7644   6.654   3.972   4.665
 2249SOL     OW 7645   5.462   6.526   3.722
 2249SOL    HW1 7646   5.506   6.442   3.689
 2249SOL    HW2 7647   5.397   6.559   3.654
 2250SOL     OW 7648   3.133   3.824   5.227
 2250SOL    HW1 7649   3.204   3.789   5.286
 2250SOL    HW2 7650   3.168   3.902   5.175
 2251SOL     OW 7651   5.250   7.011   6.486
 2251SOL    HW1 7652   5.188   0.064   6.464
 2251SOL    HW2 7653   5.248   6.994   6.584
 2252SOL     OW 7654   4.914   1.572   3.172
 2252SOL    HW1 7655   4.858   1.490   3.186
 2252SOL    HW2 7656   4.855   1.648   3.143
 2253SOL     OW 7657   0.060   3.104   6.971
 2253SOL    HW1 7658   7.013   3.139   6.909
 2253SOL    HW2 7659   0.086   3.175   0.013
 2254SOL     OW 7660   3.308   2.982   4.360
 2254SOL    HW1 7661   3.302   2.904   4.296
 2254SOL    HW2 7662   3.291   3.067   4.310
 2255SOL     OW 7663   3.874   3.553   5.881
 2255SOL    HW1 7664   3.850   3.637   5.831
 2255SOL    HW2 7665   3.973   3.547   5.889
 2256SOL     OW 7666   5.346   6.448   2.168
 2256SOL    HW1 7667   5.276   6.519   2.163
 2256SOL    HW2 7668   5.410   6.468   2.241
 2257SOL     OW 7669   1.045   1.645   4.593
 2257SOL    HW1 7670   1.089   1.642   4.683
 2257SOL    HW2 7671   0.970   1.578   4.591
 2258SOL     OW 7672   1.233   5.701   4.892
 2258SOL    HW1 7673   1.287   5.650   4.825
 2258SOL    HW2 7674   1.142   5.721   4.854
 2259SOL     OW 7675   5.695   2.774   5.448
 2259SOL    HW1 7676   5.752   2.701   5.410
 2259SOL    HW2 7677   5.716   2.787   5.545
 2260SOL     OW 7678   0.160   3.819   1.190
 2260SOL    HW1 7679   0.178   3.742   1.252
 2260SOL    HW2 7680   0.222   3.895   1.212
 2261SOL     OW 7681   6.514   4.963   0.773
 2261SOL    HW1 7682   6.551   4.910   0.849
 2261SOL    HW2 7683   6.414   4.959   0.775
 2262SOL     OW 7684   5.988   0.192   2.908
 2262SOL    HW1 7685   5.975   0.287   2.880
 2262SOL    HW2 7686   6.014   0.189   3.005
 2263SOL     OW 7687   2.688   5.879   6.990
 2263SOL    HW1 7688   2.736   5.857   6.904
 2263SOL    HW2 7689   2.590   5.860   6.979
 2264SOL     OW 7690   3.291   6.110   6.009
 2264SOL    HW1 7691   3.241   6.044   5.953
 2264SOL    HW2 7692   3.363   6.063   6.060
 2265SOL     OW 7693   1.909   0.692   4.515
 2265SOL    HW1 7694   1.981   0.741   4.466
 2265SOL    HW2 7695   1.867   0.624   4.454
 2266SOL     OW 7696   5.122   1.289   6.369
 2266SOL    HW1 7697   5.130   1.388   6.376
 2266SOL    HW2 7698   5.179   1.245   6.438
 2267SOL     OW 7699   5.188   3.341   5.181
 2267SOL    HW1 7700   5.227   3.376   5.266
 2267SOL    HW2 7701   5.101   3.387   5.163
 2268SOL     OW 7702   5.981   4.192   6.164
 2268SOL    HW1 7703   5.945   4.211   6.073
 2268SOL    HW2 7704   5.914   4.139   6.216
 2269SOL     OW 7705   0.463   4.212   5.537
 2269SOL    HW1 7706   0.444   4.154   5.457
 2269SOL    HW2 7707   0.541   4.271   5.517
 2270SOL     OW 7708   3.890   2.544   6.447
 2270SOL    HW1 7709   3.886   2.449   6.417
 2270SOL    HW2 7710   3.948   2.596   6.385
 2271SOL     OW 7711   5.699   4.552   0.106
 2271SOL    HW1 7712   5.664   4.602   0.185
 2271SOL    HW2 7713   5.762   4.481   0.137
 2272SOL     OW 7714   5.665   1.423   0.042
 2272SOL    HW1 7715   5.611   1.446   6.985
 2272SOL    HW2 7716   5.762   1.419   0.018
 2273SOL     OW 7717   1.288   1.314   2.266
 2273SOL    HW1 7718   1.309   1.319   2.363
 2273SOL    HW2 7719   1.365   1.274   2.217
 2274SOL     OW 7720   0.849   1.388   5.924
 2274SOL    HW1 7721   0.915   1.328   5.969
 2274SOL    HW2 7722   0.798   1.440   5.993
 2275SOL     OW 7723   6.169   6.763   3.316
 2275SOL    HW1 7724   6.179   6.858   3.344
 2275SOL    HW2 7725   6.161   6.705   3.398
 2276SOL     OW 7726   2.470   5.509   1.888
 2276SOL    HW1 7727   2.535   5.473   1.821
 2276SOL    HW2 7728   2.429   5.433   1.939
 2277SOL     OW 7729   3.626   4.095   4.126
 2277SOL    HW1 7730   3.692   4.061   4.192
 2277SOL    HW2 7731   3.671   4.106   4.037
 2278SOL     OW 7732   5.877   3.526   4.405
 2278SOL    HW1 7733   5.798   3.464   4.408
 2278SOL    HW2 7734   5.847   3.616   4.375
 2279SOL     OW 7735   6.021   0.184   5.147
 2279SOL    HW1 7736   6.048   0.277   5.123
 2279SOL    HW2 7737   5.923   0.183   5.171
 2280SOL     OW 7738   6.580   0.061   4.544
 2280SOL    HW1 7739   6.659   0.016   4.503
 2280SOL    HW2 7740   6.611   0.135   4.604
 2281SOL     OW 7741   3.543   0.532   2.091
 2281SOL    HW1 7742   3.516   0.628   2.078
 2281SOL    HW2 7743   3.554   0.489   2.001
 2282SOL     OW 7744   5.681   6.630   5.591
 2282SOL    HW1 7745   5.728   6.588   5.514
 2282SOL    HW2 7746   5.583   6.608   5.586
 2283SOL     OW 7747   1.568   0.113   1.839
 2283SOL    HW1 7748   1.611   0.165   1.765
 2283SOL    HW2 7749   1.486   0.067   1.805
 2284SOL     OW 7750   1.644   2.978   6.577
 2284SOL    HW1 7751   1.706   3.020   6.510
 2284SOL    HW2 7752   1.690   2.900   6.620
 2285SOL     OW 7753   1.164   2.703   0.674
 2285SOL    HW1 7754   1.192   2.776   0.737
 2285SOL    HW2 7755   1.120   2.743   0.594
 2286SOL     OW 7756   5.828   0.016   3.245
 2286SOL    HW1 7757   5.832   0.075   3.164
 2286SOL    HW2 7758   5.748   0.039   3.300
 2287SOL     OW 7759   2.122   0.355   3.963
 2287SOL    HW1 7760   2.095   0.378   3.869
 2287SOL    HW2 7761   2.169   0.434   4.004
 2288SOL     OW 7762   5.962   5.412   3.408
 2288SOL    HW1 7763   5.908   5.478   3.356
 2288SOL    HW2 7764   5.909   5.329   3.423
 2289SOL     OW 7765   0.065   5.192   0.892
 2289SOL    HW1 7766   7.021   5.143   0.838
 2289SOL    HW2 7767   0.039   5.190   0.989
 2290SOL     OW 7768   0.783   3.466   0.945
 2290SOL    HW1 7769   0.697   3.513   0.964
 2290SOL    HW2 7770   0.777   3.371   0.976
 2291SOL     OW 7771   2.092   2.478   5.846
 2291SOL    HW1 7772   1.998   2.482   5.811
 2291SOL    HW2 7773   2.156   2.504   5.774
 2292SOL     OW 7774   1.268   1.812   4.246
 2292SOL    HW1 7775   1.287   1.767   4.159
 2292SOL    HW2 7776   1.184   1.774   4.285
 2293SOL     OW 7777   4.996   6.867   1.035
 2293SOL    HW1 7778   5.003   6.827   1.126
 2293SOL    HW2 7779   4.923   6.822   0.984
 2294SOL     OW 7780   3.216   0.587   0.117
 2294SOL    HW1 7781   3.127   0.562   0.154
 2294SOL    HW2 7782   3.253   0.665   0.169
 2295SOL     OW 7783   0.376   2.150   2.672
 2295SOL    HW1 7784   0.392   2.130   2.576
 2295SOL    HW2 7785   0.400   2.246   2.690
 2296SOL     OW 7786   3.752   5.517   0.552
 2296SOL    HW1 7787   3.844   5.515   0.512
 2296SOL    HW2 7788   3.753   5.467   0.639
 2297SOL     OW 7789   3.795   4.222   5.093
 2297SOL    HW1 7790   3.767   4.302   5.146
 2297SOL    HW2 7791   3.862   4.250   5.024
 2298SOL     OW 7792   4.018   2.986   1.897
 2298SOL    HW1 7793   4.036   2.907   1.955
 2298SOL    HW2 7794   4.070   2.977   1.812
 2299SOL     OW 7795   4.956   6.729   6.471
 2299SOL    HW1 7796   4.865   6.770   6.473
 2299SOL    HW2 7797   4.950   6.633   6.502
 2300SOL     OW 7798   2.610   4.569   1.796
 2300SOL    HW1 7799   2.693   4.567   1.852
 2300SOL    HW2 7800   2.634   4.590   1.702
 2301SOL     OW 7801   3.243   2.952   3.388
 2301SOL    HW1 7802   3.300   2.888   3.440
 2301SOL    HW2 7803   3.284   2.969   3.299
 2302SOL     OW 7804   3.546   6.912   1.601
 2302SOL    HW1 7805   3.620   6.889   1.664
 2302SOL    HW2 7806   3.572   6.991   1.546
 2303SOL     OW 7807   1.870   3.344   6.358
 2303SOL    HW1 7808   1.891   3.441   6.373
 2303SOL    HW2 7809   1.840   3.331   6.264
 2304SOL     OW 7810   3.599   0.130   3.400
 2304SOL    HW1 7811   3.649   0.216   3.392
 2304SOL    HW2 7812   3.504   0.148   3.424
 2305SOL     OW 7813   2.882   6.541   2.628
 2305SOL    HW1 7814   2.910   6.611   2.562
 2305SOL    HW2 7815   2.955   6.529   2.696
 2306SOL     OW 7816   2.293   4.981   1.793
 2306SOL    HW1 7817   2.204   4.970   1.749
 2306SOL    HW2 7818   2.359   5.018   1.727
 2307SOL     OW 7819   1.347   3.709   2.782
 2307SOL    HW1 7820   1.367   3.796   2.827
 2307SOL    HW2 7821   1.250   3.706   2.757
 2308SOL     OW 7822   1.424   6.648   0.243
 2308SOL    HW1 7823   1.464   6.578   0.182
 2308SOL    HW2 7824   1.339   6.682   0.202
 2309SOL     OW 7825   2.917   6.870   6.665
 2309SOL    HW1 7826   2.855   6.810   6.715
 2309SOL    HW2 7827   2.945   6.825   6.580
 2310SOL     OW 7828   5.411   6.556   1.456
 2310SOL    HW1 7829   5.500   6.515   1.435
 2310SOL    HW2 7830   5.395   6.633   1.394
 2311SOL     OW 7831   2.513   6.349   2.089
 2311SOL    HW1 7832   2.593   6.383   2.039
 2311SOL    HW2 7833   2.533   6.347   2.187
 2312SOL     OW 7834   3.519   6.028   4.275
 2312SOL    HW1 7835   3.586   5.987   4.213
 2312SOL    HW2 7836   3.550   6.120   4.301
 2313SOL     OW 7837   5.221   5.626   1.726
 2313SOL    HW1 7838   5.255   5.571   1.802
 2313SOL    HW2 7839   5.180   5.565   1.658
 2314SOL     OW 7840   6.128   0.756   4.890
 2314SOL    HW1 7841   6.061   0.704   4.943
 2314SOL    HW2 7842   6.120   0.732   4.793
 2315SOL     OW 7843   5.349   3.660   5.217
 2315SOL    HW1 7844   5.406   3.705   5.148
 2315SOL    HW2 7845   5.259   3.640   5.178
 2316SOL     OW 7846   3.241   0.298   4.672
 2316SOL    HW1 7847   3.225   0.261   4.580
 2316SOL    HW2 7848   3.194   0.386   4.681
 2317SOL     OW 7849   6.236   6.245   3.025
 2317SOL    HW1 7850   6.277   6.326   2.985
 2317SOL    HW2 7851   6.251   6.244   3.124
 2318SOL     OW 7852   2.327   2.684   4.532
 2318SOL    HW1 7853   2.344   2.724   4.442
 2318SOL    HW2 7854   2.412   2.646   4.568
 2319SOL     OW 7855   3.087   5.346   4.596
 2319SOL    HW1 7856   3.057   5.293   4.516
 2319SOL    HW2 7857   3.177   5.313   4.625
 2320SOL     OW 7858   1.431   2.944   4.781
 2320SOL    HW1 7859   1.342   2.982   4.756
 2320SOL    HW2 7860   1.419   2.854   4.822
 2321SOL     OW 7861   1.709   5.176   0.506
 2321SOL    HW1 7862   1.738   5.173   0.410
 2321SOL    HW2 7863   1.722   5.269   0.542
 2322SOL     OW 7864   1.776   4.230   3.046
 2322SOL    HW1 7865   1.681   4.232   3.014
 2322SOL    HW2 7866   1.830   4.171   2.986
 2323SOL     OW 7867   3.275   4.707   1.754
 2323SOL    HW1 7868   3.362   4.733   1.795
 2323SOL    HW2 7869   3.288   4.691   1.656
 2324SOL     OW 7870   6.402   5.747   0.397
 2324SOL    HW1 7871   6.360   5.657   0.387
 2324SOL    HW2 7872   6.447   5.773   0.312
 2325SOL     OW 7873   1.050   4.466   1.382
 2325SOL    HW1 7874   1.043   4.389   1.445
 2325SOL    HW2 7875   0.964   4.516   1.381
 2326SOL     OW 7876   2.012   6.060   6.752
 2326SOL    HW1 7877   1.922   6.017   6.739
 2326SOL    HW2 7878   2.016   6.103   6.842
 2327SOL     OW 7879   6.873   1.609   3.728
 2327SOL    HW1 7880   6.938   1.550   3.680
 2327SOL    HW2 7881   6.813   1.653   3.661
 2328SOL     OW 7882   1.568   1.433   2.619
 2328SOL    HW1 7883   1.599   1.383   2.700
 2328SOL    HW2 7884   1.622   1.517   2.609
 2329SOL     OW 7885   1.393   4.467   5.012
 2329SOL    HW1 7886   1.323   4.434   5.075
 2329SOL    HW2 7887   1.480   4.422   5.033
 2330SOL     OW 7888   0.399   3.045   1.846
 2330SOL    HW1 7889   0.339   2.968   1.867
 2330SOL    HW2 7890   0.487   3.011   1.813
 2331SOL     OW 7891   4.090   5.420   6.861
 2331SOL    HW1 7892   4.028   5.342   6.856
 2331SOL    HW2 7893   4.039   5.505   6.847
 2332SOL     OW 7894   6.461   0.880   5.426
 2332SOL    HW1 7895   6.395   0.866   5.352
 2332SOL    HW2 7896   6.449   0.972   5.464
 2333SOL     OW 7897   6.861   4.231   2.796
 2333SOL    HW1 7898   6.885   4.310   2.740
 2333SOL    HW2 7899   6.803   4.169   2.744
 2334SOL     OW 7900   1.662   0.663   6.643
 2334SOL    HW1 7901   1.747   0.713   6.631
 2334SOL    HW2 7902   1.602   0.713   6.705
 2335SOL     OW 7903   6.543   1.295   4.331
 2335SOL    HW1 7904   6.620   1.327   4.275
 2335SOL    HW2 7905   6.459   1.296   4.277
 2336SOL     OW 7906   3.775   1.845   4.575
 2336SOL    HW1 7907   3.695   1.894   4.541
 2336SOL    HW2 7908   3.855   1.868   4.520
 2337SOL     OW 7909   4.165   0.422   1.621
 2337SOL    HW1 7910   4.123   0.381   1.702
 2337SOL    HW2 7911   4.178   0.520   1.636
 2338SOL     OW 7912   0.620   2.953   4.978
 2338SOL    HW1 7913   0.591   2.864   5.013
 2338SOL    HW2 7914   0.715   2.969   5.002
 2339SOL     OW 7915   2.920   3.540   3.598
 2339SOL    HW1 7916   2.841   3.578   3.647
 2339SOL    HW2 7917   2.991   3.515   3.664
 2340SOL     OW 7918   6.570   4.228   6.169
 2340SOL    HW1 7919   6.524   4.309   6.207
 2340SOL    HW2 7920   6.556   4.150   6.229
 2341SOL     OW 7921   3.454   4.918   2.080
 2341SOL    HW1 7922   3.390   4.953   2.011
 2341SOL    HW2 7923   3.516   4.852   2.038
 2342SOL     OW 7924   0.729   6.660   5.648
 2342SOL    HW1 7925   0.764   6.744   5.689
 2342SOL    HW2 7926   0.801   6.618   5.592
 2343SOL     OW 7927   2.045   5.536   3.176
 2343SOL    HW1 7928   1.995   5.614   3.138
 2343SOL    HW2 7929   2.058   5.550   3.275
 2344SOL     OW 7930   1.106   5.780   6.840
 2344SOL    HW1 7931   1.049   5.721   6.783
 2344SOL    HW2 7932   1.048   5.842   6.893
 2345SOL     OW 7933   3.426   5.638   5.310
 2345SOL    HW1 7934   3.443   5.589   5.225
 2345SOL    HW2 7935   3.374   5.580   5.373
 2346SOL     OW 7936   3.959   3.513   5.511
 2346SOL    HW1 7937   3.978   3.463   5.425
 2346SOL    HW2 7938   3.861   3.515   5.527
 2347SOL     OW 7939   3.439   2.198   1.233
 2347SOL    HW1 7940   3.454   2.179   1.136
 2347SOL    HW2 7941   3.365   2.141   1.267
 2348SOL     OW 7942   2.599   6.906   4.197
 2348SOL    HW1 7943   2.607   6.961   4.113
 2348SOL    HW2 7944   2.689   6.901   4.241
 2349SOL     OW 7945   0.556   4.753   5.771
 2349SOL    HW1 7946   0.566   4.796   5.681
 2349SOL    HW2 7947   0.463   4.718   5.781
 2350SOL     OW 7948   6.146   0.326   6.585
 2350SOL    HW1 7949   6.128   0.282   6.672
 2350SOL    HW2 7950   6.203   0.266   6.528
 2351SOL     OW 7951   2.902   5.394   4.184
 2351SOL    HW1 7952   2.932   5.463   4.250
 2351SOL    HW2 7953   2.872   5.313   4.234
 2352SOL     OW 7954   0.628   4.309   2.601
 2352SOL    HW1 7955   0.599   4.221   2.639
 2352SOL    HW2 7956   0.723   4.302   2.571
 2353SOL     OW 7957   3.357   4.821   5.538
 2353SOL    HW1 7958   3.401   4.762   5.606
 2353SOL    HW2 7959   3.395   4.801   5.447
 2354SOL     OW 7960   2.982   1.436   5.785
 2354SOL    HW1 7961   2.915   1.508   5.766
 2354SOL    HW2 7962   3.016   1.399   5.699
 2355SOL     OW 7963   2.065   5.775   0.154
 2355SOL    HW1 7964   2.149   5.726   0.179
 2355SOL    HW2 7965   2.080   5.873   0.164
 2356SOL     OW 7966   1.439   3.260   6.469
 2356SOL    HW1 7967   1.383   3.204   6.530
 2356SOL    HW2 7968   1.443   3.218   6.378
 2357SOL     OW 7969   4.772   0.077   3.069
 2357SOL    HW1 7970   4.843   0.027   3.020
 2357SOL    HW2 7971   4.733   0.147   3.009
 2358SOL     OW 7972   4.016   5.064   5.105
 2358SOL    HW1 7973   4.019   5.021   5.015
 2358SOL    HW2 7974   4.015   4.994   5.176
 2359SOL     OW 7975   6.426   0.290   5.596
 2359SOL    HW1 7976   6.486   0.367   5.573
 2359SOL    HW2 7977   6.477   0.205   5.587
 2360SOL     OW 7978   5.087   4.167   0.216
 2360SOL    HW1 7979   5.182   4.137   0.224
 2360SOL    HW2 7980   5.034   4.131   0.293
 2361SOL     OW 7981   2.770   0.858   5.076
 2361SOL    HW1 7982   2.683   0.809   5.073
 2361SOL    HW2 7983   2.831   0.813   5.141
 2362SOL     OW 7984   2.553   6.571   4.131
 2362SOL    HW1 7985   2.470   6.593   4.183
 2362SOL    HW2 7986   2.623   6.535   4.193
 2363SOL     OW 7987   4.518   2.441   5.240
 2363SOL    HW1 7988   4.598   2.382   5.231
 2363SOL    HW2 7989   4.547   2.535   5.257
 2364SOL     OW 7990   1.060   2.088   3.188
 2364SOL    HW1 7991   1.121   2.139   3.250
 2364SOL    HW2 7992   1.014   2.152   3.127
 2365SOL     OW 7993   6.168   2.688   6.625
 2365SOL    HW1 7994   6.112   2.606   6.612
 2365SOL    HW2 7995   6.130   2.763   6.571
 2366SOL     OW 7996   2.326   5.274   6.646
 2366SOL    HW1 7997   2.375   5.342   6.593
 2366SOL    HW2 7998   2.249   5.239   6.593
 2367SOL     OW 7999   2.272   4.242   0.548
 2367SOL    HW1 8000   2.307   4.312   0.487
 2367SOL    HW2 8001   2.246   4.161   0.495
 2368SOL     OW 8002   4.114   0.605   3.864
 2368SOL    HW1 8003   4.033   0.569   3.910
 2368SOL    HW2 8004   4.165   0.663   3.928
 2369SOL     OW 8005   1.659   1.592   5.747
 2369SOL    HW1 8006   1.671   1.513   5.807
 2369SOL    HW2 8007   1.605   1.662   5.794
 2370SOL     OW 8008   4.823   3.455   0.062
 2370SOL    HW1 8009   4.766   3.537   0.060
 2370SOL    HW2 8010   4.894   3.465   0.132
 2371SOL     OW 8011   0.153   0.097   2.416
 2371SOL    HW1 8012   0.185   0.009   2.382
 2371SOL    HW2 8013   0.229   0.161   2.420
 2372SOL     OW 8014   0.060   2.770   2.933
 2372SOL    HW1 8015   0.047   2.794   3.029
 2372SOL    HW2 8016   6.995   2.758   2.889
 2373SOL     OW 8017   0.355   1.985   0.025
 2373SOL    HW1 8018   0.421   1.944   0.087
 2373SOL    HW2 8019   0.402   2.026   6.971
 2374SOL     OW 8020   6.098   1.390   3.254
 2374SOL    HW1 8021   6.167   1.455   3.285
 2374SOL    HW2 8022   6.086   1.318   3.323
 2375SOL     OW 8023   2.975   6.640   4.863
 2375SOL    HW1 8024   2.918   6.638   4.944
 2375SOL    HW2 8025   2.963   6.555   4.811
 2376SOL     OW 8026   6.957   2.331   4.534
 2376SOL    HW1 8027   7.018   2.374   4.468
 2376SOL    HW2 8028   6.961   2.380   4.621
 2377SOL     OW 8029   3.581   4.110   3.146
 2377SOL    HW1 8030   3.524   4.117   3.227
 2377SOL    HW2 8031   3.677   4.114   3.172
 2378SOL     OW 8032   4.949   1.581   0.535
 2378SOL    HW1 8033   4.860   1.615   0.567
 2378SOL    HW2 8034   5.002   1.548   0.613
 2379SOL     OW 8035   5.635   1.894   0.090
 2379SOL    HW1 8036   5.695   1.974   0.092
 2379SOL    HW2 8037   5.630   1.860   7.019
 2380SOL     OW 8038   0.653   1.111   6.922
 2380SOL    HW1 8039   0.708   1.132   7.003
 2380SOL    HW2 8040   0.642   1.012   6.914
 2381SOL     OW 8041   2.260   4.183   4.729
 2381SOL    HW1 8042   2.291   4.272   4.762
 2381SOL    HW2 8043   2.299   4.111   4.786
 2382SOL     OW 8044   2.485   4.515   3.799
 2382SOL    HW1 8045   2.549   4.588   3.776
 2382SOL    HW2 8046   2.524   4.457   3.870
 2383SOL     OW 8047   5.158   6.787   1.563
 2383SOL    HW1 8048   5.169   6.777   1.662
 2383SOL    HW2 8049   5.151   6.884   1.539
 2384SOL     OW 8050   5.648   0.509   2.706
 2384SOL    HW1 8051   5.577   0.517   2.776
 2384SOL    HW2 8052   5.607   0.519   2.615
 2385SOL     OW 8053   1.225   6.838   1.220
 2385SOL    HW1 8054   1.188   6.859   1.130
 2385SOL    HW2 8055   1.248   6.923   1.267
 2386SOL     OW 8056   6.208   5.829   4.342
 2386SOL    HW1 8057   6.159   5.910   4.308
 2386SOL    HW2 8058   6.218   5.762   4.269
 2387SOL     OW 8059   1.525   1.923   3.598
 2387SOL    HW1 8060   1.455   1.985   3.563
 2387SOL    HW2 8061   1.523   1.922   3.698
 2388SOL     OW 8062   0.633   2.579   4.614
 2388SOL    HW1 8063   0.692   2.651   4.577
 2388SOL    HW2 8064   0.539   2.610   4.615
 2389SOL     OW 8065   4.866   3.794   2.872
 2389SOL    HW1 8066   4.865   3.707   2.922
 2389SOL    HW2 8067   4.848   3.869   2.936
 2390SOL     OW 8068   4.065   3.201   3.172
 2390SOL    HW1 8069   4.141   3.144   3.141
 2390SOL    HW2 8070   4.065   3.204   3.272
 2391SOL     OW 8071   5.175   4.427   5.904
 2391SOL    HW1 8072   5.225   4.507   5.872
 2391SOL    HW2 8073   5.215   4.344   5.864
 2392SOL     OW 8074   4.493   6.530   5.154
 2392SOL    HW1 8075   4.578   6.539   5.101
 2392SOL    HW2 8076   4.427   6.476   5.102
 2393SOL     OW 8077   5.638   3.687   6.160
 2393SOL    HW1 8078   5.607   3.668   6.254
 2393SOL    HW2 8079   5.567   3.658   6.096
 2394SOL     OW 8080   1.298   3.165   4.425
 2394SOL    HW1 8081   1.294   3.249   4.372
 2394SOL    HW2 8082   1.334   3.091   4.367
 2395SOL     OW 8083   5.473   2.530   6.273
 2395SOL    HW1 8084   5.387   2.487   6.299
 2395SOL    HW2 8085   5.482   2.529   6.173
 2396SOL     OW 8086   3.530   4.536   1.295
 2396SOL    HW1 8087   3.434   4.559   1.310
 2396SOL    HW2 8088   3.581   4.548   1.380
 2397SOL     OW 8089   0.278   4.433   6.441
 2397SOL    HW1 8090   0.190   4.464   6.405
 2397SOL    HW2 8091   0.292   4.338   6.417
 2398SOL     OW 8092   2.764   3.225   0.076
 2398SOL    HW1 8093   2.721   3.173   0.150
 2398SOL    HW2 8094   2.761   3.171   7.015
 2399SOL     OW 8095   4.558   1.807   1.994
 2399SOL    HW1 8096   4.487   1.737   1.985
 2399SOL    HW2 8097   4.562   1.839   2.089
 2400SOL     OW 8098   3.106   4.094   0.563
 2400SOL    HW1 8099   3.127   4.023   0.495
 2400SOL    HW2 8100   3.021   4.140   0.537
 2401SOL     OW 8101   4.104   5.848   6.280
 2401SOL    HW1 8102   4.111   5.929   6.221
 2401SOL    HW2 8103   4.139   5.768   6.231
 2402SOL     OW 8104   6.700   0.707   3.532
 2402SOL    HW1 8105   6.605   0.713   3.563
 2402SOL    HW2 8106   6.732   0.613   3.540
 2403SOL     OW 8107   2.143   2.571   6.969
 2403SOL    HW1 8108   2.162   2.527   6.881
 2403SOL    HW2 8109   2.205   2.536   0.015
 2404SOL     OW 8110   3.679   1.031   0.840
 2404SOL    HW1 8111   3.727   1.110   0.801
 2404SOL    HW2 8112   3.726   0.947   0.815
 2405SOL     OW 8113   3.842   3.282   2.789
 2405SOL    HW1 8114   3.780   3.204   2.779
 2405SOL    HW2 8115   3.825   3.326   2.878
 2406SOL     OW 8116   2.973   6.712   2.434
 2406SOL    HW1 8117   3.043   6.660   2.385
 2406SOL    HW2 8118   3.002   6.808   2.441
 2407SOL     OW 8119   5.607   1.751   2.118
 2407SOL    HW1 8120   5.508   1.737   2.109
 2407SOL    HW2 8121   5.655   1.701   2.045
 2408SOL     OW 8122   3.616   4.896   3.209
 2408SOL    HW1 8123   3.698   4.866   3.160
 2408SOL    HW2 8124   3.629   4.880   3.307
 2409SOL     OW 8125   1.806   4.642   2.044
 2409SOL    HW1 8126   1.729   4.701   2.070
 2409SOL    HW2 8127   1.772   4.565   1.990
 2410SOL     OW 8128   3.969   2.770   6.041
 2410SOL    HW1 8129   3.891   2.729   5.994
 2410SOL    HW2 8130   3.936   2.836   6.109
 2411SOL     OW 8131   3.775   5.530   5.085
 2411SOL    HW1 8132   3.759   5.570   4.994
 2411SOL    HW2 8133   3.861   5.479   5.084
 2412SOL     OW 8134   4.829   5.090   1.159
 2412SOL    HW1 8135   4.830   4.998   1.199
 2412SOL    HW2 8136   4.922   5.117   1.136
 2413SOL     OW 8137   6.041   2.411   0.902
 2413SOL    HW1 8138   6.033   2.376   0.995
 2413SOL    HW2 8139   6.017   2.508   0.900
 2414SOL     OW 8140   4.899   4.566   2.542
 2414SOL    HW1 8141   4.981   4.519   2.511
 2414SOL    HW2 8142   4.914   4.602   2.634
 2415SOL     OW 8143   7.001   0.346   2.490
 2415SOL    HW1 8144   0.004   0.381   2.580
 2415SOL    HW2 8145   0.021   0.257   2.475
 2416SOL     OW 8146   4.436   1.820   5.761
 2416SOL    HW1 8147   4.471   1.729   5.742
 2416SOL    HW2 8148   4.337   1.815   5.778
 2417SOL     OW 8149   3.368   2.770   5.971
 2417SOL    HW1 8150   3.412   2.816   5.894
 2417SOL    HW2 8151   3.368   2.830   6.050
 2418SOL     OW 8152   3.001   3.252   4.228
 2418SOL    HW1 8153   2.960   3.338   4.199
 2418SOL    HW2 8154   2.979   3.235   4.324
 2419SOL     OW 8155   0.217   6.983   4.887
 2419SOL    HW1 8156   0.121   6.956   4.894
 2419SOL    HW2 8157   0.226   0.057   4.908
 2420SOL     OW 8158   2.806   1.118   2.391
 2420SOL    HW1 8159   2.845   1.048   2.331
 2420SOL    HW2 8160   2.875   1.187   2.412
 2421SOL     OW 8161   2.845   2.031   4.543
 2421SOL    HW1 8162   2.770   2.066   4.600
 2421SOL    HW2 8163   2.931   2.039   4.594
 2422SOL     OW 8164   5.708   1.600   1.031
 2422SOL    HW1 8165   5.752   1.606   1.121
 2422SOL    HW2 8166   5.671   1.508   1.018
 2423SOL     OW 8167   1.591   5.991   2.869
 2423SOL    HW1 8168   1.529   5.949   2.803
 2423SOL    HW2 8169   1.666   6.035   2.820
 2424SOL     OW 8170   6.169   0.058   5.948
 2424SOL    HW1 8171   6.202   0.114   5.872
 2424SOL    HW2 8172   6.191   6.985   5.931
 2425SOL     OW 8173   5.456   0.601   3.721
 2425SOL    HW1 8174   5.385   0.670   3.708
 2425SOL    HW2 8175   5.530   0.640   3.776
 2426SOL     OW 8176   0.758   6.243   5.056
 2426SOL    HW1 8177   0.775   6.152   5.096
 2426SOL    HW2 8178   0.698   6.234   4.977
 2427SOL     OW 8179   5.766   6.210   5.607
 2427SOL    HW1 8180   5.815   6.201   5.520
 2427SOL    HW2 8181   5.797   6.293   5.654
 2428SOL     OW 8182   6.108   0.452   2.540
 2428SOL    HW1 8183   6.092   0.535   2.593
 2428SOL    HW2 8184   6.102   0.473   2.442
 2429SOL     OW 8185   4.986   5.469   3.362
 2429SOL    HW1 8186   4.928   5.518   3.427
 2429SOL    HW2 8187   4.967   5.371   3.369
 2430SOL     OW 8188   5.934   1.679   1.568
 2430SOL    HW1 8189   5.876   1.597   1.561
 2430SOL    HW2 8190   5.877   1.761   1.559
 2431SOL     OW 8191   4.259   0.865   2.553
 2431SOL    HW1 8192   4.348   0.909   2.536
 2431SOL    HW2 8193   4.262   0.771   2.521
 2432SOL     OW 8194   3.173   6.500   2.811
 2432SOL    HW1 8195   3.264   6.494   2.851
 2432SOL    HW2 8196   3.175   6.464   2.717
 2433SOL     OW 8197   3.672   1.103   1.115
 2433SOL    HW1 8198   3.688   1.202   1.119
 2433SOL    HW2 8199   3.668   1.073   1.020
 2434SOL     OW 8200   4.005   1.096   5.622
 2434SOL    HW1 8201   3.952   1.112   5.539
 2434SOL    HW2 8202   3.949   1.118   5.702
 2435SOL     OW 8203   4.693   4.521   6.731
 2435SOL    HW1 8204   4.726   4.514   6.637
 2435SOL    HW2 8205   4.763   4.485   6.794
 2436SOL     OW 8206   1.179   5.220   0.785
 2436SOL    HW1 8207   1.183   5.279   0.705
 2436SOL    HW2 8208   1.221   5.132   0.764
 2437SOL     OW 8209   5.003   6.422   6.547
 2437SOL    HW1 8210   5.006   6.419   6.647
 2437SOL    HW2 8211   5.094   6.400   6.511
 2438SOL     OW 8212   3.113   0.907   6.905
 2438SOL    HW1 8213   3.081   0.830   6.960
 2438SOL    HW2 8214   3.053   0.985   6.920
 2439SOL     OW 8215   1.569   4.323   6.642
 2439SOL    HW1 8216   1.531   4.309   6.733
 2439SOL    HW2 8217   1.518   4.395   6.596
 2440SOL     OW 8218   4.823   6.323   5.510
 2440SOL    HW1 8219   4.829   6.223   5.516
 2440SOL    HW2 8220   4.758   6.348   5.439
 2441SOL     OW 8221   0.773   1.209   0.640
 2441SOL    HW1 8222   0.787   1.295   0.689
 2441SOL    HW2 8223   0.693   1.162   0.676
 2442SOL     OW 8224   0.799   3.389   6.255
 2442SOL    HW1 8225   0.737   3.329   6.204
 2442SOL    HW2 8226   0.824   3.467   6.198
 2443SOL     OW 8227   4.152   5.028   6.109
 2443SOL    HW1 8228   4.073   4.973   6.082
 2443SOL    HW2 8229   4.127   5.088   6.184
 2444SOL     OW 8230   2.907   4.152   6.574
 2444SOL    HW1 8231   2.943   4.070   6.529
 2444SOL    HW2 8232   2.921   4.231   6.514
 2445SOL     OW 8233   6.904   1.308   1.040
 2445SOL    HW1 8234   6.808   1.283   1.048
 2445SOL    HW2 8235   6.959   1.252   1.101
 2446SOL     OW 8236   5.970   4.562   3.830
 2446SOL    HW1 8237   6.039   4.531   3.896
 2446SOL    HW2 8238   5.996   4.533   3.738
 2447SOL     OW 8239   2.220   2.600   0.690
 2447SOL    HW1 8240   2.181   2.617   0.780
 2447SOL    HW2 8241   2.280   2.675   0.665
 2448SOL     OW 8242   0.302   0.857   4.633
 2448SOL    HW1 8243   0.355   0.865   4.549
 2448SOL    HW2 8244   0.352   0.802   4.700
 2449SOL     OW 8245   6.835   4.819   0.132
 2449SOL    HW1 8246   6.771   4.888   0.099
 2449SOL    HW2 8247   6.786   4.756   0.193
 2450SOL     OW 8248   2.552   4.547   3.193
 2450SOL    HW1 8249   2.516   4.454   3.192
 2450SOL    HW2 8250   2.538   4.589   3.103
 2451SOL     OW 8251   1.744   1.122   3.676
 2451SOL    HW1 8252   1.719   1.214   3.646
 2451SOL    HW2 8253   1.821   1.089   3.622
 2452SOL     OW 8254   2.151   3.955   2.625
 2452SOL    HW1 8255   2.167   3.862   2.657
 2452SOL    HW2 8256   2.111   3.953   2.534
 2453SOL     OW 8257   6.370   4.878   1.393
 2453SOL    HW1 8258   6.436   4.935   1.441
 2453SOL    HW2 8259   6.289   4.865   1.450
 2454SOL     OW 8260   3.415   0.908   1.661
 2454SOL    HW1 8261   3.315   0.899   1.668
 2454SOL    HW2 8262   3.450   0.961   1.738
 2455SOL     OW 8263   5.023   6.305   0.356
 2455SOL    HW1 8264   5.028   6.297   0.257
 2455SOL    HW2 8265   5.091   6.371   0.388
 2456SOL     OW 8266   5.420   6.162   1.549
 2456SOL    HW1 8267   5.478   6.081   1.540
 2456SOL    HW2 8268   5.330   6.134   1.582
 2457SOL     OW 8269   5.277   6.711   0.550
 2457SOL    HW1 8270   5.316   6.803   0.558
 2457SOL    HW2 8271   5.212   6.696   0.624
 2458SOL     OW 8272   2.385   6.134   3.296
 2458SOL    HW1 8273   2.454   6.181   3.241
 2458SOL    HW2 8274   2.425   6.106   3.383
 2459SOL     OW 8275   1.837   6.771   0.697
 2459SOL    HW1 8276   1.745   6.754   0.733
 2459SOL    HW2 8277   1.835   6.850   0.636
 2460SOL     OW 8278   2.272   0.806   1.613
 2460SOL    HW1 8279   2.294   0.747   1.535
 2460SOL    HW2 8280   2.238   0.750   1.689
 2461SOL     OW 8281   5.881   0.614   1.877
 2461SOL    HW1 8282   5.845   0.701   1.842
 2461SOL    HW2 8283   5.856   0.605   1.973
 2462SOL     OW 8284   2.723   5.476   0.035
 2462SOL    HW1 8285   2.636   5.499   0.079
 2462SOL    HW2 8286   2.713   5.392   7.005
 2463SOL     OW 8287   6.611   2.097   4.469
 2463SOL    HW1 8288   6.574   2.061   4.555
 2463SOL    HW2 8289   6.545   2.158   4.427
 2464SOL     OW 8290   0.902   4.735   1.077
 2464SOL    HW1 8291   0.888   4.819   1.025
 2464SOL    HW2 8292   0.823   4.719   1.136
 2465SOL     OW 8293   0.247   5.904   1.794
 2465SOL    HW1 8294   0.322   5.938   1.850
 2465SOL    HW2 8295   0.238   5.961   1.713
 2466SOL     OW 8296   4.006   1.482   2.302
 2466SOL    HW1 8297   3.958   1.536   2.371
 2466SOL    HW2 8298   4.032   1.393   2.341
 2467SOL     OW 8299   6.272   1.508   5.926
 2467SOL    HW1 8300   6.280   1.582   5.993
 2467SOL    HW2 8301   6.206   1.535   5.856
 2468SOL     OW 8302   6.809   6.214   1.941
 2468SOL    HW1 8303   6.849   6.158   1.868
 2468SOL    HW2 8304   6.711   6.223   1.926
 2469SOL     OW 8305   3.202   4.070   5.964
 2469SOL    HW1 8306   3.115   4.092   5.919
 2469SOL    HW2 8307   3.239   3.986   5.925
 2470SOL     OW 8308   2.860   4.033   6.059
 2470SOL    HW1 8309   2.936   3.989   6.106
 2470SOL    HW2 8310   2.879   4.130   6.048
 2471SOL     OW 8311   0.720   6.381   1.559
 2471SOL    HW1 8312   0.786   6.421   1.623
 2471SOL    HW2 8313   0.657   6.452   1.528
 2472SOL     OW 8314   5.800   1.790   4.427
 2472SOL    HW1 8315   5.786   1.877   4.475
 2472SOL    HW2 8316   5.734   1.782   4.352
 2473SOL     OW 8317   1.284   4.937   4.488
 2473SOL    HW1 8318   1.276   5.024   4.438
 2473SOL    HW2 8319   1.377   4.902   4.479
 2474SOL     OW 8320   6.687   5.357   5.881
 2474SOL    HW1 8321   6.642   5.319   5.801
 2474SOL    HW2 8322   6.648   5.316   5.964
 2475SOL     OW 8323   4.166   2.444   0.685
 2475SOL    HW1 8324   4.261   2.422   0.663
 2475SOL    HW2 8325   4.161   2.477   0.779
 2476SOL     OW 8326   0.859   1.949   3.895
 2476SOL    HW1 8327   0.762   1.970   3.893
 2476SOL    HW2 8328   0.910   2.029   3.928
 2477SOL     OW 8329   5.937   6.341   1.404
 2477SOL    HW1 8330   5.954   6.418   1.466
 2477SOL    HW2 8331   5.891   6.268   1.454
 2478SOL     OW 8332   6.153   6.414   2.624
 2478SOL    HW1 8333   6.085   6.376   2.562
 2478SOL    HW2 8334   6.232   6.353   2.630
 2479SOL     OW 8335   0.138   2.682   1.424
 2479SOL    HW1 8336   0.182   2.769   1.446
 2479SOL    HW2 8337   0.191   2.635   1.354
 2480SOL     OW 8338   6.925   2.789   1.022
 2480SOL    HW1 8339   7.023   2.810   1.014
 2480SOL    HW2 8340   6.872   2.860   0.975
 2481SOL     OW 8341   3.804   5.989   0.975
 2481SOL    HW1 8342   3.836   5.920   1.040
 2481SOL    HW2 8343   3.881   6.021   0.920
 2482SOL     OW 8344   4.836   3.644   5.612
 2482SOL    HW1 8345   4.879   3.649   5.522
 2482SOL    HW2 8346   4.773   3.721   5.623
 2483SOL     OW 8347   1.714   0.798   0.770
 2483SOL    HW1 8348   1.702   0.858   0.691
 2483SOL    HW2 8349   1.788   0.833   0.827
 2484SOL     OW 8350   2.022   0.223   0.707
 2484SOL    HW1 8351   1.996   0.315   0.738
 2484SOL    HW2 8352   2.063   0.172   0.782
 2485SOL     OW 8353   6.651   5.174   2.352
 2485SOL    HW1 8354   6.681   5.096   2.407
 2485SOL    HW2 8355   6.711   5.252   2.369
 2486SOL     OW 8356   1.915   5.918   3.810
 2486SOL    HW1 8357   1.993   5.903   3.750
 2486SOL    HW2 8358   1.945   5.920   3.905
 2487SOL     OW 8359   4.097   6.335   0.208
 2487SOL    HW1 8360   4.096   6.237   0.224
 2487SOL    HW2 8361   4.118   6.353   0.112
 2488SOL     OW 8362   2.680   4.043   1.366
 2488SOL    HW1 8363   2.769   4.058   1.408
 2488SOL    HW2 8364   2.650   3.949   1.384
 2489SOL     OW 8365   1.955   5.729   5.044
 2489SOL    HW1 8366   1.989   5.774   5.126
 2489SOL    HW2 8367   1.857   5.743   5.035
 2490SOL     OW 8368   7.008   4.929   0.305
 2490SOL    HW1 8369   6.946   4.888   0.238
 2490SOL    HW2 8370   0.026   5.011   0.267
 2491SOL     OW 8371   2.983   5.819   2.649
 2491SOL    HW1 8372   2.913   5.750   2.629
 2491SOL    HW2 8373   3.074   5.780   2.632
 2492SOL     OW 8374   4.600   3.464   6.185
 2492SOL    HW1 8375   4.518   3.513   6.211
 2492SOL    HW2 8376   4.621   3.395   6.254
 2493SOL     OW 8377   5.536   0.824   2.642
 2493SOL    HW1 8378   5.578   0.909   2.611
 2493SOL    HW2 8379   5.579   0.795   2.728
 2494SOL     OW 8380   4.621   2.678   2.433
 2494SOL    HW1 8381   4.654   2.743   2.364
 2494SOL    HW2 8382   4.669   2.694   2.519
 2495SOL     OW 8383   4.864   1.508   5.143
 2495SOL    HW1 8384   4.933   1.439   5.122
 2495SOL    HW2 8385   4.909   1.591   5.175
 2496SOL     OW 8386   0.720   5.152   0.335
 2496SOL    HW1 8387   0.703   5.229   0.396
 2496SOL    HW2 8388   0.633   5.118   0.299
 2497SOL     OW 8389   6.726   1.765   0.857
 2497SOL    HW1 8390   6.732   1.740   0.760
 2497SOL    HW2 8391   6.772   1.852   0.872
 2498SOL     OW 8392   2.110   3.206   3.193
 2498SOL    HW1 8393   2.014   3.180   3.184
 2498SOL    HW2 8394   2.164   3.127   3.220
 2499SOL     OW 8395   5.713   0.875   4.448
 2499SOL    HW1 8396   5.653   0.950   4.420
 2499SOL    HW2 8397   5.745   0.826   4.368
 2500SOL     OW 8398   4.993   3.082   6.195
 2500SOL    HW1 8399   5.014   3.100   6.291
 2500SOL    HW2 8400   4.950   2.993   6.187
 2501SOL     OW 8401   5.832   4.496   6.909
 2501SOL    HW1 8402   5.826   4.396   6.910
 2501SOL    HW2 8403   5.802   4.533   6.997
 2502SOL     OW 8404   2.377   6.478   3.261
 2502SOL    HW1 8405   2.323   6.561   3.273
 2502SOL    HW2 8406   2.320   6.407   3.218
 2503SOL     OW 8407   3.898   5.532   5.865
 2503SOL    HW1 8408   3.822   5.522   5.929
 2503SOL    HW2 8409   3.955   5.450   5.868
 2504SOL     OW 8410   1.471   4.693   4.858
 2504SOL    HW1 8411   1.563   4.697   4.897
 2504SOL    HW2 8412   1.410   4.645   4.921
 2505SOL     OW 8413   3.752   5.533   4.049
 2505SOL    HW1 8414   3.682   5.566   4.112
 2505SOL    HW2 8415   3.742   5.435   4.036
 2506SOL     OW 8416   6.511   3.248   5.989
 2506SOL    HW1 8417   6.465   3.337   5.983
 2506SOL    HW2 8418   6.453   3.185   6.041
 2507SOL     OW 8419   6.185   5.568   0.456
 2507SOL    HW1 8420   6.196   5.472   0.483
 2507SOL    HW2 8421   6.095   5.600   0.485
 2508SOL     OW 8422   2.818   1.897   2.266
 2508SOL    HW1 8423   2.774   1.906   2.177
 2508SOL    HW2 8424   2.792   1.975   2.324
 2509SOL     OW 8425   5.518   2.775   2.596
 2509SOL    HW1 8426   5.614   2.753   2.611
 2509SOL    HW2 8427   5.469   2.691   2.571
 2510SOL     OW 8428   3.066   4.942   0.598
 2510SOL    HW1 8429   2.972   4.967   0.620
 2510SOL    HW2 8430   3.124   4.956   0.679
 2511SOL     OW 8431   1.192   0.717   5.015
 2511SOL    HW1 8432   1.185   0.790   4.947
 2511SOL    HW2 8433   1.282   0.673   5.006
 2512SOL     OW 8434   4.856   3.950   5.044
 2512SOL    HW1 8435   4.856   4.004   4.960
 2512SOL    HW2 8436   4.856   3.853   5.021
 2513SOL     OW 8437   1.489   2.609   6.423
 2513SOL    HW1 8438   1.497   2.540   6.495
 2513SOL    HW2 8439   1.394   2.642   6.419
 2514SOL     OW 8440   0.829   1.500   4.591
 2514SOL    HW1 8441   0.835   1.481   4.689
 2514SOL    HW2 8442   0.775   1.429   4.547
 2515SOL     OW 8443   1.535   6.203   0.115
 2515SOL    HW1 8444   1.564   6.146   0.191
 2515SOL    HW2 8445   1.486   6.147   0.047
 2516SOL     OW 8446   6.210   6.434   3.358
 2516SOL    HW1 8447   6.221   6.493   3.278
 2516SOL    HW2 8448   6.269   6.354   3.349
 2517SOL     OW 8449   2.550   4.795   0.072
 2517SOL    HW1 8450   2.595   4.749   7.019
 2517SOL    HW2 8451   2.577   4.751   0.158
 2518SOL     OW 8452   2.223   2.784   6.545
 2518SOL    HW1 8453   2.199   2.864   6.489
 2518SOL    HW2 8454   2.204   2.803   6.641
 2519SOL     OW 8455   4.963   4.849   4.455
 2519SOL    HW1 8456   5.057   4.822   4.432
 2519SOL    HW2 8457   4.927   4.788   4.526
 2520SOL     OW 8458   2.556   3.139   1.124
 2520SOL    HW1 8459   2.470   3.102   1.090
 2520SOL    HW2 8460   2.554   3.142   1.224
 2521SOL     OW 8461   0.064   6.899   5.552
 2521SOL    HW1 8462   0.006   6.970   5.593
 2521SOL    HW2 8463   0.139   6.878   5.614
 2522SOL     OW 8464   1.301   2.997   4.198
 2522SOL    HW1 8465   1.351   3.005   4.112
 2522SOL    HW2 8466   1.217   3.050   4.193
 2523SOL     OW 8467   6.993   3.590   0.328
 2523SOL    HW1 8468   6.987   3.689   0.340
 2523SOL    HW2 8469   6.906   3.548   0.354
 2524SOL     OW 8470   1.275   6.507   4.322
 2524SOL    HW1 8471   1.184   6.468   4.313
 2524SOL    HW2 8472   1.334   6.473   4.248
 2525SOL     OW 8473   1.279   4.285   4.386
 2525SOL    HW1 8474   1.311   4.223   4.458
 2525SOL    HW2 8475   1.348   4.288   4.312
 2526SOL     OW 8476   0.312   2.035   4.356
 2526SOL    HW1 8477   0.290   2.101   4.428
 2526SOL    HW2 8478   0.289   2.073   4.267
 2527SOL     OW 8479   5.805   6.392   4.954
 2527SOL    HW1 8480   5.893   6.425   4.989
 2527SOL    HW2 8481   5.780   6.308   5.002
 2528SOL     OW 8482   6.391   5.321   0.364
 2528SOL    HW1 8483   6.468   5.380   0.342
 2528SOL    HW2 8484   6.414   5.264   0.443
 2529SOL     OW 8485   4.903   5.886   4.383
 2529SOL    HW1 8486   4.963   5.965   4.369
 2529SOL    HW2 8487   4.808   5.915   4.371
 2530SOL     OW 8488   0.839   6.526   3.368
 2530SOL    HW1 8489   0.889   6.516   3.454
 2530SOL    HW2 8490   0.890   6.482   3.294
 2531SOL     OW 8491   4.839   0.813   5.175
 2531SOL    HW1 8492   4.901   0.840   5.102
 2531SOL    HW2 8493   4.844   0.880   5.249
 2532SOL     OW 8494   1.220   5.234   0.173
 2532SOL    HW1 8495   1.138   5.213   0.226
 2532SOL    HW2 8496   1.301   5.217   0.229
 2533SOL     OW 8497   5.398   0.280   5.278
 2533SOL    HW1 8498   5.462   0.297   5.203
 2533SOL    HW2 8499   5.431   0.326   5.360
 2534SOL     OW 8500   2.155   0.383   3.675
 2534SOL    HW1 8501   2.113   0.294   3.659
 2534SOL    HW2 8502   2.254   0.372   3.685
 2535SOL     OW 8503   1.603   1.202   4.039
 2535SOL    HW1 8504   1.570   1.277   3.982
 2535SOL    HW2 8505   1.588   1.225   4.135
 2536SOL     OW 8506   6.202   1.226   4.559
 2536SOL    HW1 8507   6.110   1.256   4.536
 2536SOL    HW2 8508   6.267   1.298   4.536
 2537SOL     OW 8509   4.639   5.874   1.079
 2537SOL    HW1 8510   4.671   5.907   0.990
 2537SOL    HW2 8511   4.636   5.950   1.143
 2538SOL     OW 8512   1.699   4.686   5.031
 2538SOL    HW1 8513   1.770   4.618   5.015
 2538SOL    HW2 8514   1.679   4.690   5.129
 2539SOL     OW 8515   4.240   6.994   5.181
 2539SOL    HW1 8516   4.255   6.962   5.275
 2539SOL    HW2 8517   4.290   0.057   5.167
 2540SOL     OW 8518   5.359   1.373   2.213
 2540SOL    HW1 8519   5.367   1.353   2.115
 2540SOL    HW2 8520   5.313   1.461   2.225
 2541SOL     OW 8521   1.198   6.944   5.448
 2541SOL    HW1 8522   1.249   6.984   5.525
 2541SOL    HW2 8523   1.155   7.017   5.395
 2542SOL     OW 8524   3.947   1.872   4.065
 2542SOL    HW1 8525   3.952   1.869   3.965
 2542SOL    HW2 8526   3.872   1.933   4.093
 2543SOL     OW 8527   1.030   0.713   2.509
 2543SOL    HW1 8528   1.043   0.710   2.608
 2543SOL    HW2 8529   1.042   0.621   2.471
 2544SOL     OW 8530   0.290   5.276   1.250
 2544SOL    HW1 8531   0.272   5.373   1.237
 2544SOL    HW2 8532   0.279   5.252   1.346
 2545SOL     OW 8533   1.467   1.753   1.533
 2545SOL    HW1 8534   1.419   1.806   1.603
 2545SOL    HW2 8535   1.453   1.795   1.444
 2546SOL     OW 8536   6.487   3.809   2.100
 2546SOL    HW1 8537   6.494   3.879   2.171
 2546SOL    HW2 8538   6.470   3.853   2.012
 2547SOL     OW 8539   5.590   4.193   0.420
 2547SOL    HW1 8540   5.596   4.128   0.344
 2547SOL    HW2 8541   5.521   4.161   0.485
 2548SOL     OW 8542   0.473   0.254   5.013
 2548SOL    HW1 8543   0.438   0.267   5.106
 2548SOL    HW2 8544   0.486   0.156   4.996
 2549SOL     OW 8545   1.756   2.357   1.937
 2549SOL    HW1 8546   1.838   2.318   1.978
 2549SOL    HW2 8547   1.771   2.454   1.918
 2550SOL     OW 8548   5.488   0.217   6.594
 2550SOL    HW1 8549   5.558   0.213   6.523
 2550SOL    HW2 8550   5.476   0.127   6.635
 2551SOL     OW 8551   3.312   5.629   7.021
 2551SOL    HW1 8552   3.230   5.638   6.964
 2551SOL    HW2 8553   3.394   5.635   6.963
 2552SOL     OW 8554   1.947   5.061   0.131
 2552SOL    HW1 8555   1.955   4.970   0.090
 2552SOL    HW2 8556   2.026   5.079   0.188
 2553SOL     OW 8557   3.493   2.070   6.362
 2553SOL    HW1 8558   3.398   2.093   6.381
 2553SOL    HW2 8559   3.497   1.994   6.297
 2554SOL     OW 8560   1.949   5.720   0.850
 2554SOL    HW1 8561   1.951   5.660   0.930
 2554SOL    HW2 8562   1.967   5.667   0.767
 2555SOL     OW 8563   6.189   6.799   5.948
 2555SOL    HW1 8564   6.099   6.788   5.990
 2555SOL    HW2 8565   6.256   6.742   5.995
 2556SOL     OW 8566   3.377   6.682   1.557
 2556SOL    HW1 8567   3.442   6.756   1.572
 2556SOL    HW2 8568   3.331   6.696   1.469
 2557SOL     OW 8569   3.319   0.744   0.299
 2557SOL    HW1 8570   3.296   0.813   0.368
 2557SOL    HW2 8571   3.417   0.724   0.303
 2558SOL     OW 8572   5.681   4.653   6.317
 2558SOL    HW1 8573   5.601   4.602   6.347
 2558SOL    HW2 8574   5.761   4.623   6.369
 2559SOL     OW 8575   0.231   3.314   3.279
 2559SOL    HW1 8576   0.269   3.236   3.229
 2559SOL    HW2 8577   0.281   3.397   3.255
 2560SOL     OW 8578   5.091   3.368   3.444
 2560SOL    HW1 8579   5.174   3.369   3.499
 2560SOL    HW2 8580   5.011   3.366   3.503
 2561SOL     OW 8581   3.300   1.093   4.252
 2561SOL    HW1 8582   3.309   1.152   4.172
 2561SOL    HW2 8583   3.366   1.120   4.321
 2562SOL     OW 8584   3.453   6.267   3.295
 2562SOL    HW1 8585   3.551   6.270   3.315
 2562SOL    HW2 8586   3.404   6.325   3.360
 2563SOL     OW 8587   2.514   1.180   6.738
 2563SOL    HW1 8588   2.534   1.266   6.785
 2563SOL    HW2 8589   2.459   1.121   6.797
 2564SOL     OW 8590   1.949   0.822   0.255
 2564SOL    HW1 8591   1.994   0.733   0.260
 2564SOL    HW2 8592   1.926   0.842   0.159
 2565SOL     OW 8593   0.572   1.434   6.410
 2565SOL    HW1 8594   0.551   1.524   6.449
 2565SOL    HW2 8595   0.573   1.365   6.483
 2566SOL     OW 8596   3.160   0.816   1.749
 2566SOL    HW1 8597   3.148   0.735   1.807
 2566SOL    HW2 8598   3.134   0.795   1.655
 2567SOL     OW 8599   1.113   0.392   0.300
 2567SOL    HW1 8600   1.069   0.480   0.284
 2567SOL    HW2 8601   1.177   0.373   0.225
 2568SOL     OW 8602   2.780   6.090   1.319
 2568SOL    HW1 8603   2.846   6.153   1.359
 2568SOL    HW2 8604   2.705   6.075   1.383
 2569SOL     OW 8605   2.048   1.259   1.246
 2569SOL    HW1 8606   1.981   1.330   1.220
 2569SOL    HW2 8607   2.043   1.243   1.344
 2570SOL     OW 8608   5.519   6.187   6.826
 2570SOL    HW1 8609   5.465   6.199   6.742
 2570SOL    HW2 8610   5.458   6.194   6.905
 2571SOL     OW 8611   4.011   3.093   4.082
 2571SOL    HW1 8612   3.977   3.030   4.152
 2571SOL    HW2 8613   4.062   3.167   4.126
 2572SOL     OW 8614   2.634   5.404   1.700
 2572SOL    HW1 8615   2.628   5.304   1.701
 2572SOL    HW2 8616   2.694   5.433   1.626
 2573SOL     OW 8617   6.998   2.216   4.179
 2573SOL    HW1 8618   0.058   2.163   4.164
 2573SOL    HW2 8619   7.017   2.289   4.245
 2574SOL     OW 8620   6.872   3.236   1.122
 2574SOL    HW1 8621   6.924   3.321   1.131
 2574SOL    HW2 8622   6.777   3.258   1.097
 2575SOL     OW 8623   5.211   4.022   0.655
 2575SOL    HW1 8624   5.291   4.073   0.625
 2575SOL    HW2 8625   5.202   3.939   0.600
 2576SOL     OW 8626   2.325   0.020   3.596
 2576SOL    HW1 8627   2.375   0.081   3.535
 2576SOL    HW2 8628   2.333   6.949   3.564
 2577SOL     OW 8629   3.765   0.349   3.404
 2577SOL    HW1 8630   3.734   0.433   3.360
 2577SOL    HW2 8631   3.850   0.318   3.361
 2578SOL     OW 8632   4.539   2.491   4.940
 2578SOL    HW1 8633   4.532   2.394   4.917
 2578SOL    HW2 8634   4.449   2.526   4.966
 2579SOL     OW 8635   0.584   1.851   6.785
 2579SOL    HW1 8636   0.533   1.935   6.805
 2579SOL    HW2 8637   0.522   1.773   6.782
 2580SOL     OW 8638   1.648   2.306   5.775
 2580SOL    HW1 8639   1.604   2.232   5.827
 2580SOL    HW2 8640   1.722   2.345   5.829
 2581SOL     OW 8641   5.445   5.720   2.091
 2581SOL    HW1 8642   5.496   5.694   2.172
 2581SOL    HW2 8643   5.347   5.703   2.106
 2582SOL     OW 8644   1.365   5.351   2.734
 2582SOL    HW1 8645   1.339   5.445   2.710
 2582SOL    HW2 8646   1.304   5.287   2.688
 2583SOL     OW 8647   0.481   0.367   1.001
 2583SOL    HW1 8648   0.516   0.324   1.084
 2583SOL    HW2 8649   0.504   0.311   0.922
 2584SOL     OW 8650   3.053   5.976   0.897
 2584SOL    HW1 8651   2.997   5.928   0.829
 2584SOL    HW2 8652   2.994   6.037   0.951
 2585SOL     OW 8653   3.176   6.551   0.897
 2585SOL    HW1 8654   3.235   6.627   0.922
 2585SOL    HW2 8655   3.178   6.481   0.969
 2586SOL     OW 8656   6.123   1.281   4.834
 2586SOL    HW1 8657   6.178   1.363   4.848
 2586SOL    HW2 8658   6.120   1.259   4.736
 2587SOL     OW 8659   6.045   0.057   4.647
 2587SOL    HW1 8660   6.011   6.986   4.642
 2587SOL    HW2 8661   6.125   0.061   4.707
 2588SOL     OW 8662   5.481   1.087   1.356
 2588SOL    HW1 8663   5.533   1.161   1.313
 2588SOL    HW2 8664   5.446   1.026   1.285
 2589SOL     OW 8665   6.809   0.358   5.668
 2589SOL    HW1 8666   6.768   0.435   5.619
 2589SOL    HW2 8667   6.890   0.326   5.618
 2590SOL     OW 8668   3.736   6.954   2.458
 2590SOL    HW1 8669   3.722   0.010   2.400
 2590SOL    HW2 8670   3.648   6.922   2.493
 2591SOL     OW 8671   4.890   6.467   1.369
 2591SOL    HW1 8672   4.894   6.477   1.269
 2591SOL    HW2 8673   4.982   6.476   1.407
 2592SOL     OW 8674   3.317   5.327   1.413
 2592SOL    HW1 8675   3.333   5.305   1.509
 2592SOL    HW2 8676   3.321   5.426   1.401
 2593SOL     OW 8677   3.471   6.567   2.846
 2593SOL    HW1 8678   3.463   6.644   2.783
 2593SOL    HW2 8679   3.465   6.600   2.940
 2594SOL     OW 8680   0.235   0.691   6.497
 2594SOL    HW1 8681   0.322   0.692   6.447
 2594SOL    HW2 8682   0.247   0.737   6.585
 2595SOL     OW 8683   6.625   3.318   5.129
 2595SOL    HW1 8684   6.718   3.285   5.120
 2595SOL    HW2 8685   6.597   3.362   5.043
 2596SOL     OW 8686   3.946   2.250   1.816
 2596SOL    HW1 8687   3.957   2.231   1.718
 2596SOL    HW2 8688   3.852   2.277   1.835
 2597SOL     OW 8689   2.843   3.165   0.765
 2597SOL    HW1 8690   2.782   3.104   0.816
 2597SOL    HW2 8691   2.812   3.260   0.776
 2598SOL     OW 8692   6.643   2.620   4.243
 2598SOL    HW1 8693   6.712   2.691   4.231
 2598SOL    HW2 8694   6.669   2.560   4.318
 2599SOL     OW 8695   3.722   6.277   5.877
 2599SOL    HW1 8696   3.744   6.238   5.788
 2599SOL    HW2 8697   3.736   6.207   5.948
 2600SOL     OW 8698   5.025   3.824   3.642
 2600SOL    HW1 8699   5.012   3.843   3.739
 2600SOL    HW2 8700   4.968   3.746   3.616
 2601SOL     OW 8701   3.164   2.599   5.963
 2601SOL    HW1 8702   3.077   2.646   5.948
 2601SOL    HW2 8703   3.238   2.666   5.965
 2602SOL     OW 8704   6.816   4.961   4.807
 2602SOL    HW1 8705   6.771   4.876   4.779
 2602SOL    HW2 8706   6.785   5.036   4.749
 2603SOL     OW 8707   2.417   2.536   1.968
 2603SOL    HW1 8708   2.491   2.472   1.945
 2603SOL    HW2 8709   2.400   2.596   1.890
 2604SOL     OW 8710   5.282   0.337   1.001
 2604SOL    HW1 8711   5.265   0.388   1.085
 2604SOL    HW2 8712   5.204   0.347   0.940
 2605SOL     OW 8713   4.481   4.574   3.351
 2605SOL    HW1 8714   4.489   4.619   3.263
 2605SOL    HW2 8715   4.413   4.622   3.407
 2606SOL     OW 8716   6.692   3.921   0.703
 2606SOL    HW1 8717   6.745   3.922   0.788
 2606SOL    HW2 8718   6.707   4.006   0.653
 2607SOL     OW 8719   1.587   1.486   4.242
 2607SOL    HW1 8720   1.684   1.471   4.262
 2607SOL    HW2 8721   1.574   1.580   4.210
 2608SOL     OW 8722   5.391   0.516   1.864
 2608SOL    HW1 8723   5.342   0.429   1.855
 2608SOL    HW2 8724   5.326   0.590   1.878
 2609SOL     OW 8725   0.702   2.883   2.615
 2609SOL    HW1 8726   0.722   2.970   2.659
 2609SOL    HW2 8727   0.772   2.816   2.639
 2610SOL     OW 8728   0.360   5.572   4.608
 2610SOL    HW1 8729   0.338   5.669   4.604
 2610SOL    HW2 8730   0.276   5.519   4.622
 2611SOL     OW 8731   5.161   6.664   0.828
 2611SOL    HW1 8732   5.109   6.607   0.765
 2611SOL    HW2 8733   5.131   6.646   0.922
 2612SOL     OW 8734   5.942   6.387   4.594
 2612SOL    HW1 8735   5.865   6.348   4.645
 2612SOL    HW2 8736   5.909   6.452   4.526
 2613SOL     OW 8737   3.833   6.575   2.333
 2613SOL    HW1 8738   3.856   6.483   2.300
 2613SOL    HW2 8739   3.777   6.567   2.416
 2614SOL     OW 8740   6.640   0.063   5.533
 2614SOL    HW1 8741   6.661   0.121   5.454
 2614SOL    HW2 8742   6.645   6.990   5.506
 2615SOL     OW 8743   5.434   5.549   4.365
 2615SOL    HW1 8744   5.476   5.635   4.393
 2615SOL    HW2 8745   5.334   5.560   4.365
 2616SOL     OW 8746   3.897   3.648   3.843
 2616SOL    HW1 8747   3.947   3.734   3.829
 2616SOL    HW2 8748   3.957   3.582   3.887
 2617SOL     OW 8749   3.467   4.855   1.111
 2617SOL    HW1 8750   3.560   4.818   1.103
 2617SOL    HW2 8751   3.431   4.833   1.202
 2618SOL     OW 8752   0.244   6.441   2.731
 2618SOL    HW1 8753   0.261   6.420   2.634
 2618SOL    HW2 8754   0.281   6.367   2.788
 2619SOL     OW 8755   4.373   2.047   2.403
 2619SOL    HW1 8756   4.299   2.016   2.343
 2619SOL    HW2 8757   4.344   2.130   2.451
 2620SOL     OW 8758   1.606   5.263   3.596
 2620SOL    HW1 8759   1.680   5.295   3.537
 2620SOL    HW2 8760   1.631   5.176   3.639
 2621SOL     OW 8761   0.624   5.814   3.385
 2621SOL    HW1 8762   0.646   5.839   3.479
 2621SOL    HW2 8763   0.687   5.742   3.354
 2622SOL     OW 8764   2.023   3.093   6.092
 2622SOL    HW1 8765   1.951   3.057   6.033
 2622SOL    HW2 8766   2.111   3.051   6.066
 2623SOL     OW 8767   3.615   1.029   4.100
 2623SOL    HW1 8768   3.708   1.021   4.065
 2623SOL    HW2 8769   3.589   1.126   4.103
 2624SOL     OW 8770   6.329   3.245   2.919
 2624SOL    HW1 8771   6.400   3.254   2.989
 2624SOL    HW2 8772   6.268   3.168   2.943
 2625SOL     OW 8773   1.632   3.334   5.785
 2625SOL    HW1 8774   1.595   3.394   5.714
 2625SOL    HW2 8775   1.619   3.239   5.758
 2626SOL     OW 8776   1.126   6.262   3.791
 2626SOL    HW1 8777   1.121   6.177   3.843
 2626SOL    HW2 8778   1.206   6.315   3.821
 2627SOL     OW 8779   0.328   1.100   4.964
 2627SOL    HW1 8780   0.230   1.092   4.944
 2627SOL    HW2 8781   0.360   1.015   5.007
 2628SOL     OW 8782   3.681   6.265   6.501
 2628SOL    HW1 8783   3.726   6.353   6.487
 2628SOL    HW2 8784   3.642   6.233   6.414
 2629SOL     OW 8785   3.800   3.890   1.909
 2629SOL    HW1 8786   3.900   3.888   1.910
 2629SOL    HW2 8787   3.767   3.957   1.975
 2630SOL     OW 8788   3.548   2.035   2.243
 2630SOL    HW1 8789   3.580   1.944   2.269
 2630SOL    HW2 8790   3.622   2.084   2.195
 2631SOL     OW 8791   5.328   6.888   4.327
 2631SOL    HW1 8792   5.291   6.798   4.303
 2631SOL    HW2 8793   5.363   6.933   4.244
 2632SOL     OW 8794   3.173   2.483   0.228
 2632SOL    HW1 8795   3.109   2.423   0.179
 2632SOL    HW2 8796   3.145   2.578   0.216
 2633SOL     OW 8797   5.677   2.280   6.483
 2633SOL    HW1 8798   5.694   2.367   6.436
 2633SOL    HW2 8799   5.708   2.287   6.577
 2634SOL     OW 8800   1.752   4.303   2.435
 2634SOL    HW1 8801   1.722   4.259   2.519
 2634SOL    HW2 8802   1.847   4.277   2.416
 2635SOL     OW 8803   5.418   6.451   4.569
 2635SOL    HW1 8804   5.353   6.527   4.572
 2635SOL    HW2 8805   5.455   6.443   4.476
 2636SOL     OW 8806   5.829   0.715   6.752
 2636SOL    HW1 8807   5.772   0.635   6.771
 2636SOL    HW2 8808   5.792   0.795   6.800
 2637SOL     OW 8809   6.657   0.745   3.235
 2637SOL    HW1 8810   6.681   0.761   3.330
 2637SOL    HW2 8811   6.561   0.720   3.228
 2638SOL     OW 8812   5.988   6.961   1.830
 2638SOL    HW1 8813   6.065   6.929   1.775
 2638SOL    HW2 8814   6.012   0.024   1.875
 2639SOL     OW 8815   6.042   6.708   2.064
 2639SOL    HW1 8816   5.984   6.627   2.059
 2639SOL    HW2 8817   5.985   6.788   2.084
 2640SOL     OW 8818   6.984   6.461   5.066
 2640SOL    HW1 8819   7.007   6.446   5.162
 2640SOL    HW2 8820   0.002   6.389   5.010
 2641SOL     OW 8821   5.499   3.358   0.077
 2641SOL    HW1 8822   5.461   3.411   0.153
 2641SOL    HW2 8823   5.507   3.262   0.105
 2642SOL     OW 8824   5.711   0.685   3.937
 2642SOL    HW1 8825   5.796   0.729   3.907
 2642SOL    HW2 8826   5.633   0.736   3.902
 2643SOL     OW 8827   6.695   5.702   2.752
 2643SOL    HW1 8828   6.759   5.778   2.760
 2643SOL    HW2 8829   6.724   5.643   2.676
 2644SOL     OW 8830   0.817   4.622   5.378
 2644SOL    HW1 8831   0.760   4.540   5.368
 2644SOL    HW2 8832   0.863   4.619   5.466
 2645SOL     OW 8833   4.904   0.129   5.199
 2645SOL    HW1 8834   4.888   0.142   5.102
 2645SOL    HW2 8835   4.907   0.031   5.220
 2646SOL     OW 8836   6.015   6.988   6.193
 2646SOL    HW1 8837   6.083   6.915   6.201
 2646SOL    HW2 8838   6.048   0.034   6.129
 2647SOL     OW 8839   4.987   0.888   0.977
 2647SOL    HW1 8840   4.991   0.971   0.921
 2647SOL    HW2 8841   5.079   0.852   0.991
 2648SOL     OW 8842   6.553   6.984   2.958
 2648SOL    HW1 8843   6.557   6.886   2.974
 2648SOL    HW2 8844   6.483   0.002   3.016
 2649SOL     OW 8845   3.555   1.389   6.061
 2649SOL    HW1 8846   3.481   1.323   6.062
 2649SOL    HW2 8847   3.642   1.343   6.078
 2650SOL     OW 8848   0.258   5.267   3.753
 2650SOL    HW1 8849   0.358   5.261   3.760
 2650SOL    HW2 8850   0.223   5.323   3.828
 2651SOL     OW 8851   0.810   1.529   1.035
 2651SOL    HW1 8852   0.770   1.445   1.071
 2651SOL    HW2 8853   0.834   1.515   0.939
 2652SOL     OW 8854   3.691   2.923   3.451
 2652SOL    HW1 8855   3.668   2.832   3.487
 2652SOL    HW2 8856   3.701   2.918   3.352
 2653SOL     OW 8857   5.316   0.024   5.829
 2653SOL    HW1 8858   5.325   6.985   5.751
 2653SOL    HW2 8859   5.269   7.000   5.904
 2654SOL     OW 8860   5.312   3.062   6.088
 2654SOL    HW1 8861   5.282   3.009   6.008
 2654SOL    HW2 8862   5.252   3.141   6.100
 2655SOL     OW 8863   3.995   5.307   4.547
 2655SOL    HW1 8864   4.075   5.300   4.487
 2655SOL    HW2 8865   4.010   5.252   4.629
 2656SOL     OW 8866   5.494   5.173   4.089
 2656SOL    HW1 8867   5.567   5.110   4.065
 2656SOL    HW2 8868   5.425   5.126   4.144
 2657SOL     OW 8869   2.076   3.743   6.245
 2657SOL    HW1 8870   2.074   3.842   6.258
 2657SOL    HW2 8871   2.071   3.722   6.147
 2658SOL     OW 8872   6.289   4.731   6.353
 2658SOL    HW1 8873   6.280   4.673   6.434
 2658SOL    HW2 8874   6.201   4.733   6.305
 2659SOL     OW 8875   6.709   2.481   4.484
 2659SOL    HW1 8876   6.776   2.548   4.452
 2659SOL    HW2 8877   6.743   2.435   4.566
 2660SOL     OW 8878   7.008   2.090   1.787
 2660SOL    HW1 8879   6.950   2.020   1.747
 2660SOL    HW2 8880   0.044   2.049   1.855
 2661SOL     OW 8881   2.927   6.206   1.089
 2661SOL    HW1 8882   2.855   6.247   1.033
 2661SOL    HW2 8883   2.890   6.127   1.139
 2662SOL     OW 8884   4.293   6.813   4.575
 2662SOL    HW1 8885   4.245   6.728   4.554
 2662SOL    HW2 8886   4.329   6.810   4.668
 2663SOL     OW 8887   2.387   4.657   1.546
 2663SOL    HW1 8888   2.368   4.597   1.469
 2663SOL    HW2 8889   2.483   4.648   1.573
 2664SOL     OW 8890   3.402   3.605   3.497
 2664SOL    HW1 8891   3.316   3.615   3.447
 2664SOL    HW2 8892   3.474   3.574   3.435
 2665SOL     OW 8893   3.471   1.579   4.373
 2665SOL    HW1 8894   3.393   1.545   4.319
 2665SOL    HW2 8895   3.471   1.536   4.463
 2666SOL     OW 8896   4.694   4.829   1.186
 2666SOL    HW1 8897   4.644   4.876   1.113
 2666SOL    HW2 8898   4.629   4.779   1.244
 2667SOL     OW 8899   1.341   6.160   4.906
 2667SOL    HW1 8900   1.395   6.244   4.903
 2667SOL    HW2 8901   1.338   6.126   5.000
 2668SOL     OW 8902   6.848   3.425   4.485
 2668SOL    HW1 8903   6.890   3.375   4.409
 2668SOL    HW2 8904   6.856   3.372   4.569
 2669SOL     OW 8905   3.663   4.936   5.673
 2669SOL    HW1 8906   3.747   4.936   5.617
 2669SOL    HW2 8907   3.602   5.008   5.640
 2670SOL     OW 8908   6.601   1.262   6.682
 2670SOL    HW1 8909   6.699   1.260   6.665
 2670SOL    HW2 8910   6.575   1.185   6.740
 2671SOL     OW 8911   2.312   3.587   6.908
 2671SOL    HW1 8912   2.354   3.497   6.896
 2671SOL    HW2 8913   2.377   3.648   6.954
 2672SOL     OW 8914   1.170   5.771   0.082
 2672SOL    HW1 8915   1.167   5.756   7.006
 2672SOL    HW2 8916   1.172   5.683   0.128
 2673SOL     OW 8917   4.972   2.995   3.802
 2673SOL    HW1 8918   5.013   3.080   3.770
 2673SOL    HW2 8919   5.043   2.927   3.819
 2674SOL     OW 8920   1.951   4.671   4.353
 2674SOL    HW1 8921   1.949   4.721   4.440
 2674SOL    HW2 8922   2.008   4.590   4.362
 2675SOL     OW 8923   1.044   4.338   5.782
 2675SOL    HW1 8924   0.954   4.365   5.814
 2675SOL    HW2 8925   1.058   4.240   5.799
 2676SOL     OW 8926   4.805   1.660   2.446
 2676SOL    HW1 8927   4.878   1.666   2.378
 2676SOL    HW2 8928   4.842   1.679   2.537
 2677SOL     OW 8929   2.486   4.944   1.550
 2677SOL    HW1 8930   2.450   5.014   1.489
 2677SOL    HW2 8931   2.467   4.853   1.512
 2678SOL     OW 8932   0.851   4.794   0.345
 2678SOL    HW1 8933   0.879   4.776   0.440
 2678SOL    HW2 8934   0.755   4.822   0.344
 2679SOL     OW 8935   3.839   4.966   0.849
 2679SOL    HW1 8936   3.937   4.962   0.831
 2679SOL    HW2 8937   3.799   5.042   0.799
 2680SOL     OW 8938   1.890   1.557   0.531
 2680SOL    HW1 8939   1.932   1.546   0.621
 2680SOL    HW2 8940   1.881   1.655   0.511
 2681SOL     OW 8941   1.671   3.894   4.110
 2681SOL    HW1 8942   1.602   3.933   4.171
 2681SOL    HW2 8943   1.626   3.866   4.025
 2682SOL     OW 8944   5.636   3.146   1.777
 2682SOL    HW1 8945   5.726   3.123   1.814
 2682SOL    HW2 8946   5.570   3.075   1.801
 2683SOL     OW 8947   0.870   5.057   1.304
 2683SOL    HW1 8948   0.791   5.088   1.251
 2683SOL    HW2 8949   0.847   4.971   1.351
 2684SOL     OW 8950   4.178   5.939   2.499
 2684SOL    HW1 8951   4.135   6.020   2.538
 2684SOL    HW2 8952   4.177   5.864   2.566
 2685SOL     OW 8953   6.450   0.133   4.287
 2685SOL    HW1 8954   6.493   0.099   4.371
 2685SOL    HW2 8955   6.352   0.146   4.303
 2686SOL     OW 8956   1.575   2.295   4.301
 2686SOL    HW1 8957   1.631   2.227   4.347
 2686SOL    HW2 8958   1.603   2.302   4.205
 2687SOL     OW 8959   3.939   5.129   2.656
 2687SOL    HW1 8960   3.889   5.190   2.595
 2687SOL    HW2 8961   4.036   5.126   2.630
 2688SOL     OW 8962   4.142   5.457   5.618
 2688SOL    HW1 8963   4.043   5.453   5.605
 2688SOL    HW2 8964   4.167   5.403   5.698
 2689SOL     OW 8965   1.210   1.656   4.023
 2689SOL    HW1 8966   1.137   1.705   3.976
 2689SOL    HW2 8967   1.259   1.598   3.959
 2690SOL     OW 8968   4.110   3.306   3.808
 2690SOL    HW1 8969   4.185   3.254   3.768
 2690SOL    HW2 8970   4.096   3.390   3.755
 2691SOL     OW 8971   1.850   5.676   1.997
 2691SOL    HW1 8972   1.911   5.733   1.942
 2691SOL    HW2 8973   1.795   5.618   1.937
 2692SOL     OW 8974   6.027   5.831   3.879
 2692SOL    HW1 8975   5.980   5.789   3.801
 2692SOL    HW2 8976   6.105   5.884   3.845
 2693SOL     OW 8977   2.265   4.993   2.839
 2693SOL    HW1 8978   2.200   4.987   2.763
 2693SOL    HW2 8979   2.357   4.972   2.805
 2694SOL     OW 8980   3.170   0.479   3.119
 2694SOL    HW1 8981   3.116   0.555   3.157
 2694SOL    HW2 8982   3.110   0.420   3.064
 2695SOL     OW 8983   4.836   2.005   2.397
 2695SOL    HW1 8984   4.813   2.032   2.303
 2695SOL    HW2 8985   4.846   2.087   2.453
 2696SOL     OW 8986   3.811   2.820   5.563
 2696SOL    HW1 8987   3.785   2.733   5.606
 2696SOL    HW2 8988   3.834   2.804   5.467
 2697SOL     OW 8989   4.262   2.365   3.848
 2697SOL    HW1 8990   4.293   2.282   3.894
 2697SOL    HW2 8991   4.241   2.344   3.752
 2698SOL     OW 8992   1.034   4.616   0.851
 2698SOL    HW1 8993   1.046   4.525   0.889
 2698SOL    HW2 8994   0.995   4.677   0.921
 2699SOL     OW 8995   3.449   5.454   0.158
 2699SOL    HW1 8996   3.423   5.503   0.075
 2699SOL    HW2 8997   3.537   5.408   0.143
 2700SOL     OW 8998   2.111   3.704   2.711
 2700SOL    HW1 8999   2.150   3.675   2.799
 2700SOL    HW2 9000   2.137   3.639   2.640
 2701SOL     OW 9001   4.118   0.448   6.439
 2701SOL    HW1 9002   4.160   0.437   6.529
 2701SOL    HW2 9003   4.183   0.492   6.377
 2702SOL     OW 9004   6.445   1.996   3.300
 2702SOL    HW1 9005   6.351   1.976   3.270
 2702SOL    HW2 9006   6.497   2.033   3.223
 2703SOL     OW 9007   2.981   1.225   2.783
 2703SOL    HW1 9008   2.958   1.156   2.852
 2703SOL    HW2 9009   2.973   1.316   2.823
 2704SOL     OW 9010   2.259   5.663   1.744
 2704SOL    HW1 9011   2.307   5.621   1.822
 2704SOL    HW2 9012   2.235   5.757   1.766
 2705SOL     OW 9013   6.823   5.134   4.106
 2705SOL    HW1 9014   6.818   5.060   4.038
 2705SOL    HW2 9015   6.773   5.107   4.188
 2706SOL     OW 9016   6.665   1.257   1.992
 2706SOL    HW1 9017   6.737   1.254   1.922
 2706SOL    HW2 9018   6.677   1.180   2.055
 2707SOL     OW 9019   2.206   0.380   6.819
 2707SOL    HW1 9020   2.237   0.389   6.914
 2707SOL    HW2 9021   2.256   0.306   6.775
 2708SOL     OW 9022   2.617   2.337   1.926
 2708SOL    HW1 9023   2.711   2.371   1.926
 2708SOL    HW2 9024   2.600   2.286   2.010
 2709SOL     OW 9025   4.876   6.505   1.089
 2709SOL    HW1 9026   4.838   6.561   1.016
 2709SOL    HW2 9027   4.894   6.413   1.055
 2710SOL     OW 9028   6.856   3.587   2.617
 2710SOL    HW1 9029   6.854   3.672   2.670
 2710SOL    HW2 9030   6.924   3.525   2.655
 2711SOL     OW 9031   1.634   0.325   2.576
 2711SOL    HW1 9032   1.693   0.361   2.504
 2711SOL    HW2 9033   1.628   0.392   2.650
 2712SOL     OW 9034   3.071   4.776   0.390
 2712SOL    HW1 9035   3.149   4.713   0.380
 2712SOL    HW2 9036   3.086   4.835   0.470
 2713SOL     OW 9037   1.856   2.696   4.710
 2713SOL    HW1 9038   1.953   2.673   4.720
 2713SOL    HW2 9039   1.803   2.613   4.696
 2714SOL     OW 9040   5.391   1.504   6.620
 2714SOL    HW1 9041   5.415   1.472   6.529
 2714SOL    HW2 9042   5.373   1.603   6.617
 2715SOL     OW 9043   5.683   1.012   0.067
 2715SOL    HW1 9044   5.765   1.069   0.065
 2715SOL    HW2 9045   5.674   0.963   7.003
 2716SOL     OW 9046   6.911   5.988   1.231
 2716SOL    HW1 9047   6.860   5.923   1.175
 2716SOL    HW2 9048   6.996   6.013   1.185
 2717SOL     OW 9049   0.843   5.859   2.029
 2717SOL    HW1 9050   0.778   5.783   2.030
 2717SOL    HW2 9051   0.836   5.907   1.942
 2718SOL     OW 9052   2.183   4.168   4.082
 2718SOL    HW1 9053   2.143   4.125   4.163
 2718SOL    HW2 9054   2.124   4.243   4.051
 2719SOL     OW 9055   4.533   4.936   2.148
 2719SOL    HW1 9056   4.561   4.844   2.176
 2719SOL    HW2 9057   4.444   4.957   2.188
 2720SOL     OW 9058   1.659   5.750   3.296
 2720SOL    HW1 9059   1.586   5.805   3.255
 2720SOL    HW2 9060   1.699   5.690   3.226
 2721SOL     OW 9061   2.610   0.548   4.894
 2721SOL    HW1 9062   2.562   0.605   4.960
 2721SOL    HW2 9063   2.576   0.454   4.899
 2722SOL     OW 9064   6.809   5.642   3.236
 2722SOL    HW1 9065   6.843   5.623   3.144
 2722SOL    HW2 9066   6.715   5.675   3.231
 2723SOL     OW 9067   2.129   1.158   5.849
 2723SOL    HW1 9068   2.101   1.215   5.772
 2723SOL    HW2 9069   2.221   1.123   5.833
 2724SOL     OW 9070   3.115   5.667   5.852
 2724SOL    HW1 9071   3.080   5.578   5.881
 2724SOL    HW2 9072   3.149   5.661   5.758
 2725SOL     OW 9073   5.291   4.749   3.011
 2725SOL    HW1 9074   5.352   4.669   3.012
 2725SOL    HW2 9075   5.316   4.810   3.087
 2726SOL     OW 9076   5.009   4.912   1.727
 2726SOL    HW1 9077   5.065   4.875   1.654
 2726SOL    HW2 9078   4.999   4.843   1.799
 2727SOL     OW 9079   0.514   5.014   3.082
 2727SOL    HW1 9080   0.594   5.036   3.026
 2727SOL    HW2 9081   0.543   4.959   3.161
 2728SOL     OW 9082   3.064   0.454   4.836
 2728SOL    HW1 9083   3.042   0.398   4.916
 2728SOL    HW2 9084   2.989   0.517   4.818
 2729SOL     OW 9085   6.704   6.080   2.303
 2729SOL    HW1 9086   6.698   5.989   2.343
 2729SOL    HW2 9087   6.799   6.111   2.303
 2730SOL     OW 9088   2.305   6.903   0.790
 2730SOL    HW1 9089   2.292   6.926   0.886
 2730SOL    HW2 9090   2.222   6.859   0.754
 2731SOL     OW 9091   2.583   3.792   1.428
 2731SOL    HW1 9092   2.588   3.777   1.527
 2731SOL    HW2 9093   2.511   3.734   1.389
 2732SOL     OW 9094   5.953   3.257   2.363
 2732SOL    HW1 9095   5.920   3.213   2.279
 2732SOL    HW2 9096   5.992   3.188   2.424
 2733SOL     OW 9097   0.928   6.539   5.503
 2733SOL    HW1 9098   1.017   6.523   5.545
 2733SOL    HW2 9099   0.922   6.490   5.417
 2734SOL     OW 9100   1.725   5.618   3.579
 2734SOL    HW1 9101   1.700   5.625   3.482
 2734SOL    HW2 9102   1.672   5.684   3.632
 2735SOL     OW 9103   0.721   3.903   2.988
 2735SOL    HW1 9104   0.669   3.987   2.974
 2735SOL    HW2 9105   0.808   3.909   2.938
 2736SOL     OW 9106   4.656   0.639   5.033
 2736SOL    HW1 9107   4.563   0.674   5.034
 2736SOL    HW2 9108   4.714   0.698   5.090
 2737SOL     OW 9109   3.230   3.310   6.319
 2737SOL    HW1 9110   3.252   3.327   6.223
 2737SOL    HW2 9111   3.142   3.353   6.341
 2738SOL     OW 9112   4.909   5.490   4.068
 2738SOL    HW1 9113   4.915   5.570   4.009
 2738SOL    HW2 9114   4.983   5.493   4.136
 2739SOL     OW 9115   5.800   4.237   0.598
 2739SOL    HW1 9116   5.711   4.226   0.554
 2739SOL    HW2 9117   5.788   4.280   0.688
 2740SOL     OW 9118   5.917   1.904   2.627
 2740SOL    HW1 9119   6.013   1.903   2.601
 2740SOL    HW2 9120   5.861   1.871   2.551
 2741SOL     OW 9121   0.123   1.698   5.798
 2741SOL    HW1 9122   0.136   1.620   5.737
 2741SOL    HW2 9123   0.043   1.751   5.769
 2742SOL     OW 9124   1.031   5.459   6.240
 2742SOL    HW1 9125   1.110   5.491   6.188
 2742SOL    HW2 9126   0.995   5.375   6.199
 2743SOL     OW 9127   5.972   5.769   1.241
 2743SOL    HW1 9128   6.016   5.713   1.311
 2743SOL    HW2 9129   6.042   5.811   1.184
 2744SOL     OW 9130   3.887   1.842   6.762
 2744SOL    HW1 9131   3.849   1.897   6.688
 2744SOL    HW2 9132   3.832   1.758   6.773
 2745SOL     OW 9133   1.779   6.084   0.566
 2745SOL    HW1 9134   1.848   6.119   0.629
 2745SOL    HW2 9135   1.696   6.061   0.618
 2746SOL     OW 9136   1.949   3.079   4.835
 2746SOL    HW1 9137   1.913   3.016   4.766
 2746SOL    HW2 9138   2.033   3.122   4.800
 2747SOL     OW 9139   5.690   5.191   5.069
 2747SOL    HW1 9140   5.732   5.132   5.000
 2747SOL    HW2 9141   5.722   5.285   5.054
 2748SOL     OW 9142   3.153   1.382   3.395
 2748SOL    HW1 9143   3.249   1.362   3.411
 2748SOL    HW2 9144   3.144   1.470   3.347
 2749SOL     OW 9145   5.785   4.623   4.168
 2749SOL    HW1 9146   5.708   4.686   4.160
 2749SOL    HW2 9147   5.755   4.531   4.145
 2750SOL     OW 9148   0.412   5.387   1.650
 2750SOL    HW1 9149   0.505   5.353   1.637
 2750SOL    HW2 9150   0.403   5.425   1.742
 2751SOL     OW 9151   1.590   6.678   0.769
 2751SOL    HW1 9152   1.497   6.710   0.754
 2751SOL    HW2 9153   1.600   6.648   0.864
 2752SOL     OW 9154   4.841   6.270   5.199
 2752SOL    HW1 9155   4.919   6.245   5.256
 2752SOL    HW2 9156   4.759   6.225   5.235
 2753SOL     OW 9157   3.233   5.579   6.306
 2753SOL    HW1 9158   3.185   5.656   6.264
 2753SOL    HW2 9159   3.254   5.511   6.235
 2754SOL     OW 9160   0.146   0.190   3.869
 2754SOL    HW1 9161   0.193   0.215   3.954
 2754SOL    HW2 9162   0.048   0.204   3.879
 2755SOL     OW 9163   2.691   6.805   3.364
 2755SOL    HW1 9164   2.791   6.807   3.369
 2755SOL    HW2 9165   2.663   6.788   3.270
 2756SOL     OW 9166   6.126   3.941   4.561
 2756SOL    HW1 9167   6.045   3.999   4.553
 2756SOL    HW2 9168   6.198   3.991   4.608
 2757SOL     OW 9169   3.451   1.763   6.576
 2757SOL    HW1 9170   3.499   1.721   6.498
 2757SOL    HW2 9171   3.353   1.769   6.555
 2758SOL     OW 9172   5.311   5.649   3.648
 2758SOL    HW1 9173   5.351   5.581   3.587
 2758SOL    HW2 9174   5.326   5.741   3.610
 2759SOL     OW 9175   3.615   4.441   5.700
 2759SOL    HW1 9176   3.603   4.364   5.762
 2759SOL    HW2 9177   3.558   4.517   5.730
 2760SOL     OW 9178   6.092   6.089   2.631
 2760SOL    HW1 9179   6.006   6.130   2.602
 2760SOL    HW2 9180   6.124   6.026   2.561
 2761SOL     OW 9181   1.038   4.295   3.545
 2761SOL    HW1 9182   0.955   4.332   3.587
 2761SOL    HW2 9183   1.055   4.342   3.458
 2762SOL     OW 9184   1.330   2.149   6.961
 2762SOL    HW1 9185   1.281   2.128   6.877
 2762SOL    HW2 9186   1.283   2.222   7.011
 2763SOL     OW 9187   4.855   1.700   5.922
 2763SOL    HW1 9188   4.948   1.678   5.892
 2763SOL    HW2 9189   4.825   1.784   5.877
 2764SOL     OW 9190   0.830   4.517   2.990
 2764SOL    HW1 9191   0.846   4.571   3.073
 2764SOL    HW2 9192   0.832   4.577   2.910
 2765SOL     OW 9193   6.448   0.199   0.000
 2765SOL    HW1 9194   6.375   0.141   0.035
 2765SOL    HW2 9195   6.415   0.252   6.945
 2766SOL     OW 9196   4.138   1.282   6.920
 2766SOL    HW1 9197   4.163   1.283   6.823
 2766SOL    HW2 9198   4.171   1.197   6.961
 2767SOL     OW 9199   5.819   5.853   6.217
 2767SOL    HW1 9200   5.865   5.892   6.138
 2767SOL    HW2 9201   5.882   5.852   6.295
 2768SOL     OW 9202   3.545   0.010   0.820
 2768SOL    HW1 9203   3.586   6.943   0.811
 2768SOL    HW2 9204   3.447   0.001   0.840
 2769SOL     OW 9205   1.971   4.132   5.805
 2769SOL    HW1 9206   2.051   4.191   5.821
 2769SOL    HW2 9207   1.959   4.118   5.707
 2770SOL     OW 9208   3.408   6.755   6.175
 2770SOL    HW1 9209   3.453   6.709   6.252
 2770SOL    HW2 9210   3.338   6.694   6.137
 2771SOL     OW 9211   5.597   6.737   4.253
 2771SOL    HW1 9212   5.687   6.735   4.209
 2771SOL    HW2 9213   5.526   6.720   4.186
 2772SOL     OW 9214   3.890   0.647   2.676
 2772SOL    HW1 9215   3.987   0.628   2.660
 2772SOL    HW2 9216   3.880   0.739   2.716
 2773SOL     OW 9217   0.449   3.301   4.441
 2773SOL    HW1 9218   0.422   3.380   4.387
 2773SOL    HW2 9219   0.382   3.228   4.429
 2774SOL     OW 9220   5.280   2.518   3.004
 2774SOL    HW1 9221   5.249   2.484   3.092
 2774SOL    HW2 9222   5.203   2.518   2.940
 2775SOL     OW 9223   7.016   3.711   4.159
 2775SOL    HW1 9224   0.002   3.764   4.075
 2775SOL    HW2 9225   0.071   3.649   4.169
 2776SOL     OW 9226   4.927   5.422   0.070
 2776SOL    HW1 9227   5.012   5.466   0.097
 2776SOL    HW2 9228   4.856   5.492   0.057
 2777SOL     OW 9229   2.622   2.173   5.705
 2777SOL    HW1 9230   2.578   2.262   5.720
 2777SOL    HW2 9231   2.700   2.163   5.767
 2778SOL     OW 9232   2.729   5.662   6.413
 2778SOL    HW1 9233   2.824   5.636   6.427
 2778SOL    HW2 9234   2.723   5.761   6.400
 2779SOL     OW 9235   5.763   6.222   1.775
 2779SOL    HW1 9236   5.781   6.318   1.750
 2779SOL    HW2 9237   5.806   6.203   1.863
 2780SOL     OW 9238   0.408   0.939   6.174
 2780SOL    HW1 9239   0.309   0.946   6.161
 2780SOL    HW2 9240   0.429   0.855   6.224
 2781SOL     OW 9241   6.724   0.891   2.340
 2781SOL    HW1 9242   6.798   0.853   2.396
 2781SOL    HW2 9243   6.637   0.882   2.389
 2782SOL     OW 9244   4.459   0.975   6.000
 2782SOL    HW1 9245   4.526   0.912   5.963
 2782SOL    HW2 9246   4.476   0.989   6.098
 2783SOL     OW 9247   6.405   3.312   1.317
 2783SOL    HW1 9248   6.334   3.382   1.327
 2783SOL    HW2 9249   6.368   3.224   1.347
 2784SOL     OW 9250   2.752   1.584   2.174
 2784SOL    HW1 9251   2.828   1.596   2.237
 2784SOL    HW2 9252   2.668   1.617   2.217
 2785SOL     OW 9253   4.825   2.673   1.582
 2785SOL    HW1 9254   4.897   2.678   1.651
 2785SOL    HW2 9255   4.790   2.765   1.563
 2786SOL     OW 9256   6.686   5.175   0.806
 2786SOL    HW1 9257   6.659   5.233   0.730
 2786SOL    HW2 9258   6.628   5.093   0.808
 2787SOL     OW 9259   6.243   5.787   6.101
 2787SOL    HW1 9260   6.236   5.688   6.113
 2787SOL    HW2 9261   6.324   5.807   6.045
 2788SOL     OW 9262   3.316   6.827   5.883
 2788SOL    HW1 9263   3.238   6.811   5.944
 2788SOL    HW2 9264   3.396   6.851   5.938
 2789SOL     OW 9265   1.566   2.809   3.483
 2789SOL    HW1 9266   1.663   2.836   3.488
 2789SOL    HW2 9267   1.509   2.885   3.516
 2790SOL     OW 9268   2.459   5.074   0.479
 2790SOL    HW1 9269   2.529   5.115   0.421
 2790SOL    HW2 9270   2.403   5.012   0.424
 2791SOL     OW 9271   0.134   4.121   2.239
 2791SOL    HW1 9272   0.105   4.027   2.227
 2791SOL    HW2 9273   0.149   4.140   2.336
 2792SOL     OW 9274   3.224   0.909   4.857
 2792SOL    HW1 9275   3.260   0.834   4.912
 2792SOL    HW2 9276   3.300   0.956   4.811
 2793SOL     OW 9277   4.186   4.128   1.224
 2793SOL    HW1 9278   4.160   4.167   1.312
 2793SOL    HW2 9279   4.145   4.038   1.213
 2794SOL     OW 9280   6.774   1.179   6.400
 2794SOL    HW1 9281   6.737   1.202   6.310
 2794SOL    HW2 9282   6.767   1.259   6.460
 2795SOL     OW 9283   0.302   4.746   0.816
 2795SOL    HW1 9284   0.378   4.716   0.874
 2795SOL    HW2 9285   0.226   4.681   0.825
 2796SOL     OW 9286   0.661   6.013   5.574
 2796SOL    HW1 9287   0.690   5.924   5.539
 2796SOL    HW2 9288   0.742   6.072   5.584
 2797SOL     OW 9289   5.721   6.082   4.782
 2797SOL    HW1 9290   5.696   6.177   4.763
 2797SOL    HW2 9291   5.819   6.076   4.799
 2798SOL     OW 9292   6.630   7.003   2.147
 2798SOL    HW1 9293   6.555   6.938   2.139
 2798SOL    HW2 9294   6.699   6.968   2.211
 2799SOL     OW 9295   4.694   5.674   5.372
 2799SOL    HW1 9296   4.613   5.704   5.423
 2799SOL    HW2 9297   4.667   5.645   5.280
 2800SOL     OW 9298   5.900   0.590   0.153
 2800SOL    HW1 9299   5.987   0.576   0.201
 2800SOL    HW2 9300   5.839   0.644   0.210
 2801SOL     OW 9301   0.271   4.972   6.088
 2801SOL    HW1 9302   0.252   4.890   6.141
 2801SOL    HW2 9303   0.190   4.997   6.034
 2802SOL     OW 9304   6.356   6.671   5.496
 2802SOL    HW1 9305   6.287   6.700   5.562
 2802SOL    HW2 9306   6.357   6.571   5.490
 2803SOL     OW 9307   3.446   2.880   6.222
 2803SOL    HW1 9308   3.416   2.888   6.317
 2803SOL    HW2 9309   3.478   2.969   6.190
 2804SOL     OW 9310   0.539   2.781   4.039
 2804SOL    HW1 9311   0.513   2.701   3.985
 2804SOL    HW2 9312   0.576   2.751   4.127
 2805SOL     OW 9313   4.828   3.600   1.541
 2805SOL    HW1 9314   4.775   3.518   1.561
 2805SOL    HW2 9315   4.790   3.645   1.460
 2806SOL     OW 9316   1.848   4.089   6.242
 2806SOL    HW1 9317   1.798   4.159   6.294
 2806SOL    HW2 9318   1.945   4.111   6.241
 2807SOL     OW 9319   3.004   0.401   2.920
 2807SOL    HW1 9320   3.074   0.440   2.860
 2807SOL    HW2 9321   2.916   0.444   2.899
 2808SOL     OW 9322   6.621   5.397   0.633
 2808SOL    HW1 9323   6.666   5.472   0.682
 2808SOL    HW2 9324   6.611   5.422   0.536
 2809SOL     OW 9325   5.770   4.730   2.007
 2809SOL    HW1 9326   5.852   4.770   2.049
 2809SOL    HW2 9327   5.718   4.801   1.960
 2810SOL     OW 9328   2.500   6.045   3.522
 2810SOL    HW1 9329   2.519   5.950   3.547
 2810SOL    HW2 9330   2.581   6.101   3.541
 2811SOL     OW 9331   0.416   0.105   2.326
 2811SOL    HW1 9332   0.466   0.152   2.253
 2811SOL    HW2 9333   0.481   0.070   2.393
 2812SOL     OW 9334   0.447   2.945   1.059
 2812SOL    HW1 9335   0.477   3.039   1.040
 2812SOL    HW2 9336   0.429   2.935   1.157
 2813SOL     OW 9337   0.672   1.754   1.091
 2813SOL    HW1 9338   0.720   1.668   1.073
 2813SOL    HW2 9339   0.736   1.820   1.129
 2814SOL     OW 9340   2.399   4.343   6.845
 2814SOL    HW1 9341   2.345   4.427   6.838
 2814SOL    HW2 9342   2.423   4.327   6.941
 2815SOL     OW 9343   0.242   5.958   5.010
 2815SOL    HW1 9344   0.176   5.941   5.083
 2815SOL    HW2 9345   0.194   5.978   4.925
 2816SOL     OW 9346   7.010   6.276   5.700
 2816SOL    HW1 9347   6.951   6.196   5.694
 2816SOL    HW2 9348   0.064   6.265   5.637
 2817SOL     OW 9349   3.975   0.328   1.821
 2817SOL    HW1 9350   3.914   0.407   1.814
 2817SOL    HW2 9351   3.926   0.251   1.863
 2818SOL     OW 9352   1.864   0.730   1.530
 2818SOL    HW1 9353   1.810   0.792   1.473
 2818SOL    HW2 9354   1.902   0.780   1.608
 2819SOL     OW 9355   0.938   0.006   0.759
 2819SOL    HW1 9356   0.866   0.007   0.828
 2819SOL    HW2 9357   0.906   6.982   0.677
 2820SOL     OW 9358   0.878   2.362   2.227
 2820SOL    HW1 9359   0.806   2.382   2.160
 2820SOL    HW2 9360   0.837   2.336   2.314
 2821SOL     OW 9361   3.560   4.452   6.386
 2821SOL    HW1 9362   3.607   4.525   6.435
 2821SOL    HW2 9363   3.611   4.428   6.304
 2822SOL     OW 9364   3.756   2.779   0.753
 2822SOL    HW1 9365   3.798   2.695   0.788
 2822SOL    HW2 9366   3.813   2.858   0.779
 2823SOL     OW 9367   4.814   1.009   0.251
 2823SOL    HW1 9368   4.716   1.028   0.254
 2823SOL    HW2 9369   4.853   1.049   0.168
 2824SOL     OW 9370   0.973   4.009   6.063
 2824SOL    HW1 9371   0.943   4.004   6.159
 2824SOL    HW2 9372   0.998   3.918   6.031
 2825SOL     OW 9373   5.260   0.965   6.178
 2825SOL    HW1 9374   5.259   0.896   6.106
 2825SOL    HW2 9375   5.179   0.954   6.236
 2826SOL     OW 9376   1.064   3.347   6.316
 2826SOL    HW1 9377   0.972   3.377   6.292
 2826SOL    HW2 9378   1.130   3.417   6.290
 2827SOL     OW 9379   7.021   1.032   6.528
 2827SOL    HW1 9380   6.951   1.103   6.520
 2827SOL    HW2 9381   0.077   1.058   6.473
 2828SOL     OW 9382   1.186   3.324   1.363
 2828SOL    HW1 9383   1.192   3.349   1.460
 2828SOL    HW2 9384   1.252   3.379   1.311
 2829SOL     OW 9385   3.411   4.070   3.370
 2829SOL    HW1 9386   3.409   4.095   3.467
 2829SOL    HW2 9387   3.324   4.027   3.345
 2830SOL     OW 9388   4.448   5.337   6.043
 2830SOL    HW1 9389   4.501   5.254   6.026
 2830SOL    HW2 9390   4.394   5.327   6.127
 2831SOL     OW 9391   0.052   2.381   2.305
 2831SOL    HW1 9392   0.097   2.470   2.305
 2831SOL    HW2 9393   0.101   2.318   2.365
 2832SOL     OW 9394   0.781   3.041   1.234
 2832SOL    HW1 9395   0.693   3.087   1.225
 2832SOL    HW2 9396   0.833   3.082   1.309
 2833SOL     OW 9397   2.156   1.108   2.016
 2833SOL    HW1 9398   2.199   1.074   1.932
 2833SOL    HW2 9399   2.220   1.099   2.092
 2834SOL     OW 9400   4.391   6.327   4.938
 2834SOL    HW1 9401   4.333   6.336   5.019
 2834SOL    HW2 9402   4.466   6.264   4.957
 2835SOL     OW 9403   0.938   6.004   0.828
 2835SOL    HW1 9404   0.976   5.911   0.829
 2835SOL    HW2 9405   1.011   6.070   0.844
 2836SOL     OW 9406   3.513   6.884   3.381
 2836SOL    HW1 9407   3.570   6.964   3.397
 2836SOL    HW2 9408   3.440   6.907   3.317
 2837SOL     OW 9409   5.445   4.052   2.092
 2837SOL    HW1 9410   5.486   4.141   2.109
 2837SOL    HW2 9411   5.358   4.064   2.044
 2838SOL     OW 9412   5.178   3.749   6.166
 2838SOL    HW1 9413   5.260   3.718   6.215
 2838SOL    HW2 9414   5.159   3.845   6.189
 2839SOL     OW 9415   5.979   3.277   4.458
 2839SOL    HW1 9416   6.074   3.252   4.437
 2839SOL    HW2 9417   5.967   3.376   4.447
 2840SOL     OW 9418   0.820   6.045   2.489
 2840SOL    HW1 9419   0.786   6.004   2.404
 2840SOL    HW2 9420   0.750   6.105   2.527
 2841SOL     OW 9421   6.134   2.599   1.200
 2841SOL    HW1 9422   6.142   2.650   1.285
 2841SOL    HW2 9423   6.127   2.663   1.123
 2842SOL     OW 9424   1.338   6.281   4.508
 2842SOL    HW1 9425   1.433   6.287   4.541
 2842SOL    HW2 9426   1.299   6.373   4.503
 2843SOL     OW 9427   2.132   3.211   2.916
 2843SOL    HW1 9428   2.134   3.119   2.877
 2843SOL    HW2 9429   2.130   3.204   3.016
 2844SOL     OW 9430   4.692   4.843   0.839
 2844SOL    HW1 9431   4.645   4.930   0.853
 2844SOL    HW2 9432   4.710   4.830   0.742
 2845SOL     OW 9433   4.807   2.916   3.199
 2845SOL    HW1 9434   4.831   2.985   3.130
 2845SOL    HW2 9435   4.834   2.825   3.167
 2846SOL     OW 9436   4.828   0.632   0.035
 2846SOL    HW1 9437   4.909   0.649   0.091
 2846SOL    HW2 9438   4.797   0.718   7.017
 2847SOL     OW 9439   4.547   4.415   2.286
 2847SOL    HW1 9440   4.579   4.361   2.364
 2847SOL    HW2 9441   4.562   4.363   2.202
 2848SOL     OW 9442   0.890   2.921   5.034
 2848SOL    HW1 9443   0.935   2.833   5.042
 2848SOL    HW2 9444   0.925   2.969   4.953
 2849SOL     OW 9445   3.648   0.533   2.547
 2849SOL    HW1 9446   3.725   0.578   2.593
 2849SOL    HW2 9447   3.674   0.509   2.454
 2850SOL     OW 9448   2.642   6.765   2.857
 2850SOL    HW1 9449   2.652   6.705   2.778
 2850SOL    HW2 9450   2.650   6.860   2.827
 2851SOL     OW 9451   4.334   3.338   0.780
 2851SOL    HW1 9452   4.425   3.373   0.758
 2851SOL    HW2 9453   4.321   3.249   0.737
 2852SOL     OW 9454   6.216   4.271   5.863
 2852SOL    HW1 9455   6.179   4.291   5.772
 2852SOL    HW2 9456   6.205   4.174   5.883
 2853SOL     OW 9457   0.038   3.901   6.996
 2853SOL    HW1 9458   0.047   3.802   6.980
 2853SOL    HW2 9459   7.020   3.916   0.062
 2854SOL     OW 9460   2.903   1.250   6.645
 2854SOL    HW1 9461   2.911   1.184   6.719
 2854SOL    HW2 9462   2.837   1.217   6.577
 2855SOL     OW 9463   1.823   1.826   4.930
 2855SOL    HW1 9464   1.760   1.750   4.946
 2855SOL    HW2 9465   1.806   1.898   4.997
 2856SOL     OW 9466   1.472   4.305   3.006
 2856SOL    HW1 9467   1.433   4.227   3.055
 2856SOL    HW2 9468   1.458   4.389   3.059
 2857SOL     OW 9469   0.342   3.130   0.736
 2857SOL    HW1 9470   0.246   3.157   0.727
 2857SOL    HW2 9471   0.349   3.031   0.732
 2858SOL     OW 9472   4.749   5.307   2.973
 2858SOL    HW1 9473   4.697   5.346   3.049
 2858SOL    HW2 9474   4.698   5.315   2.888
 2859SOL     OW 9475   5.069   5.897   1.071
 2859SOL    HW1 9476   4.999   5.892   1.000
 2859SOL    HW2 9477   5.061   5.984   1.119
 2860SOL     OW 9478   1.322   5.796   1.669
 2860SOL    HW1 9479   1.258   5.737   1.619
 2860SOL    HW2 9480   1.356   5.867   1.609
 2861SOL     OW 9481   3.703   4.695   6.452
 2861SOL    HW1 9482   3.719   4.737   6.363
 2861SOL    HW2 9483   3.776   4.721   6.515
 2862SOL     OW 9484   4.347   3.427   1.271
 2862SOL    HW1 9485   4.389   3.411   1.181
 2862SOL    HW2 9486   4.331   3.339   1.316
 2863SOL     OW 9487   5.678   0.239   5.744
 2863SOL    HW1 9488   5.774   0.221   5.766
 2863SOL    HW2 9489   5.622   0.226   5.826
 2864SOL     OW 9490   3.788   3.456   1.859
 2864SOL    HW1 9491   3.692   3.432   1.844
 2864SOL    HW2 9492   3.844   3.374   1.849
 2865SOL     OW 9493   5.028   6.126   4.411
 2865SOL    HW1 9494   5.036   6.165   4.503
 2865SOL    HW2 9495   4.985   6.193   4.350
 2866SOL     OW 9496   5.253   4.452   6.397
 2866SOL    HW1 9497   5.312   4.476   6.320
 2866SOL    HW2 9498   5.158   4.447   6.366
 2867SOL     OW 9499   6.261   6.646   1.611
 2867SOL    HW1 9500   6.167   6.617   1.591
 2867SOL    HW2 9501   6.316   6.567   1.638
 2868SOL     OW 9502   1.753   1.364   5.879
 2868SOL    HW1 9503   1.847   1.348   5.910
 2868SOL    HW2 9504   1.738   1.316   5.793
 2869SOL     OW 9505   5.400   6.103   4.119
 2869SOL    HW1 9506   5.356   6.052   4.045
 2869SOL    HW2 9507   5.366   6.197   4.120
 2870SOL     OW 9508   1.125   1.861   1.418
 2870SOL    HW1 9509   1.215   1.856   1.376
 2870SOL    HW2 9510   1.058   1.816   1.358
 2871SOL     OW 9511   6.763   2.017   1.665
 2871SOL    HW1 9512   6.737   1.991   1.572
 2871SOL    HW2 9513   6.706   2.093   1.696
 2872SOL     OW 9514   2.261   1.945   2.573
 2872SOL    HW1 9515   2.336   1.976   2.514
 2872SOL    HW2 9516   2.220   1.863   2.535
 2873SOL     OW 9517   0.812   5.811   1.276
 2873SOL    HW1 9518   0.752   5.812   1.355
 2873SOL    HW2 9519   0.808   5.900   1.230
 2874SOL     OW 9520   2.747   0.483   2.867
 2874SOL    HW1 9521   2.768   0.541   2.788
 2874SOL    HW2 9522   2.683   0.411   2.839
 2875SOL     OW 9523   2.700   0.015   2.756
 2875SOL    HW1 9524   2.718   6.995   2.668
 2875SOL    HW2 9525   2.775   0.077   2.778
 2876SOL     OW 9526   2.064   6.342   1.950
 2876SOL    HW1 9527   2.070   6.411   2.023
 2876SOL    HW2 9528   2.156   6.316   1.921
 2877SOL     OW 9529   1.656   1.191   5.675
 2877SOL    HW1 9530   1.644   1.244   5.591
 2877SOL    HW2 9531   1.579   1.129   5.687
 2878SOL     OW 9532   3.765   2.814   5.264
 2878SOL    HW1 9533   3.701   2.737   5.266
 2878SOL    HW2 9534   3.739   2.878   5.192
 2879SOL     OW 9535   4.532   4.349   5.938
 2879SOL    HW1 9536   4.462   4.409   5.899
 2879SOL    HW2 9537   4.559   4.384   6.027
 2880SOL     OW 9538   0.991   1.998   4.214
 2880SOL    HW1 9539   0.949   2.052   4.287
 2880SOL    HW2 9540   0.965   1.902   4.224
 2881SOL     OW 9541   3.331   6.131   6.645
 2881SOL    HW1 9542   3.342   6.120   6.546
 2881SOL    HW2 9543   3.266   6.204   6.663
 2882SOL     OW 9544   4.376   6.089   0.305
 2882SOL    HW1 9545   4.332   6.099   0.215
 2882SOL    HW2 9546   4.408   6.178   0.337
 2883SOL     OW 9547   5.988   6.238   3.311
 2883SOL    HW1 9548   5.932   6.296   3.252
 2883SOL    HW2 9549   6.059   6.293   3.355
 2884SOL     OW 9550   6.856   5.547   2.549
 2884SOL    HW1 9551   6.883   5.456   2.578
 2884SOL    HW2 9552   6.938   5.599   2.523
 2885SOL     OW 9553   1.672   3.125   2.932
 2885SOL    HW1 9554   1.688   3.167   3.021
 2885SOL    HW2 9555   1.638   3.194   2.868
 2886SOL     OW 9556   2.581   4.395   6.495
 2886SOL    HW1 9557   2.630   4.402   6.409
 2886SOL    HW2 9558   2.645   4.372   6.569
 2887SOL     OW 9559   0.678   6.433   4.317
 2887SOL    HW1 9560   0.771   6.396   4.321
 2887SOL    HW2 9561   0.617   6.363   4.281
 2888SOL     OW 9562   6.799   6.462   0.642
 2888SOL    HW1 9563   6.705   6.493   0.655
 2888SOL    HW2 9564   6.799   6.370   0.603
 2889SOL     OW 9565   3.112   0.016   3.051
 2889SOL    HW1 9566   3.050   0.032   3.128
 2889SOL    HW2 9567   3.126   6.941   3.040
 2890SOL     OW 9568   1.811   6.069   1.385
 2890SOL    HW1 9569   1.719   6.052   1.350
 2890SOL    HW2 9570   1.875   6.077   1.308
 2891SOL     OW 9571   0.009   3.190   2.307
 2891SOL    HW1 9572   6.995   3.267   2.255
 2891SOL    HW2 9573   0.034   3.221   2.398
 2892SOL     OW 9574   6.156   3.990   0.743
 2892SOL    HW1 9575   6.241   3.947   0.772
 2892SOL    HW2 9576   6.139   4.072   0.799
 2893SOL     OW 9577   0.606   5.512   4.430
 2893SOL    HW1 9578   0.524   5.533   4.484
 2893SOL    HW2 9579   0.579   5.468   4.345
 2894SOL     OW 9580   1.210   4.678   1.813
 2894SOL    HW1 9581   1.248   4.726   1.734
 2894SOL    HW2 9582   1.236   4.581   1.808
 2895SOL     OW 9583   3.630   0.286   6.286
 2895SOL    HW1 9584   3.556   0.268   6.351
 2895SOL    HW2 9585   3.599   0.353   6.218
 2896SOL     OW 9586   5.834   6.495   5.392
 2896SOL    HW1 9587   5.895   6.415   5.397
 2896SOL    HW2 9588   5.876   6.566   5.336
 2897SOL     OW 9589   2.998   5.201   3.009
 2897SOL    HW1 9590   2.924   5.197   3.077
 2897SOL    HW2 9591   2.960   5.230   2.921
 2898SOL     OW 9592   5.743   4.004   2.224
 2898SOL    HW1 9593   5.763   3.906   2.227
 2898SOL    HW2 9594   5.822   4.053   2.186
 2899SOL     OW 9595   6.677   2.307   1.089
 2899SOL    HW1 9596   6.744   2.330   1.019
 2899SOL    HW2 9597   6.723   2.293   1.176
 2900SOL     OW 9598   3.340   3.692   6.888
 2900SOL    HW1 9599   3.375   3.779   6.922
 2900SOL    HW2 9600   3.413   3.624   6.891
 2901SOL     OW 9601   1.600   4.650   3.491
 2901SOL    HW1 9602   1.673   4.621   3.554
 2901SOL    HW2 9603   1.561   4.570   3.446
 2902SOL     OW 9604   0.578   5.846   3.890
 2902SOL    HW1 9605   0.514   5.922   3.882
 2902SOL    HW2 9606   0.540   5.776   3.951
 2903SOL     OW 9607   4.120   5.768   0.558
 2903SOL    HW1 9608   4.186   5.758   0.633
 2903SOL    HW2 9609   4.168   5.793   0.474
 2904SOL     OW 9610   2.573   4.570   5.077
 2904SOL    HW1 9611   2.664   4.611   5.082
 2904SOL    HW2 9612   2.570   4.488   5.133
 2905SOL     OW 9613   1.188   4.617   2.319
 2905SOL    HW1 9614   1.100   4.652   2.287
 2905SOL    HW2 9615   1.197   4.520   2.294
 2906SOL     OW 9616   5.460   6.466   2.799
 2906SOL    HW1 9617   5.488   6.382   2.752
 2906SOL    HW2 9618   5.527   6.489   2.869
 2907SOL     OW 9619   0.995   0.411   3.527
 2907SOL    HW1 9620   0.944   0.364   3.599
 2907SOL    HW2 9621   0.987   0.359   3.442
 2908SOL     OW 9622   5.063   0.057   3.333
 2908SOL    HW1 9623   5.006   0.019   3.406
 2908SOL    HW2 9624   5.150   0.089   3.371
 2909SOL     OW 9625   1.256   5.616   2.176
 2909SOL    HW1 9626   1.204   5.572   2.103
 2909SOL    HW2 9627   1.210   5.700   2.203
 2910SOL     OW 9628   6.794   1.173   3.816
 2910SOL    HW1 9629   6.694   1.172   3.820
 2910SOL    HW2 9630   6.826   1.086   3.777
 2911SOL     OW 9631   6.470   4.678   3.550
 2911SOL    HW1 9632   6.561   4.640   3.564
 2911SOL    HW2 9633   6.475   4.778   3.552
 2912SOL     OW 9634   6.956   6.699   0.636
 2912SOL    HW1 9635   6.901   6.616   0.647
 2912SOL    HW2 9636   6.896   6.775   0.610
 2913SOL     OW 9637   1.782   4.729   1.667
 2913SOL    HW1 9638   1.837   4.646   1.671
 2913SOL    HW2 9639   1.700   4.712   1.612
 2914SOL     OW 9640   5.499   4.463   0.458
 2914SOL    HW1 9641   5.531   4.385   0.404
 2914SOL    HW2 9642   5.548   4.546   0.429
 2915SOL     OW 9643   3.592   2.118   2.818
 2915SOL    HW1 9644   3.691   2.135   2.810
 2915SOL    HW2 9645   3.547   2.149   2.734
 2916SOL     OW 9646   2.311   5.280   0.655
 2916SOL    HW1 9647   2.244   5.333   0.707
 2916SOL    HW2 9648   2.294   5.291   0.558
 2917SOL     OW 9649   2.422   0.191   3.388
 2917SOL    HW1 9650   2.374   0.146   3.312
 2917SOL    HW2 9651   2.399   0.289   3.388
 2918SOL     OW 9652   5.883   4.266   1.134
 2918SOL    HW1 9653   5.924   4.357   1.140
 2918SOL    HW2 9654   5.935   4.203   1.192
 2919SOL     OW 9655   0.601   5.949   4.358
 2919SOL    HW1 9656   0.666   5.889   4.405
 2919SOL    HW2 9657   0.527   5.895   4.319
 2920SOL     OW 9658   2.000   0.824   2.132
 2920SOL    HW1 9659   1.949   0.777   2.203
 2920SOL    HW2 9660   1.959   0.914   2.114
 2921SOL     OW 9661   0.005   0.280   5.469
 2921SOL    HW1 9662   0.087   0.255   5.521
 2921SOL    HW2 9663   0.031   0.334   5.389
 2922SOL     OW 9664   4.712   0.662   3.284
 2922SOL    HW1 9665   4.751   0.745   3.244
 2922SOL    HW2 9666   4.667   0.684   3.371
 2923SOL     OW 9667   6.464   4.631   4.808
 2923SOL    HW1 9668   6.364   4.634   4.818
 2923SOL    HW2 9669   6.487   4.581   4.724
 2924SOL     OW 9670   6.824   2.177   5.417
 2924SOL    HW1 9671   6.732   2.180   5.379
 2924SOL    HW2 9672   6.827   2.231   5.502
 2925SOL     OW 9673   5.505   0.794   5.824
 2925SOL    HW1 9674   5.471   0.883   5.854
 2925SOL    HW2 9675   5.495   0.728   5.899
 2926SOL     OW 9676   0.468   2.006   5.030
 2926SOL    HW1 9677   0.470   2.046   4.938
 2926SOL    HW2 9678   0.377   1.971   5.049
 2927SOL     OW 9679   1.905   2.858   1.520
 2927SOL    HW1 9680   1.978   2.793   1.540
 2927SOL    HW2 9681   1.836   2.813   1.463
 2928SOL     OW 9682   6.419   2.073   6.897
 2928SOL    HW1 9683   6.472   1.996   6.864
 2928SOL    HW2 9684   6.385   2.126   6.819
 2929SOL     OW 9685   1.488   2.343   4.862
 2929SOL    HW1 9686   1.447   2.278   4.926
 2929SOL    HW2 9687   1.568   2.302   4.819
 2930SOL     OW 9688   6.651   5.460   4.532
 2930SOL    HW1 9689   6.665   5.531   4.601
 2930SOL    HW2 9690   6.556   5.461   4.501
 2931SOL     OW 9691   4.179   4.461   6.513
 2931SOL    HW1 9692   4.261   4.442   6.566
 2931SOL    HW2 9693   4.149   4.378   6.466
 2932SOL     OW 9694   0.041   6.337   1.234
 2932SOL    HW1 9695   0.031   6.247   1.192
 2932SOL    HW2 9696   0.076   6.326   1.327
 2933SOL     OW 9697   1.076   0.175   1.161
 2933SOL    HW1 9698   0.980   0.146   1.159
 2933SOL    HW2 9699   1.115   0.155   1.251
 2934SOL     OW 9700   4.092   3.279   1.013
 2934SOL    HW1 9701   4.147   3.280   0.930
 2934SOL    HW2 9702   4.128   3.211   1.077
 2935SOL     OW 9703   0.552   2.269   6.459
 2935SOL    HW1 9704   0.518   2.342   6.400
 2935SOL    HW2 9705   0.478   2.206   6.482
 2936SOL     OW 9706   4.800   0.586   0.551
 2936SOL    HW1 9707   4.792   0.656   0.481
 2936SOL    HW2 9708   4.796   0.629   0.642
 2937SOL     OW 9709   4.175   5.609   1.791
 2937SOL    HW1 9710   4.174   5.708   1.775
 2937SOL    HW2 9711   4.091   5.568   1.756
 2938SOL     OW 9712   6.550   6.302   6.683
 2938SOL    HW1 9713   6.513   6.268   6.597
 2938SOL    HW2 9714   6.650   6.295   6.680
 2939SOL     OW 9715   0.291   5.558   1.811
 2939SOL    HW1 9716   0.198   5.534   1.841
 2939SOL    HW2 9717   0.290   5.647   1.767
 2940SOL     OW 9718   5.772   6.147   4.348
 2940SOL    HW1 9719   5.700   6.084   4.379
 2940SOL    HW2 9720   5.857   6.127   4.398
 2941SOL     OW 9721   1.762   3.313   3.311
 2941SOL    HW1 9722   1.829   3.370   3.263
 2941SOL    HW2 9723   1.701   3.370   3.365
 2942SOL     OW 9724   2.389   1.070   6.959
 2942SOL    HW1 9725   2.350   1.110   0.018
 2942SOL    HW2 9726   2.376   0.970   6.960
 2943SOL     OW 9727   6.075   4.497   3.253
 2943SOL    HW1 9728   6.170   4.511   3.224
 2943SOL    HW2 9729   6.067   4.408   3.296
 2944SOL     OW 9730   2.435   6.379   4.463
 2944SOL    HW1 9731   2.447   6.333   4.375
 2944SOL    HW2 9732   2.454   6.477   4.453
 2945SOL     OW 9733   5.020   4.550   1.456
 2945SOL    HW1 9734   5.084   4.493   1.507
 2945SOL    HW2 9735   5.008   4.512   1.364
 2946SOL     OW 9736   3.066   3.938   6.219
 2946SOL    HW1 9737   3.076   3.851   6.268
 2946SOL    HW2 9738   3.156   3.978   6.201
 2947SOL     OW 9739   5.926   5.949   0.791
 2947SOL    HW1 9740   5.967   6.038   0.811
 2947SOL    HW2 9741   5.849   5.960   0.729
 2948SOL     OW 9742   5.735   4.709   3.071
 2948SOL    HW1 9743   5.690   4.798   3.079
 2948SOL    HW2 9744   5.799   4.697   3.147
 2949SOL     OW 9745   1.044   6.478   0.942
 2949SOL    HW1 9746   1.081   6.509   0.854
 2949SOL    HW2 9747   0.947   6.505   0.948
 2950SOL     OW 9748   4.471   4.563   2.702
 2950SOL    HW1 9749   4.522   4.583   2.619
 2950SOL    HW2 9750   4.373   4.577   2.685
 2951SOL     OW 9751   5.620   0.624   1.259
 2951SOL    HW1 9752   5.543   0.640   1.321
 2951SOL    HW2 9753   5.619   0.693   1.186
 2952SOL     OW 9754   6.236   0.682   3.888
 2952SOL    HW1 9755   6.313   0.629   3.924
 2952SOL    HW2 9756   6.192   0.731   3.963
 2953SOL     OW 9757   0.362   6.060   2.823
 2953SOL    HW1 9758   0.394   6.006   2.745
 2953SOL    HW2 9759   0.433   6.124   2.851
 2954SOL     OW 9760   1.212   4.472   6.517
 2954SOL    HW1 9761   1.215   4.387   6.570
 2954SOL    HW2 9762   1.118   4.505   6.512
 2955SOL     OW 9763   1.342   4.008   0.356
 2955SOL    HW1 9764   1.289   4.052   0.428
 2955SOL    HW2 9765   1.290   3.929   0.321
 2956SOL     OW 9766   6.579   4.669   3.860
 2956SOL    HW1 9767   6.640   4.598   3.895
 2956SOL    HW2 9768   6.496   4.672   3.916
 2957SOL     OW 9769   2.916   4.869   1.540
 2957SOL    HW1 9770   2.966   4.848   1.624
 2957SOL    HW2 9771   2.836   4.810   1.533
 2958SOL     OW 9772   1.890   5.119   2.975
 2958SOL    HW1 9773   1.819   5.052   2.996
 2958SOL    HW2 9774   1.980   5.079   2.992
 2959SOL     OW 9775   5.978   2.350   2.858
 2959SOL    HW1 9776   5.983   2.317   2.953
 2959SOL    HW2 9777   6.011   2.445   2.854
 2960SOL     OW 9778   3.970   0.498   0.467
 2960SOL    HW1 9779   4.036   0.516   0.395
 2960SOL    HW2 9780   4.018   0.466   0.549
 2961SOL     OW 9781   5.988   4.437   2.448
 2961SOL    HW1 9782   6.032   4.360   2.495
 2961SOL    HW2 9783   6.057   4.505   2.423
 2962SOL     OW 9784   6.179   6.700   2.490
 2962SOL    HW1 9785   6.196   6.681   2.393
 2962SOL    HW2 9786   6.120   6.781   2.498
 2963SOL     OW 9787   0.882   0.649   5.985
 2963SOL    HW1 9788   0.837   0.594   6.055
 2963SOL    HW2 9789   0.926   0.727   6.027
 2964SOL     OW 9790   0.711   2.459   6.933
 2964SOL    HW1 9791   0.623   2.468   6.886
 2964SOL    HW2 9792   0.757   2.548   6.935
 2965SOL     OW 9793   1.024   0.326   4.628
 2965SOL    HW1 9794   1.069   0.275   4.556
 2965SOL    HW2 9795   0.964   0.395   4.588
 2966SOL     OW 9796   4.425   5.540   3.641
 2966SOL    HW1 9797   4.422   5.517   3.544
 2966SOL    HW2 9798   4.475   5.469   3.690
 2967SOL     OW 9799   6.430   0.624   5.428
 2967SOL    HW1 9800   6.446   0.714   5.467
 2967SOL    HW2 9801   6.331   0.606   5.424
 2968SOL     OW 9802   2.179   2.408   1.214
 2968SOL    HW1 9803   2.146   2.411   1.309
 2968SOL    HW2 9804   2.160   2.495   1.169
 2969SOL     OW 9805   5.312   3.827   4.394
 2969SOL    HW1 9806   5.300   3.760   4.468
 2969SOL    HW2 9807   5.403   3.868   4.400
 2970SOL     OW 9808   2.438   2.815   5.318
 2970SOL    HW1 9809   2.353   2.868   5.328
 2970SOL    HW2 9810   2.501   2.864   5.258
 2971SOL     OW 9811   5.365   4.080   0.211
 2971SOL    HW1 9812   5.377   4.000   0.270
 2971SOL    HW2 9813   5.414   4.066   0.125
 2972SOL     OW 9814   6.025   5.475   6.411
 2972SOL    HW1 9815   5.994   5.419   6.334
 2972SOL    HW2 9816   6.121   5.500   6.398
 2973SOL     OW 9817   5.177   6.676   1.879
 2973SOL    HW1 9818   5.152   6.626   1.962
 2973SOL    HW2 9819   5.234   6.618   1.821
 2974SOL     OW 9820   5.994   4.903   3.410
 2974SOL    HW1 9821   5.954   4.827   3.359
 2974SOL    HW2 9822   5.933   4.929   3.485
 2975SOL     OW 9823   4.717   4.637   4.261
 2975SOL    HW1 9824   4.788   4.612   4.326
 2975SOL    HW2 9825   4.648   4.693   4.306
 2976SOL     OW 9826   4.878   2.256   2.782
 2976SOL    HW1 9827   4.831   2.233   2.697
 2976SOL    HW2 9828   4.977   2.247   2.770
 2977SOL     OW 9829   0.415   0.193   1.978
 2977SOL    HW1 9830   0.328   0.236   2.001
 2977SOL    HW2 9831   0.472   0.259   1.927
 2978SOL     OW 9832   4.614   4.393   6.195
 2978SOL    HW1 9833   4.660   4.481   6.207
 2978SOL    HW2 9834   4.592   4.355   6.285
 2979SOL     OW 9835   3.005   1.595   4.883
 2979SOL    HW1 9836   3.048   1.634   4.802
 2979SOL    HW2 9837   2.978   1.501   4.864
 2980SOL     OW 9838   4.167   4.056   6.238
 2980SOL    HW1 9839   4.114   3.973   6.255
 2980SOL    HW2 9840   4.170   4.073   6.139
 2981SOL     OW 9841   1.917   1.231   0.906
 2981SOL    HW1 9842   1.997   1.213   0.849
 2981SOL    HW2 9843   1.941   1.294   0.979
 2982SOL     OW 9844   1.534   6.753   2.187
 2982SOL    HW1 9845   1.504   6.667   2.228
 2982SOL    HW2 9846   1.574   6.736   2.097
 2983SOL     OW 9847   6.253   2.991   6.886
 2983SOL    HW1 9848   6.294   3.042   6.810
 2983SOL    HW2 9849   6.295   3.020   6.972
 2984SOL     OW 9850   6.435   5.169   0.112
 2984SOL    HW1 9851   6.408   5.217   0.195
 2984SOL    HW2 9852   6.354   5.127   0.070
 2985SOL     OW 9853   0.457   0.327   4.463
 2985SOL    HW1 9854   0.436   0.229   4.463
 2985SOL    HW2 9855   0.377   0.379   4.432
 2986SOL     OW 9856   3.285   4.035   2.732
 2986SOL    HW1 9857   3.313   4.018   2.637
 2986SOL    HW2 9858   3.365   4.059   2.787
 2987SOL     OW 9859   0.930   2.172   4.414
 2987SOL    HW1 9860   0.890   2.256   4.451
 2987SOL    HW2 9861   0.881   2.093   4.451
 2988SOL     OW 9862   0.948   1.254   1.390
 2988SOL    HW1 9863   0.873   1.274   1.328
 2988SOL    HW2 9864   1.002   1.337   1.404
 2989SOL     OW 9865   5.185   3.153   4.984
 2989SOL    HW1 9866   5.089   3.154   4.955
 2989SOL    HW2 9867   5.199   3.219   5.057
 2990SOL     OW 9868   4.897   1.879   4.569
 2990SOL    HW1 9869   4.936   1.963   4.606
 2990SOL    HW2 9870   4.945   1.800   4.609
 2991SOL     OW 9871   5.944   3.369   0.676
 2991SOL    HW1 9872   5.983   3.295   0.730
 2991SOL    HW2 9873   5.994   3.454   0.696
 2992SOL     OW 9874   1.015   3.577   5.251
 2992SOL    HW1 9875   1.062   3.516   5.314
 2992SOL    HW2 9876   1.083   3.629   5.198
 2993SOL     OW 9877   0.987   4.828   6.947
 2993SOL    HW1 9878   0.891   4.814   6.973
 2993SOL    HW2 9879   0.995   4.820   6.847
 2994SOL     OW 9880   4.502   5.874   0.044
 2994SOL    HW1 9881   4.575   5.820   0.000
 2994SOL    HW2 9882   4.460   5.820   0.116
 2995SOL     OW 9883   4.550   0.427   0.542
 2995SOL    HW1 9884   4.639   0.473   0.545
 2995SOL    HW2 9885   4.543   0.375   0.457
 2996SOL     OW 9886   1.510   2.052   4.935
 2996SOL    HW1 9887   1.585   2.063   5.000
 2996SOL    HW2 9888   1.529   1.975   4.874
 2997SOL     OW 9889   5.037   0.593   3.501
 2997SOL    HW1 9890   5.001   0.686   3.495
 2997SOL    HW2 9891   4.988   0.541   3.571
 2998SOL     OW 9892   2.548   0.706   3.458
 2998SOL    HW1 9893   2.456   0.698   3.497
 2998SOL    HW2 9894   2.544   0.761   3.375
 2999SOL     OW 9895   2.888   4.402   0.229
 2999SOL    HW1 9896   2.941   4.482   0.257
 2999SOL    HW2 9897   2.814   4.386   0.295
 3000SOL     OW 9898   2.897   3.591   5.568
 3000SOL    HW1 9899   2.955   3.524   5.521
 3000SOL    HW2 9900   2.813   3.604   5.516
 3001SOL     OW 9901   5.847   1.361   6.449
 3001SOL    HW1 9902   5.848   1.264   6.425
 3001SOL    HW2 9903   5.889   1.414   6.375
 3002SOL     OW 9904   3.028   1.096   1.315
 3002SOL    HW1 9905   3.040   1.000   1.293
 3002SOL    HW2 9906   3.005   1.147   1.231
 3003SOL     OW 9907   0.802   6.021   0.591
 3003SOL    HW1 9908   0.870   6.010   0.664
 3003SOL    HW2 9909   0.837   5.979   0.507
 3004SOL     OW 9910   2.837   4.753   3.972
 3004SOL    HW1 9911   2.741   4.731   3.986
 3004SOL    HW2 9912   2.857   4.753   3.874
 3005SOL     OW 9913   1.196   2.914   5.535
 3005SOL    HW1 9914   1.291   2.934   5.511
 3005SOL    HW2 9915   1.155   2.995   5.577
 3006SOL     OW 9916   5.532   1.928   5.470
 3006SOL    HW1 9917   5.551   1.977   5.555
 3006SOL    HW2 9918   5.512   1.832   5.490
 3007SOL     OW 9919   5.188   5.512   0.098
 3007SOL    HW1 9920   5.266   5.470   0.145
 3007SOL    HW2 9921   5.222   5.584   0.036
 3008SOL     OW 9922   4.263   2.018   5.927
 3008SOL    HW1 9923   4.228   1.955   5.857
 3008SOL    HW2 9924   4.202   2.097   5.934
 3009SOL     OW 9925   0.215   2.809   3.191
 3009SOL    HW1 9926   0.169   2.864   3.261
 3009SOL    HW2 9927   0.249   2.724   3.233
 3010SOL     OW 9928   4.275   5.340   6.316
 3010SOL    HW1 9929   4.342   5.401   6.361
 3010SOL    HW2 9930   4.205   5.314   6.382
 3011SOL     OW 9931   5.946   6.914   1.469
 3011SOL    HW1 9932   5.940   6.815   1.458
 3011SOL    HW2 9933   6.028   6.936   1.522
 3012SOL     OW 9934   2.815   3.259   6.457
 3012SOL    HW1 9935   2.884   3.320   6.496
 3012SOL    HW2 9936   2.724   3.297   6.472
 3013SOL     OW 9937   0.247   6.315   3.907
 3013SOL    HW1 9938   0.294   6.228   3.895
 3013SOL    HW2 9939   0.148   6.300   3.903
 3014SOL     OW 9940   4.920   1.181   5.194
 3014SOL    HW1 9941   4.976   1.261   5.174
 3014SOL    HW2 9942   4.965   1.125   5.263
 3015SOL     OW 9943   1.541   0.970   0.363
 3015SOL    HW1 9944   1.583   1.039   0.304
 3015SOL    HW2 9945   1.446   0.955   0.336
 3016SOL     OW 9946   2.820   6.762   4.352
 3016SOL    HW1 9947   2.905   6.796   4.393
 3016SOL    HW2 9948   2.839   6.675   4.305
 3017SOL     OW 9949   6.660   5.805   1.656
 3017SOL    HW1 9950   6.758   5.794   1.668
 3017SOL    HW2 9951   6.612   5.727   1.697
 3018SOL     OW 9952   3.451   6.846   0.448
 3018SOL    HW1 9953   3.442   6.943   0.426
 3018SOL    HW2 9954   3.542   6.814   0.422
 3019SOL     OW 9955   1.394   6.100   6.522
 3019SOL    HW1 9956   1.369   6.044   6.601
 3019SOL    HW2 9957   1.310   6.134   6.479
 3020SOL     OW 9958   5.513   3.381   6.793
 3020SOL    HW1 9959   5.584   3.375   6.863
 3020SOL    HW2 9960   5.466   3.293   6.787
 3021SOL     OW 9961   3.167   6.389   4.705
 3021SOL    HW1 9962   3.167   6.381   4.605
 3021SOL    HW2 9963   3.248   6.440   4.734
 3022SOL     OW 9964   3.584   5.959   3.453
 3022SOL    HW1 9965   3.669   5.980   3.404
 3022SOL    HW2 9966   3.507   5.963   3.389
 3023SOL     OW 9967   4.475   6.763   2.760
 3023SOL    HW1 9968   4.473   6.827   2.837
 3023SOL    HW2 9969   4.395   6.704   2.764
 3024SOL     OW 9970   0.197   6.387   5.899
 3024SOL    HW1 9971   0.117   6.355   5.848
 3024SOL    HW2 9972   0.167   6.441   5.977
 3025SOL     OW 9973   4.005   5.990   0.801
 3025SOL    HW1 9974   3.938   5.947   0.740
 3025SOL    HW2 9975   4.098   5.968   0.770
 3026SOL     OW 9976   5.663   1.497   0.647
 3026SOL    HW1 9977   5.662   1.581   0.701
 3026SOL    HW2 9978   5.719   1.511   0.565
 3027SOL     OW 9979   4.801   1.910   1.924
 3027SOL    HW1 9980   4.834   1.897   1.830
 3027SOL    HW2 9981   4.711   1.868   1.933
 3028SOL     OW 9982   2.177   4.209   6.536
 3028SOL    HW1 9983   2.109   4.246   6.598
 3028SOL    HW2 9984   2.154   4.114   6.513
 3029SOL     OW 9985   1.005   2.619   4.403
 3029SOL    HW1 9986   1.099   2.628   4.435
 3029SOL    HW2 9987   1.000   2.551   4.331
 3030SOL     OW 9988   1.540   4.124   1.510
 3030SOL    HW1 9989   1.554   4.025   1.517
 3030SOL    HW2 9990   1.583   4.158   1.426
 3031SOL     OW 9991   1.476   5.560   1.146
 3031SOL    HW1 9992   1.511   5.527   1.234
 3031SOL    HW2 9993   1.376   5.557   1.147
 3032SOL     OW 9994   1.734   0.190   3.089
 3032SOL    HW1 9995   1.778   0.112   3.133
 3032SOL    HW2 9996   1.739   0.179   2.990
 3033SOL     OW 9997   6.346   2.723   4.258
 3033SOL    HW1 9998   6.430   2.701   4.208
 3033SOL    HW2 9999   6.323   2.648   4.320
 3034SOL     OW10000   0.679   5.904   3.635
 3034SOL    HW110001   0.746   5.977   3.646
 3034SOL    HW210002   0.660   5.862   3.724
 3035SOL     OW10003   1.522   2.528   6.117
 3035SOL    HW110004   1.495   2.549   6.210
 3035SOL    HW210005   1.603   2.469   6.118
 3036SOL     OW10006   1.859   2.288   6.389
 3036SOL    HW110007   1.886   2.200   6.429
 3036SOL    HW210008   1.865   2.359   6.459
 3037SOL     OW10009   0.621   5.025   5.913
 3037SOL    HW110010   0.634   4.930   5.885
 3037SOL    HW210011   0.538   5.061   5.871
 3038SOL     OW10012   5.073   5.168   6.190
 3038SOL    HW110013   5.113   5.255   6.159
 3038SOL    HW210014   5.125   5.092   6.153
 3039SOL     OW10015   6.299   3.611   0.076
 3039SOL    HW110016   6.265   3.580   7.010
 3039SOL    HW210017   6.227   3.600   0.144
 3040SOL     OW10018   3.588   4.120   5.929
 3040SOL    HW110019   3.529   4.115   5.848
 3040SOL    HW210020   3.531   4.126   6.011
 3041SOL     OW10021   1.890   4.142   4.996
 3041SOL    HW110022   1.840   4.083   5.059
 3041SOL    HW210023   1.929   4.219   5.046
 3042SOL     OW10024   0.402   5.276   3.433
 3042SOL    HW110025   0.445   5.299   3.345
 3042SOL    HW210026   0.436   5.338   3.504
 3043SOL     OW10027   2.795   3.683   0.806
 3043SOL    HW110028   2.753   3.623   0.874
 3043SOL    HW210029   2.883   3.645   0.778
 3044SOL     OW10030   3.512   3.652   4.958
 3044SOL    HW110031   3.497   3.628   4.862
 3044SOL    HW210032   3.522   3.569   5.012
 3045SOL     OW10033   5.114   1.401   3.302
 3045SOL    HW110034   5.103   1.447   3.390
 3045SOL    HW210035   5.063   1.452   3.232
 3046SOL     OW10036   5.524   5.535   0.610
 3046SOL    HW110037   5.474   5.470   0.667
 3046SOL    HW210038   5.616   5.548   0.647
 3047SOL     OW10039   6.191   0.568   7.017
 3047SOL    HW110040   6.195   0.468   7.004
 3047SOL    HW210041   6.258   0.595   0.062
 3048SOL     OW10042   4.528   3.058   1.063
 3048SOL    HW110043   4.598   3.022   1.002
 3048SOL    HW210044   4.492   2.985   1.121
 3049SOL     OW10045   1.213   0.362   4.222
 3049SOL    HW110046   1.147   0.371   4.147
 3049SOL    HW210047   1.303   0.342   4.183
 3050SOL     OW10048   2.743   2.300   1.267
 3050SOL    HW110049   2.830   2.305   1.217
 3050SOL    HW210050   2.670   2.272   1.205
 3051SOL     OW10051   2.957   6.799   5.380
 3051SOL    HW110052   2.955   6.899   5.374
 3051SOL    HW210053   2.874   6.767   5.425
 3052SOL     OW10054   5.971   6.134   2.236
 3052SOL    HW110055   5.968   6.225   2.278
 3052SOL    HW210056   5.913   6.072   2.288
 3053SOL     OW10057   1.879   4.051   0.125
 3053SOL    HW110058   1.912   4.010   0.210
 3053SOL    HW210059   1.926   4.138   0.109
 3054SOL     OW10060   5.439   1.259   2.891
 3054SOL    HW110061   5.476   1.317   2.963
 3054SOL    HW210062   5.514   1.220   2.837
 3055SOL     OW10063   6.198   6.308   6.565
 3055SOL    HW110064   6.289   6.266   6.574
 3055SOL    HW210065   6.193   6.358   6.479
 3056SOL     OW10066   4.894   1.721   6.198
 3056SOL    HW110067   4.906   1.813   6.236
 3056SOL    HW210068   4.892   1.726   6.098
 3057SOL     OW10069   5.425   5.601   3.342
 3057SOL    HW110070   5.335   5.571   3.312
 3057SOL    HW210071   5.474   5.642   3.266
 3058SOL     OW10072   5.968   4.458   0.559
 3058SOL    HW110073   5.887   4.406   0.531
 3058SOL    HW210074   6.000   4.514   0.483
 3059SOL     OW10075   2.334   2.796   4.286
 3059SOL    HW110076   2.314   2.849   4.204
 3059SOL    HW210077   2.398   2.723   4.264
 3060SOL     OW10078   3.128   4.955   5.586
 3060SOL    HW110079   3.047   4.912   5.545
 3060SOL    HW210080   3.204   4.891   5.585
 3061SOL     OW10081   5.198   4.880   5.571
 3061SOL    HW110082   5.207   4.977   5.549
 3061SOL    HW210083   5.289   4.840   5.580
 3062SOL     OW10084   4.194   4.450   1.618
 3062SOL    HW110085   4.159   4.537   1.653
 3062SOL    HW210086   4.118   4.386   1.605
 3063SOL     OW10087   0.780   3.892   1.452
 3063SOL    HW110088   0.698   3.880   1.397
 3063SOL    HW210089   0.784   3.986   1.487
 3064SOL     OW10090   3.786   2.397   6.787
 3064SOL    HW110091   3.817   2.325   6.725
 3064SOL    HW210092   3.851   2.472   6.787
 3065SOL     OW10093   1.158   0.873   6.861
 3065SOL    HW110094   1.104   0.957   6.868
 3065SOL    HW210095   1.124   0.819   6.784
 3066SOL     OW10096   4.785   5.412   5.464
 3066SOL    HW110097   4.884   5.399   5.461
 3066SOL    HW210098   4.761   5.496   5.416
 3067SOL     OW10099   2.752   1.504   6.699
 3067SOL    HW110100   2.753   1.445   6.618
 3067SOL    HW210101   2.842   1.544   6.712
 3068SOL     OW10102   0.560   1.197   1.044
 3068SOL    HW110103   0.660   1.202   1.042
 3068SOL    HW210104   0.529   1.194   1.139
 3069SOL     OW10105   5.248   6.801   3.173
 3069SOL    HW110106   5.237   6.734   3.099
 3069SOL    HW210107   5.169   6.862   3.174
 3070SOL     OW10108   2.840   1.360   0.060
 3070SOL    HW110109   2.852   1.437   0.124
 3070SOL    HW210110   2.887   1.380   6.998
 3071SOL     OW10111   0.195   3.710   3.403
 3071SOL    HW110112   0.149   3.790   3.366
 3071SOL    HW210113   0.290   3.709   3.374
 3072SOL     OW10114   1.800   5.890   6.779
 3072SOL    HW110115   1.713   5.868   6.736
 3072SOL    HW210116   1.786   5.955   6.853
 3073SOL     OW10117   6.465   4.509   0.396
 3073SOL    HW110118   6.471   4.564   0.479
 3073SOL    HW210119   6.395   4.547   0.335
 3074SOL     OW10120   1.109   3.805   0.700
 3074SOL    HW110121   1.052   3.725   0.720
 3074SOL    HW210122   1.130   3.853   0.785
 3075SOL     OW10123   2.547   5.212   3.754
 3075SOL    HW110124   2.531   5.307   3.777
 3075SOL    HW210125   2.585   5.164   3.833
 3076SOL     OW10126   0.385   1.545   5.000
 3076SOL    HW110127   0.462   1.563   4.939
 3076SOL    HW210128   0.316   1.491   4.952
 3077SOL     OW10129   6.287   3.673   1.145
 3077SOL    HW110130   6.346   3.600   1.110
 3077SOL    HW210131   6.342   3.741   1.194
 3078SOL     OW10132   6.581   2.959   1.647
 3078SOL    HW110133   6.550   3.047   1.684
 3078SOL    HW210134   6.516   2.887   1.672
 3079SOL     OW10135   2.155   2.563   5.067
 3079SOL    HW110136   2.188   2.469   5.071
 3079SOL    HW210137   2.215   2.617   5.008
 3080SOL     OW10138   4.345   4.892   1.130
 3080SOL    HW110139   4.348   4.991   1.138
 3080SOL    HW210140   4.334   4.852   1.222
 3081SOL     OW10141   1.390   4.073   0.775
 3081SOL    HW110142   1.333   4.065   0.694
 3081SOL    HW210143   1.457   3.999   0.776
 3082SOL     OW10144   3.586   5.299   4.321
 3082SOL    HW110145   3.614   5.246   4.241
 3082SOL    HW210146   3.487   5.312   4.320
 3083SOL     OW10147   2.293   5.903   2.624
 3083SOL    HW110148   2.198   5.886   2.599
 3083SOL    HW210149   2.351   5.896   2.543
 3084SOL     OW10150   0.827   3.563   3.249
 3084SOL    HW110151   0.747   3.624   3.249
 3084SOL    HW210152   0.883   3.582   3.329
 3085SOL     OW10153   4.458   5.048   0.796
 3085SOL    HW110154   4.497   5.137   0.817
 3085SOL    HW210155   4.472   5.027   0.699
 3086SOL     OW10156   5.927   1.381   6.971
 3086SOL    HW110157   5.929   1.411   6.876
 3086SOL    HW210158   5.938   1.282   6.975
 3087SOL     OW10159   2.659   6.933   1.764
 3087SOL    HW110160   2.570   6.948   1.808
 3087SOL    HW210161   2.649   6.942   1.665
 3088SOL     OW10162   0.575   2.604   5.662
 3088SOL    HW110163   0.611   2.676   5.602
 3088SOL    HW210164   0.572   2.637   5.756
 3089SOL     OW10165   4.957   0.371   4.727
 3089SOL    HW110166   4.961   0.452   4.785
 3089SOL    HW210167   5.021   0.381   4.650
 3090SOL     OW10168   1.082   1.470   1.432
 3090SOL    HW110169   1.165   1.483   1.486
 3090SOL    HW210170   1.024   1.551   1.442
 3091SOL     OW10171   1.181   1.484   1.040
 3091SOL    HW110172   1.117   1.529   0.978
 3091SOL    HW210173   1.217   1.402   0.996
 3092SOL     OW10174   5.316   6.841   2.233
 3092SOL    HW110175   5.413   6.832   2.212
 3092SOL    HW210176   5.291   6.776   2.305
 3093SOL     OW10177   5.741   5.374   6.159
 3093SOL    HW110178   5.677   5.436   6.204
 3093SOL    HW210179   5.723   5.372   6.060
 3094SOL     OW10180   2.837   1.018   5.531
 3094SOL    HW110181   2.905   1.077   5.487
 3094SOL    HW210182   2.795   0.959   5.463
 3095SOL     OW10183   2.761   3.137   5.316
 3095SOL    HW110184   2.726   3.221   5.359
 3095SOL    HW210185   2.685   3.086   5.276
 3096SOL     OW10186   1.045   3.312   4.913
 3096SOL    HW110187   0.968   3.340   4.972
 3096SOL    HW210188   1.010   3.288   4.822
 3097SOL     OW10189   6.087   2.073   6.326
 3097SOL    HW110190   5.992   2.061   6.298
 3097SOL    HW210191   6.137   1.987   6.315
 3098SOL     OW10192   2.014   1.704   2.195
 3098SOL    HW110193   2.026   1.605   2.190
 3098SOL    HW210194   2.082   1.748   2.136
 3099SOL     OW10195   0.642   6.585   4.020
 3099SOL    HW110196   0.578   6.524   3.974
 3099SOL    HW210197   0.594   6.639   4.088
 3100SOL     OW10198   6.327   6.513   2.866
 3100SOL    HW110199   6.314   6.585   2.934
 3100SOL    HW210200   6.296   6.545   2.777
 3101SOL     OW10201   4.477   6.741   5.658
 3101SOL    HW110202   4.452   6.655   5.704
 3101SOL    HW210203   4.554   6.783   5.706
 3102SOL     OW10204   0.053   5.658   0.356
 3102SOL    HW110205   0.003   5.687   0.275
 3102SOL    HW210206   0.007   5.692   0.438
 3103SOL     OW10207   3.356   0.092   1.182
 3103SOL    HW110208   3.381   0.188   1.194
 3103SOL    HW210209   3.436   0.035   1.201
 3104SOL     OW10210   4.645   0.460   6.209
 3104SOL    HW110211   4.670   0.462   6.112
 3104SOL    HW210212   4.552   0.424   6.219
 3105SOL     OW10213   5.131   3.231   0.018
 3105SOL    HW110214   5.047   3.210   0.068
 3105SOL    HW210215   5.190   3.150   0.016
 3106SOL     OW10216   5.710   1.136   4.718
 3106SOL    HW110217   5.646   1.107   4.789
 3106SOL    HW210218   5.752   1.055   4.677
 3107SOL     OW10219   4.354   1.589   4.973
 3107SOL    HW110220   4.334   1.493   4.951
 3107SOL    HW210221   4.296   1.648   4.917
 3108SOL     OW10222   2.500   4.512   4.557
 3108SOL    HW110223   2.471   4.470   4.643
 3108SOL    HW210224   2.517   4.440   4.489
 3109SOL     OW10225   6.426   6.852   4.219
 3109SOL    HW110226   6.361   6.927   4.210
 3109SOL    HW210227   6.446   6.814   4.128
 3110SOL     OW10228   2.324   4.757   3.313
 3110SOL    HW110229   2.357   4.741   3.220
 3110SOL    HW210230   2.246   4.819   3.310
 3111SOL     OW10231   6.229   4.742   4.954
 3111SOL    HW110232   6.141   4.786   4.937
 3111SOL    HW210233   6.301   4.812   4.959
 3112SOL     OW10234   4.083   2.671   0.257
 3112SOL    HW110235   4.086   2.664   0.357
 3112SOL    HW210236   4.002   2.723   0.230
 3113SOL     OW10237   2.607   5.999   2.840
 3113SOL    HW110238   2.569   5.948   2.763
 3113SOL    HW210239   2.692   5.957   2.870
 3114SOL     OW10240   3.534   1.671   0.312
 3114SOL    HW110241   3.519   1.650   0.215
 3114SOL    HW210242   3.464   1.624   0.366
 3115SOL     OW10243   4.135   4.284   5.308
 3115SOL    HW110244   4.214   4.323   5.261
 3115SOL    HW210245   4.140   4.184   5.303
 3116SOL     OW10246   0.241   2.456   0.905
 3116SOL    HW110247   0.311   2.385   0.897
 3116SOL    HW210248   0.220   2.472   1.001
 3117SOL     OW10249   5.005   2.066   5.445
 3117SOL    HW110250   4.922   2.121   5.439
 3117SOL    HW210251   5.021   2.040   5.540
 3118SOL     OW10252   1.626   0.492   2.804
 3118SOL    HW110253   1.576   0.453   2.881
 3118SOL    HW210254   1.725   0.478   2.817
 3119SOL     OW10255   3.877   2.970   5.793
 3119SOL    HW110256   3.863   2.933   5.701
 3119SOL    HW210257   3.974   2.973   5.814
 3120SOL     OW10258   3.035   0.358   5.384
 3120SOL    HW110259   3.114   0.333   5.328
 3120SOL    HW210260   3.063   0.427   5.451
 3121SOL     OW10261   4.883   1.811   4.276
 3121SOL    HW110262   4.855   1.818   4.372
 3121SOL    HW210263   4.819   1.753   4.226
 3122SOL     OW10264   4.335   4.657   4.219
 3122SOL    HW110265   4.337   4.717   4.139
 3122SOL    HW210266   4.404   4.586   4.209
 3123SOL     OW10267   2.276   1.881   3.156
 3123SOL    HW110268   2.243   1.945   3.226
 3123SOL    HW210269   2.376   1.876   3.160
 3124SOL     OW10270   5.258   6.738   4.586
 3124SOL    HW110271   5.185   6.797   4.620
 3124SOL    HW210272   5.329   6.793   4.544
 3125SOL     OW10273   1.427   2.446   5.506
 3125SOL    HW110274   1.356   2.431   5.575
 3125SOL    HW210275   1.399   2.519   5.444
 3126SOL     OW10276   5.817   5.859   4.588
 3126SOL    HW110277   5.804   5.821   4.679
 3126SOL    HW210278   5.791   5.955   4.588
 3127SOL     OW10279   0.787   2.362   4.539
 3127SOL    HW110280   0.778   2.308   4.623
 3127SOL    HW210281   0.732   2.445   4.548
 3128SOL     OW10282   3.721   0.048   0.552
 3128SOL    HW110283   3.770   0.126   0.515
 3128SOL    HW210284   3.644   0.080   0.609
 3129SOL     OW10285   4.797   3.082   0.926
 3129SOL    HW110286   4.783   3.181   0.924
 3129SOL    HW210287   4.849   3.057   1.008
 3130SOL     OW10288   1.829   3.842   1.148
 3130SOL    HW110289   1.891   3.863   1.072
 3130SOL    HW210290   1.876   3.784   1.214
 3131SOL     OW10291   0.093   3.989   1.669
 3131SOL    HW110292   0.155   4.013   1.743
 3131SOL    HW210293   0.095   4.060   1.599
 3132SOL     OW10294   3.766   4.211   0.272
 3132SOL    HW110295   3.724   4.302   0.264
 3132SOL    HW210296   3.865   4.219   0.257
 3133SOL     OW10297   3.965   0.055   3.201
 3133SOL    HW110298   4.013   0.037   3.115
 3133SOL    HW210299   4.018   0.119   3.256
 3134SOL     OW10300   3.077   4.844   2.178
 3134SOL    HW110301   3.081   4.820   2.081
 3134SOL    HW210302   3.157   4.807   2.225
 3135SOL     OW10303   5.771   6.957   6.044
 3135SOL    HW110304   5.855   6.947   6.097
 3135SOL    HW210305   5.781   6.909   5.956
 3136SOL     OW10306   6.082   1.060   2.386
 3136SOL    HW110307   5.984   1.055   2.370
 3136SOL    HW210308   6.102   1.133   2.451
 3137SOL     OW10309   6.293   0.047   0.431
 3137SOL    HW110310   6.360   0.121   0.422
 3137SOL    HW210311   6.210   0.082   0.474
 3138SOL     OW10312   5.478   5.653   3.940
 3138SOL    HW110313   5.407   5.608   3.886
 3138SOL    HW210314   5.527   5.585   3.995
 3139SOL     OW10315   2.390   5.125   1.370
 3139SOL    HW110316   2.304   5.122   1.321
 3139SOL    HW210317   2.401   5.214   1.414
 3140SOL     OW10318   6.159   6.776   5.664
 3140SOL    HW110319   6.137   6.760   5.761
 3140SOL    HW210320   6.103   6.852   5.630
 3141SOL     OW10321   0.363   2.336   6.919
 3141SOL    HW110322   0.275   2.315   6.962
 3141SOL    HW210323   0.363   2.430   6.886
 3142SOL     OW10324   4.589   0.512   2.542
 3142SOL    HW110325   4.658   0.473   2.481
 3142SOL    HW210326   4.632   0.576   2.605
 3143SOL     OW10327   6.084   1.881   0.313
 3143SOL    HW110328   5.985   1.892   0.322
 3143SOL    HW210329   6.121   1.957   0.259
 3144SOL     OW10330   4.512   3.986   6.604
 3144SOL    HW110331   4.458   4.010   6.523
 3144SOL    HW210332   4.450   3.962   6.679
 3145SOL     OW10333   2.792   6.694   1.834
 3145SOL    HW110334   2.812   6.682   1.736
 3145SOL    HW210335   2.699   6.730   1.845
 3146SOL     OW10336   0.844   0.914   4.997
 3146SOL    HW110337   0.776   0.843   5.015
 3146SOL    HW210338   0.906   0.922   5.075
 3147SOL     OW10339   3.445   4.868   6.222
 3147SOL    HW110340   3.496   4.854   6.137
 3147SOL    HW210341   3.403   4.782   6.251
 3148SOL     OW10342   0.543   6.558   2.969
 3148SOL    HW110343   0.526   6.592   2.876
 3148SOL    HW210344   0.542   6.635   3.033
 3149SOL     OW10345   3.253   1.278   0.447
 3149SOL    HW110346   3.209   1.236   0.368
 3149SOL    HW210347   3.230   1.227   0.529
 3150SOL     OW10348   6.034   6.267   5.368
 3150SOL    HW110349   6.046   6.192   5.433
 3150SOL    HW210350   6.022   6.230   5.276
 3151SOL     OW10351   6.339   1.889   5.951
 3151SOL    HW110352   6.377   1.981   5.958
 3151SOL    HW210353   6.350   1.855   5.857
 3152SOL     OW10354   1.694   3.868   6.681
 3152SOL    HW110355   1.695   3.811   6.599
 3152SOL    HW210356   1.600   3.873   6.717
 3153SOL     OW10357   6.511   5.129   0.518
 3153SOL    HW110358   6.515   5.063   0.593
 3153SOL    HW210359   6.597   5.126   0.466
 3154SOL     OW10360   5.634   1.666   1.641
 3154SOL    HW110361   5.539   1.649   1.666
 3154SOL    HW210362   5.638   1.721   1.558
 3155SOL     OW10363   6.268   4.876   0.099
 3155SOL    HW110364   6.169   4.871   0.087
 3155SOL    HW210365   6.314   4.837   0.019
 3156SOL     OW10366   3.527   4.082   2.244
 3156SOL    HW110367   3.540   4.120   2.152
 3156SOL    HW210368   3.615   4.052   2.281
 3157SOL     OW10369   1.320   2.048   5.254
 3157SOL    HW110370   1.250   2.012   5.191
 3157SOL    HW210371   1.395   1.982   5.262
 3158SOL     OW10372   2.935   2.206   5.583
 3158SOL    HW110373   2.851   2.254   5.558
 3158SOL    HW210374   3.004   2.223   5.512
 3159SOL     OW10375   4.424   6.820   0.568
 3159SOL    HW110376   4.357   6.870   0.623
 3159SOL    HW210377   4.510   6.871   0.566
 3160SOL     OW10378   2.151   0.124   5.649
 3160SOL    HW110379   2.144   0.090   5.743
 3160SOL    HW210380   2.139   0.223   5.648
 3161SOL     OW10381   1.740   2.628   2.361
 3161SOL    HW110382   1.784   2.539   2.364
 3161SOL    HW210383   1.773   2.679   2.282
 3162SOL     OW10384   1.834   5.456   6.869
 3162SOL    HW110385   1.896   5.524   6.908
 3162SOL    HW210386   1.777   5.499   6.800
 3163SOL     OW10387   4.288   3.554   0.550
 3163SOL    HW110388   4.264   3.546   0.453
 3163SOL    HW210389   4.210   3.528   0.606
 3164SOL     OW10390   2.861   5.588   2.515
 3164SOL    HW110391   2.782   5.590   2.453
 3164SOL    HW210392   2.940   5.550   2.467
 3165SOL     OW10393   0.585   4.919   0.133
 3165SOL    HW110394   0.578   4.890   0.229
 3165SOL    HW210395   0.667   4.976   0.122
 3166SOL     OW10396   3.873   1.132   4.539
 3166SOL    HW110397   3.864   1.155   4.443
 3166SOL    HW210398   3.945   1.188   4.580
 3167SOL     OW10399   4.811   3.947   0.142
 3167SOL    HW110400   4.722   3.977   0.175
 3167SOL    HW210401   4.879   3.957   0.215
 3168SOL     OW10402   4.619   2.707   0.884
 3168SOL    HW110403   4.637   2.616   0.921
 3168SOL    HW210404   4.526   2.710   0.847
 3169SOL     OW10405   1.466   4.646   2.252
 3169SOL    HW110406   1.393   4.651   2.320
 3169SOL    HW210407   1.555   4.650   2.297
 3170SOL     OW10408   3.476   5.869   2.654
 3170SOL    HW110409   3.563   5.821   2.662
 3170SOL    HW210410   3.470   5.913   2.564
 3171SOL     OW10411   5.209   3.333   2.236
 3171SOL    HW110412   5.119   3.292   2.246
 3171SOL    HW210413   5.200   3.433   2.236
 3172SOL     OW10414   0.009   4.675   0.039
 3172SOL    HW110415   6.961   4.743   0.056
 3172SOL    HW210416   0.088   4.694   0.098
 3173SOL     OW10417   2.964   1.661   6.823
 3173SOL    HW110418   2.896   1.729   6.795
 3173SOL    HW210419   2.991   1.677   6.918
 3174SOL     OW10420   2.653   2.785   5.763
 3174SOL    HW110421   2.579   2.807   5.698
 3174SOL    HW210422   2.741   2.812   5.724
 3175SOL     OW10423   6.673   1.701   3.559
 3175SOL    HW110424   6.700   1.783   3.509
 3175SOL    HW210425   6.575   1.685   3.546
 3176SOL     OW10426   6.987   4.045   4.856
 3176SOL    HW110427   0.059   4.024   4.881
 3176SOL    HW210428   6.926   4.011   4.927
 3177SOL     OW10429   5.350   4.193   3.173
 3177SOL    HW110430   5.428   4.163   3.118
 3177SOL    HW210431   5.273   4.213   3.112
 3178SOL     OW10432   5.506   1.504   0.247
 3178SOL    HW110433   5.558   1.550   0.319
 3178SOL    HW210434   5.566   1.487   0.169
 3179SOL     OW10435   1.234   1.711   2.576
 3179SOL    HW110436   1.165   1.691   2.506
 3179SOL    HW210437   1.226   1.808   2.603
 3180SOL     OW10438   5.490   6.788   6.589
 3180SOL    HW110439   5.422   6.760   6.521
 3180SOL    HW210440   5.575   6.811   6.542
 3181SOL     OW10441   0.524   1.325   4.514
 3181SOL    HW110442   0.463   1.404   4.518
 3181SOL    HW210443   0.485   1.257   4.451
 3182SOL     OW10444   3.197   0.063   0.657
 3182SOL    HW110445   3.130   0.011   0.607
 3182SOL    HW210446   3.271   0.092   0.596
 3183SOL     OW10447   4.607   4.860   2.568
 3183SOL    HW110448   4.601   4.770   2.525
 3183SOL    HW210449   4.687   4.908   2.532
 3184SOL     OW10450   0.693   2.267   3.636
 3184SOL    HW110451   0.773   2.219   3.602
 3184SOL    HW210452   0.690   2.259   3.736
 3185SOL     OW10453   6.734   6.555   5.356
 3185SOL    HW110454   6.827   6.517   5.361
 3185SOL    HW210455   6.679   6.521   5.432
 3186SOL     OW10456   1.699   0.695   6.933
 3186SOL    HW110457   1.759   0.618   6.955
 3186SOL    HW210458   1.604   0.669   6.946
 3187SOL     OW10459   3.741   5.635   2.459
 3187SOL    HW110460   3.730   5.692   2.541
 3187SOL    HW210461   3.653   5.592   2.436
 3188SOL     OW10462   2.105   4.987   4.953
 3188SOL    HW110463   2.011   4.955   4.946
 3188SOL    HW210464   2.106   5.085   4.970
 3189SOL     OW10465   1.961   0.923   0.508
 3189SOL    HW110466   1.875   0.971   0.526
 3189SOL    HW210467   1.958   0.885   0.415
 3190SOL     OW10468   6.687   5.781   5.668
 3190SOL    HW110469   6.706   5.879   5.679
 3190SOL    HW210470   6.661   5.764   5.573
 3191SOL     OW10471   4.510   5.519   2.177
 3191SOL    HW110472   4.559   5.605   2.161
 3191SOL    HW210473   4.443   5.531   2.250
 3192SOL     OW10474   0.250   2.559   1.228
 3192SOL    HW110475   0.308   2.638   1.206
 3192SOL    HW210476   0.306   2.487   1.269
 3193SOL     OW10477   3.990   1.139   4.925
 3193SOL    HW110478   3.968   1.237   4.916
 3193SOL    HW210479   4.076   1.120   4.878
 3194SOL     OW10480   1.367   1.191   5.491
 3194SOL    HW110481   1.316   1.119   5.536
 3194SOL    HW210482   1.370   1.272   5.550
 3195SOL     OW10483   0.513   1.233   1.857
 3195SOL    HW110484   0.593   1.217   1.915
 3195SOL    HW210485   0.430   1.213   1.909
 3196SOL     OW10486   6.702   0.792   5.651
 3196SOL    HW110487   6.701   0.866   5.584
 3196SOL    HW210488   6.779   0.805   5.713
 3197SOL     OW10489   2.420   6.690   5.968
 3197SOL    HW110490   2.396   6.735   5.882
 3197SOL    HW210491   2.352   6.620   5.989
 3198SOL     OW10492   6.463   2.378   4.034
 3198SOL    HW110493   6.420   2.461   4.000
 3198SOL    HW210494   6.407   2.339   4.107
 3199SOL     OW10495   5.437   5.076   2.944
 3199SOL    HW110496   5.409   5.038   3.032
 3199SOL    HW210497   5.476   5.004   2.888
 3200SOL     OW10498   6.560   3.240   4.196
 3200SOL    HW110499   6.573   3.283   4.107
 3200SOL    HW210500   6.524   3.308   4.260
 3201SOL     OW10501   6.290   4.721   3.069
 3201SOL    HW110502   6.247   4.811   3.058
 3201SOL    HW210503   6.311   4.682   2.980
 3202SOL     OW10504   0.989   5.081   0.598
 3202SOL    HW110505   0.967   5.146   0.671
 3202SOL    HW210506   1.013   5.130   0.515
 3203SOL     OW10507   4.550   0.510   1.421
 3203SOL    HW110508   4.569   0.558   1.506
 3203SOL    HW210509   4.516   0.418   1.441
 3204SOL     OW10510   2.884   1.889   3.519
 3204SOL    HW110511   2.926   1.923   3.435
 3204SOL    HW210512   2.939   1.813   3.555
 3205SOL     OW10513   5.335   3.645   5.638
 3205SOL    HW110514   5.314   3.565   5.582
 3205SOL    HW210515   5.287   3.640   5.725
 3206SOL     OW10516   2.784   2.937   1.512
 3206SOL    HW110517   2.829   2.960   1.598
 3206SOL    HW210518   2.699   2.888   1.530
 3207SOL     OW10519   1.055   0.766   5.653
 3207SOL    HW110520   0.959   0.754   5.679
 3207SOL    HW210521   1.103   0.678   5.658
 3208SOL     OW10522   6.030   5.667   5.658
 3208SOL    HW110523   6.018   5.730   5.735
 3208SOL    HW210524   6.102   5.702   5.598
 3209SOL     OW10525   3.883   5.427   5.571
 3209SOL    HW110526   3.842   5.442   5.481
 3209SOL    HW210527   3.900   5.330   5.584
 3210SOL     OW10528   0.075   4.999   1.631
 3210SOL    HW110529   0.127   5.038   1.707
 3210SOL    HW210530   0.082   4.899   1.634
 3211SOL     OW10531   1.475   4.828   0.778
 3211SOL    HW110532   1.467   4.889   0.699
 3211SOL    HW210533   1.567   4.833   0.815
 3212SOL     OW10534   3.387   0.228   2.623
 3212SOL    HW110535   3.422   0.221   2.716
 3212SOL    HW210536   3.411   0.317   2.585
 3213SOL     OW10537   1.757   0.449   6.144
 3213SOL    HW110538   1.744   0.515   6.071
 3213SOL    HW210539   1.767   0.498   6.231
 3214SOL     OW10540   4.816   6.866   3.999
 3214SOL    HW110541   4.721   6.853   3.970
 3214SOL    HW210542   4.877   6.812   3.940
 3215SOL     OW10543   1.238   3.233   0.213
 3215SOL    HW110544   1.276   3.304   0.154
 3215SOL    HW210545   1.291   3.149   0.202
 3216SOL     OW10546   5.726   5.153   1.400
 3216SOL    HW110547   5.743   5.099   1.317
 3216SOL    HW210548   5.793   5.227   1.405
 3217SOL     OW10549   6.946   5.535   2.984
 3217SOL    HW110550   0.000   5.551   2.923
 3217SOL    HW210551   6.952   5.443   3.022
 3218SOL     OW10552   5.827   2.177   3.549
 3218SOL    HW110553   5.905   2.223   3.591
 3218SOL    HW210554   5.812   2.089   3.595
 3219SOL     OW10555   6.853   1.141   4.852
 3219SOL    HW110556   6.796   1.127   4.771
 3219SOL    HW210557   6.818   1.086   4.927
 3220SOL     OW10558   0.314   5.928   6.595
 3220SOL    HW110559   0.338   5.848   6.541
 3220SOL    HW210560   0.382   5.942   6.667
 3221SOL     OW10561   3.988   0.115   2.674
 3221SOL    HW110562   3.895   0.109   2.637
 3221SOL    HW210563   4.038   0.187   2.627
 3222SOL     OW10564   3.039   1.144   3.320
 3222SOL    HW110565   3.090   1.230   3.322
 3222SOL    HW210566   3.054   1.093   3.405
 3223SOL     OW10567   1.743   6.420   0.774
 3223SOL    HW110568   1.704   6.446   0.686
 3223SOL    HW210569   1.843   6.424   0.769
 3224SOL     OW10570   5.275   2.516   5.210
 3224SOL    HW110571   5.315   2.523   5.118
 3224SOL    HW210572   5.347   2.529   5.278
 3225SOL     OW10573   4.190   1.448   4.281
 3225SOL    HW110574   4.181   1.537   4.326
 3225SOL    HW210575   4.239   1.385   4.341
 3226SOL     OW10576   1.958   6.923   2.106
 3226SOL    HW110577   2.039   6.867   2.125
 3226SOL    HW210578   1.895   6.918   2.184
 3227SOL     OW10579   3.521   2.496   6.677
 3227SOL    HW110580   3.577   2.553   6.617
 3227SOL    HW210581   3.577   2.423   6.716
 3228SOL     OW10582   0.410   4.070   0.804
 3228SOL    HW110583   0.337   4.009   0.834
 3228SOL    HW210584   0.407   4.078   0.704
 3229SOL     OW10585   3.373   0.800   5.546
 3229SOL    HW110586   3.383   0.898   5.530
 3229SOL    HW210587   3.458   0.753   5.519
 3230SOL     OW10588   1.995   5.352   6.087
 3230SOL    HW110589   2.023   5.291   6.162
 3230SOL    HW210590   2.070   5.360   6.021
 3231SOL     OW10591   3.241   1.123   2.498
 3231SOL    HW110592   3.304   1.146   2.573
 3231SOL    HW210593   3.161   1.182   2.502
 3232SOL     OW10594   3.553   6.026   3.713
 3232SOL    HW110595   3.546   6.032   3.613
 3232SOL    HW210596   3.510   5.941   3.744
 3233SOL     OW10597   6.970   2.725   0.640
 3233SOL    HW110598   6.883   2.708   0.686
 3233SOL    HW210599   6.954   2.736   0.542
 3234SOL     OW10600   2.060   2.813   0.337
 3234SOL    HW110601   2.004   2.817   0.254
 3234SOL    HW210602   2.077   2.905   0.370
 3235SOL     OW10603   5.980   5.738   1.705
 3235SOL    HW110604   6.050   5.763   1.638
 3235SOL    HW210605   6.023   5.693   1.783
 3236SOL     OW10606   2.352   3.806   0.264
 3236SOL    HW110607   2.441   3.774   0.295
 3236SOL    HW210608   2.280   3.747   0.302
 3237SOL     OW10609   6.497   1.709   4.103
 3237SOL    HW110610   6.559   1.774   4.146
 3237SOL    HW210611   6.430   1.676   4.170
 3238SOL     OW10612   6.128   5.216   0.607
 3238SOL    HW110613   6.160   5.135   0.558
 3238SOL    HW210614   6.204   5.255   0.660
 3239SOL     OW10615   0.140   0.163   3.593
 3239SOL    HW110616   0.174   0.162   3.687
 3239SOL    HW210617   0.086   0.246   3.578
 3240SOL     OW10618   0.003   0.803   6.390
 3240SOL    HW110619   6.996   0.879   6.447
 3240SOL    HW210620   0.089   0.767   6.426
 3241SOL     OW10621   4.682   2.031   6.672
 3241SOL    HW110622   4.726   1.944   6.653
 3241SOL    HW210623   4.690   2.052   6.770
 3242SOL     OW10624   5.111   4.124   5.737
 3242SOL    HW110625   5.101   4.048   5.673
 3242SOL    HW210626   5.059   4.104   5.821
 3243SOL     OW10627   4.614   5.730   6.789
 3243SOL    HW110628   4.618   5.630   6.784
 3243SOL    HW210629   4.562   5.765   6.711
 3244SOL     OW10630   5.321   6.088   0.305
 3244SOL    HW110631   5.368   6.066   0.391
 3244SOL    HW210632   5.344   6.182   0.278
 3245SOL     OW10633   4.852   2.445   4.287
 3245SOL    HW110634   4.838   2.483   4.195
 3245SOL    HW210635   4.883   2.351   4.279
 3246SOL     OW10636   6.800   0.257   2.992
 3246SOL    HW110637   6.756   0.181   3.041
 3246SOL    HW210638   6.754   0.343   3.015
 3247SOL     OW10639   0.006   4.777   2.807
 3247SOL    HW110640   6.962   4.838   2.849
 3247SOL    HW210641   6.989   4.736   2.725
 3248SOL     OW10642   5.637   2.791   2.112
 3248SOL    HW110643   5.707   2.800   2.041
 3248SOL    HW210644   5.591   2.879   2.125
 3249SOL     OW10645   3.631   3.644   4.173
 3249SOL    HW110646   3.635   3.663   4.075
 3249SOL    HW210647   3.560   3.700   4.215
 3250SOL     OW10648   5.029   6.227   3.551
 3250SOL    HW110649   5.037   6.216   3.650
 3250SOL    HW210650   5.116   6.262   3.514
 3251SOL     OW10651   2.825   1.217   4.397
 3251SOL    HW110652   2.902   1.179   4.448
 3251SOL    HW210653   2.777   1.283   4.454
 3252SOL     OW10654   3.248   1.519   2.798
 3252SOL    HW110655   3.157   1.488   2.826
 3252SOL    HW210656   3.244   1.555   2.705
 3253SOL     OW10657   4.689   3.904   1.101
 3253SOL    HW110658   4.760   3.852   1.149
 3253SOL    HW210659   4.600   3.889   1.146
 3254SOL     OW10660   5.150   6.836   6.280
 3254SOL    HW110661   5.082   6.774   6.320
 3254SOL    HW210662   5.176   6.905   6.347
 3255SOL     OW10663   5.809   5.845   0.993
 3255SOL    HW110664   5.869   5.805   1.062
 3255SOL    HW210665   5.863   5.884   0.919
 3256SOL     OW10666   4.657   2.261   1.264
 3256SOL    HW110667   4.749   2.234   1.293
 3256SOL    HW210668   4.593   2.246   1.338
 3257SOL     OW10669   3.179   2.141   2.159
 3257SOL    HW110670   3.259   2.153   2.100
 3257SOL    HW210671   3.107   2.204   2.131
 3258SOL     OW10672   3.164   5.260   3.399
 3258SOL    HW110673   3.183   5.292   3.306
 3258SOL    HW210674   3.066   5.248   3.410
 3259SOL     OW10675   5.649   4.957   4.004
 3259SOL    HW110676   5.675   4.907   3.921
 3259SOL    HW210677   5.602   4.894   4.067
 3260SOL     OW10678   1.771   4.011   1.995
 3260SOL    HW110679   1.859   4.049   1.965
 3260SOL    HW210680   1.772   3.911   1.984
 3261SOL     OW10681   5.389   0.302   2.295
 3261SOL    HW110682   5.356   0.275   2.204
 3261SOL    HW210683   5.451   0.232   2.330
 3262SOL     OW10684   3.864   2.139   2.479
 3262SOL    HW110685   3.893   2.142   2.383
 3262SOL    HW210686   3.789   2.204   2.493
 3263SOL     OW10687   3.097   0.968   3.562
 3263SOL    HW110688   3.176   0.921   3.523
 3263SOL    HW210689   3.035   0.901   3.603
 3264SOL     OW10690   1.855   5.006   0.867
 3264SOL    HW110691   1.822   4.975   0.778
 3264SOL    HW210692   1.944   4.964   0.886
 3265SOL     OW10693   6.013   6.044   5.498
 3265SOL    HW110694   5.927   6.009   5.536
 3265SOL    HW210695   6.089   5.987   5.529
 3266SOL     OW10696   2.629   4.574   6.899
 3266SOL    HW110697   2.720   4.615   6.903
 3266SOL    HW210698   2.635   4.486   6.852
 3267SOL     OW10699   3.599   0.402   1.857
 3267SOL    HW110700   3.524   0.436   1.801
 3267SOL    HW210701   3.588   0.304   1.873
 3268SOL     OW10702   0.824   4.884   1.531
 3268SOL    HW110703   0.751   4.945   1.563
 3268SOL    HW210704   0.861   4.833   1.609
 3269SOL     OW10705   0.594   5.074   2.105
 3269SOL    HW110706   0.579   5.077   2.204
 3269SOL    HW210707   0.687   5.103   2.084
 3270SOL     OW10708   1.717   2.986   6.241
 3270SOL    HW110709   1.776   3.011   6.317
 3270SOL    HW210710   1.763   3.007   6.155
 3271SOL     OW10711   6.606   3.285   1.629
 3271SOL    HW110712   6.627   3.331   1.542
 3271SOL    HW210713   6.668   3.318   1.700
 3272SOL     OW10714   3.273   4.766   6.547
 3272SOL    HW110715   3.277   4.758   6.447
 3272SOL    HW210716   3.183   4.738   6.579
 3273SOL     OW10717   5.084   4.831   5.970
 3273SOL    HW110718   5.007   4.831   6.034
 3273SOL    HW210719   5.052   4.804   5.880
 3274SOL     OW10720   5.880   0.444   0.463
 3274SOL    HW110721   5.805   0.437   0.398
 3274SOL    HW210722   5.844   0.455   0.555
 3275SOL     OW10723   4.518   1.204   0.659
 3275SOL    HW110724   4.534   1.130   0.725
 3275SOL    HW210725   4.442   1.261   0.690
 3276SOL     OW10726   4.529   6.610   0.102
 3276SOL    HW110727   4.471   6.665   0.163
 3276SOL    HW210728   4.562   6.529   0.152
 3277SOL     OW10729   2.968   1.250   1.090
 3277SOL    HW110730   2.992   1.335   1.043
 3277SOL    HW210731   2.874   1.225   1.067
 3278SOL     OW10732   0.214   0.165   5.620
 3278SOL    HW110733   0.233   0.121   5.708
 3278SOL    HW210734   0.300   0.180   5.572
 3279SOL     OW10735   4.583   6.543   0.887
 3279SOL    HW110736   4.542   6.551   0.978
 3279SOL    HW210737   4.532   6.477   0.832
 3280SOL     OW10738   5.122   4.565   4.228
 3280SOL    HW110739   5.087   4.620   4.153
 3280SOL    HW210740   5.174   4.487   4.191
 3281SOL     OW10741   0.182   4.623   1.225
 3281SOL    HW110742   0.160   4.651   1.131
 3281SOL    HW210743   0.241   4.542   1.222
 3282SOL     OW10744   0.464   3.607   5.274
 3282SOL    HW110745   0.487   3.529   5.332
 3282SOL    HW210746   0.522   3.608   5.193
 3283SOL     OW10747   4.090   1.217   1.036
 3283SOL    HW110748   4.135   1.264   0.960
 3283SOL    HW210749   4.156   1.159   1.083
 3284SOL     OW10750   0.946   5.199   4.821
 3284SOL    HW110751   1.043   5.201   4.843
 3284SOL    HW210752   0.909   5.108   4.840
 3285SOL     OW10753   5.869   2.008   4.772
 3285SOL    HW110754   5.894   2.066   4.694
 3285SOL    HW210755   5.935   1.934   4.780
 3286SOL     OW10756   3.280   2.409   1.685
 3286SOL    HW110757   3.190   2.380   1.654
 3286SOL    HW210758   3.349   2.343   1.655
 3287SOL     OW10759   0.609   0.196   0.166
 3287SOL    HW110760   0.561   0.130   0.223
 3287SOL    HW210761   0.547   0.272   0.144
 3288SOL     OW10762   1.611   6.484   0.987
 3288SOL    HW110763   1.639   6.407   1.043
 3288SOL    HW210764   1.680   6.500   0.916
 3289SOL     OW10765   2.811   1.873   6.733
 3289SOL    HW110766   2.719   1.911   6.741
 3289SOL    HW210767   2.876   1.947   6.714
 3290SOL     OW10768   6.935   5.472   0.585
 3290SOL    HW110769   6.944   5.409   0.508
 3290SOL    HW210770   6.857   5.445   0.642
 3291SOL     OW10771   3.744   0.589   5.810
 3291SOL    HW110772   3.653   0.564   5.777
 3291SOL    HW210773   3.810   0.580   5.735
 3292SOL     OW10774   6.973   1.062   0.858
 3292SOL    HW110775   6.978   0.995   0.932
 3292SOL    HW210776   6.981   1.154   0.895
 3293SOL     OW10777   6.799   4.823   1.954
 3293SOL    HW110778   6.707   4.800   1.986
 3293SOL    HW210779   6.855   4.853   2.031
 3294SOL     OW10780   5.409   1.707   5.605
 3294SOL    HW110781   5.350   1.631   5.632
 3294SOL    HW210782   5.375   1.791   5.647
 3295SOL     OW10783   1.821   3.271   0.655
 3295SOL    HW110784   1.911   3.300   0.687
 3295SOL    HW210785   1.752   3.335   0.689
 3296SOL     OW10786   6.804   0.608   4.779
 3296SOL    HW110787   6.814   0.555   4.695
 3296SOL    HW210788   6.882   0.590   4.839
 3297SOL     OW10789   3.400   1.837   5.097
 3297SOL    HW110790   3.358   1.817   5.186
 3297SOL    HW210791   3.401   1.936   5.082
 3298SOL     OW10792   6.659   2.833   5.591
 3298SOL    HW110793   6.668   2.926   5.557
 3298SOL    HW210794   6.664   2.833   5.691
 3299SOL     OW10795   4.340   6.078   2.831
 3299SOL    HW110796   4.409   6.113   2.895
 3299SOL    HW210797   4.375   6.084   2.738
 3300SOL     OW10798   1.744   0.559   5.565
 3300SOL    HW110799   1.732   0.656   5.540
 3300SOL    HW210800   1.660   0.526   5.610
 3301SOL     OW10801   1.662   3.803   2.845
 3301SOL    HW110802   1.619   3.887   2.879
 3301SOL    HW210803   1.612   3.724   2.880
 3302SOL     OW10804   1.615   4.719   6.679
 3302SOL    HW110805   1.537   4.769   6.719
 3302SOL    HW210806   1.583   4.665   6.601
 3303SOL     OW10807   3.661   3.195   0.564
 3303SOL    HW110808   3.621   3.176   0.474
 3303SOL    HW210809   3.618   3.136   0.633
 3304SOL     OW10810   2.096   4.928   5.820
 3304SOL    HW110811   2.179   4.876   5.798
 3304SOL    HW210812   2.030   4.867   5.864
 3305SOL     OW10813   3.376   0.474   1.740
 3305SOL    HW110814   3.370   0.377   1.715
 3305SOL    HW210815   3.285   0.515   1.736
 3306SOL     OW10816   1.176   5.981   5.703
 3306SOL    HW110817   1.078   5.962   5.712
 3306SOL    HW210818   1.207   6.034   5.782
 3307SOL     OW10819   0.870   6.855   5.754
 3307SOL    HW110820   0.961   6.822   5.731
 3307SOL    HW210821   0.853   6.943   5.710
 3308SOL     OW10822   3.748   4.845   1.076
 3308SOL    HW110823   3.784   4.896   0.997
 3308SOL    HW210824   3.817   4.843   1.149
 3309SOL     OW10825   5.466   4.250   3.972
 3309SOL    HW110826   5.425   4.279   3.885
 3309SOL    HW210827   5.503   4.158   3.962
 3310SOL     OW10828   0.293   4.219   4.780
 3310SOL    HW110829   0.334   4.147   4.723
 3310SOL    HW210830   0.263   4.295   4.723
 3311SOL     OW10831   3.469   3.190   1.079
 3311SOL    HW110832   3.390   3.146   1.122
 3311SOL    HW210833   3.553   3.156   1.122
 3312SOL     OW10834   4.049   2.692   6.283
 3312SOL    HW110835   4.022   2.701   6.187
 3312SOL    HW210836   4.114   2.764   6.306
 3313SOL     OW10837   0.716   0.588   3.224
 3313SOL    HW110838   0.646   0.518   3.236
 3313SOL    HW210839   0.779   0.559   3.152
 3314SOL     OW10840   2.978   0.397   2.543
 3314SOL    HW110841   3.075   0.413   2.524
 3314SOL    HW210842   2.939   0.480   2.584
 3315SOL     OW10843   0.536   4.783   5.308
 3315SOL    HW110844   0.628   4.746   5.290
 3315SOL    HW210845   0.471   4.740   5.246
 3316SOL     OW10846   3.581   1.217   4.874
 3316SOL    HW110847   3.625   1.272   4.803
 3316SOL    HW210848   3.649   1.160   4.919
 3317SOL     OW10849   5.464   1.609   2.389
 3317SOL    HW110850   5.399   1.650   2.324
 3317SOL    HW210851   5.555   1.605   2.348
 3318SOL     OW10852   1.900   0.768   6.639
 3318SOL    HW110853   1.967   0.722   6.696
 3318SOL    HW210854   1.888   0.862   6.671
 3319SOL     OW10855   6.365   0.168   3.027
 3319SOL    HW110856   6.442   0.227   3.052
 3319SOL    HW210857   6.343   0.180   2.930
 3320SOL     OW10858   6.419   0.632   0.104
 3320SOL    HW110859   6.492   0.573   0.070
 3320SOL    HW210860   6.457   0.700   0.167
 3321SOL     OW10861   6.042   1.502   1.047
 3321SOL    HW110862   6.108   1.577   1.038
 3321SOL    HW210863   5.985   1.518   1.128
 3322SOL     OW10864   6.744   3.006   0.954
 3322SOL    HW110865   6.781   3.063   1.027
 3322SOL    HW210866   6.645   2.999   0.964
 3323SOL     OW10867   2.547   1.651   0.953
 3323SOL    HW110868   2.509   1.584   1.016
 3323SOL    HW210869   2.518   1.743   0.980
 3324SOL     OW10870   4.175   5.517   5.163
 3324SOL    HW110871   4.086   5.548   5.196
 3324SOL    HW210872   4.238   5.596   5.159
 3325SOL     OW10873   0.316   3.326   6.237
 3325SOL    HW110874   0.257   3.370   6.170
 3325SOL    HW210875   0.384   3.392   6.270
 3326SOL     OW10876   4.739   1.451   2.289
 3326SOL    HW110877   4.736   1.527   2.353
 3326SOL    HW210878   4.821   1.396   2.305
 3327SOL     OW10879   2.029   5.847   1.858
 3327SOL    HW110880   1.946   5.888   1.818
 3327SOL    HW210881   2.107   5.906   1.839
 3328SOL     OW10882   3.226   1.768   1.392
 3328SOL    HW110883   3.167   1.776   1.472
 3328SOL    HW210884   3.271   1.679   1.391
 3329SOL     OW10885   6.347   0.290   5.223
 3329SOL    HW110886   6.409   0.362   5.192
 3329SOL    HW210887   6.383   0.201   5.196
 3330SOL     OW10888   6.553   3.604   1.915
 3330SOL    HW110889   6.551   3.649   2.004
 3330SOL    HW210890   6.499   3.520   1.919
 3331SOL     OW10891   2.339   2.738   1.102
 3331SOL    HW110892   2.301   2.780   1.184
 3331SOL    HW210893   2.320   2.796   1.023
 3332SOL     OW10894   5.456   5.744   0.160
 3332SOL    HW110895   5.521   5.791   0.101
 3332SOL    HW210896   5.376   5.802   0.176
 3333SOL     OW10897   4.638   5.462   6.725
 3333SOL    HW110898   4.691   5.421   6.800
 3333SOL    HW210899   4.557   5.406   6.706
 3334SOL     OW10900   3.157   3.244   1.163
 3334SOL    HW110901   3.168   3.168   1.226
 3334SOL    HW210902   3.140   3.210   1.071
 3335SOL     OW10903   4.851   5.900   5.289
 3335SOL    HW110904   4.881   5.909   5.194
 3335SOL    HW210905   4.803   5.813   5.301
 3336SOL     OW10906   3.244   5.044   5.174
 3336SOL    HW110907   3.146   5.026   5.179
 3336SOL    HW210908   3.294   4.966   5.212
 3337SOL     OW10909   3.431   2.476   1.227
 3337SOL    HW110910   3.421   2.379   1.248
 3337SOL    HW210911   3.364   2.529   1.279
 3338SOL     OW10912   6.462   3.500   1.042
 3338SOL    HW110913   6.487   3.407   1.067
 3338SOL    HW210914   6.452   3.506   0.942
 3339SOL     OW10915   6.886   6.427   0.045
 3339SOL    HW110916   6.850   6.341   0.081
 3339SOL    HW210917   6.909   6.488   0.122
 3340SOL     OW10918   3.890   6.985   1.723
 3340SOL    HW110919   3.845   6.901   1.752
 3340SOL    HW210920   3.882   0.031   1.795
 3341SOL     OW10921   0.924   6.997   3.596
 3341SOL    HW110922   0.917   6.903   3.629
 3341SOL    HW210923   1.016   0.009   3.614
 3342SOL     OW10924   2.065   0.123   3.628
 3342SOL    HW110925   2.148   0.070   3.612
 3342SOL    HW210926   2.016   0.135   3.542
 3343SOL     OW10927   4.934   3.186   0.227
 3343SOL    HW110928   4.898   3.165   0.318
 3343SOL    HW210929   4.859   3.186   0.161
 3344SOL     OW10930   5.584   4.158   4.931
 3344SOL    HW110931   5.557   4.234   4.990
 3344SOL    HW210932   5.506   4.098   4.916
 3345SOL     OW10933   2.649   3.370   6.034
 3345SOL    HW110934   2.560   3.332   6.060
 3345SOL    HW210935   2.722   3.318   6.078
 3346SOL     OW10936   0.652   1.002   2.301
 3346SOL    HW110937   0.676   1.098   2.293
 3346SOL    HW210938   0.688   0.966   2.388
 3347SOL     OW10939   6.665   4.486   3.308
 3347SOL    HW110940   6.716   4.555   3.257
 3347SOL    HW210941   6.567   4.500   3.294
 3348SOL     OW10942   3.631   2.864   4.098
 3348SOL    HW110943   3.554   2.806   4.126
 3348SOL    HW210944   3.598   2.934   4.035
 3349SOL     OW10945   0.548   4.595   4.201
 3349SOL    HW110946   0.580   4.679   4.157
 3349SOL    HW210947   0.585   4.516   4.153
 3350SOL     OW10948   1.384   1.704   6.419
 3350SOL    HW110949   1.359   1.608   6.429
 3350SOL    HW210950   1.412   1.722   6.325
 3351SOL     OW10951   5.302   0.982   1.973
 3351SOL    HW110952   5.244   0.940   1.903
 3351SOL    HW210953   5.309   0.920   2.052
 3352SOL     OW10954   0.123   3.457   0.158
 3352SOL    HW110955   0.066   3.515   0.216
 3352SOL    HW210956   0.140   3.370   0.205
 3353SOL     OW10957   1.749   6.685   1.789
 3353SOL    HW110958   1.848   6.699   1.792
 3353SOL    HW210959   1.722   6.622   1.861
 3354SOL     OW10960   6.988   2.592   3.914
 3354SOL    HW110961   6.935   2.513   3.944
 3354SOL    HW210962   0.018   2.567   3.833
 3355SOL     OW10963   1.041   1.652   0.235
 3355SOL    HW110964   0.985   1.597   0.296
 3355SOL    HW210965   0.983   1.701   0.170
 3356SOL     OW10966   2.821   2.924   0.208
 3356SOL    HW110967   2.748   2.880   0.261
 3356SOL    HW210968   2.785   3.005   0.162
 3357SOL     OW10969   2.134   4.731   1.656
 3357SOL    HW110970   2.096   4.638   1.655
 3357SOL    HW210971   2.232   4.728   1.636
 3358SOL     OW10972   4.748   6.209   1.806
 3358SOL    HW110973   4.701   6.244   1.887
 3358SOL    HW210974   4.815   6.275   1.774
 3359SOL     OW10975   0.284   0.489   3.576
 3359SOL    HW110976   0.367   0.533   3.611
 3359SOL    HW210977   0.297   0.468   3.479
 3360SOL     OW10978   0.050   0.890   1.034
 3360SOL    HW110979   0.140   0.870   1.075
 3360SOL    HW210980   7.002   0.852   1.092
 3361SOL     OW10981   6.605   5.196   2.867
 3361SOL    HW110982   6.612   5.288   2.907
 3361SOL    HW210983   6.514   5.159   2.887
 3362SOL     OW10984   2.825   1.364   4.786
 3362SOL    HW110985   2.898   1.296   4.790
 3362SOL    HW210986   2.781   1.371   4.876
 3363SOL     OW10987   0.211   0.454   6.289
 3363SOL    HW110988   0.185   0.395   6.366
 3363SOL    HW210989   0.274   0.525   6.321
 3364SOL     OW10990   0.788   5.195   5.762
 3364SOL    HW110991   0.823   5.276   5.809
 3364SOL    HW210992   0.747   5.133   5.829
 3365SOL     OW10993   0.738   2.649   4.250
 3365SOL    HW110994   0.743   2.718   4.322
 3365SOL    HW210995   0.717   2.560   4.289
 3366SOL     OW10996   5.986   0.998   4.298
 3366SOL    HW110997   6.050   0.986   4.375
 3366SOL    HW210998   5.901   0.949   4.318
 3367SOL     OW10999   2.183   2.693   1.551
 3367SOL    HW111000   2.233   2.773   1.585
 3367SOL    HW211001   2.183   2.694   1.451
 3368SOL     OW11002   7.002   5.608   6.638
 3368SOL    HW111003   6.985   5.690   6.582
 3368SOL    HW211004   0.054   5.625   6.701
 3369SOL     OW11005   3.340   1.845   6.985
 3369SOL    HW111006   3.317   1.833   6.889
 3369SOL    HW211007   3.427   1.799   7.005
 3370SOL     OW11008   6.331   6.493   5.188
 3370SOL    HW111009   6.423   6.528   5.168
 3370SOL    HW211010   6.328   6.458   5.281
 3371SOL     OW11011   1.182   4.350   2.772
 3371SOL    HW111012   1.253   4.315   2.711
 3371SOL    HW211013   1.144   4.276   2.827
 3372SOL     OW11014   0.475   1.490   2.119
 3372SOL    HW111015   0.568   1.525   2.116
 3372SOL    HW211016   0.465   1.425   2.194
 3373SOL     OW11017   6.784   1.525   4.292
 3373SOL    HW111018   6.818   1.433   4.269
 3373SOL    HW211019   6.706   1.548   4.234
 3374SOL     OW11020   3.727   5.631   4.836
 3374SOL    HW111021   3.782   5.676   4.765
 3374SOL    HW211022   3.710   5.536   4.810
 3375SOL     OW11023   4.287   4.721   4.748
 3375SOL    HW111024   4.188   4.715   4.758
 3375SOL    HW211025   4.331   4.673   4.825
 3376SOL     OW11026   4.133   3.585   3.117
 3376SOL    HW111027   4.122   3.645   3.038
 3376SOL    HW211028   4.142   3.490   3.086
 3377SOL     OW11029   0.787   6.043   4.591
 3377SOL    HW111030   0.871   6.004   4.628
 3377SOL    HW211031   0.712   6.026   4.655
 3378SOL     OW11032   6.444   1.103   1.409
 3378SOL    HW111033   6.495   1.187   1.390
 3378SOL    HW211034   6.417   1.061   1.322
 3379SOL     OW11035   0.239   4.284   5.775
 3379SOL    HW111036   0.257   4.244   5.685
 3379SOL    HW211037   0.173   4.359   5.766
 3380SOL     OW11038   6.545   5.683   6.376
 3380SOL    HW111039   6.565   5.708   6.470
 3380SOL    HW211040   6.562   5.761   6.316
 3381SOL     OW11041   1.725   2.123   0.342
 3381SOL    HW111042   1.638   2.120   0.391
 3381SOL    HW211043   1.755   2.218   0.333
 3382SOL     OW11044   0.851   1.491   0.363
 3382SOL    HW111045   0.850   1.397   0.328
 3382SOL    HW211046   0.794   1.497   0.445
 3383SOL     OW11047   5.850   4.905   2.440
 3383SOL    HW111048   5.947   4.881   2.450
 3383SOL    HW211049   5.801   4.829   2.398
 3384SOL     OW11050   3.128   3.108   4.983
 3384SOL    HW111051   3.114   3.044   5.058
 3384SOL    HW211052   3.155   3.197   5.021
 3385SOL     OW11053   0.327   4.214   3.764
 3385SOL    HW111054   0.361   4.306   3.748
 3385SOL    HW211055   0.265   4.215   3.843
 3386SOL     OW11056   5.961   3.687   5.681
 3386SOL    HW111057   5.911   3.753   5.624
 3386SOL    HW211058   5.901   3.609   5.701
 3387SOL     OW11059   2.540   1.522   2.884
 3387SOL    HW111060   2.493   1.447   2.837
 3387SOL    HW211061   2.473   1.575   2.936
 3388SOL     OW11062   5.380   3.509   1.299
 3388SOL    HW111063   5.377   3.412   1.324
 3388SOL    HW211064   5.438   3.521   1.218
 3389SOL     OW11065   4.613   4.348   4.423
 3389SOL    HW111066   4.573   4.430   4.463
 3389SOL    HW211067   4.647   4.289   4.495
 3390SOL     OW11068   4.860   3.801   5.927
 3390SOL    HW111069   4.776   3.781   5.877
 3390SOL    HW211070   4.895   3.717   5.968
 3391SOL     OW11071   4.554   1.939   4.799
 3391SOL    HW111072   4.635   1.880   4.793
 3391SOL    HW211073   4.522   1.941   4.894
 3392SOL     OW11074   3.018   0.959   3.926
 3392SOL    HW111075   3.034   0.872   3.879
 3392SOL    HW211076   2.926   0.960   3.965
 3393SOL     OW11077   6.505   6.456   0.736
 3393SOL    HW111078   6.537   6.393   0.666
 3393SOL    HW211079   6.429   6.510   0.699
 3394SOL     OW11080   5.742   3.435   1.026
 3394SOL    HW111081   5.842   3.438   1.029
 3394SOL    HW211082   5.710   3.346   1.056
 3395SOL     OW11083   6.817   2.850   4.254
 3395SOL    HW111084   6.864   2.883   4.172
 3395SOL    HW211085   6.778   2.927   4.303
 3396SOL     OW11086   0.366   3.001   3.484
 3396SOL    HW111087   0.338   2.907   3.502
 3396SOL    HW211088   0.422   3.004   3.401
 3397SOL     OW11089   3.275   1.259   5.295
 3397SOL    HW111090   3.259   1.338   5.355
 3397SOL    HW211091   3.318   1.290   5.210
 3398SOL     OW11092   0.994   6.851   4.668
 3398SOL    HW111093   1.009   6.795   4.587
 3398SOL    HW211094   0.919   6.813   4.722
 3399SOL     OW11095   4.605   4.494   3.906
 3399SOL    HW111096   4.601   4.447   3.817
 3399SOL    HW211097   4.636   4.429   3.976
 3400SOL     OW11098   4.168   1.521   5.810
 3400SOL    HW111099   4.177   1.441   5.752
 3400SOL    HW211100   4.203   1.500   5.902
 3401SOL     OW11101   0.177   3.909   0.816
 3401SOL    HW111102   0.109   3.944   0.751
 3401SOL    HW211103   0.180   3.809   0.811
 3402SOL     OW11104   4.889   5.925   0.875
 3402SOL    HW111105   4.965   5.931   0.811
 3402SOL    HW211106   4.823   5.857   0.842
 3403SOL     OW11107   3.811   0.449   4.751
 3403SOL    HW111108   3.901   0.449   4.708
 3403SOL    HW211109   3.740   0.453   4.680
 3404SOL     OW11110   4.045   1.546   0.748
 3404SOL    HW111111   3.990   1.630   0.749
 3404SOL    HW211112   3.992   1.472   0.708
 3405SOL     OW11113   6.543   3.422   4.903
 3405SOL    HW111114   6.454   3.401   4.865
 3405SOL    HW211115   6.555   3.522   4.906
 3406SOL     OW11116   1.885   4.129   1.650
 3406SOL    HW111117   1.832   4.186   1.587
 3406SOL    HW211118   1.866   4.032   1.631
 3407SOL     OW11119   1.872   5.080   1.325
 3407SOL    HW111120   1.793   5.026   1.353
 3407SOL    HW211121   1.956   5.031   1.348
 3408SOL     OW11122   4.666   4.378   4.140
 3408SOL    HW111123   4.690   4.319   4.216
 3408SOL    HW211124   4.686   4.473   4.163
 3409SOL     OW11125   3.668   6.621   5.549
 3409SOL    HW111126   3.644   6.657   5.459
 3409SOL    HW211127   3.767   6.608   5.554
 3410SOL     OW11128   5.989   6.287   6.740
 3410SOL    HW111129   6.036   6.274   6.827
 3410SOL    HW211130   6.052   6.326   6.673
 3411SOL     OW11131   6.859   3.013   1.988
 3411SOL    HW111132   6.857   2.945   1.915
 3411SOL    HW211133   6.778   3.072   1.979
 3412SOL     OW11134   4.294   3.030   6.617
 3412SOL    HW111135   4.326   2.944   6.578
 3412SOL    HW211136   4.367   3.098   6.613
 3413SOL     OW11137   4.368   1.719   2.762
 3413SOL    HW111138   4.454   1.724   2.711
 3413SOL    HW211139   4.311   1.797   2.737
 3414SOL     OW11140   2.898   1.175   5.083
 3414SOL    HW111141   2.823   1.173   5.017
 3414SOL    HW211142   2.978   1.130   5.044
 3415SOL     OW11143   1.266   4.199   4.862
 3415SOL    HW111144   1.219   4.253   4.932
 3415SOL    HW211145   1.361   4.185   4.889
 3416SOL     OW11146   6.465   4.623   6.187
 3416SOL    HW111147   6.413   4.664   6.261
 3416SOL    HW211148   6.412   4.549   6.146
 3417SOL     OW11149   6.403   6.292   2.607
 3417SOL    HW111150   6.371   6.238   2.685
 3417SOL    HW211151   6.408   6.234   2.526
 3418SOL     OW11152   4.697   0.445   4.685
 3418SOL    HW111153   4.685   0.544   4.680
 3418SOL    HW211154   4.794   0.424   4.699
 3419SOL     OW11155   3.376   5.555   5.837
 3419SOL    HW111156   3.353   5.652   5.843
 3419SOL    HW211157   3.470   5.544   5.805
 3420SOL     OW11158   5.185   2.284   3.806
 3420SOL    HW111159   5.241   2.263   3.726
 3420SOL    HW211160   5.241   2.329   3.875
 3421SOL     OW11161   6.423   0.323   5.994
 3421SOL    HW111162   6.501   0.384   5.976
 3421SOL    HW211163   6.374   0.355   6.075
 3422SOL     OW11164   2.826   6.875   1.207
 3422SOL    HW111165   2.921   6.903   1.221
 3422SOL    HW211166   2.824   6.797   1.144
 3423SOL     OW11167   1.870   0.231   0.403
 3423SOL    HW111168   1.789   0.271   0.360
 3423SOL    HW211169   1.858   0.232   0.503
 3424SOL     OW11170   3.706   0.436   2.289
 3424SOL    HW111171   3.664   0.466   2.203
 3424SOL    HW211172   3.657   0.356   2.324
 3425SOL     OW11173   4.993   4.639   2.223
 3425SOL    HW111174   5.047   4.669   2.301
 3425SOL    HW211175   4.990   4.539   2.221
 3426SOL     OW11176   3.548   3.139   0.323
 3426SOL    HW111177   3.473   3.198   0.290
 3426SOL    HW211178   3.620   3.136   0.254
 3427SOL     OW11179   6.442   6.456   0.336
 3427SOL    HW111180   6.506   6.532   0.344
 3427SOL    HW211181   6.368   6.467   0.402
 3428SOL     OW11182   3.865   4.804   1.585
 3428SOL    HW111183   3.921   4.800   1.667
 3428SOL    HW211184   3.820   4.894   1.580
 3429SOL     OW11185   0.439   1.564   6.733
 3429SOL    HW111186   0.397   1.473   6.729
 3429SOL    HW211187   0.538   1.554   6.727
 3430SOL     OW11188   0.581   6.832   6.102
 3430SOL    HW111189   0.571   6.905   6.034
 3430SOL    HW211190   0.494   6.786   6.115
 3431SOL     OW11191   2.252   6.531   0.624
 3431SOL    HW111192   2.267   6.574   0.534
 3431SOL    HW211193   2.317   6.456   0.636
 3432SOL     OW11194   2.841   2.316   6.032
 3432SOL    HW111195   2.751   2.339   6.068
 3432SOL    HW211196   2.910   2.371   6.078
 3433SOL     OW11197   1.779   0.101   6.249
 3433SOL    HW111198   1.847   0.147   6.192
 3433SOL    HW211199   1.709   0.167   6.277
 3434SOL     OW11200   3.523   2.511   0.742
 3434SOL    HW111201   3.424   2.527   0.734
 3434SOL    HW211202   3.569   2.548   0.661
 3435SOL     OW11203   0.125   1.964   1.987
 3435SOL    HW111204   0.187   1.991   2.061
 3435SOL    HW211205   0.176   1.913   1.918
 3436SOL     OW11206   4.277   6.623   5.323
 3436SOL    HW111207   4.370   6.605   5.289
 3436SOL    HW211208   4.238   6.538   5.359
 3437SOL     OW11209   4.426   0.819   6.476
 3437SOL    HW111210   4.413   0.860   6.567
 3437SOL    HW211211   4.497   0.749   6.481
 3438SOL     OW11212   1.267   2.756   6.357
 3438SOL    HW111213   1.184   2.746   6.303
 3438SOL    HW211214   1.317   2.837   6.327
 3439SOL     OW11215   2.493   0.704   5.067
 3439SOL    HW111216   2.459   0.786   5.021
 3439SOL    HW211217   2.428   0.675   5.137
 3440SOL     OW11218   5.055   3.503   1.321
 3440SOL    HW111219   5.143   3.538   1.353
 3440SOL    HW211220   5.025   3.428   1.381
 3441SOL     OW11221   5.269   0.487   3.320
 3441SOL    HW111222   5.215   0.532   3.391
 3441SOL    HW211223   5.209   0.427   3.267
 3442SOL     OW11224   2.705   5.135   2.901
 3442SOL    HW111225   2.667   5.045   2.884
 3442SOL    HW211226   2.785   5.149   2.842
 3443SOL     OW11227   5.301   0.676   2.599
 3443SOL    HW111228   5.382   0.735   2.608
 3443SOL    HW211229   5.233   0.703   2.668
 3444SOL     OW11230   5.225   4.837   6.864
 3444SOL    HW111231   5.313   4.839   6.912
 3444SOL    HW211232   5.190   4.744   6.863
 3445SOL     OW11233   6.227   4.119   3.826
 3445SOL    HW111234   6.178   4.124   3.913
 3445SOL    HW211235   6.273   4.030   3.819
 3446SOL     OW11236   6.295   0.830   3.168
 3446SOL    HW111237   6.198   0.807   3.178
 3446SOL    HW211238   6.320   0.829   3.072
 3447SOL     OW11239   4.693   4.801   0.572
 3447SOL    HW111240   4.638   4.718   0.572
 3447SOL    HW211241   4.710   4.831   0.478
 3448SOL     OW11242   3.298   6.980   0.958
 3448SOL    HW111243   3.323   7.022   1.045
 3448SOL    HW211244   3.222   0.007   0.917
 3449SOL     OW11245   5.243   6.586   2.857
 3449SOL    HW111246   5.330   6.544   2.831
 3449SOL    HW211247   5.230   6.577   2.956
 3450SOL     OW11248   1.010   2.742   0.190
 3450SOL    HW111249   1.096   2.758   0.239
 3450SOL    HW211250   0.983   2.827   0.144
 3451SOL     OW11251   0.173   5.739   3.049
 3451SOL    HW111252   0.191   5.826   3.095
 3451SOL    HW211253   0.184   5.664   3.114
 3452SOL     OW11254   5.806   1.539   0.441
 3452SOL    HW111255   5.824   1.457   0.387
 3452SOL    HW211256   5.770   1.611   0.380
 3453SOL     OW11257   6.406   6.113   5.549
 3453SOL    HW111258   6.506   6.126   5.547
 3453SOL    HW211259   6.376   6.105   5.644
 3454SOL     OW11260   1.925   0.255   6.060
 3454SOL    HW111261   1.867   0.335   6.077
 3454SOL    HW211262   2.017   0.284   6.034
 3455SOL     OW11263   1.638   3.379   4.252
 3455SOL    HW111264   1.670   3.412   4.164
 3455SOL    HW211265   1.700   3.309   4.287
 3456SOL     OW11266   5.588   6.499   1.963
 3456SOL    HW111267   5.572   6.590   1.925
 3456SOL    HW211268   5.549   6.430   1.902
 3457SOL     OW11269   2.349   5.299   4.173
 3457SOL    HW111270   2.389   5.239   4.104
 3457SOL    HW211271   2.410   5.303   4.253
 3458SOL     OW11272   5.503   6.498   0.093
 3458SOL    HW111273   5.516   6.468   7.022
 3458SOL    HW211274   5.541   6.590   0.104
 3459SOL     OW11275   0.267   4.481   3.206
 3459SOL    HW111276   0.234   4.418   3.277
 3459SOL    HW211277   0.191   4.539   3.176
 3460SOL     OW11278   3.004   3.514   0.695
 3460SOL    HW111279   2.950   3.455   0.635
 3460SOL    HW211280   3.080   3.461   0.734
 3461SOL     OW11281   4.720   5.450   3.885
 3461SOL    HW111282   4.641   5.506   3.909
 3461SOL    HW211283   4.781   5.444   3.964
 3462SOL     OW11284   6.447   3.996   1.899
 3462SOL    HW111285   6.535   4.031   1.867
 3462SOL    HW211286   6.427   4.034   1.990
 3463SOL     OW11287   1.077   3.209   2.698
 3463SOL    HW111288   1.169   3.177   2.674
 3463SOL    HW211289   1.015   3.194   2.622
 3464SOL     OW11290   6.104   2.158   6.591
 3464SOL    HW111291   6.038   2.107   6.646
 3464SOL    HW211292   6.109   2.118   6.500
 3465SOL     OW11293   1.294   2.942   2.103
 3465SOL    HW111294   1.304   2.972   2.197
 3465SOL    HW211295   1.207   2.895   2.091
 3466SOL     OW11296   6.332   5.201   5.438
 3466SOL    HW111297   6.414   5.145   5.429
 3466SOL    HW211298   6.331   5.270   5.365
 3467SOL     OW11299   1.772   1.645   0.983
 3467SOL    HW111300   1.676   1.646   1.010
 3467SOL    HW211301   1.821   1.718   1.031
 3468SOL     OW11302   5.419   1.711   3.133
 3468SOL    HW111303   5.458   1.803   3.130
 3468SOL    HW211304   5.388   1.691   3.226
 3469SOL     OW11305   5.113   1.090   5.387
 3469SOL    HW111306   5.097   1.156   5.461
 3469SOL    HW211307   5.111   0.997   5.424
 3470SOL     OW11308   0.003   2.694   1.994
 3470SOL    HW111309   6.948   2.660   1.942
 3470SOL    HW211310   6.998   2.712   2.088
 3471SOL     OW11311   4.563   4.381   3.651
 3471SOL    HW111312   4.581   4.382   3.553
 3471SOL    HW211313   4.621   4.313   3.695
 3472SOL     OW11314   3.878   1.250   1.792
 3472SOL    HW111315   3.928   1.163   1.788
 3472SOL    HW211316   3.854   1.278   1.699
 3473SOL     OW11317   6.180   3.009   3.012
 3473SOL    HW111318   6.164   3.047   3.103
 3473SOL    HW211319   6.249   2.936   3.019
 3474SOL     OW11320   0.311   4.094   3.093
 3474SOL    HW111321   0.394   4.150   3.093
 3474SOL    HW211322   0.234   4.148   3.057
 3475SOL     OW11323   0.828   4.110   4.952
 3475SOL    HW111324   0.877   4.192   4.984
 3475SOL    HW211325   0.870   4.029   4.990
 3476SOL     OW11326   1.982   2.001   2.865
 3476SOL    HW111327   2.022   1.917   2.829
 3476SOL    HW211328   1.896   2.020   2.818
 3477SOL     OW11329   0.960   3.810   1.146
 3477SOL    HW111330   0.968   3.711   1.158
 3477SOL    HW211331   1.034   3.842   1.087
 3478SOL     OW11332   2.633   6.333   6.785
 3478SOL    HW111333   2.627   6.369   6.691
 3478SOL    HW211334   2.696   6.256   6.787
 3479SOL     OW11335   0.687   0.956   2.875
 3479SOL    HW111336   0.714   0.974   2.970
 3479SOL    HW211337   0.653   1.041   2.834
 3480SOL     OW11338   0.722   6.584   5.255
 3480SOL    HW111339   0.658   6.569   5.180
 3480SOL    HW211340   0.802   6.525   5.244
 3481SOL     OW11341   5.274   0.537   0.215
 3481SOL    HW111342   5.318   0.527   0.125
 3481SOL    HW211343   5.329   0.597   0.273
 3482SOL     OW11344   5.847   1.330   2.185
 3482SOL    HW111345   5.776   1.335   2.114
 3482SOL    HW211346   5.876   1.422   2.210
 3483SOL     OW11347   5.533   1.989   2.736
 3483SOL    HW111348   5.512   1.989   2.638
 3483SOL    HW211349   5.629   2.016   2.750
 3484SOL     OW11350   1.312   2.813   6.875
 3484SOL    HW111351   1.392   2.869   6.854
 3484SOL    HW211352   1.252   2.810   6.794
 3485SOL     OW11353   1.156   2.143   4.568
 3485SOL    HW111354   1.183   2.233   4.601
 3485SOL    HW211355   1.078   2.152   4.506
 3486SOL     OW11356   1.476   0.579   3.800
 3486SOL    HW111357   1.437   0.671   3.800
 3486SOL    HW211358   1.411   0.515   3.842
 3487SOL     OW11359   6.522   2.328   6.979
 3487SOL    HW111360   6.493   2.350   0.049
 3487SOL    HW211361   6.481   2.241   6.951
 3488SOL     OW11362   5.959   0.701   5.126
 3488SOL    HW111363   5.983   0.794   5.153
 3488SOL    HW211364   6.029   0.637   5.157
 3489SOL     OW11365   3.798   0.114   1.949
 3489SOL    HW111366   3.699   0.126   1.955
 3489SOL    HW211367   3.828   0.051   2.021
 3490SOL     OW11368   3.298   4.614   1.484
 3490SOL    HW111369   3.324   4.546   1.552
 3490SOL    HW211370   3.230   4.575   1.422
 3491SOL     OW11371   4.183   2.965   6.319
 3491SOL    HW111372   4.117   2.961   6.394
 3491SOL    HW211373   4.141   3.008   6.239
 3492SOL     OW11374   6.005   4.591   0.804
 3492SOL    HW111375   6.032   4.556   0.894
 3492SOL    HW211376   5.950   4.522   0.757
 3493SOL     OW11377   6.068   3.652   3.927
 3493SOL    HW111378   6.053   3.565   3.973
 3493SOL    HW211379   6.082   3.724   3.996
 3494SOL     OW11380   2.651   0.923   2.237
 3494SOL    HW111381   2.593   0.896   2.160
 3494SOL    HW211382   2.613   1.004   2.280
 3495SOL     OW11383   6.859   4.106   2.410
 3495SOL    HW111384   6.926   4.031   2.413
 3495SOL    HW211385   6.838   4.128   2.315
 3496SOL     OW11386   6.179   5.508   1.092
 3496SOL    HW111387   6.160   5.510   1.190
 3496SOL    HW211388   6.109   5.454   1.045
 3497SOL     OW11389   2.452   1.314   3.668
 3497SOL    HW111390   2.406   1.345   3.585
 3497SOL    HW211391   2.412   1.359   3.747
 3498SOL     OW11392   3.340   1.247   2.262
 3498SOL    HW111393   3.311   1.194   2.342
 3498SOL    HW211394   3.311   1.342   2.274
 3499SOL     OW11395   6.542   4.668   4.292
 3499SOL    HW111396   6.622   4.681   4.349
 3499SOL    HW211397   6.523   4.752   4.241
 3500SOL     OW11398   1.903   2.958   3.039
 3500SOL    HW111399   1.847   3.010   2.973
 3500SOL    HW211400   1.873   2.863   3.040
 3501SOL     OW11401   3.369   0.121   5.909
 3501SOL    HW111402   3.332   0.066   5.834
 3501SOL    HW211403   3.412   0.061   5.976
 3502SOL     OW11404   6.808   2.877   1.768
 3502SOL    HW111405   6.792   2.784   1.802
 3502SOL    HW211406   6.721   2.916   1.737
 3503SOL     OW11407   6.654   6.200   5.535
 3503SOL    HW111408   6.721   6.223   5.605
 3503SOL    HW211409   6.693   6.217   5.444
 3504SOL     OW11410   2.312   0.747   2.081
 3504SOL    HW111411   2.370   0.820   2.117
 3504SOL    HW211412   2.216   0.772   2.092
 3505SOL     OW11413   5.253   4.418   5.151
 3505SOL    HW111414   5.264   4.368   5.237
 3505SOL    HW211415   5.200   4.501   5.168
 3506SOL     OW11416   5.634   4.623   4.932
 3506SOL    HW111417   5.710   4.657   4.877
 3506SOL    HW211418   5.553   4.680   4.914
 3507SOL     OW11419   3.244   0.558   1.010
 3507SOL    HW111420   3.189   0.564   0.927
 3507SOL    HW211421   3.326   0.503   0.992
 3508SOL     OW11422   2.159   1.672   6.178
 3508SOL    HW111423   2.173   1.753   6.234
 3508SOL    HW211424   2.125   1.699   6.088
 3509SOL     OW11425   5.860   7.018   6.872
 3509SOL    HW111426   5.931   6.950   6.852
 3509SOL    HW211427   5.872   0.073   6.812
 3510SOL     OW11428   1.582   0.679   1.784
 3510SOL    HW111429   1.504   0.637   1.737
 3510SOL    HW211430   1.667   0.639   1.750
 3511SOL     OW11431   2.079   4.280   1.497
 3511SOL    HW111432   2.031   4.223   1.563
 3511SOL    HW211433   2.085   4.233   1.409
 3512SOL     OW11434   0.271   4.316   0.892
 3512SOL    HW111435   0.335   4.253   0.849
 3512SOL    HW211436   0.299   4.410   0.875
 3513SOL     OW11437   5.904   2.008   0.711
 3513SOL    HW111438   5.893   1.989   0.808
 3513SOL    HW211439   5.819   1.989   0.663
 3514SOL     OW11440   6.990   0.690   1.495
 3514SOL    HW111441   0.055   0.714   1.537
 3514SOL    HW211442   6.954   0.770   1.446
 3515SOL     OW11443   4.764   6.025   2.967
 3515SOL    HW111444   4.727   6.029   2.874
 3515SOL    HW211445   4.698   6.062   3.031
 3516SOL     OW11446   4.386   6.554   0.592
 3516SOL    HW111447   4.301   6.548   0.644
 3516SOL    HW211448   4.421   6.647   0.596
 3517SOL     OW11449   0.056   1.159   1.179
 3517SOL    HW111450   0.111   1.240   1.198
 3517SOL    HW211451   0.102   1.101   1.111
 3518SOL     OW11452   5.037   2.650   5.103
 3518SOL    HW111453   5.008   2.617   5.014
 3518SOL    HW211454   5.136   2.665   5.103
 3519SOL     OW11455   1.585   0.222   5.713
 3519SOL    HW111456   1.626   0.187   5.797
 3519SOL    HW211457   1.640   0.192   5.635
 3520SOL     OW11458   3.277   6.044   0.258
 3520SOL    HW111459   3.306   5.993   0.177
 3520SOL    HW211460   3.184   6.078   0.244
 3521SOL     OW11461   4.591   2.649   0.107
 3521SOL    HW111462   4.688   2.640   0.086
 3521SOL    HW211463   4.538   2.636   0.023
 3522SOL     OW11464   6.877   5.708   0.135
 3522SOL    HW111465   6.792   5.752   0.108
 3522SOL    HW211466   6.882   5.617   0.093
 3523SOL     OW11467   1.232   4.281   5.177
 3523SOL    HW111468   1.135   4.304   5.182
 3523SOL    HW211469   1.259   4.234   5.261
 3524SOL     OW11470   5.128   1.952   1.903
 3524SOL    HW111471   5.070   1.876   1.931
 3524SOL    HW211472   5.140   2.015   1.979
 3525SOL     OW11473   6.579   3.399   3.957
 3525SOL    HW111474   6.497   3.454   3.972
 3525SOL    HW211475   6.578   3.363   3.864
 3526SOL     OW11476   2.242   6.947   3.977
 3526SOL    HW111477   2.289   6.950   4.066
 3526SOL    HW211478   2.309   6.947   3.904
 3527SOL     OW11479   5.929   3.685   6.454
 3527SOL    HW111480   5.829   3.683   6.450
 3527SOL    HW211481   5.964   3.734   6.375
 3528SOL     OW11482   1.887   6.561   5.365
 3528SOL    HW111483   1.931   6.496   5.428
 3528SOL    HW211484   1.854   6.640   5.417
 3529SOL     OW11485   3.832   6.877   1.149
 3529SOL    HW111486   3.838   6.930   1.064
 3529SOL    HW211487   3.922   6.872   1.192
 3530SOL     OW11488   6.626   5.584   1.198
 3530SOL    HW111489   6.697   5.613   1.134
 3530SOL    HW211490   6.605   5.659   1.260
 3531SOL     OW11491   5.450   2.271   0.434
 3531SOL    HW111492   5.523   2.269   0.502
 3531SOL    HW211493   5.478   2.326   0.356
 3532SOL     OW11494   2.650   0.202   1.902
 3532SOL    HW111495   2.651   0.214   2.001
 3532SOL    HW211496   2.743   0.207   1.866
 3533SOL     OW11497   0.224   0.940   2.190
 3533SOL    HW111498   0.143   0.996   2.173
 3533SOL    HW211499   0.195   0.846   2.208
 3534SOL     OW11500   0.593   2.081   0.595
 3534SOL    HW111501   0.609   2.074   0.496
 3534SOL    HW211502   0.523   2.015   0.621
 3535SOL     OW11503   2.025   5.046   6.206
 3535SOL    HW111504   1.982   4.999   6.129
 3535SOL    HW211505   2.125   5.037   6.199
 3536SOL     OW11506   3.369   1.507   3.053
 3536SOL    HW111507   3.318   1.506   2.967
 3536SOL    HW211508   3.383   1.601   3.083
 3537SOL     OW11509   2.285   5.850   2.931
 3537SOL    HW111510   2.281   5.757   2.969
 3537SOL    HW211511   2.291   5.845   2.832
 3538SOL     OW11512   2.195   6.315   5.351
 3538SOL    HW111513   2.208   6.226   5.308
 3538SOL    HW211514   2.111   6.314   5.406
 3539SOL     OW11515   3.684   3.444   5.578
 3539SOL    HW111516   3.743   3.416   5.654
 3539SOL    HW211517   3.653   3.538   5.593
 3540SOL     OW11518   1.944   2.921   4.597
 3540SOL    HW111519   1.880   2.988   4.559
 3540SOL    HW211520   1.894   2.841   4.630
 3541SOL     OW11521   2.352   2.556   6.196
 3541SOL    HW111522   2.316   2.510   6.115
 3541SOL    HW211523   2.380   2.649   6.172
 3542SOL     OW11524   1.269   5.456   3.625
 3542SOL    HW111525   1.322   5.439   3.708
 3542SOL    HW211526   1.188   5.397   3.624
 3543SOL     OW11527   0.249   2.785   5.009
 3543SOL    HW111528   0.226   2.815   5.101
 3543SOL    HW211529   0.334   2.732   5.011
 3544SOL     OW11530   1.431   4.061   6.554
 3544SOL    HW111531   1.508   4.052   6.491
 3544SOL    HW211532   1.438   3.993   6.627
 3545SOL     OW11533   4.289   5.605   6.729
 3545SOL    HW111534   4.257   5.579   6.638
 3545SOL    HW211535   4.289   5.525   6.789
 3546SOL     OW11536   1.606   4.547   4.077
 3546SOL    HW111537   1.549   4.489   4.134
 3546SOL    HW211538   1.549   4.591   4.007
 3547SOL     OW11539   5.462   4.540   3.388
 3547SOL    HW111540   5.495   4.488   3.308
 3547SOL    HW211541   5.540   4.574   3.440
 3548SOL     OW11542   5.691   1.409   5.789
 3548SOL    HW111543   5.656   1.326   5.832
 3548SOL    HW211544   5.751   1.457   5.853
 3549SOL     OW11545   6.395   4.477   5.335
 3549SOL    HW111546   6.423   4.486   5.239
 3549SOL    HW211547   6.311   4.531   5.349
 3550SOL     OW11548   5.108   2.154   2.449
 3550SOL    HW111549   5.051   2.221   2.402
 3550SOL    HW211550   5.127   2.185   2.542
 3551SOL     OW11551   4.026   6.731   2.862
 3551SOL    HW111552   3.947   6.737   2.800
 3551SOL    HW211553   4.049   6.823   2.895
 3552SOL     OW11554   5.141   6.494   1.479
 3552SOL    HW111555   5.157   6.593   1.488
 3552SOL    HW211556   5.229   6.447   1.467
 3553SOL     OW11557   5.797   3.591   1.954
 3553SOL    HW111558   5.716   3.537   1.930
 3553SOL    HW211559   5.877   3.532   1.958
 3554SOL     OW11560   3.844   2.600   1.186
 3554SOL    HW111561   3.776   2.608   1.258
 3554SOL    HW211562   3.799   2.602   1.097
 3555SOL     OW11563   1.300   3.712   3.233
 3555SOL    HW111564   1.241   3.773   3.181
 3555SOL    HW211565   1.276   3.617   3.212
 3556SOL     OW11566   4.260   0.792   4.337
 3556SOL    HW111567   4.303   0.800   4.426
 3556SOL    HW211568   4.169   0.752   4.347
 3557SOL     OW11569   0.548   0.618   3.661
 3557SOL    HW111570   0.489   0.696   3.642
 3557SOL    HW211571   0.631   0.626   3.605
 3558SOL     OW11572   1.286   5.594   0.838
 3558SOL    HW111573   1.221   5.596   0.761
 3558SOL    HW211574   1.242   5.553   0.917
 3559SOL     OW11575   0.465   0.046   4.435
 3559SOL    HW111576   0.392   0.017   4.497
 3559SOL    HW211577   0.528   6.993   4.420
 3560SOL     OW11578   1.190   5.495   1.085
 3560SOL    HW111579   1.237   5.407   1.078
 3560SOL    HW211580   1.131   5.494   1.166
 3561SOL     OW11581   3.709   4.895   5.303
 3561SOL    HW111582   3.724   4.818   5.365
 3561SOL    HW211583   3.730   4.980   5.350
 3562SOL     OW11584   5.280   1.069   4.046
 3562SOL    HW111585   5.285   1.053   3.948
 3562SOL    HW211586   5.190   1.108   4.068
 3563SOL     OW11587   5.071   0.405   1.320
 3563SOL    HW111588   5.048   0.327   1.379
 3563SOL    HW211589   4.991   0.428   1.264
 3564SOL     OW11590   1.151   4.684   4.410
 3564SOL    HW111591   1.237   4.633   4.414
 3564SOL    HW211592   1.165   4.776   4.445
 3565SOL     OW11593   4.078   6.251   4.609
 3565SOL    HW111594   4.156   6.300   4.647
 3565SOL    HW211595   3.994   6.283   4.653
 3566SOL     OW11596   6.526   3.422   6.517
 3566SOL    HW111597   6.511   3.462   6.427
 3566SOL    HW211598   6.508   3.490   6.588
 3567SOL     OW11599   1.090   2.547   6.774
 3567SOL    HW111600   1.147   2.550   6.856
 3567SOL    HW211601   0.994   2.563   6.800
 3568SOL     OW11602   4.868   5.236   3.793
 3568SOL    HW111603   4.809   5.313   3.817
 3568SOL    HW211604   4.860   5.165   3.863
 3569SOL     OW11605   2.809   2.636   6.155
 3569SOL    HW111606   2.826   2.662   6.060
 3569SOL    HW211607   2.890   2.591   6.193
 3570SOL     OW11608   5.680   0.653   4.622
 3570SOL    HW111609   5.602   0.617   4.570
 3570SOL    HW211610   5.694   0.749   4.599
 3571SOL     OW11611   2.498   1.023   5.181
 3571SOL    HW111612   2.569   1.058   5.120
 3571SOL    HW211613   2.413   1.010   5.130
 3572SOL     OW11614   5.796   3.828   2.705
 3572SOL    HW111615   5.772   3.744   2.658
 3572SOL    HW211616   5.894   3.828   2.726
 3573SOL     OW11617   6.145   3.886   2.457
 3573SOL    HW111618   6.108   3.828   2.385
 3573SOL    HW211619   6.244   3.895   2.445
 3574SOL     OW11620   1.201   3.790   0.292
 3574SOL    HW111621   1.115   3.772   0.245
 3574SOL    HW211622   1.246   3.703   0.312
 3575SOL     OW11623   5.158   6.316   1.973
 3575SOL    HW111624   5.217   6.265   1.911
 3575SOL    HW211625   5.211   6.389   2.017
 3576SOL     OW11626   0.715   2.366   0.533
 3576SOL    HW111627   0.670   2.282   0.562
 3576SOL    HW211628   0.734   2.424   0.613
 3577SOL     OW11629   2.162   2.809   5.979
 3577SOL    HW111630   2.082   2.757   6.009
 3577SOL    HW211631   2.211   2.844   6.059
 3578SOL     OW11632   4.945   2.119   1.386
 3578SOL    HW111633   4.947   2.019   1.392
 3578SOL    HW211634   5.025   2.156   1.434
 3579SOL     OW11635   6.907   2.803   2.600
 3579SOL    HW111636   6.911   2.716   2.651
 3579SOL    HW211637   6.819   2.810   2.554
 3580SOL     OW11638   6.745   3.108   0.412
 3580SOL    HW111639   6.720   3.011   0.408
 3580SOL    HW211640   6.831   3.123   0.364
 3581SOL     OW11641   0.518   6.280   2.876
 3581SOL    HW111642   0.558   6.324   2.957
 3581SOL    HW211643   0.547   6.330   2.794
 3582SOL     OW11644   2.401   4.872   5.529
 3582SOL    HW111645   2.358   4.925   5.455
 3582SOL    HW211646   2.334   4.858   5.602
 3583SOL     OW11647   1.150   4.398   0.563
 3583SOL    HW111648   1.074   4.427   0.504
 3583SOL    HW211649   1.123   4.408   0.659
 3584SOL     OW11650   5.684   5.012   5.479
 3584SOL    HW111651   5.587   5.026   5.458
 3584SOL    HW211652   5.736   5.002   5.394
 3585SOL     OW11653   3.551   2.081   4.621
 3585SOL    HW111654   3.604   2.069   4.705
 3585SOL    HW211655   3.514   1.992   4.592
 3586SOL     OW11656   0.015   2.434   4.794
 3586SOL    HW111657   6.972   2.485   4.849
 3586SOL    HW211658   0.106   2.444   4.835
 3587SOL     OW11659   3.011   5.424   6.394
 3587SOL    HW111660   3.033   5.364   6.470
 3587SOL    HW211661   3.091   5.478   6.370
 3588SOL     OW11662   6.592   3.695   4.871
 3588SOL    HW111663   6.540   3.710   4.955
 3588SOL    HW211664   6.614   3.784   4.829
 3589SOL     OW11665   6.223   6.624   6.703
 3589SOL    HW111666   6.217   6.700   6.638
 3589SOL    HW211667   6.132   6.598   6.732
 3590SOL     OW11668   0.316   3.561   0.647
 3590SOL    HW111669   0.357   3.615   0.721
 3590SOL    HW211670   0.387   3.522   0.589
 3591SOL     OW11671   5.332   3.405   0.992
 3591SOL    HW111672   5.360   3.495   1.026
 3591SOL    HW211673   5.246   3.379   1.034
 3592SOL     OW11674   0.372   6.908   2.770
 3592SOL    HW111675   0.298   6.900   2.838
 3592SOL    HW211676   0.407   7.001   2.770
 3593SOL     OW11677   0.954   4.568   6.190
 3593SOL    HW111678   0.918   4.624   6.115
 3593SOL    HW211679   1.054   4.576   6.191
 3594SOL     OW11680   5.078   0.750   4.166
 3594SOL    HW111681   5.131   0.757   4.251
 3594SOL    HW211682   4.980   0.756   4.187
 3595SOL     OW11683   5.980   5.718   0.598
 3595SOL    HW111684   6.012   5.744   0.688
 3595SOL    HW211685   6.011   5.784   0.530
 3596SOL     OW11686   4.572   2.632   3.675
 3596SOL    HW111687   4.651   2.688   3.700
 3596SOL    HW211688   4.520   2.679   3.604
 3597SOL     OW11689   2.062   2.618   5.564
 3597SOL    HW111690   2.056   2.714   5.592
 3597SOL    HW211691   2.072   2.613   5.465
 3598SOL     OW11692   1.932   6.192   5.233
 3598SOL    HW111693   2.011   6.187   5.172
 3598SOL    HW211694   1.869   6.262   5.200
 3599SOL     OW11695   4.112   2.232   6.747
 3599SOL    HW111696   4.207   2.229   6.717
 3599SOL    HW211697   4.102   2.181   6.832
 3600SOL     OW11698   1.087   3.194   1.960
 3600SOL    HW111699   1.160   3.130   1.933
 3600SOL    HW211700   1.129   3.278   1.995
 3601SOL     OW11701   5.276   1.914   5.727
 3601SOL    HW111702   5.190   1.964   5.713
 3601SOL    HW211703   5.347   1.978   5.755
 3602SOL     OW11704   1.981   3.106   0.368
 3602SOL    HW111705   1.897   3.093   0.422
 3602SOL    HW211706   2.010   3.201   0.373
 3603SOL     OW11707   3.707   0.997   5.657
 3603SOL    HW111708   3.654   1.082   5.654
 3603SOL    HW211709   3.715   0.967   5.752
 3604SOL     OW11710   5.813   1.285   3.412
 3604SOL    HW111711   5.739   1.217   3.414
 3604SOL    HW211712   5.774   1.376   3.402
 3605SOL     OW11713   1.089   5.321   4.115
 3605SOL    HW111714   1.146   5.244   4.142
 3605SOL    HW211715   1.043   5.358   4.195
 3606SOL     OW11716   1.655   6.561   2.652
 3606SOL    HW111717   1.558   6.558   2.678
 3606SOL    HW211718   1.682   6.656   2.635
 3607SOL     OW11719   5.514   3.044   2.095
 3607SOL    HW111720   5.495   3.014   2.001
 3607SOL    HW211721   5.428   3.049   2.146
 3608SOL     OW11722   5.354   1.464   3.584
 3608SOL    HW111723   5.290   1.395   3.617
 3608SOL    HW211724   5.423   1.481   3.654
 3609SOL     OW11725   2.062   6.995   4.554
 3609SOL    HW111726   2.037   0.045   4.491
 3609SOL    HW211727   2.007   6.914   4.533
 3610SOL     OW11728   1.658   0.017   5.462
 3610SOL    HW111729   1.758   0.014   5.474
 3610SOL    HW211730   1.633   0.104   5.420
 3611SOL     OW11731   4.295   4.791   3.976
 3611SOL    HW111732   4.223   4.812   3.910
 3611SOL    HW211733   4.373   4.853   3.962
 3612SOL     OW11734   6.447   1.232   6.444
 3612SOL    HW111735   6.510   1.292   6.493
 3612SOL    HW211736   6.409   1.164   6.507
 3613SOL     OW11737   4.206   5.232   2.122
 3613SOL    HW111738   4.144   5.302   2.089
 3613SOL    HW211739   4.185   5.144   2.078
 3614SOL     OW11740   2.925   3.241   6.782
 3614SOL    HW111741   2.844   3.188   6.807
 3614SOL    HW211742   2.918   3.333   6.820
 3615SOL     OW11743   5.820   2.777   6.141
 3615SOL    HW111744   5.741   2.783   6.203
 3615SOL    HW211745   5.870   2.692   6.160
 3616SOL     OW11746   1.693   1.129   6.470
 3616SOL    HW111747   1.605   1.110   6.426
 3616SOL    HW211748   1.757   1.164   6.401
 3617SOL     OW11749   4.364   0.370   5.957
 3617SOL    HW111750   4.357   0.323   6.045
 3617SOL    HW211751   4.454   0.412   5.948
 3618SOL     OW11752   2.707   3.632   5.293
 3618SOL    HW111753   2.689   3.729   5.310
 3618SOL    HW211754   2.637   3.577   5.338
 3619SOL     OW11755   5.419   3.493   0.322
 3619SOL    HW111756   5.400   3.410   0.374
 3619SOL    HW211757   5.512   3.525   0.343
 3620SOL     OW11758   6.139   5.600   4.787
 3620SOL    HW111759   6.050   5.559   4.808
 3620SOL    HW211760   6.128   5.667   4.714
 3621SOL     OW11761   3.346   3.272   4.285
 3621SOL    HW111762   3.269   3.297   4.344
 3621SOL    HW211763   3.427   3.324   4.313
 3622SOL     OW11764   1.131   0.538   0.954
 3622SOL    HW111765   1.192   0.463   0.980
 3622SOL    HW211766   1.101   0.525   0.860
 3623SOL     OW11767   0.258   5.354   5.042
 3623SOL    HW111768   0.203   5.366   5.125
 3623SOL    HW211769   0.355   5.365   5.066
 3624SOL     OW11770   1.563   6.847   1.931
 3624SOL    HW111771   1.624   6.799   1.869
 3624SOL    HW211772   1.572   6.946   1.917
 3625SOL     OW11773   0.214   3.100   6.744
 3625SOL    HW111774   0.161   3.172   6.701
 3625SOL    HW211775   0.166   3.065   6.824
 3626SOL     OW11776   0.734   3.528   4.365
 3626SOL    HW111777   0.645   3.499   4.331
 3626SOL    HW211778   0.753   3.484   4.452
 3627SOL     OW11779   5.014   3.306   1.482
 3627SOL    HW111780   4.969   3.334   1.567
 3627SOL    HW211781   5.027   3.207   1.482
 3628SOL     OW11782   1.560   1.006   2.448
 3628SOL    HW111783   1.590   1.098   2.423
 3628SOL    HW211784   1.617   0.972   2.523
 3629SOL     OW11785   1.467   0.596   4.188
 3629SOL    HW111786   1.542   0.648   4.230
 3629SOL    HW211787   1.419   0.654   4.122
 3630SOL     OW11788   6.736   2.737   3.274
 3630SOL    HW111789   6.706   2.677   3.200
 3630SOL    HW211790   6.752   2.683   3.357
 3631SOL     OW11791   1.764   6.646   3.654
 3631SOL    HW111792   1.847   6.702   3.647
 3631SOL    HW211793   1.773   6.564   3.597
 3632SOL     OW11794   4.746   3.768   0.846
 3632SOL    HW111795   4.712   3.832   0.914
 3632SOL    HW211796   4.833   3.730   0.876
 3633SOL     OW11797   3.773   2.267   5.675
 3633SOL    HW111798   3.784   2.168   5.670
 3633SOL    HW211799   3.713   2.290   5.752
 3634SOL     OW11800   2.104   6.294   6.160
 3634SOL    HW111801   2.137   6.388   6.147
 3634SOL    HW211802   2.007   6.295   6.182
 3635SOL     OW11803   2.148   1.590   0.995
 3635SOL    HW111804   2.075   1.593   1.063
 3635SOL    HW211805   2.232   1.558   1.038
 3636SOL     OW11806   0.083   5.772   0.873
 3636SOL    HW111807   0.029   5.838   0.926
 3636SOL    HW211808   0.023   5.698   0.841
 3637SOL     OW11809   1.033   2.459   0.636
 3637SOL    HW111810   1.106   2.527   0.651
 3637SOL    HW211811   0.947   2.507   0.616
 3638SOL     OW11812   6.988   3.781   2.388
 3638SOL    HW111813   7.001   3.740   2.478
 3638SOL    HW211814   6.896   3.818   2.381
 3639SOL     OW11815   3.874   4.455   5.650
 3639SOL    HW111816   3.916   4.369   5.674
 3639SOL    HW211817   3.778   4.455   5.679
 3640SOL     OW11818   5.208   2.420   0.427
 3640SOL    HW111819   5.286   2.357   0.432
 3640SOL    HW211820   5.200   2.470   0.513
 3641SOL     OW11821   5.250   4.879   1.056
 3641SOL    HW111822   5.194   4.864   0.975
 3641SOL    HW211823   5.233   4.971   1.091
 3642SOL     OW11824   5.403   1.984   6.344
 3642SOL    HW111825   5.421   2.073   6.304
 3642SOL    HW211826   5.314   1.985   6.389
 3643SOL     OW11827   4.300   6.947   5.737
 3643SOL    HW111828   4.352   6.871   5.698
 3643SOL    HW211829   4.355   6.993   5.807
 3644SOL     OW11830   3.112   1.255   1.516
 3644SOL    HW111831   3.098   1.194   1.438
 3644SOL    HW211832   3.024   1.292   1.546
 3645SOL     OW11833   1.705   3.784   4.504
 3645SOL    HW111834   1.732   3.688   4.499
 3645SOL    HW211835   1.607   3.790   4.525
 3646SOL     OW11836   1.890   4.776   4.739
 3646SOL    HW111837   1.896   4.825   4.826
 3646SOL    HW211838   1.958   4.703   4.737
 3647SOL     OW11839   2.498   6.674   6.878
 3647SOL    HW111840   2.551   6.720   6.807
 3647SOL    HW211841   2.401   6.695   6.867
 3648SOL     OW11842   4.847   5.632   3.138
 3648SOL    HW111843   4.917   5.576   3.182
 3648SOL    HW211844   4.834   5.717   3.189
 3649SOL     OW11845   5.760   4.206   6.991
 3649SOL    HW111846   5.686   4.140   6.994
 3649SOL    HW211847   5.770   4.251   0.057
 3650SOL     OW11848   5.525   4.289   0.882
 3650SOL    HW111849   5.594   4.333   0.940
 3650SOL    HW211850   5.485   4.357   0.821
 3651SOL     OW11851   2.104   1.548   5.495
 3651SOL    HW111852   2.135   1.640   5.517
 3651SOL    HW211853   2.040   1.552   5.419
 3652SOL     OW11854   5.816   0.181   2.506
 3652SOL    HW111855   5.762   0.188   2.591
 3652SOL    HW211856   5.912   0.196   2.527
 3653SOL     OW11857   0.850   0.746   2.805
 3653SOL    HW111858   0.935   0.765   2.855
 3653SOL    HW211859   0.781   0.814   2.831
 3654SOL     OW11860   4.239   5.840   0.330
 3654SOL    HW111861   4.302   5.772   0.293
 3654SOL    HW211862   4.289   5.925   0.348
 3655SOL     OW11863   3.077   1.137   4.460
 3655SOL    HW111864   3.140   1.146   4.383
 3655SOL    HW211865   3.111   1.068   4.523
 3656SOL     OW11866   0.690   5.175   1.129
 3656SOL    HW111867   0.762   5.233   1.091
 3656SOL    HW211868   0.656   5.113   1.059
 3657SOL     OW11869   4.867   6.052   5.525
 3657SOL    HW111870   4.853   6.003   5.439
 3657SOL    HW211871   4.830   5.998   5.601
 3658SOL     OW11872   1.489   5.004   6.542
 3658SOL    HW111873   1.580   5.000   6.501
 3658SOL    HW211874   1.498   5.006   6.642
 3659SOL     OW11875   0.374   1.414   6.236
 3659SOL    HW111876   0.330   1.324   6.226
 3659SOL    HW211877   0.456   1.405   6.292
 3660SOL     OW11878   6.090   6.394   5.742
 3660SOL    HW111879   5.993   6.417   5.741
 3660SOL    HW211880   6.134   6.430   5.660
 3661SOL     OW11881   6.768   0.831   4.519
 3661SOL    HW111882   6.738   0.743   4.556
 3661SOL    HW211883   6.756   0.831   4.420
 3662SOL     OW11884   3.882   1.031   5.137
 3662SOL    HW111885   3.945   1.051   5.061
 3662SOL    HW211886   3.797   1.082   5.124
 3663SOL     OW11887   2.586   2.049   6.431
 3663SOL    HW111888   2.635   2.004   6.506
 3663SOL    HW211889   2.651   2.076   6.360
 3664SOL     OW11890   4.366   2.173   2.068
 3664SOL    HW111891   4.411   2.173   1.978
 3664SOL    HW211892   4.270   2.197   2.057
 3665SOL     OW11893   0.403   6.196   5.835
 3665SOL    HW111894   0.424   6.244   5.750
 3665SOL    HW211895   0.323   6.238   5.879
 3666SOL     OW11896   1.208   2.599   3.237
 3666SOL    HW111897   1.186   2.671   3.172
 3666SOL    HW211898   1.302   2.611   3.270
 3667SOL     OW11899   0.994   1.566   3.634
 3667SOL    HW111900   0.969   1.607   3.547
 3667SOL    HW211901   0.949   1.477   3.644
 3668SOL     OW11902   1.095   0.305   1.802
 3668SOL    HW111903   1.114   0.214   1.839
 3668SOL    HW211904   0.996   0.321   1.801
 3669SOL     OW11905   6.267   1.511   4.636
 3669SOL    HW111906   6.269   1.514   4.736
 3669SOL    HW211907   6.191   1.565   4.602
 3670SOL     OW11908   3.384   4.861   1.374
 3670SOL    HW111909   3.359   4.781   1.429
 3670SOL    HW211910   3.364   4.944   1.425
 3671SOL     OW11911   6.674   0.996   2.647
 3671SOL    HW111912   6.759   0.946   2.630
 3671SOL    HW211913   6.677   1.085   2.601
 3672SOL     OW11914   5.610   1.274   2.391
 3672SOL    HW111915   5.684   1.235   2.337
 3672SOL    HW211916   5.536   1.302   2.331
 3673SOL     OW11917   4.114   5.802   0.084
 3673SOL    HW111918   4.178   5.818   0.158
 3673SOL    HW211919   4.025   5.776   0.121
 3674SOL     OW11920   0.888   5.988   6.202
 3674SOL    HW111921   0.912   5.909   6.145
 3674SOL    HW211922   0.935   5.982   6.290
 3675SOL     OW11923   0.000   2.299   3.535
 3675SOL    HW111924   0.037   2.206   3.532
 3675SOL    HW211925   6.989   2.318   3.627
 3676SOL     OW11926   5.094   3.280   2.990
 3676SOL    HW111927   5.079   3.328   3.076
 3676SOL    HW211928   5.186   3.299   2.956
 3677SOL     OW11929   1.993   0.734   5.254
 3677SOL    HW111930   1.951   0.656   5.301
 3677SOL    HW211931   2.077   0.760   5.302
 3678SOL     OW11932   1.282   0.969   4.187
 3678SOL    HW111933   1.242   1.047   4.237
 3678SOL    HW211934   1.351   0.925   4.244
 3679SOL     OW11935   5.590   0.156   2.676
 3679SOL    HW111936   5.574   0.113   2.765
 3679SOL    HW211937   5.581   0.255   2.684
 3680SOL     OW11938   5.075   2.334   3.523
 3680SOL    HW111939   5.004   2.263   3.516
 3680SOL    HW211940   5.038   2.413   3.571
 3681SOL     OW11941   0.837   0.361   5.872
 3681SOL    HW111942   0.824   0.328   5.965
 3681SOL    HW211943   0.907   0.432   5.871
 3682SOL     OW11944   5.164   2.461   1.271
 3682SOL    HW111945   5.133   2.444   1.365
 3682SOL    HW211946   5.099   2.420   1.207
 3683SOL     OW11947   0.012   1.032   4.543
 3683SOL    HW111948   0.082   1.022   4.614
 3683SOL    HW211949   6.963   0.964   4.558
 3684SOL     OW11950   1.838   6.296   6.189
 3684SOL    HW111951   1.825   6.344   6.276
 3684SOL    HW211952   1.750   6.260   6.158
 3685SOL     OW11953   2.620   6.041   5.531
 3685SOL    HW111954   2.543   5.984   5.505
 3685SOL    HW211955   2.703   6.008   5.486
 3686SOL     OW11956   6.716   4.066   3.886
 3686SOL    HW111957   6.758   4.152   3.915
 3686SOL    HW211958   6.779   4.017   3.826
 3687SOL     OW11959   5.212   6.502   3.115
 3687SOL    HW111960   5.198   6.539   3.207
 3687SOL    HW211961   5.175   6.409   3.110
 3688SOL     OW11962   5.657   3.939   0.274
 3688SOL    HW111963   5.737   3.888   0.306
 3688SOL    HW211964   5.575   3.903   0.318
 3689SOL     OW11965   2.189   1.510   5.072
 3689SOL    HW111966   2.108   1.543   5.120
 3689SOL    HW211967   2.236   1.588   5.030
 3690SOL     OW11968   5.045   5.284   0.818
 3690SOL    HW111969   4.993   5.344   0.758
 3690SOL    HW211970   5.106   5.339   0.876
 3691SOL     OW11971   2.535   2.168   6.050
 3691SOL    HW111972   2.632   2.172   6.074
 3691SOL    HW211973   2.498   2.260   6.044
 3692SOL     OW11974   6.832   4.079   6.226
 3692SOL    HW111975   6.911   4.075   6.287
 3692SOL    HW211976   6.862   4.105   6.134
 3693SOL     OW11977   0.903   1.812   2.750
 3693SOL    HW111978   0.896   1.857   2.661
 3693SOL    HW211979   0.848   1.862   2.817
 3694SOL     OW11980   0.840   0.371   1.810
 3694SOL    HW111981   0.830   0.458   1.761
 3694SOL    HW211982   0.805   0.382   1.903
 3695SOL     OW11983   6.880   2.287   2.130
 3695SOL    HW111984   6.839   2.365   2.084
 3695SOL    HW211985   6.925   2.317   2.214
 3696SOL     OW11986   5.537   1.058   4.905
 3696SOL    HW111987   5.546   1.021   4.997
 3696SOL    HW211988   5.516   1.156   4.910
 3697SOL     OW11989   5.936   5.775   3.618
 3697SOL    HW111990   5.914   5.857   3.565
 3697SOL    HW211991   5.861   5.709   3.609
 3698SOL     OW11992   2.166   0.692   3.777
 3698SOL    HW111993   2.153   0.780   3.822
 3698SOL    HW211994   2.092   0.630   3.802
 3699SOL     OW11995   2.390   2.223   3.821
 3699SOL    HW111996   2.340   2.153   3.770
 3699SOL    HW211997   2.433   2.181   3.901
 3700SOL     OW11998   1.445   5.323   5.485
 3700SOL    HW111999   1.392   5.408   5.480
 3700SOL    HW212000   1.518   5.333   5.553
 3701SOL     OW12001   0.548   6.290   2.113
 3701SOL    HW112002   0.635   6.284   2.064
 3701SOL    HW212003   0.487   6.354   2.066
 3702SOL     OW12004   5.433   6.572   4.031
 3702SOL    HW112005   5.477   6.528   3.952
 3702SOL    HW212006   5.337   6.589   4.010
 3703SOL     OW12007   1.005   0.818   6.188
 3703SOL    HW112008   0.968   0.908   6.210
 3703SOL    HW212009   1.103   0.815   6.211
 3704SOL     OW12010   5.117   3.295   1.143
 3704SOL    HW112011   5.055   3.217   1.153
 3704SOL    HW212012   5.090   3.368   1.206
 3705SOL     OW12013   4.898   4.818   3.402
 3705SOL    HW112014   4.963   4.761   3.351
 3705SOL    HW212015   4.825   4.760   3.439
 3706SOL     OW12016   0.693   4.048   0.026
 3706SOL    HW112017   0.650   4.133   7.015
 3706SOL    HW212018   0.782   4.036   7.005
 3707SOL     OW12019   3.519   4.898   3.939
 3707SOL    HW112020   3.470   4.957   3.876
 3707SOL    HW212021   3.454   4.845   3.993
 3708SOL     OW12022   4.476   6.864   1.328
 3708SOL    HW112023   4.447   6.835   1.237
 3708SOL    HW212024   4.395   6.880   1.385
 3709SOL     OW12025   1.722   0.247   1.657
 3709SOL    HW112026   1.692   0.279   1.567
 3709SOL    HW212027   1.810   0.199   1.648
 3710SOL     OW12028   0.156   4.998   5.700
 3710SOL    HW112029   0.234   5.041   5.746
 3710SOL    HW212030   0.189   4.942   5.624
 3711SOL     OW12031   1.911   6.452   4.898
 3711SOL    HW112032   1.965   6.494   4.971
 3711SOL    HW212033   1.944   6.360   4.881
 3712SOL     OW12034   2.293   5.251   6.263
 3712SOL    HW112035   2.249   5.339   6.247
 3712SOL    HW212036   2.388   5.256   6.232
 3713SOL     OW12037   0.320   6.729   4.832
 3713SOL    HW112038   0.296   6.826   4.838
 3713SOL    HW212039   0.341   6.694   4.923
 3714SOL     OW12040   0.946   4.631   6.756
 3714SOL    HW112041   0.975   4.621   6.661
 3714SOL    HW212042   0.849   4.654   6.759
 3715SOL     OW12043   0.627   5.852   3.080
 3715SOL    HW112044   0.588   5.760   3.091
 3715SOL    HW212045   0.607   5.906   3.161
 3716SOL     OW12046   6.213   5.234   4.151
 3716SOL    HW112047   6.131   5.291   4.147
 3716SOL    HW212048   6.203   5.157   4.087
 3717SOL     OW12049   4.876   1.575   0.024
 3717SOL    HW112050   4.948   1.594   0.090
 3717SOL    HW212051   4.821   1.498   0.056
 3718SOL     OW12052   0.574   0.200   6.752
 3718SOL    HW112053   0.514   0.120   6.757
 3718SOL    HW212054   0.521   0.281   6.727
 3719SOL     OW12055   4.437   3.057   6.230
 3719SOL    HW112056   4.405   3.146   6.197
 3719SOL    HW212057   4.363   3.010   6.278
 3720SOL     OW12058   5.135   3.737   1.094
 3720SOL    HW112059   5.147   3.823   1.046
 3720SOL    HW212060   5.193   3.735   1.175
 3721SOL     OW12061   6.402   5.243   6.662
 3721SOL    HW112062   6.430   5.335   6.687
 3721SOL    HW212063   6.373   5.193   6.743
 3722SOL     OW12064   4.542   0.183   1.120
 3722SOL    HW112065   4.462   0.123   1.114
 3722SOL    HW212066   4.573   0.187   1.215
 3723SOL     OW12067   4.308   5.085   0.109
 3723SOL    HW112068   4.270   4.997   0.079
 3723SOL    HW212069   4.233   5.149   0.124
 3724SOL     OW12070   1.686   5.003   5.382
 3724SOL    HW112071   1.740   5.061   5.322
 3724SOL    HW212072   1.712   5.020   5.477
 3725SOL     OW12073   0.161   6.126   0.241
 3725SOL    HW112074   0.124   6.062   0.308
 3725SOL    HW212075   0.215   6.196   0.287
 3726SOL     OW12076   5.158   4.648   4.916
 3726SOL    HW112077   5.091   4.593   4.965
 3726SOL    HW212078   5.142   4.641   4.818
 3727SOL     OW12079   6.849   3.572   4.773
 3727SOL    HW112080   6.766   3.621   4.797
 3727SOL    HW212081   6.917   3.637   4.738
 3728SOL     OW12082   2.940   3.453   0.244
 3728SOL    HW112083   2.876   3.401   0.187
 3728SOL    HW212084   2.991   3.517   0.187
 3729SOL     OW12085   0.660   0.232   4.303
 3729SOL    HW112086   0.669   0.133   4.316
 3729SOL    HW212087   0.592   0.268   4.367
 3730SOL     OW12088   4.347   6.422   5.959
 3730SOL    HW112089   4.423   6.464   5.911
 3730SOL    HW212090   4.342   6.458   6.052
 3731SOL     OW12091   0.518   1.373   6.966
 3731SOL    HW112092   0.609   1.365   6.926
 3731SOL    HW212093   0.450   1.331   6.906
 3732SOL     OW12094   1.419   1.937   0.998
 3732SOL    HW112095   1.366   1.945   0.914
 3732SOL    HW212096   1.469   2.022   1.014
 3733SOL     OW12097   1.747   3.045   3.255
 3733SOL    HW112098   1.780   3.006   3.169
 3733SOL    HW212099   1.757   3.145   3.253
 3734SOL     OW12100   4.192   0.463   1.180
 3734SOL    HW112101   4.204   0.372   1.219
 3734SOL    HW212102   4.121   0.512   1.232
 3735SOL     OW12103   4.378   0.157   2.420
 3735SOL    HW112104   4.435   0.086   2.461
 3735SOL    HW212105   4.405   0.170   2.324
 3736SOL     OW12106   6.581   0.731   1.000
 3736SOL    HW112107   6.593   0.654   1.062
 3736SOL    HW212108   6.575   0.698   0.906
 3737SOL     OW12109   5.833   2.499   3.955
 3737SOL    HW112110   5.822   2.581   3.899
 3737SOL    HW212111   5.846   2.526   4.050
 3738SOL     OW12112   6.346   5.897   1.245
 3738SOL    HW112113   6.343   5.996   1.235
 3738SOL    HW212114   6.288   5.855   1.175
 3739SOL     OW12115   2.873   4.445   1.536
 3739SOL    HW112116   2.967   4.428   1.509
 3739SOL    HW212117   2.871   4.475   1.632
 3740SOL     OW12118   5.773   5.982   0.297
 3740SOL    HW112119   5.782   5.892   0.254
 3740SOL    HW212120   5.692   6.029   0.262
 3741SOL     OW12121   5.108   3.211   6.761
 3741SOL    HW112122   5.146   3.170   6.844
 3741SOL    HW212123   5.176   3.271   6.719
 3742SOL     OW12124   4.711   5.465   0.438
 3742SOL    HW112125   4.780   5.398   0.464
 3742SOL    HW212126   4.672   5.440   0.350
 3743SOL     OW12127   4.650   4.362   1.621
 3743SOL    HW112128   4.576   4.326   1.677
 3743SOL    HW212129   4.654   4.313   1.534
 3744SOL     OW12130   0.852   6.400   2.199
 3744SOL    HW112131   0.864   6.392   2.298
 3744SOL    HW212132   0.792   6.478   2.179
 3745SOL     OW12133   4.939   3.556   2.406
 3745SOL    HW112134   4.907   3.575   2.313
 3745SOL    HW212135   4.929   3.639   2.461
 3746SOL     OW12136   0.033   0.417   3.612
 3746SOL    HW112137   0.113   0.462   3.571
 3746SOL    HW212138   6.974   0.449   3.567
 3747SOL     OW12139   4.637   6.287   6.185
 3747SOL    HW112140   4.724   6.289   6.233
 3747SOL    HW212141   4.640   6.350   6.107
 3748SOL     OW12142   5.836   0.873   2.080
 3748SOL    HW112143   5.783   0.898   1.999
 3748SOL    HW212144   5.800   0.788   2.119
 3749SOL     OW12145   1.625   5.504   2.776
 3749SOL    HW112146   1.651   5.599   2.793
 3749SOL    HW212147   1.600   5.460   2.862
 3750SOL     OW12148   5.670   4.698   0.826
 3750SOL    HW112149   5.703   4.792   0.817
 3750SOL    HW212150   5.571   4.696   0.813
 3751SOL     OW12151   0.596   2.849   0.840
 3751SOL    HW112152   0.535   2.799   0.777
 3751SOL    HW212153   0.546   2.872   0.923
 3752SOL     OW12154   0.646   6.913   0.099
 3752SOL    HW112155   0.739   6.903   0.063
 3752SOL    HW212156   0.603   6.993   0.058
 3753SOL     OW12157   0.427   6.141   5.035
 3753SOL    HW112158   0.387   6.222   5.079
 3753SOL    HW212159   0.354   6.076   5.014
 3754SOL     OW12160   5.496   6.339   1.755
 3754SOL    HW112161   5.513   6.301   1.664
 3754SOL    HW212162   5.438   6.420   1.747
 3755SOL     OW12163   5.741   5.446   4.454
 3755SOL    HW112164   5.727   5.520   4.388
 3755SOL    HW212165   5.668   5.378   4.445
 3756SOL     OW12166   2.170   0.583   6.151
 3756SOL    HW112167   2.261   0.622   6.134
 3756SOL    HW212168   2.164   0.493   6.109
 3757SOL     OW12169   3.654   5.896   5.776
 3757SOL    HW112170   3.606   5.846   5.704
 3757SOL    HW212171   3.703   5.973   5.736
 3758SOL     OW12172   2.036   1.778   4.790
 3758SOL    HW112173   2.040   1.678   4.787
 3758SOL    HW212174   1.967   1.807   4.856
 3759SOL     OW12175   4.385   5.471   5.484
 3759SOL    HW112176   4.295   5.464   5.525
 3759SOL    HW212177   4.412   5.381   5.449
 3760SOL     OW12178   1.183   3.807   3.468
 3760SOL    HW112179   1.255   3.794   3.400
 3760SOL    HW212180   1.185   3.902   3.500
 3761SOL     OW12181   0.743   6.815   4.826
 3761SOL    HW112182   0.704   6.725   4.808
 3761SOL    HW212183   0.747   6.831   4.924
 3762SOL     OW12184   0.842   4.333   6.799
 3762SOL    HW112185   0.898   4.256   6.769
 3762SOL    HW212186   0.893   4.390   6.863
 3763SOL     OW12187   6.875   4.644   6.495
 3763SOL    HW112188   6.819   4.597   6.564
 3763SOL    HW212189   6.820   4.659   6.413
 3764SOL     OW12190   1.886   0.822   5.033
 3764SOL    HW112191   1.933   0.811   5.121
 3764SOL    HW212192   1.873   0.732   4.991
 3765SOL     OW12193   4.913   1.090   3.035
 3765SOL    HW112194   4.849   1.151   3.081
 3765SOL    HW212195   4.878   0.996   3.038
 3766SOL     OW12196   1.029   0.483   4.046
 3766SOL    HW112197   1.040   0.527   3.957
 3766SOL    HW212198   0.988   0.548   4.110
 3767SOL     OW12199   2.325   4.527   0.301
 3767SOL    HW112200   2.227   4.509   0.306
 3767SOL    HW212201   2.341   4.625   0.294
 3768SOL     OW12202   3.819   6.469   6.167
 3768SOL    HW112203   3.836   6.371   6.157
 3768SOL    HW212204   3.741   6.496   6.111
 3769SOL     OW12205   5.468   5.807   5.296
 3769SOL    HW112206   5.467   5.881   5.362
 3769SOL    HW212207   5.513   5.838   5.212
 3770SOL     OW12208   2.025   0.598   6.810
 3770SOL    HW112209   2.093   0.526   6.796
 3770SOL    HW212210   1.950   0.562   6.866
 3771SOL     OW12211   5.361   1.802   0.847
 3771SOL    HW112212   5.335   1.711   0.880
 3771SOL    HW212213   5.279   1.851   0.816
 3772SOL     OW12214   6.629   1.415   0.781
 3772SOL    HW112215   6.541   1.458   0.805
 3772SOL    HW212216   6.687   1.483   0.736
 3773SOL     OW12217   5.652   3.391   5.998
 3773SOL    HW112218   5.647   3.308   6.054
 3773SOL    HW212219   5.562   3.413   5.961
 3774SOL     OW12220   1.055   6.595   6.514
 3774SOL    HW112221   1.083   6.636   6.601
 3774SOL    HW212222   0.965   6.629   6.488
 3775SOL     OW12223   5.117   3.918   2.203
 3775SOL    HW112224   5.139   3.844   2.140
 3775SOL    HW212225   5.099   3.880   2.294
 3776SOL     OW12226   2.768   1.247   1.752
 3776SOL    HW112227   2.725   1.161   1.726
 3776SOL    HW212228   2.774   1.306   1.671
 3777SOL     OW12229   2.663   4.731   4.413
 3777SOL    HW112230   2.692   4.780   4.495
 3777SOL    HW212231   2.673   4.633   4.426
 3778SOL     OW12232   2.196   6.117   2.920
 3778SOL    HW112233   2.104   6.107   2.960
 3778SOL    HW212234   2.243   6.029   2.925
 3779SOL     OW12235   2.752   5.147   6.714
 3779SOL    HW112236   2.682   5.110   6.775
 3779SOL    HW212237   2.730   5.123   6.619
 3780SOL     OW12238   3.478   4.918   4.601
 3780SOL    HW112239   3.528   4.947   4.683
 3780SOL    HW212240   3.383   4.947   4.608
 3781SOL     OW12241   1.840   6.204   3.793
 3781SOL    HW112242   1.899   6.126   3.775
 3781SOL    HW212243   1.796   6.233   3.708
 3782SOL     OW12244   2.673   2.350   4.270
 3782SOL    HW112245   2.719   2.340   4.359
 3782SOL    HW212246   2.585   2.302   4.273
 3783SOL     OW12247   6.870   6.754   4.712
 3783SOL    HW112248   6.950   6.709   4.671
 3783SOL    HW212249   6.787   6.705   4.684
 3784SOL     OW12250   5.149   1.684   3.020
 3784SOL    HW112251   5.234   1.640   3.047
 3784SOL    HW212252   5.073   1.647   3.073
 3785SOL     OW12253   1.958   1.166   7.012
 3785SOL    HW112254   1.941   1.203   0.080
 3785SOL    HW212255   1.936   1.068   7.011
 3786SOL     OW12256   2.703   5.644   3.226
 3786SOL    HW112257   2.694   5.659   3.128
 3786SOL    HW212258   2.636   5.575   3.255
 3787SOL     OW12259   5.602   6.581   3.389
 3787SOL    HW112260   5.627   6.520   3.314
 3787SOL    HW212261   5.631   6.542   3.475
 3788SOL     OW12262   6.416   3.215   3.621
 3788SOL    HW112263   6.457   3.172   3.541
 3788SOL    HW212264   6.460   3.303   3.638
 3789SOL     OW12265   1.723   4.264   4.347
 3789SOL    HW112266   1.692   4.319   4.424
 3789SOL    HW212267   1.822   4.271   4.337
 3790SOL     OW12268   1.952   3.710   5.120
 3790SOL    HW112269   1.946   3.612   5.136
 3790SOL    HW212270   1.986   3.727   5.027
 3791SOL     OW12271   5.614   0.173   0.725
 3791SOL    HW112272   5.562   0.141   0.804
 3791SOL    HW212273   5.673   0.099   0.691
 3792SOL     OW12274   6.580   0.713   4.907
 3792SOL    HW112275   6.661   0.658   4.886
 3792SOL    HW212276   6.540   0.747   4.822
 3793SOL     OW12277   2.398   0.610   2.920
 3793SOL    HW112278   2.304   0.579   2.907
 3793SOL    HW212279   2.445   0.549   2.984
 3794SOL     OW12280   3.919   5.529   1.718
 3794SOL    HW112281   3.837   5.585   1.733
 3794SOL    HW212282   3.893   5.436   1.696
 3795SOL     OW12283   3.905   6.767   6.431
 3795SOL    HW112284   3.955   6.841   6.475
 3795SOL    HW212285   3.950   6.742   6.345
 3796SOL     OW12286   1.911   2.238   1.675
 3796SOL    HW112287   1.821   2.281   1.669
 3796SOL    HW212288   1.982   2.308   1.678
 3797SOL     OW12289   6.620   5.534   2.397
 3797SOL    HW112290   6.596   5.626   2.365
 3797SOL    HW212291   6.701   5.540   2.456
 3798SOL     OW12292   2.526   5.134   3.128
 3798SOL    HW112293   2.568   5.114   3.039
 3798SOL    HW212294   2.470   5.217   3.121
 3799SOL     OW12295   1.186   2.645   4.053
 3799SOL    HW112296   1.107   2.695   4.020
 3799SOL    HW212297   1.254   2.637   3.980
 3800SOL     OW12298   5.196   2.213   5.136
 3800SOL    HW112299   5.208   2.279   5.210
 3800SOL    HW212300   5.192   2.121   5.174
 3801SOL     OW12301   6.235   5.839   5.545
 3801SOL    HW112302   6.273   5.880   5.627
 3801SOL    HW212303   6.294   5.859   5.467
 3802SOL     OW12304   1.110   1.943   5.097
 3802SOL    HW112305   1.151   1.999   5.024
 3802SOL    HW212306   1.014   1.968   5.107
 3803SOL     OW12307   3.780   1.017   2.357
 3803SOL    HW112308   3.753   1.101   2.310
 3803SOL    HW212309   3.755   0.938   2.302
 3804SOL     OW12310   4.602   2.248   4.797
 3804SOL    HW112311   4.695   2.236   4.764
 3804SOL    HW212312   4.560   2.159   4.813
 3805SOL     OW12313   2.943   3.948   1.724
 3805SOL    HW112314   3.037   3.916   1.736
 3805SOL    HW212315   2.881   3.870   1.718
 3806SOL     OW12316   2.493   2.690   0.076
 3806SOL    HW112317   2.588   2.681   0.109
 3806SOL    HW212318   2.432   2.698   0.155
 3807SOL     OW12319   2.234   1.548   4.450
 3807SOL    HW112320   2.300   1.622   4.439
 3807SOL    HW212321   2.171   1.547   4.372
 3808SOL     OW12322   3.209   0.414   2.213
 3808SOL    HW112323   3.291   0.389   2.264
 3808SOL    HW212324   3.161   0.487   2.262
 3809SOL     OW12325   5.745   2.190   6.790
 3809SOL    HW112326   5.766   2.141   6.874
 3809SOL    HW212327   5.780   2.139   6.711
 3810SOL     OW12328   4.001   2.944   5.366
 3810SOL    HW112329   3.927   2.924   5.301
 3810SOL    HW212330   3.973   3.021   5.424
 3811SOL     OW12331   0.643   4.517   3.930
 3811SOL    HW112332   0.725   4.567   3.904
 3811SOL    HW212333   0.562   4.574   3.911
 3812SOL     OW12334   5.522   1.372   5.251
 3812SOL    HW112335   5.428   1.342   5.237
 3812SOL    HW212336   5.563   1.319   5.326
 3813SOL     OW12337   4.364   4.087   0.903
 3813SOL    HW112338   4.434   4.107   0.834
 3813SOL    HW212339   4.391   4.125   0.991
 3814SOL     OW12340   0.182   6.564   1.040
 3814SOL    HW112341   0.095   6.539   1.083
 3814SOL    HW212342   0.203   6.499   0.967
 3815SOL     OW12343   4.825   2.141   0.575
 3815SOL    HW112344   4.766   2.190   0.640
 3815SOL    HW212345   4.834   2.046   0.606
 3816SOL     OW12346   6.961   6.552   1.619
 3816SOL    HW112347   6.933   6.536   1.714
 3816SOL    HW212348   6.898   6.617   1.577
 3817SOL     OW12349   4.845   2.883   4.323
 3817SOL    HW112350   4.777   2.852   4.390
 3817SOL    HW212351   4.930   2.833   4.337
 3818SOL     OW12352   4.428   6.429   1.493
 3818SOL    HW112353   4.340   6.477   1.495
 3818SOL    HW212354   4.490   6.475   1.429
 3819SOL     OW12355   5.709   5.317   0.397
 3819SOL    HW112356   5.626   5.370   0.380
 3819SOL    HW212357   5.753   5.295   0.310
 3820SOL     OW12358   6.306   6.186   3.277
 3820SOL    HW112359   6.396   6.150   3.304
 3820SOL    HW212360   6.237   6.116   3.295
 3821SOL     OW12361   1.572   3.206   2.151
 3821SOL    HW112362   1.554   3.119   2.197
 3821SOL    HW212363   1.602   3.190   2.057
 3822SOL     OW12364   1.299   5.269   2.165
 3822SOL    HW112365   1.237   5.343   2.140
 3822SOL    HW212366   1.350   5.239   2.085
 3823SOL     OW12367   4.085   2.235   5.219
 3823SOL    HW112368   3.994   2.252   5.258
 3823SOL    HW212369   4.112   2.312   5.162
 3824SOL     OW12370   6.126   1.658   5.343
 3824SOL    HW112371   6.185   1.651   5.423
 3824SOL    HW212372   6.156   1.733   5.284
 3825SOL     OW12373   6.782   0.485   0.110
 3825SOL    HW112374   6.819   0.550   0.044
 3825SOL    HW212375   6.856   0.448   0.166
 3826SOL     OW12376   0.263   3.901   0.224
 3826SOL    HW112377   0.341   3.859   0.176
 3826SOL    HW212378   0.245   3.850   0.309
 3827SOL     OW12379   3.955   3.926   1.078
 3827SOL    HW112380   3.903   3.903   1.160
 3827SOL    HW212381   3.892   3.935   1.000
 3828SOL     OW12382   4.423   2.452   0.695
 3828SOL    HW112383   4.464   2.514   0.629
 3828SOL    HW212384   4.492   2.388   0.730
 3829SOL     OW12385   2.369   4.945   3.904
 3829SOL    HW112386   2.321   4.941   3.817
 3829SOL    HW212387   2.303   4.958   3.978
 3830SOL     OW12388   1.301   0.104   5.631
 3830SOL    HW112389   1.389   0.150   5.637
 3830SOL    HW212390   1.257   0.104   5.721
 3831SOL     OW12391   4.584   1.974   2.551
 3831SOL    HW112392   4.503   2.018   2.512
 3831SOL    HW212393   4.619   1.906   2.488
 3832SOL     OW12394   6.521   0.708   1.655
 3832SOL    HW112395   6.558   0.663   1.737
 3832SOL    HW212396   6.459   0.782   1.683
 3833SOL     OW12397   0.695   5.130   6.782
 3833SOL    HW112398   0.630   5.084   6.722
 3833SOL    HW212399   0.770   5.067   6.805
 3834SOL     OW12400   2.754   2.018   0.075
 3834SOL    HW112401   2.837   1.966   0.052
 3834SOL    HW212402   2.675   1.957   0.070
 3835SOL     OW12403   3.626   5.530   5.687
 3835SOL    HW112404   3.713   5.504   5.645
 3835SOL    HW212405   3.589   5.611   5.640
 3836SOL     OW12406   2.056   3.635   5.746
 3836SOL    HW112407   1.988   3.564   5.759
 3836SOL    HW212408   2.131   3.600   5.689
 3837SOL     OW12409   4.563   3.502   0.447
 3837SOL    HW112410   4.487   3.518   0.509
 3837SOL    HW212411   4.598   3.589   0.413
 3838SOL     OW12412   5.416   3.378   4.575
 3838SOL    HW112413   5.350   3.442   4.536
 3838SOL    HW212414   5.368   3.313   4.634
 3839SOL     OW12415   5.077   0.360   5.113
 3839SOL    HW112416   5.149   0.336   5.048
 3839SOL    HW212417   5.026   0.277   5.138
 3840SOL     OW12418   0.981   0.577   5.140
 3840SOL    HW112419   1.049   0.593   5.068
 3840SOL    HW212420   0.920   0.502   5.112
 3841SOL     OW12421   0.439   3.916   5.002
 3841SOL    HW112422   0.436   3.901   4.903
 3841SOL    HW212423   0.525   3.881   5.039
 3842SOL     OW12424   0.767   5.405   6.916
 3842SOL    HW112425   0.702   5.361   6.854
 3842SOL    HW212426   0.723   5.484   6.959
 3843SOL     OW12427   0.105   3.431   0.520
 3843SOL    HW112428   0.170   3.500   0.550
 3843SOL    HW212429   0.042   3.471   0.452
 3844SOL     OW12430   1.383   5.337   5.839
 3844SOL    HW112431   1.441   5.264   5.803
 3844SOL    HW212432   1.394   5.420   5.786
 3845SOL     OW12433   3.311   2.900   2.810
 3845SOL    HW112434   3.285   2.811   2.847
 3845SOL    HW212435   3.231   2.960   2.807
 3846SOL     OW12436   6.991   4.842   4.001
 3846SOL    HW112437   0.064   4.856   4.023
 3846SOL    HW212438   6.984   4.774   3.928
 3847SOL     OW12439   6.128   1.194   6.668
 3847SOL    HW112440   6.197   1.151   6.610
 3847SOL    HW212441   6.054   1.129   6.685
 3848SOL     OW12442   2.259   5.301   2.412
 3848SOL    HW112443   2.201   5.246   2.352
 3848SOL    HW212444   2.241   5.275   2.507
 3849SOL     OW12445   0.740   1.400   5.656
 3849SOL    HW112446   0.820   1.408   5.596
 3849SOL    HW212447   0.770   1.405   5.751
 3850SOL     OW12448   2.770   3.333   1.752
 3850SOL    HW112449   2.811   3.241   1.752
 3850SOL    HW212450   2.818   3.391   1.686
 3851SOL     OW12451   2.428   4.354   2.844
 3851SOL    HW112452   2.367   4.307   2.779
 3851SOL    HW212453   2.422   4.308   2.933
 3852SOL     OW12454   4.606   0.369   4.943
 3852SOL    HW112455   4.634   0.448   4.997
 3852SOL    HW212456   4.605   0.392   4.846
 3853SOL     OW12457   0.432   3.041   2.762
 3853SOL    HW112458   0.351   3.058   2.818
 3853SOL    HW212459   0.441   3.112   2.692
 3854SOL     OW12460   0.978   3.622   3.463
 3854SOL    HW112461   0.978   3.606   3.562
 3854SOL    HW212462   1.023   3.710   3.444
 3855SOL     OW12463   5.852   5.021   6.135
 3855SOL    HW112464   5.915   5.051   6.063
 3855SOL    HW212465   5.787   5.094   6.155
 3856SOL     OW12466   0.546   0.181   6.137
 3856SOL    HW112467   0.500   0.093   6.122
 3856SOL    HW212468   0.532   0.240   6.058
 3857SOL     OW12469   1.673   6.851   4.815
 3857SOL    HW112470   1.650   6.933   4.763
 3857SOL    HW212471   1.752   6.869   4.873
 3858SOL     OW12472   1.011   6.408   6.240
 3858SOL    HW112473   0.990   6.385   6.145
 3858SOL    HW212474   1.063   6.494   6.243
 3859SOL     OW12475   6.593   2.710   3.970
 3859SOL    HW112476   6.504   2.676   3.940
 3859SOL    HW212477   6.614   2.673   4.060
 3860SOL     OW12478   2.314   5.544   4.794
 3860SOL    HW112479   2.261   5.466   4.761
 3860SOL    HW212480   2.379   5.573   4.724
 3861SOL     OW12481   5.515   4.900   1.138
 3861SOL    HW112482   5.424   4.875   1.105
 3861SOL    HW212483   5.541   4.840   1.213
 3862SOL     OW12484   0.206   0.311   6.570
 3862SOL    HW112485   0.157   0.248   6.510
 3862SOL    HW212486   0.152   0.394   6.581
 3863SOL     OW12487   3.269   3.655   0.844
 3863SOL    HW112488   3.201   3.585   0.820
 3863SOL    HW212489   3.236   3.745   0.814
 3864SOL     OW12490   3.758   1.605   6.736
 3864SOL    HW112491   3.732   1.643   6.648
 3864SOL    HW212492   3.684   1.547   6.771
 3865SOL     OW12493   3.905   6.983   2.152
 3865SOL    HW112494   3.846   6.904   2.134
 3865SOL    HW212495   3.975   6.957   2.218
 3866SOL     OW12496   4.057   0.355   0.897
 3866SOL    HW112497   4.035   0.448   0.929
 3866SOL    HW212498   4.154   0.338   0.909
 3867SOL     OW12499   1.899   3.974   3.319
 3867SOL    HW112500   1.967   3.930   3.378
 3867SOL    HW212501   1.927   3.964   3.224
 3868SOL     OW12502   2.074   6.510   1.647
 3868SOL    HW112503   1.981   6.523   1.612
 3868SOL    HW212504   2.093   6.581   1.715
 3869SOL     OW12505   6.860   2.403   3.348
 3869SOL    HW112506   6.934   2.346   3.385
 3869SOL    HW212507   6.899   2.479   3.296
 3870SOL     OW12508   3.089   4.874   6.965
 3870SOL    HW112509   3.160   4.901   6.899
 3870SOL    HW212510   3.044   4.956   7.001
 3871SOL     OW12511   3.395   7.008   2.818
 3871SOL    HW112512   3.359   0.069   2.858
 3871SOL    HW212513   3.321   6.943   2.804
 3872SOL     OW12514   3.904   3.380   1.410
 3872SOL    HW112515   3.955   3.380   1.325
 3872SOL    HW212516   3.817   3.332   1.397
 3873SOL     OW12517   5.209   5.383   1.028
 3873SOL    HW112518   5.160   5.470   1.029
 3873SOL    HW212519   5.276   5.381   1.102
 3874SOL     OW12520   4.119   6.385   6.954
 3874SOL    HW112521   4.111   6.484   6.946
 3874SOL    HW212522   4.208   6.355   6.920
 3875SOL     OW12523   1.495   4.539   1.705
 3875SOL    HW112524   1.413   4.486   1.729
 3875SOL    HW212525   1.571   4.510   1.763
 3876SOL     OW12526   6.182   4.961   4.731
 3876SOL    HW112527   6.123   5.031   4.772
 3876SOL    HW212528   6.132   4.874   4.728
 3877SOL     OW12529   5.832   1.083   2.308
 3877SOL    HW112530   5.777   1.019   2.254
 3877SOL    HW212531   5.845   1.167   2.256
 3878SOL     OW12532   3.738   0.076   6.134
 3878SOL    HW112533   3.836   0.069   6.154
 3878SOL    HW212534   3.700   0.155   6.184
 3879SOL     OW12535   4.446   5.545   1.734
 3879SOL    HW112536   4.439   5.466   1.793
 3879SOL    HW212537   4.363   5.601   1.741
 3880SOL     OW12538   5.631   3.737   2.417
 3880SOL    HW112539   5.557   3.784   2.368
 3880SOL    HW212540   5.622   3.638   2.404
 3881SOL     OW12541   1.448   5.012   0.994
 3881SOL    HW112542   1.534   5.012   1.044
 3881SOL    HW212543   1.443   4.932   0.934
 3882SOL     OW12544   6.061   1.323   6.020
 3882SOL    HW112545   6.143   1.347   5.969
 3882SOL    HW212546   6.030   1.232   5.993
 3883SOL     OW12547   4.374   1.481   3.781
 3883SOL    HW112548   4.338   1.521   3.696
 3883SOL    HW212549   4.331   1.392   3.796
 3884SOL     OW12550   1.755   6.026   4.937
 3884SOL    HW112551   1.689   6.050   4.866
 3884SOL    HW212552   1.749   5.928   4.957
 3885SOL     OW12553   0.052   1.145   3.978
 3885SOL    HW112554   0.143   1.184   3.961
 3885SOL    HW212555   7.006   1.217   3.969
 3886SOL     OW12556   6.782   0.484   5.285
 3886SOL    HW112557   6.875   0.451   5.300
 3886SOL    HW212558   6.734   0.489   5.373
 3887SOL     OW12559   4.131   1.813   5.506
 3887SOL    HW112560   4.132   1.846   5.600
 3887SOL    HW212561   4.205   1.747   5.493
 3888SOL     OW12562   6.350   1.728   0.784
 3888SOL    HW112563   6.271   1.671   0.802
 3888SOL    HW212564   6.393   1.755   0.870
 3889SOL     OW12565   0.778   5.573   6.073
 3889SOL    HW112566   0.710   5.519   6.024
 3889SOL    HW212567   0.732   5.636   6.136
 3890SOL     OW12568   5.694   5.419   3.031
 3890SOL    HW112569   5.758   5.364   3.086
 3890SOL    HW212570   5.735   5.440   2.942
 3891SOL     OW12571   5.486   5.316   4.718
 3891SOL    HW112572   5.448   5.350   4.804
 3891SOL    HW212573   5.419   5.329   4.645
 3892SOL     OW12574   6.054   6.771   2.790
 3892SOL    HW112575   6.151   6.795   2.788
 3892SOL    HW212576   6.001   6.852   2.816
 3893SOL     OW12577   3.000   5.536   4.405
 3893SOL    HW112578   3.082   5.592   4.398
 3893SOL    HW212579   3.011   5.468   4.477
 3894SOL     OW12580   4.471   3.314   0.292
 3894SOL    HW112581   4.379   3.333   0.259
 3894SOL    HW212582   4.501   3.389   0.352
 3895SOL     OW12583   2.078   1.301   5.650
 3895SOL    HW112584   2.062   1.400   5.646
 3895SOL    HW212585   2.155   1.278   5.591
 3896SOL     OW12586   6.926   2.783   5.162
 3896SOL    HW112587   6.827   2.791   5.169
 3896SOL    HW212588   6.950   2.709   5.100
 3897SOL     OW12589   3.583   6.794   2.218
 3897SOL    HW112590   3.523   6.827   2.146
 3897SOL    HW212591   3.675   6.780   2.182
 3898SOL     OW12592   4.045   3.794   4.440
 3898SOL    HW112593   3.978   3.826   4.372
 3898SOL    HW212594   4.134   3.784   4.396
 3899SOL     OW12595   4.633   1.558   5.923
 3899SOL    HW112596   4.672   1.466   5.913
 3899SOL    HW212597   4.707   1.625   5.929
 3900SOL     OW12598   6.370   2.784   3.138
 3900SOL    HW112599   6.327   2.728   3.210
 3900SOL    HW212600   6.437   2.845   3.180
 3901SOL     OW12601   1.119   6.801   4.926
 3901SOL    HW112602   1.146   6.897   4.929
 3901SOL    HW212603   1.089   6.778   4.834
 3902SOL     OW12604   5.146   5.209   1.945
 3902SOL    HW112605   5.140   5.131   2.008
 3902SOL    HW212606   5.212   5.188   1.872
 3903SOL     OW12607   4.329   3.086   6.903
 3903SOL    HW112608   4.324   3.037   6.816
 3903SOL    HW212609   4.382   3.032   6.969
 3904SOL     OW12610   1.152   6.184   0.881
 3904SOL    HW112611   1.169   6.138   0.968
 3904SOL    HW212612   1.160   6.283   0.894
 3905SOL     OW12613   6.667   0.476   5.898
 3905SOL    HW112614   6.709   0.566   5.902
 3905SOL    HW212615   6.722   0.416   5.839
 3906SOL     OW12616   1.540   4.837   4.432
 3906SOL    HW112617   1.625   4.877   4.465
 3906SOL    HW212618   1.529   4.745   4.471
 3907SOL     OW12619   6.910   1.380   3.962
 3907SOL    HW112620   6.870   1.319   3.894
 3907SOL    HW212621   6.851   1.460   3.974
 3908SOL     OW12622   1.366   0.309   4.970
 3908SOL    HW112623   1.404   0.275   4.883
 3908SOL    HW212624   1.267   0.322   4.961
 3909SOL     OW12625   5.477   2.989   5.734
 3909SOL    HW112626   5.467   3.084   5.705
 3909SOL    HW212627   5.395   2.960   5.783
 3910SOL     OW12628   3.794   2.464   0.425
 3910SOL    HW112629   3.699   2.495   0.438
 3910SOL    HW212630   3.795   2.367   0.403
 3911SOL     OW12631   6.021   0.935   1.578
 3911SOL    HW112632   6.003   0.904   1.671
 3911SOL    HW212633   6.103   0.991   1.577
 3912SOL     OW12634   4.024   2.011   6.932
 3912SOL    HW112635   3.994   1.938   6.871
 3912SOL    HW212636   4.031   1.976   0.002
 3913SOL     OW12637   4.530   5.311   0.780
 3913SOL    HW112638   4.529   5.328   0.878
 3913SOL    HW212639   4.573   5.389   0.733
 3914SOL     OW12640   5.506   0.978   0.851
 3914SOL    HW112641   5.528   1.039   0.774
 3914SOL    HW212642   5.438   0.911   0.821
 3915SOL     OW12643   4.644   5.120   0.268
 3915SOL    HW112644   4.650   5.021   0.259
 3915SOL    HW212645   4.721   5.163   0.219
 3916SOL     OW12646   1.797   0.681   2.476
 3916SOL    HW112647   1.716   0.645   2.428
 3916SOL    HW212648   1.773   0.768   2.519
 3917SOL     OW12649   2.764   4.900   0.751
 3917SOL    HW112650   2.733   4.970   0.687
 3917SOL    HW212651   2.792   4.944   0.836
 3918SOL     OW12652   5.552   0.648   0.719
 3918SOL    HW112653   5.474   0.709   0.732
 3918SOL    HW212654   5.571   0.598   0.804
 3919SOL     OW12655   3.810   0.309   1.581
 3919SOL    HW112656   3.879   0.299   1.653
 3919SOL    HW212657   3.787   0.406   1.571
 3920SOL     OW12658   3.106   0.932   5.673
 3920SOL    HW112659   3.183   0.905   5.615
 3920SOL    HW212660   3.023   0.938   5.618
 3921SOL     OW12661   0.637   2.589   6.437
 3921SOL    HW112662   0.666   2.681   6.407
 3921SOL    HW212663   0.569   2.553   6.373
 3922SOL     OW12664   4.878   4.989   2.721
 3922SOL    HW112665   4.787   4.961   2.751
 3922SOL    HW212666   4.873   5.026   2.628
 3923SOL     OW12667   5.164   0.621   1.598
 3923SOL    HW112668   5.150   0.522   1.608
 3923SOL    HW212669   5.088   0.660   1.546
 3924SOL     OW12670   6.451   4.505   4.094
 3924SOL    HW112671   6.470   4.575   4.163
 3924SOL    HW212672   6.538   4.473   4.055
 3925SOL     OW12673   4.548   3.554   0.815
 3925SOL    HW112674   4.465   3.561   0.869
 3925SOL    HW212675   4.592   3.643   0.809
 3926SOL     OW12676   0.356   0.228   5.255
 3926SOL    HW112677   0.272   0.178   5.235
 3926SOL    HW212678   0.369   0.233   5.354
 3927SOL     OW12679   6.474   2.871   5.200
 3927SOL    HW112680   6.551   2.917   5.244
 3927SOL    HW212681   6.398   2.863   5.264
 3928SOL     OW12682   2.099   6.235   2.706
 3928SOL    HW112683   2.139   6.197   2.790
 3928SOL    HW212684   2.028   6.301   2.731
 3929SOL     OW12685   0.573   1.988   5.464
 3929SOL    HW112686   0.604   1.915   5.403
 3929SOL    HW212687   0.600   2.077   5.426
 3930SOL     OW12688   0.994   3.855   3.706
 3930SOL    HW112689   1.032   3.766   3.729
 3930SOL    HW212690   1.064   3.912   3.663
 3931SOL     OW12691   1.345   2.318   1.640
 3931SOL    HW112692   1.421   2.303   1.577
 3931SOL    HW212693   1.335   2.416   1.658
 3932SOL     OW12694   1.570   5.858   4.059
 3932SOL    HW112695   1.486   5.816   4.026
 3932SOL    HW212696   1.569   5.956   4.037
 3933SOL     OW12697   2.102   4.884   0.451
 3933SOL    HW112698   2.171   4.873   0.379
 3933SOL    HW212699   2.125   4.828   0.530
 3934SOL     OW12700   0.483   1.577   1.853
 3934SOL    HW112701   0.532   1.664   1.860
 3934SOL    HW212702   0.468   1.540   1.945
 3935SOL     OW12703   6.262   3.449   6.891
 3935SOL    HW112704   6.198   3.477   6.819
 3935SOL    HW212705   6.356   3.463   6.859
 3936SOL     OW12706   0.399   5.170   5.767
 3936SOL    HW112707   0.399   5.141   5.671
 3936SOL    HW212708   0.450   5.255   5.775
 3937SOL     OW12709   7.014   0.218   2.156
 3937SOL    HW112710   6.920   0.245   2.175
 3937SOL    HW212711   7.015   0.149   2.084
 3938SOL     OW12712   0.610   4.166   2.939
 3938SOL    HW112713   0.618   4.193   3.035
 3938SOL    HW212714   0.534   4.216   2.898
 3939SOL     OW12715   0.767   0.820   2.143
 3939SOL    HW112716   0.732   0.892   2.201
 3939SOL    HW212717   0.853   0.850   2.100
 3940SOL     OW12718   3.026   4.792   1.291
 3940SOL    HW112719   2.985   4.831   1.374
 3940SOL    HW212720   3.081   4.862   1.245
 3941SOL     OW12721   6.209   7.021   4.197
 3941SOL    HW112722   6.201   6.984   4.104
 3941SOL    HW212723   6.162   0.086   4.202
 3942SOL     OW12724   0.127   5.804   6.180
 3942SOL    HW112725   0.055   5.859   6.137
 3942SOL    HW212726   0.214   5.852   6.173
 3943SOL     OW12727   1.494   2.923   0.323
 3943SOL    HW112728   1.466   2.967   0.409
 3943SOL    HW212729   1.582   2.877   0.337
 3944SOL     OW12730   5.891   1.995   6.655
 3944SOL    HW112731   5.885   1.899   6.681
 3944SOL    HW212732   5.857   2.007   6.562
 3945SOL     OW12733   6.961   1.156   2.779
 3945SOL    HW112734   6.952   1.116   2.688
 3945SOL    HW212735   6.966   1.256   2.772
 3946SOL     OW12736   0.981   2.906   0.762
 3946SOL    HW112737   0.885   2.930   0.769
 3946SOL    HW212738   1.010   2.915   0.666
 3947SOL     OW12739   6.082   4.902   1.481
 3947SOL    HW112740   6.055   4.809   1.503
 3947SOL    HW212741   6.055   4.923   1.387
 3948SOL     OW12742   1.421   2.282   6.397
 3948SOL    HW112743   1.431   2.185   6.375
 3948SOL    HW212744   1.475   2.336   6.333
 3949SOL     OW12745   6.092   6.409   2.287
 3949SOL    HW112746   6.148   6.461   2.351
 3949SOL    HW212747   6.139   6.404   2.199
 3950SOL     OW12748   3.085   4.522   1.339
 3950SOL    HW112749   3.065   4.620   1.333
 3950SOL    HW212750   3.018   4.471   1.285
 3951SOL     OW12751   0.721   2.094   5.686
 3951SOL    HW112752   0.732   2.016   5.749
 3951SOL    HW212753   0.635   2.083   5.636
 3952SOL     OW12754   6.452   3.775   5.456
 3952SOL    HW112755   6.379   3.711   5.434
 3952SOL    HW212756   6.537   3.724   5.474
 3953SOL     OW12757   3.634   4.311   6.162
 3953SOL    HW112758   3.542   4.273   6.174
 3953SOL    HW212759   3.702   4.239   6.175
 3954SOL     OW12760   0.933   3.322   5.464
 3954SOL    HW112761   1.013   3.382   5.461
 3954SOL    HW212762   0.864   3.363   5.524
 3955SOL     OW12763   5.609   4.932   6.849
 3955SOL    HW112764   5.645   4.899   6.761
 3955SOL    HW212765   5.555   4.860   6.892
 3956SOL     OW12766   0.789   2.613   5.389
 3956SOL    HW112767   0.838   2.617   5.476
 3956SOL    HW212768   0.787   2.519   5.356
 3957SOL     OW12769   1.802   0.388   3.294
 3957SOL    HW112770   1.787   0.330   3.214
 3957SOL    HW212771   1.714   0.424   3.326
 3958SOL     OW12772   5.625   6.339   5.352
 3958SOL    HW112773   5.606   6.305   5.259
 3958SOL    HW212774   5.719   6.375   5.355
 3959SOL     OW12775   2.579   5.095   0.017
 3959SOL    HW112776   2.607   5.133   0.105
 3959SOL    HW212777   2.595   4.996   0.016
 3960SOL     OW12778   4.087   3.247   0.320
 3960SOL    HW112779   4.044   3.177   0.378
 3960SOL    HW212780   4.037   3.255   0.234
 3961SOL     OW12781   5.029   0.770   1.392
 3961SOL    HW112782   4.956   0.793   1.456
 3961SOL    HW212783   4.994   0.775   1.299
 3962SOL     OW12784   0.528   0.346   5.923
 3962SOL    HW112785   0.561   0.437   5.951
 3962SOL    HW212786   0.530   0.340   5.823
 3963SOL     OW12787   4.426   5.571   3.178
 3963SOL    HW112788   4.511   5.572   3.231
 3963SOL    HW212789   4.362   5.637   3.216
 3964SOL     OW12790   5.517   5.944   5.065
 3964SOL    HW112791   5.517   5.924   4.967
 3964SOL    HW212792   5.439   6.002   5.088
 3965SOL     OW12793   3.490   3.517   0.210
 3965SOL    HW112794   3.573   3.477   0.250
 3965SOL    HW212795   3.455   3.588   0.271
 3966SOL     OW12796   5.939   4.046   5.265
 3966SOL    HW112797   6.010   4.110   5.236
 3966SOL    HW212798   5.887   4.014   5.186
 3967SOL     OW12799   0.535   5.432   6.009
 3967SOL    HW112800   0.444   5.458   6.041
 3967SOL    HW212801   0.568   5.355   6.064
 3968SOL     OW12802   6.105   0.882   2.055
 3968SOL    HW112803   6.008   0.862   2.066
 3968SOL    HW212804   6.153   0.859   2.140
 3969SOL     OW12805   0.558   5.069   2.411
 3969SOL    HW112806   0.631   5.046   2.475
 3969SOL    HW212807   0.492   5.130   2.456
 3970SOL     OW12808   5.140   4.361   2.782
 3970SOL    HW112809   5.239   4.364   2.770
 3970SOL    HW212810   5.113   4.431   2.848
 3971SOL     OW12811   1.483   5.895   3.113
 3971SOL    HW112812   1.497   5.922   3.017
 3971SOL    HW212813   1.524   5.964   3.173
 3972SOL     OW12814   1.115   0.094   6.826
 3972SOL    HW112815   1.169   0.131   6.902
 3972SOL    HW212816   1.063   0.168   6.784
 3973SOL     OW12817   3.198   3.645   4.437
 3973SOL    HW112818   3.230   3.561   4.481
 3973SOL    HW212819   3.102   3.661   4.462
 3974SOL     OW12820   5.996   1.794   6.850
 3974SOL    HW112821   5.957   1.727   6.787
 3974SOL    HW212822   5.996   1.758   6.943
 3975SOL     OW12823   0.093   0.639   5.905
 3975SOL    HW112824   0.135   0.563   5.954
 3975SOL    HW212825   0.135   0.648   5.815
 3976SOL     OW12826   0.739   3.065   0.788
 3976SOL    HW112827   0.734   3.089   0.691
 3976SOL    HW212828   0.679   2.987   0.806
 3977SOL     OW12829   3.380   6.074   6.386
 3977SOL    HW112830   3.456   6.095   6.325
 3977SOL    HW212831   3.300   6.049   6.331
 3978SOL     OW12832   6.359   3.112   6.195
 3978SOL    HW112833   6.299   3.192   6.200
 3978SOL    HW212834   6.339   3.051   6.271
 3979SOL     OW12835   0.775   6.803   2.446
 3979SOL    HW112836   0.815   6.852   2.524
 3979SOL    HW212837   0.824   6.718   2.431
 3980SOL     OW12838   4.912   3.418   4.315
 3980SOL    HW112839   4.985   3.426   4.247
 3980SOL    HW212840   4.885   3.323   4.323
 3981SOL     OW12841   6.929   1.757   0.015
 3981SOL    HW112842   6.831   1.738   0.023
 3981SOL    HW212843   6.943   1.841   6.988
 3982SOL     OW12844   2.201   2.020   3.762
 3982SOL    HW112845   2.188   2.006   3.663
 3982SOL    HW212846   2.121   2.066   3.800
 3983SOL     OW12847   2.919   6.241   4.386
 3983SOL    HW112848   2.857   6.177   4.341
 3983SOL    HW212849   2.926   6.219   4.483
 3984SOL     OW12850   2.346   6.586   1.297
 3984SOL    HW112851   2.255   6.628   1.287
 3984SOL    HW212852   2.359   6.557   1.392
 3985SOL     OW12853   2.402   2.904   1.596
 3985SOL    HW112854   2.418   2.920   1.499
 3985SOL    HW212855   2.463   2.963   1.650
 3986SOL     OW12856   0.360   2.044   1.677
 3986SOL    HW112857   0.316   2.130   1.704
 3986SOL    HW212858   0.322   1.969   1.731
 3987SOL     OW12859   2.855   4.728   6.397
 3987SOL    HW112860   2.770   4.765   6.435
 3987SOL    HW212861   2.929   4.737   6.464
 3988SOL     OW12862   3.949   3.063   0.490
 3988SOL    HW112863   3.859   3.027   0.463
 3988SOL    HW212864   4.002   2.990   0.532
 3989SOL     OW12865   5.070   6.751   6.763
 3989SOL    HW112866   5.009   6.782   6.836
 3989SOL    HW212867   5.047   6.798   6.678
 3990SOL     OW12868   0.850   3.309   3.428
 3990SOL    HW112869   0.805   3.244   3.489
 3990SOL    HW212870   0.812   3.400   3.443
 3991SOL     OW12871   0.254   2.182   4.124
 3991SOL    HW112872   0.281   2.278   4.112
 3991SOL    HW212873   0.276   2.131   4.041
 3992SOL     OW12874   4.423   3.648   6.320
 3992SOL    HW112875   4.489   3.719   6.344
 3992SOL    HW212876   4.374   3.619   6.402
 3993SOL     OW12877   2.745   2.341   2.828
 3993SOL    HW112878   2.758   2.338   2.729
 3993SOL    HW212879   2.655   2.379   2.849
 3994SOL     OW12880   2.134   3.087   3.682
 3994SOL    HW112881   2.125   3.184   3.658
 3994SOL    HW212882   2.154   3.079   3.780
 3995SOL     OW12883   2.186   3.974   3.231
 3995SOL    HW112884   2.156   4.023   3.313
 3995SOL    HW212885   2.270   3.923   3.251
 3996SOL     OW12886   0.246   1.140   2.960
 3996SOL    HW112887   0.193   1.090   3.029
 3996SOL    HW212888   0.193   1.218   2.928
 3997SOL     OW12889   5.742   3.843   2.971
 3997SOL    HW112890   5.652   3.800   2.969
 3997SOL    HW212891   5.777   3.852   2.877
 3998SOL     OW12892   6.208   1.899   3.188
 3998SOL    HW112893   6.129   1.917   3.131
 3998SOL    HW212894   6.179   1.894   3.284
 3999SOL     OW12895   5.667   3.207   2.448
 3999SOL    HW112896   5.764   3.186   2.443
 3999SOL    HW212897   5.648   3.292   2.398
 4000SOL     OW12898   2.132   5.844   2.103
 4000SOL    HW112899   2.212   5.901   2.083
 4000SOL    HW212900   2.081   5.829   2.019
 4001SOL     OW12901   2.627   3.905   5.321
 4001SOL    HW112902   2.710   3.942   5.279
 4001SOL    HW212903   2.548   3.930   5.266
 4002SOL     OW12904   3.566   3.018   4.473
 4002SOL    HW112905   3.644   3.019   4.410
 4002SOL    HW212906   3.481   3.016   4.420
 4003SOL     OW12907   2.355   1.072   5.703
 4003SOL    HW112908   2.420   1.130   5.751
 4003SOL    HW212909   2.380   1.068   5.606
 4004SOL     OW12910   0.555   3.817   3.197
 4004SOL    HW112911   0.609   3.860   3.126
 4004SOL    HW212912   0.473   3.872   3.216
 4005SOL     OW12913   4.507   3.548   1.441
 4005SOL    HW112914   4.412   3.541   1.412
 4005SOL    HW212915   4.528   3.474   1.505
 4006SOL     OW12916   4.991   5.425   2.979
 4006SOL    HW112917   5.003   5.513   2.933
 4006SOL    HW212918   4.894   5.402   2.983
 4007SOL     OW12919   0.588   1.538   3.021
 4007SOL    HW112920   0.601   1.461   3.084
 4007SOL    HW212921   0.518   1.514   2.954
 4008SOL     OW12922   2.499   0.051   0.651
 4008SOL    HW112923   2.488   0.137   0.699
 4008SOL    HW212924   2.439   7.005   0.692
 4009SOL     OW12925   4.551   2.066   1.086
 4009SOL    HW112926   4.478   1.997   1.085
 4009SOL    HW212927   4.528   2.139   1.149
 4010SOL     OW12928   2.995   4.247   1.209
 4010SOL    HW112929   2.919   4.184   1.192
 4010SOL    HW212930   3.062   4.204   1.269
 4011SOL     OW12931   6.247   5.956   0.650
 4011SOL    HW112932   6.257   6.047   0.690
 4011SOL    HW212933   6.171   5.958   0.584
 4012SOL     OW12934   4.374   6.511   1.777
 4012SOL    HW112935   4.397   6.480   1.685
 4012SOL    HW212936   4.451   6.560   1.816
 4013SOL     OW12937   1.433   1.144   1.237
 4013SOL    HW112938   1.351   1.107   1.281
 4013SOL    HW212939   1.479   1.071   1.187
 4014SOL     OW12940   2.512   5.784   3.620
 4014SOL    HW112941   2.461   5.745   3.544
 4014SOL    HW212942   2.567   5.712   3.663
 4015SOL     OW12943   4.519   5.605   6.191
 4015SOL    HW112944   4.571   5.607   6.276
 4015SOL    HW212945   4.542   5.523   6.140
 4016SOL     OW12946   3.556   5.971   6.058
 4016SOL    HW112947   3.578   5.889   6.111
 4016SOL    HW212948   3.573   5.954   5.961
 4017SOL     OW12949   0.499   5.462   5.730
 4017SOL    HW112950   0.571   5.520   5.692
 4017SOL    HW212951   0.504   5.464   5.830
 4018SOL     OW12952   3.647   5.988   1.867
 4018SOL    HW112953   3.717   5.940   1.920
 4018SOL    HW212954   3.689   6.031   1.787
 4019SOL     OW12955   5.345   3.344   2.868
 4019SOL    HW112956   5.289   3.376   2.791
 4019SOL    HW212957   5.440   3.336   2.839
 4020SOL     OW12958   6.711   4.059   4.173
 4020SOL    HW112959   6.757   3.978   4.209
 4020SOL    HW212960   6.667   4.037   4.086
 4021SOL     OW12961   3.628   3.579   6.022
 4021SOL    HW112962   3.556   3.600   5.956
 4021SOL    HW212963   3.707   3.542   5.974
 4022SOL     OW12964   3.203   6.724   0.535
 4022SOL    HW112965   3.145   6.797   0.499
 4022SOL    HW212966   3.298   6.756   0.538
 4023SOL     OW12967   0.336   1.935   5.904
 4023SOL    HW112968   0.426   1.895   5.924
 4023SOL    HW212969   0.344   2.001   5.830
 4024SOL     OW12970   1.310   5.079   4.179
 4024SOL    HW112971   1.356   4.990   4.167
 4024SOL    HW212972   1.224   5.065   4.228
 4025SOL     OW12973   1.226   6.121   4.008
 4025SOL    HW112974   1.270   6.047   3.957
 4025SOL    HW212975   1.269   6.130   4.097
 4026SOL     OW12976   6.716   6.320   4.090
 4026SOL    HW112977   6.748   6.346   4.182
 4026SOL    HW212978   6.742   6.225   4.072
 4027SOL     OW12979   2.566   1.984   6.751
 4027SOL    HW112980   2.562   1.961   6.848
 4027SOL    HW212981   2.479   2.025   6.723
 4028SOL     OW12982   4.954   1.632   3.550
 4028SOL    HW112983   4.885   1.652   3.620
 4028SOL    HW212984   5.022   1.705   3.548
 4029SOL     OW12985   2.760   3.979   6.832
 4029SOL    HW112986   2.840   4.039   6.823
 4029SOL    HW212987   2.727   3.981   6.926
 4030SOL     OW12988   6.791   1.037   2.128
 4030SOL    HW112989   6.758   0.969   2.194
 4030SOL    HW212990   6.885   1.064   2.152
 4031SOL     OW12991   5.652   0.377   1.958
 4031SOL    HW112992   5.691   0.462   1.994
 4031SOL    HW212993   5.553   0.388   1.948
 4032SOL     OW12994   6.222   6.471   1.234
 4032SOL    HW112995   6.234   6.411   1.313
 4032SOL    HW212996   6.311   6.491   1.193
 4033SOL     OW12997   3.137   2.184   2.915
 4033SOL    HW112998   3.056   2.209   2.969
 4033SOL    HW212999   3.215   2.169   2.976
 4034SOL     OW13000   6.656   2.591   5.425
 4034SOL    HW113001   6.671   2.683   5.463
 4034SOL    HW213002   6.573   2.552   5.465
 4035SOL     OW13003   6.664   2.367   1.546
 4035SOL    HW113004   6.745   2.354   1.602
 4035SOL    HW213005   6.583   2.367   1.604
 4036SOL     OW13006   3.672   5.021   2.713
 4036SOL    HW113007   3.721   4.950   2.763
 4036SOL    HW213008   3.730   5.102   2.705
 4037SOL     OW13009   3.425   0.722   5.967
 4037SOL    HW113010   3.463   0.656   5.902
 4037SOL    HW213011   3.330   0.741   5.944
 4038SOL     OW13012   4.487   3.354   6.949
 4038SOL    HW113013   4.458   3.262   6.923
 4038SOL    HW213014   4.587   3.355   6.959
 4039SOL     OW13015   5.303   5.736   1.406
 4039SOL    HW113016   5.371   5.689   1.462
 4039SOL    HW213017   5.238   5.784   1.464
 4040SOL     OW13018   3.508   5.475   5.059
 4040SOL    HW113019   3.507   5.531   4.976
 4040SOL    HW213020   3.602   5.469   5.093
 4041SOL     OW13021   2.088   6.291   1.133
 4041SOL    HW113022   2.101   6.238   1.217
 4041SOL    HW213023   2.084   6.228   1.055
 4042SOL     OW13024   5.719   6.353   2.914
 4042SOL    HW113025   5.806   6.376   2.869
 4042SOL    HW213026   5.700   6.256   2.902
 4043SOL     OW13027   6.346   2.218   6.686
 4043SOL    HW113028   6.250   2.194   6.670
 4043SOL    HW213029   6.351   2.311   6.722
 4044SOL     OW13030   4.869   4.704   2.797
 4044SOL    HW113031   4.790   4.764   2.811
 4044SOL    HW213032   4.952   4.759   2.792
 4045SOL     OW13033   4.437   6.737   6.300
 4045SOL    HW113034   4.499   6.696   6.232
 4045SOL    HW213035   4.381   6.665   6.341
 4046SOL     OW13036   0.592   1.487   2.604
 4046SOL    HW113037   0.592   1.574   2.653
 4046SOL    HW213038   0.566   1.413   2.665
 4047SOL     OW13039   1.852   2.781   0.129
 4047SOL    HW113040   1.851   2.704   0.066
 4047SOL    HW213041   1.794   2.759   0.208
 4048SOL     OW13042   5.011   1.311   2.184
 4048SOL    HW113043   4.940   1.350   2.125
 4048SOL    HW213044   5.091   1.287   2.129
 4049SOL     OW13045   4.445   6.066   6.863
 4049SOL    HW113046   4.434   5.980   6.912
 4049SOL    HW213047   4.520   6.118   6.904
 4050SOL     OW13048   0.895   5.618   2.322
 4050SOL    HW113049   0.864   5.535   2.367
 4050SOL    HW213050   0.818   5.664   2.279
 4051SOL     OW13051   4.770   1.494   6.324
 4051SOL    HW113052   4.775   1.450   6.414
 4051SOL    HW213053   4.824   1.578   6.324
 4052SOL     OW13054   5.981   2.058   3.328
 4052SOL    HW113055   5.955   2.131   3.391
 4052SOL    HW213056   5.996   1.973   3.379
 4053SOL     OW13057   1.546   6.089   4.729
 4053SOL    HW113058   1.532   6.007   4.673
 4053SOL    HW213059   1.462   6.111   4.777
 4054SOL     OW13060   4.673   4.460   1.322
 4054SOL    HW113061   4.767   4.465   1.289
 4054SOL    HW213062   4.645   4.365   1.329
 4055SOL     OW13063   1.252   3.763   1.675
 4055SOL    HW113064   1.236   3.799   1.583
 4055SOL    HW213065   1.216   3.828   1.742
 4056SOL     OW13066   5.010   3.879   1.361
 4056SOL    HW113067   4.959   3.798   1.334
 4056SOL    HW213068   5.108   3.864   1.345
 4057SOL     OW13069   6.355   3.211   6.525
 4057SOL    HW113070   6.412   3.128   6.525
 4057SOL    HW213071   6.414   3.292   6.522
 4058SOL     OW13072   2.699   6.302   4.974
 4058SOL    HW113073   2.671   6.338   5.063
 4058SOL    HW213074   2.703   6.202   4.977
 4059SOL     OW13075   0.117   3.379   3.518
 4059SOL    HW113076   0.179   3.358   3.443
 4059SOL    HW213077   0.116   3.303   3.583
 4060SOL     OW13078   6.027   5.347   5.284
 4060SOL    HW113079   5.983   5.328   5.371
 4060SOL    HW213080   6.078   5.266   5.254
 4061SOL     OW13081   2.423   4.578   1.999
 4061SOL    HW113082   2.471   4.565   1.912
 4061SOL    HW213083   2.441   4.670   2.033
 4062SOL     OW13084   2.916   0.221   1.805
 4062SOL    HW113085   2.983   0.267   1.863
 4062SOL    HW213086   2.944   0.126   1.791
 4063SOL     OW13087   5.745   6.814   0.787
 4063SOL    HW113088   5.696   6.816   0.874
 4063SOL    HW213089   5.834   6.770   0.800
 4064SOL     OW13090   2.995   2.113   4.862
 4064SOL    HW113091   3.039   2.024   4.844
 4064SOL    HW213092   3.060   2.173   4.908
 4065SOL     OW13093   0.815   0.049   1.210
 4065SOL    HW113094   0.861   0.022   1.294
 4065SOL    HW213095   0.723   0.084   1.232
 4066SOL     OW13096   6.716   3.761   2.928
 4066SOL    HW113097   6.768   3.696   2.982
 4066SOL    HW213098   6.749   3.760   2.833
 4067SOL     OW13099   5.782   4.098   3.314
 4067SOL    HW113100   5.695   4.048   3.313
 4067SOL    HW213101   5.855   4.035   3.342
 4068SOL     OW13102   1.900   2.365   4.311
 4068SOL    HW113103   1.942   2.312   4.238
 4068SOL    HW213104   1.828   2.310   4.355
 4069SOL     OW13105   3.398   5.877   0.079
 4069SOL    HW113106   3.497   5.860   0.071
 4069SOL    HW213107   3.349   5.790   0.067
 4070SOL     OW13108   1.164   3.199   3.006
 4070SOL    HW113109   1.164   3.209   3.105
 4070SOL    HW213110   1.225   3.267   2.965
 4071SOL     OW13111   1.878   0.507   4.922
 4071SOL    HW113112   1.966   0.530   4.879
 4071SOL    HW213113   1.812   0.483   4.851
 4072SOL     OW13114   0.699   4.622   5.051
 4072SOL    HW113115   0.750   4.543   5.085
 4072SOL    HW213116   0.747   4.706   5.076
 4073SOL     OW13117   2.545   5.271   6.170
 4073SOL    HW113118   2.634   5.255   6.212
 4073SOL    HW213119   2.547   5.244   6.074
 4074SOL     OW13120   0.809   4.624   1.416
 4074SOL    HW113121   0.843   4.710   1.453
 4074SOL    HW213122   0.749   4.643   1.338
 4075SOL     OW13123   4.929   1.849   1.344
 4075SOL    HW113124   4.899   1.790   1.419
 4075SOL    HW213125   5.029   1.857   1.346
 4076SOL     OW13126   3.495   3.650   5.777
 4076SOL    HW113127   3.451   3.585   5.715
 4076SOL    HW213128   3.574   3.691   5.731
 4077SOL     OW13129   4.194   1.510   1.252
 4077SOL    HW113130   4.204   1.531   1.155
 4077SOL    HW213131   4.257   1.437   1.277
 4078SOL     OW13132   2.465   5.126   2.318
 4078SOL    HW113133   2.408   5.208   2.323
 4078SOL    HW213134   2.408   5.048   2.290
 4079SOL     OW13135   2.106   1.754   3.492
 4079SOL    HW113136   2.091   1.853   3.491
 4079SOL    HW213137   2.173   1.731   3.563
 4080SOL     OW13138   5.373   2.381   5.572
 4080SOL    HW113139   5.293   2.365   5.514
 4080SOL    HW213140   5.413   2.470   5.551
 4081SOL     OW13141   1.581   2.869   4.123
 4081SOL    HW113142   1.575   2.769   4.134
 4081SOL    HW213143   1.665   2.902   4.167
 4082SOL     OW13144   0.943   3.587   0.748
 4082SOL    HW113145   0.877   3.566   0.677
 4082SOL    HW213146   0.903   3.567   0.838
 4083SOL     OW13147   6.274   3.135   3.254
 4083SOL    HW113148   6.250   3.225   3.291
 4083SOL    HW213149   6.297   3.073   3.329
 4084SOL     OW13150   5.963   1.460   4.068
 4084SOL    HW113151   6.037   1.517   4.105
 4084SOL    HW213152   5.876   1.488   4.109
 4085SOL     OW13153   3.940   5.574   0.918
 4085SOL    HW113154   3.950   5.590   1.017
 4085SOL    HW213155   3.905   5.657   0.875
 4086SOL     OW13156   2.536   6.029   1.429
 4086SOL    HW113157   2.491   6.117   1.415
 4086SOL    HW213158   2.473   5.955   1.407
 4087SOL     OW13159   2.650   2.459   3.183
 4087SOL    HW113160   2.621   2.538   3.237
 4087SOL    HW213161   2.606   2.462   3.093
 4088SOL     OW13162   0.021   1.392   0.812
 4088SOL    HW113163   0.114   1.403   0.847
 4088SOL    HW213164   6.981   1.379   0.888
 4089SOL     OW13165   6.519   6.090   3.410
 4089SOL    HW113166   6.617   6.104   3.399
 4089SOL    HW213167   6.491   6.118   3.502
 4090SOL     OW13168   2.628   3.693   5.762
 4090SOL    HW113169   2.701   3.736   5.816
 4090SOL    HW213170   2.595   3.757   5.694
 4091SOL     OW13171   6.358   6.985   0.683
 4091SOL    HW113172   6.335   0.001   0.594
 4091SOL    HW213173   6.457   6.992   0.698
 4092SOL     OW13174   6.679   2.999   5.329
 4092SOL    HW113175   6.768   2.974   5.365
 4092SOL    HW213176   6.689   3.068   5.258
 4093SOL     OW13177   4.751   0.574   3.700
 4093SOL    HW113178   4.821   0.510   3.730
 4093SOL    HW213179   4.715   0.624   3.779
 4094SOL     OW13180   2.239   5.298   4.694
 4094SOL    HW113181   2.277   5.214   4.657
 4094SOL    HW213182   2.174   5.276   4.767
 4095SOL     OW13183   1.397   4.297   6.923
 4095SOL    HW113184   1.335   4.236   6.972
 4095SOL    HW213185   1.490   4.288   6.960
 4096SOL     OW13186   4.077   5.587   1.167
 4096SOL    HW113187   4.006   5.517   1.175
 4096SOL    HW213188   4.114   5.608   1.257
 4097SOL     OW13189   3.993   3.822   6.262
 4097SOL    HW113190   3.911   3.868   6.228
 4097SOL    HW213191   3.972   3.726   6.282
 4098SOL     OW13192   0.232   2.972   2.250
 4098SOL    HW113193   0.136   2.945   2.258
 4098SOL    HW213194   0.290   2.898   2.285
 4099SOL     OW13195   2.594   4.743   1.291
 4099SOL    HW113196   2.667   4.797   1.250
 4099SOL    HW213197   2.582   4.658   1.241
 4100SOL     OW13198   5.992   6.092   4.858
 4100SOL    HW113199   5.972   5.998   4.885
 4100SOL    HW213200   6.062   6.093   4.787
 4101SOL     OW13201   5.456   1.124   0.194
 4101SOL    HW113202   5.544   1.099   0.152
 4101SOL    HW213203   5.461   1.111   0.293
 4102SOL     OW13204   7.004   0.482   1.688
 4102SOL    HW113205   0.080   0.496   1.691
 4102SOL    HW213206   6.969   0.510   1.599
 4103SOL     OW13207   0.347   0.499   1.973
 4103SOL    HW113208   0.423   0.564   1.970
 4103SOL    HW213209   0.337   0.463   2.065
 4104SOL     OW13210   1.357   4.572   2.530
 4104SOL    HW113211   1.400   4.483   2.520
 4104SOL    HW213212   1.268   4.572   2.483
 4105SOL     OW13213   3.952   5.351   1.169
 4105SOL    HW113214   4.030   5.317   1.116
 4105SOL    HW213215   3.869   5.303   1.141
 4106SOL     OW13216   0.328   2.476   5.436
 4106SOL    HW113217   0.383   2.456   5.355
 4106SOL    HW213218   0.383   2.462   5.518
 4107SOL     OW13219   0.887   5.681   0.623
 4107SOL    HW113220   0.965   5.703   0.682
 4107SOL    HW213221   0.807   5.661   0.679
 4108SOL     OW13222   6.960   4.814   6.126
 4108SOL    HW113223   6.886   4.795   6.190
 4108SOL    HW213224   6.924   4.869   6.050
 4109SOL     OW13225   5.007   6.531   5.254
 4109SOL    HW113226   4.917   6.546   5.295
 4109SOL    HW213227   5.078   6.545   5.323
 4110SOL     OW13228   4.621   3.501   6.523
 4110SOL    HW113229   4.545   3.534   6.578
 4110SOL    HW213230   4.598   3.412   6.484
 4111SOL     OW13231   3.563   3.091   6.571
 4111SOL    HW113232   3.604   3.182   6.555
 4111SOL    HW213233   3.633   3.021   6.560
 4112SOL     OW13234   5.209   1.240   5.801
 4112SOL    HW113235   5.305   1.213   5.810
 4112SOL    HW213236   5.177   1.219   5.708
 4113SOL     OW13237   4.606   6.159   4.985
 4113SOL    HW113238   4.617   6.105   4.901
 4113SOL    HW213239   4.675   6.132   5.051
 4114SOL     OW13240   3.881   2.129   3.505
 4114SOL    HW113241   3.820   2.101   3.430
 4114SOL    HW213242   3.974   2.101   3.483
 4115SOL     OW13243   4.528   6.007   2.171
 4115SOL    HW113244   4.559   5.922   2.213
 4115SOL    HW213245   4.428   6.007   2.165
 4116SOL     OW13246   4.576   2.555   1.691
 4116SOL    HW113247   4.570   2.504   1.777
 4116SOL    HW213248   4.668   2.594   1.682
 4117SOL     OW13249   0.212   5.013   1.901
 4117SOL    HW113250   0.206   5.017   2.001
 4117SOL    HW213251   0.210   4.917   1.872
 4118SOL     OW13252   1.849   5.802   0.458
 4118SOL    HW113253   1.818   5.896   0.474
 4118SOL    HW213254   1.770   5.740   0.462
 4119SOL     OW13255   4.058   1.363   3.063
 4119SOL    HW113256   4.100   1.345   3.152
 4119SOL    HW213257   4.126   1.401   3.001
 4120SOL     OW13258   4.351   0.459   0.731
 4120SOL    HW113259   4.369   0.409   0.815
 4120SOL    HW213260   4.431   0.456   0.672
 4121SOL     OW13261   6.385   1.117   4.789
 4121SOL    HW113262   6.317   1.142   4.720
 4121SOL    HW213263   6.433   1.199   4.820
 4122SOL     OW13264   0.525   6.855   5.346
 4122SOL    HW113265   0.542   6.758   5.362
 4122SOL    HW213266   0.439   6.865   5.295
 4123SOL     OW13267   4.835   5.050   5.475
 4123SOL    HW113268   4.770   5.066   5.550
 4123SOL    HW213269   4.928   5.064   5.508
 4124SOL     OW13270   6.050   5.437   5.806
 4124SOL    HW113271   6.078   5.377   5.731
 4124SOL    HW213272   6.035   5.530   5.771
 4125SOL     OW13273   4.511   1.024   2.245
 4125SOL    HW113274   4.518   1.124   2.240
 4125SOL    HW213275   4.504   0.997   2.341
 4126SOL     OW13276   1.275   4.618   4.060
 4126SOL    HW113277   1.304   4.592   3.967
 4126SOL    HW213278   1.207   4.552   4.093
 4127SOL     OW13279   4.954   4.506   4.441
 4127SOL    HW113280   5.002   4.549   4.364
 4127SOL    HW213281   4.968   4.407   4.438
 4128SOL     OW13282   1.786   3.580   2.205
 4128SOL    HW113283   1.777   3.481   2.197
 4128SOL    HW213284   1.872   3.602   2.250
 4129SOL     OW13285   5.537   1.303   6.144
 4129SOL    HW113286   5.527   1.234   6.215
 4129SOL    HW213287   5.467   1.373   6.155
 4130SOL     OW13288   0.121   3.608   5.797
 4130SOL    HW113289   0.049   3.540   5.810
 4130SOL    HW213290   0.080   3.698   5.780
 4131SOL     OW13291   1.043   5.964   3.750
 4131SOL    HW113292   1.141   5.953   3.765
 4131SOL    HW213293   0.993   5.895   3.803
 4132SOL     OW13294   5.309   4.378   3.772
 4132SOL    HW113295   5.213   4.370   3.801
 4132SOL    HW213296   5.334   4.475   3.769
 4133SOL     OW13297   3.027   6.756   1.553
 4133SOL    HW113298   3.048   6.794   1.463
 4133SOL    HW213299   2.934   6.720   1.553
 4134SOL     OW13300   1.773   2.595   0.891
 4134SOL    HW113301   1.686   2.600   0.844
 4134SOL    HW213302   1.770   2.523   0.961
 4135SOL     OW13303   2.299   0.828   2.604
 4135SOL    HW113304   2.380   0.772   2.617
 4135SOL    HW213305   2.229   0.775   2.555
 4136SOL     OW13306   0.641   2.022   3.360
 4136SOL    HW113307   0.741   2.023   3.371
 4136SOL    HW213308   0.610   2.114   3.334
 4137SOL     OW13309   2.223   3.536   1.204
 4137SOL    HW113310   2.223   3.605   1.277
 4137SOL    HW213311   2.219   3.445   1.245
 4138SOL     OW13312   3.851   5.748   3.587
 4138SOL    HW113313   3.823   5.732   3.682
 4138SOL    HW213314   3.808   5.680   3.528
 4139SOL     OW13315   2.328   2.069   5.699
 4139SOL    HW113316   2.284   2.110   5.778
 4139SOL    HW213317   2.421   2.042   5.722
 4140SOL     OW13318   2.838   0.515   5.191
 4140SOL    HW113319   2.820   0.469   5.104
 4140SOL    HW213320   2.901   0.460   5.245
 4141SOL     OW13321   4.805   5.643   1.130
 4141SOL    HW113322   4.765   5.735   1.131
 4141SOL    HW213323   4.787   5.598   1.217
 4142SOL     OW13324   6.752   5.976   0.694
 4142SOL    HW113325   6.753   6.060   0.749
 4142SOL    HW213326   6.659   5.939   0.690
 4143SOL     OW13327   6.944   3.225   0.228
 4143SOL    HW113328   6.912   3.269   0.144
 4143SOL    HW213329   0.020   3.223   0.229
 4144SOL     OW13330   5.931   2.852   0.712
 4144SOL    HW113331   5.947   2.911   0.632
 4144SOL    HW213332   5.862   2.783   0.690
 4145SOL     OW13333   0.158   5.764   2.017
 4145SOL    HW113334   0.182   5.812   1.932
 4145SOL    HW213335   0.068   5.721   2.005
 4146SOL     OW13336   6.141   0.497   5.154
 4146SOL    HW113337   6.216   0.530   5.096
 4146SOL    HW213338   6.178   0.435   5.224
 4147SOL     OW13339   3.778   1.793   5.576
 4147SOL    HW113340   3.718   1.713   5.579
 4147SOL    HW213341   3.747   1.854   5.502
 4148SOL     OW13342   0.554   0.210   3.708
 4148SOL    HW113343   0.570   0.178   3.802
 4148SOL    HW213344   0.471   0.264   3.705
 4149SOL     OW13345   0.801   3.488   0.276
 4149SOL    HW113346   0.750   3.407   0.304
 4149SOL    HW213347   0.743   3.545   0.217
 4150SOL     OW13348   6.171   0.676   6.162
 4150SOL    HW113349   6.267   0.652   6.180
 4150SOL    HW213350   6.145   0.755   6.217
 4151SOL     OW13351   5.137   6.191   6.792
 4151SOL    HW113352   5.124   6.113   6.731
 4151SOL    HW213353   5.056   6.249   6.789
 4152SOL     OW13354   2.815   5.509   1.512
 4152SOL    HW113355   2.816   5.607   1.496
 4152SOL    HW213356   2.865   5.463   1.438
 4153SOL     OW13357   5.198   5.385   6.024
 4153SOL    HW113358   5.267   5.313   6.016
 4153SOL    HW213359   5.176   5.420   5.933
 4154SOL     OW13360   6.589   3.994   5.414
 4154SOL    HW113361   6.539   3.908   5.424
 4154SOL    HW213362   6.571   4.052   5.494
 4155SOL     OW13363   6.572   2.963   3.231
 4155SOL    HW113364   6.624   2.878   3.233
 4155SOL    HW213365   6.562   2.998   3.324
 4156SOL     OW13366   5.382   0.090   5.492
 4156SOL    HW113367   5.347   0.141   5.414
 4156SOL    HW213368   5.477   0.115   5.509
 4157SOL     OW13369   3.784   6.957   3.616
 4157SOL    HW113370   3.842   0.000   3.569
 4157SOL    HW213371   3.704   7.003   3.654
 4158SOL     OW13372   1.369   5.279   4.359
 4158SOL    HW113373   1.340   5.218   4.284
 4158SOL    HW213374   1.332   5.370   4.344
 4159SOL     OW13375   1.755   3.484   4.006
 4159SOL    HW113376   1.849   3.479   4.040
 4159SOL    HW213377   1.756   3.484   3.906
 4160SOL     OW13378   6.531   0.583   0.792
 4160SOL    HW113379   6.449   0.542   0.753
 4160SOL    HW213380   6.597   0.511   0.815
 4161SOL     OW13381   2.410   6.455   6.335
 4161SOL    HW113382   2.490   6.400   6.314
 4161SOL    HW213383   2.358   6.413   6.409
 4162SOL     OW13384   6.394   0.419   4.779
 4162SOL    HW113385   6.336   0.444   4.701
 4162SOL    HW213386   6.392   0.493   4.846
 4163SOL     OW13387   5.891   1.589   3.323
 4163SOL    HW113388   5.944   1.527   3.266
 4163SOL    HW213389   5.866   1.671   3.270
 4164SOL     OW13390   1.603   6.879   5.900
 4164SOL    HW113391   1.507   6.887   5.872
 4164SOL    HW213392   1.649   6.967   5.884
 4165SOL     OW13393   4.929   0.350   0.594
 4165SOL    HW113394   4.911   0.268   0.539
 4165SOL    HW213395   4.867   0.423   0.566
 4166SOL     OW13396   5.531   2.511   0.858
 4166SOL    HW113397   5.607   2.452   0.885
 4166SOL    HW213398   5.471   2.527   0.937
 4167SOL     OW13399   2.475   3.518   0.632
 4167SOL    HW113400   2.570   3.536   0.607
 4167SOL    HW213401   2.423   3.494   0.550
 4168SOL     OW13402   0.446   4.943   1.207
 4168SOL    HW113403   0.408   5.000   1.134
 4168SOL    HW213404   0.383   4.940   1.284
 4169SOL     OW13405   5.584   3.750   4.338
 4169SOL    HW113406   5.663   3.730   4.281
 4169SOL    HW213407   5.515   3.678   4.325
 4170SOL     OW13408   3.719   2.985   5.054
 4170SOL    HW113409   3.684   3.079   5.058
 4170SOL    HW213410   3.738   2.961   4.959
 4171SOL     OW13411   5.380   4.636   0.856
 4171SOL    HW113412   5.313   4.695   0.812
 4171SOL    HW213413   5.353   4.619   0.951
 4172SOL     OW13414   6.919   2.260   6.602
 4172SOL    HW113415   6.867   2.181   6.570
 4172SOL    HW213416   6.856   2.337   6.617
 4173SOL     OW13417   5.859   3.121   4.782
 4173SOL    HW113418   5.886   3.160   4.870
 4173SOL    HW213419   5.938   3.121   4.720
 4174SOL     OW13420   5.673   0.810   3.485
 4174SOL    HW113421   5.759   0.759   3.483
 4174SOL    HW213422   5.680   0.890   3.426
 4175SOL     OW13423   2.790   6.442   4.759
 4175SOL    HW113424   2.716   6.403   4.704
 4175SOL    HW213425   2.782   6.410   4.853
 4176SOL     OW13426   3.322   0.046   2.444
 4176SOL    HW113427   3.382   6.996   2.477
 4176SOL    HW213428   3.311   0.115   2.516
 4177SOL     OW13429   0.470   5.357   5.374
 4177SOL    HW113430   0.452   5.454   5.390
 4177SOL    HW213431   0.561   5.345   5.336
 4178SOL     OW13432   3.448   0.807   4.497
 4178SOL    HW113433   3.475   0.711   4.500
 4178SOL    HW213434   3.524   0.864   4.528
 4179SOL     OW13435   5.107   3.442   4.110
 4179SOL    HW113436   5.058   3.442   4.023
 4179SOL    HW213437   5.185   3.505   4.104
 4180SOL     OW13438   5.086   4.185   2.575
 4180SOL    HW113439   5.098   4.263   2.636
 4180SOL    HW213440   5.175   4.149   2.549
 4181SOL     OW13441   2.083   1.690   5.909
 4181SOL    HW113442   2.151   1.708   5.838
 4181SOL    HW213443   2.036   1.604   5.888
 4182SOL     OW13444   0.184   0.316   3.073
 4182SOL    HW113445   0.223   0.343   2.985
 4182SOL    HW213446   0.088   0.345   3.077
 4183SOL     OW13447   3.148   1.702   1.637
 4183SOL    HW113448   3.149   1.607   1.668
 4183SOL    HW213449   3.208   1.757   1.695
 4184SOL     OW13450   4.009   4.497   1.266
 4184SOL    HW113451   4.105   4.474   1.281
 4184SOL    HW213452   3.969   4.431   1.203
 4185SOL     OW13453   0.730   5.534   3.388
 4185SOL    HW113454   0.708   5.446   3.346
 4185SOL    HW213455   0.782   5.518   3.472
 4186SOL     OW13456   2.191   4.237   0.159
 4186SOL    HW113457   2.272   4.276   0.116
 4186SOL    HW213458   2.110   4.288   0.129
 4187SOL     OW13459   3.543   3.097   6.112
 4187SOL    HW113460   3.498   3.186   6.104
 4187SOL    HW213461   3.639   3.105   6.086
 4188SOL     OW13462   4.875   0.339   4.173
 4188SOL    HW113463   4.856   0.435   4.191
 4188SOL    HW213464   4.973   0.323   4.173
 4189SOL     OW13465   3.080   1.884   4.409
 4189SOL    HW113466   3.070   1.860   4.313
 4189SOL    HW213467   3.133   1.969   4.418
 4190SOL     OW13468   2.603   0.025   6.431
 4190SOL    HW113469   2.549   6.985   6.375
 4190SOL    HW213470   2.694   0.034   6.391
 4191SOL     OW13471   6.063   3.430   3.017
 4191SOL    HW113472   6.001   3.353   3.005
 4191SOL    HW213473   6.157   3.400   2.999
 4192SOL     OW13474   6.671   1.968   3.447
 4192SOL    HW113475   6.731   1.989   3.370
 4192SOL    HW213476   6.577   1.993   3.425
 4193SOL     OW13477   2.375   6.271   1.356
 4193SOL    HW113478   2.372   6.344   1.288
 4193SOL    HW213479   2.286   6.226   1.360
 4194SOL     OW13480   6.606   2.047   4.970
 4194SOL    HW113481   6.697   2.040   5.011
 4194SOL    HW213482   6.546   2.099   5.031
 4195SOL     OW13483   3.939   0.785   1.646
 4195SOL    HW113484   3.875   0.838   1.589
 4195SOL    HW213485   3.930   0.813   1.741
 4196SOL     OW13486   6.032   2.606   4.555
 4196SOL    HW113487   5.965   2.675   4.525
 4196SOL    HW213488   5.997   2.557   4.634
 4197SOL     OW13489   5.342   4.639   3.797
 4197SOL    HW113490   5.394   4.671   3.718
 4197SOL    HW213491   5.299   4.718   3.842
 4198SOL     OW13492   6.386   3.894   0.143
 4198SOL    HW113493   6.412   3.810   0.096
 4198SOL    HW213494   6.286   3.900   0.147
 4199SOL     OW13495   2.736   3.007   6.023
 4199SOL    HW113496   2.825   3.033   5.985
 4199SOL    HW213497   2.667   3.010   5.951
 4200SOL     OW13498   2.999   6.522   5.921
 4200SOL    HW113499   2.958   6.431   5.910
 4200SOL    HW213500   3.084   6.526   5.868
 4201SOL     OW13501   6.136   6.599   3.537
 4201SOL    HW113502   6.149   6.519   3.479
 4201SOL    HW213503   6.173   6.581   3.628
 4202SOL     OW13504   4.524   4.763   5.648
 4202SOL    HW113505   4.560   4.673   5.672
 4202SOL    HW213506   4.521   4.821   5.730
 4203SOL     OW13507   4.165   5.735   2.684
 4203SOL    HW113508   4.081   5.729   2.738
 4203SOL    HW213509   4.244   5.710   2.741
 4204SOL     OW13510   3.238   3.127   2.069
 4204SOL    HW113511   3.154   3.128   2.016
 4204SOL    HW213512   3.235   3.052   2.135
 4205SOL     OW13513   3.706   4.949   4.118
 4205SOL    HW113514   3.641   4.951   4.042
 4205SOL    HW213515   3.657   4.929   4.203
 4206SOL     OW13516   4.700   1.125   6.425
 4206SOL    HW113517   4.600   1.130   6.422
 4206SOL    HW213518   4.734   1.179   6.502
 4207SOL     OW13519   1.944   1.432   1.893
 4207SOL    HW113520   1.909   1.338   1.891
 4207SOL    HW213521   1.989   1.453   1.806
 4208SOL     OW13522   1.166   2.039   1.164
 4208SOL    HW113523   1.138   1.949   1.132
 4208SOL    HW213524   1.137   2.109   1.099
 4209SOL     OW13525   1.528   0.953   5.228
 4209SOL    HW113526   1.536   0.952   5.128
 4209SOL    HW213527   1.618   0.966   5.269
 4210SOL     OW13528   3.094   3.451   1.909
 4210SOL    HW113529   3.005   3.475   1.947
 4210SOL    HW213530   3.139   3.534   1.874
 4211SOL     OW13531   5.021   5.680   5.568
 4211SOL    HW113532   4.967   5.700   5.487
 4211SOL    HW213533   5.117   5.704   5.551
 4212SOL     OW13534   6.895   1.589   1.995
 4212SOL    HW113535   6.897   1.676   1.946
 4212SOL    HW213536   6.882   1.514   1.929
 4213SOL     OW13537   2.534   0.732   2.707
 4213SOL    HW113538   2.629   0.759   2.726
 4213SOL    HW213539   2.497   0.684   2.786
 4214SOL     OW13540   0.920   3.946   6.312
 4214SOL    HW113541   0.858   4.024   6.318
 4214SOL    HW213542   0.932   3.905   6.402
 4215SOL     OW13543   0.152   5.671   4.383
 4215SOL    HW113544   0.223   5.726   4.339
 4215SOL    HW213545   0.163   5.677   4.482
 4216SOL     OW13546   1.219   2.138   4.249
 4216SOL    HW113547   1.205   2.199   4.326
 4216SOL    HW213548   1.133   2.093   4.226
 4217SOL     OW13549   6.851   6.744   2.869
 4217SOL    HW113550   6.781   6.703   2.928
 4217SOL    HW213551   6.933   6.687   2.871
 4218SOL     OW13552   4.886   0.075   1.850
 4218SOL    HW113553   4.897   0.163   1.897
 4218SOL    HW213554   4.908   0.000   1.912
 4219SOL     OW13555   3.092   4.730   5.239
 4219SOL    HW113556   3.057   4.815   5.200
 4219SOL    HW213557   3.026   4.657   5.226
 4220SOL     OW13558   6.691   3.461   2.941
 4220SOL    HW113559   6.767   3.449   2.877
 4220SOL    HW213560   6.712   3.414   3.027
 4221SOL     OW13561   6.044   6.007   6.667
 4221SOL    HW113562   6.046   6.100   6.704
 4221SOL    HW213563   5.953   5.988   6.629
 4222SOL     OW13564   6.395   1.479   2.535
 4222SOL    HW113565   6.409   1.439   2.445
 4222SOL    HW213566   6.335   1.559   2.527
 4223SOL     OW13567   3.528   3.187   3.081
 4223SOL    HW113568   3.511   3.152   2.989
 4223SOL    HW213569   3.623   3.218   3.089
 4224SOL     OW13570   5.152   3.177   4.022
 4224SOL    HW113571   5.201   3.102   4.066
 4224SOL    HW213572   5.160   3.259   4.078
 4225SOL     OW13573   5.510   0.970   5.194
 4225SOL    HW113574   5.572   0.893   5.181
 4225SOL    HW213575   5.545   1.029   5.267
 4226SOL     OW13576   1.740   1.754   4.068
 4226SOL    HW113577   1.785   1.669   4.041
 4226SOL    HW213578   1.690   1.791   3.990
 4227SOL     OW13579   3.986   4.678   6.618
 4227SOL    HW113580   4.018   4.704   6.528
 4227SOL    HW213581   4.040   4.601   6.653
 4228SOL     OW13582   5.795   6.414   4.210
 4228SOL    HW113583   5.775   6.319   4.235
 4228SOL    HW213584   5.810   6.468   4.293
 4229SOL     OW13585   3.897   4.947   5.997
 4229SOL    HW113586   3.799   4.965   6.002
 4229SOL    HW213587   3.918   4.898   5.912
 4230SOL     OW13588   2.482   0.296   4.968
 4230SOL    HW113589   2.441   0.311   5.058
 4230SOL    HW213590   2.427   0.230   4.917
 4231SOL     OW13591   5.064   6.591   5.532
 4231SOL    HW113592   5.056   6.690   5.523
 4231SOL    HW213593   5.018   6.561   5.615
 4232SOL     OW13594   1.067   5.455   2.055
 4232SOL    HW113595   1.052   5.481   1.960
 4232SOL    HW213596   1.004   5.505   2.114
 4233SOL     OW13597   6.031   0.857   0.013
 4233SOL    HW113598   6.090   0.782   0.044
 4233SOL    HW213599   5.952   0.819   6.987
 4234SOL     OW13600   2.142   5.139   5.636
 4234SOL    HW113601   2.103   5.079   5.706
 4234SOL    HW213602   2.223   5.184   5.671
 4235SOL     OW13603   6.102   4.308   5.618
 4235SOL    HW113604   6.108   4.355   5.530
 4235SOL    HW213605   6.068   4.215   5.604
 4236SOL     OW13606   0.172   2.884   4.136
 4236SOL    HW113607   0.077   2.894   4.106
 4236SOL    HW213608   0.199   2.788   4.128
 4237SOL     OW13609   6.202   3.533   4.432
 4237SOL    HW113610   6.168   3.569   4.519
 4237SOL    HW213611   6.191   3.602   4.360
 4238SOL     OW13612   4.231   4.698   3.481
 4238SOL    HW113613   4.268   4.667   3.569
 4238SOL    HW213614   4.159   4.635   3.452
 4239SOL     OW13615   4.668   6.841   4.344
 4239SOL    HW113616   4.756   6.794   4.335
 4239SOL    HW213617   4.648   6.858   4.440
 4240SOL     OW13618   2.668   5.915   6.382
 4240SOL    HW113619   2.690   5.975   6.459
 4240SOL    HW213620   2.571   5.924   6.359
 4241SOL     OW13621   5.261   0.526   1.199
 4241SOL    HW113622   5.182   0.486   1.245
 4241SOL    HW213623   5.323   0.566   1.267
 4242SOL     OW13624   2.406   6.726   2.647
 4242SOL    HW113625   2.415   6.644   2.704
 4242SOL    HW213626   2.324   6.719   2.590
 4243SOL     OW13627   0.267   4.075   2.496
 4243SOL    HW113628   0.304   4.143   2.559
 4243SOL    HW213629   0.318   3.990   2.506
 4244SOL     OW13630   4.912   6.339   0.611
 4244SOL    HW113631   4.814   6.336   0.628
 4244SOL    HW213632   4.929   6.331   0.513
 4245SOL     OW13633   6.459   2.907   0.579
 4245SOL    HW113634   6.474   2.829   0.639
 4245SOL    HW213635   6.504   2.891   0.491
 4246SOL     OW13636   5.745   2.618   2.978
 4246SOL    HW113637   5.820   2.553   2.990
 4246SOL    HW213638   5.676   2.579   2.917
 4247SOL     OW13639   2.683   5.498   4.566
 4247SOL    HW113640   2.639   5.414   4.534
 4247SOL    HW213641   2.770   5.476   4.609
 4248SOL     OW13642   1.908   0.599   2.987
 4248SOL    HW113643   1.828   0.640   3.030
 4248SOL    HW213644   1.982   0.666   2.981
 4249SOL     OW13645   0.254   1.787   4.182
 4249SOL    HW113646   0.291   1.851   4.250
 4249SOL    HW213647   0.161   1.760   4.209
 4250SOL     OW13648   0.434   5.642   3.988
 4250SOL    HW113649   0.334   5.638   3.977
 4250SOL    HW213650   0.470   5.549   3.996
 4251SOL     OW13651   5.425   3.115   6.759
 4251SOL    HW113652   5.334   3.074   6.766
 4251SOL    HW213653   5.482   3.083   6.834
 4252SOL     OW13654   6.100   5.686   5.216
 4252SOL    HW113655   6.129   5.622   5.287
 4252SOL    HW213656   6.177   5.745   5.191
 4253SOL     OW13657   3.942   6.319   2.222
 4253SOL    HW113658   3.959   6.233   2.175
 4253SOL    HW213659   3.983   6.394   2.170
 4254SOL     OW13660   2.149   3.668   0.389
 4254SOL    HW113661   2.150   3.665   0.489
 4254SOL    HW213662   2.055   3.683   0.357
 4255SOL     OW13663   0.781   4.407   3.642
 4255SOL    HW113664   0.781   4.365   3.732
 4255SOL    HW213665   0.708   4.475   3.637
 4256SOL     OW13666   0.291   4.939   1.448
 4256SOL    HW113667   0.263   4.845   1.469
 4256SOL    HW213668   0.230   5.003   1.494
 4257SOL     OW13669   6.115   1.513   5.118
 4257SOL    HW113670   6.056   1.543   5.043
 4257SOL    HW213671   6.093   1.565   5.201
 4258SOL     OW13672   3.248   5.227   1.170
 4258SOL    HW113673   3.263   5.257   1.264
 4258SOL    HW213674   3.248   5.306   1.110
 4259SOL     OW13675   1.678   0.167   1.371
 4259SOL    HW113676   1.723   0.220   1.299
 4259SOL    HW213677   1.685   0.069   1.349
 4260SOL     OW13678   4.791   0.129   4.024
 4260SOL    HW113679   4.836   0.190   4.090
 4260SOL    HW213680   4.818   0.035   4.042
 4261SOL     OW13681   2.083   0.591   4.759
 4261SOL    HW113682   2.182   0.604   4.753
 4261SOL    HW213683   2.042   0.602   4.669
 4262SOL     OW13684   1.193   4.824   6.128
 4262SOL    HW113685   1.218   4.757   6.198
 4262SOL    HW213686   1.095   4.845   6.134
 4263SOL     OW13687   2.683   2.270   3.379
 4263SOL    HW113688   2.600   2.293   3.431
 4263SOL    HW213689   2.706   2.345   3.317
 4264SOL     OW13690   5.727   1.248   4.387
 4264SOL    HW113691   5.694   1.198   4.306
 4264SOL    HW213692   5.658   1.244   4.459
 4265SOL     OW13693   3.032   0.139   1.147
 4265SOL    HW113694   3.116   0.183   1.178
 4265SOL    HW213695   3.029   0.141   1.047
 4266SOL     OW13696   1.096   6.959   0.472
 4266SOL    HW113697   0.997   6.972   0.473
 4266SOL    HW213698   1.140   0.020   0.440
 4267SOL     OW13699   2.335   4.264   3.764
 4267SOL    HW113700   2.401   4.326   3.722
 4267SOL    HW213701   2.371   4.171   3.762
 4268SOL     OW13702   1.463   5.013   0.018
 4268SOL    HW113703   1.516   5.044   6.962
 4268SOL    HW213704   1.436   5.092   0.073
 4269SOL     OW13705   3.469   1.757   3.919
 4269SOL    HW113706   3.450   1.770   3.821
 4269SOL    HW213707   3.472   1.845   3.964
 4270SOL     OW13708   3.586   2.817   1.038
 4270SOL    HW113709   3.550   2.783   0.951
 4270SOL    HW213710   3.652   2.891   1.020
 4271SOL     OW13711   6.255   0.519   1.208
 4271SOL    HW113712   6.232   0.614   1.231
 4271SOL    HW213713   6.192   0.457   1.256
 4272SOL     OW13714   0.207   3.212   5.745
 4272SOL    HW113715   0.195   3.180   5.839
 4272SOL    HW213716   0.121   3.251   5.712
 4273SOL     OW13717   4.746   6.490   5.035
 4273SOL    HW113718   4.782   6.492   4.942
 4273SOL    HW213719   4.794   6.419   5.087
 4274SOL     OW13720   0.136   6.607   2.011
 4274SOL    HW113721   0.112   6.688   2.066
 4274SOL    HW213722   0.054   6.573   1.966
 4275SOL     OW13723   0.748   2.602   3.737
 4275SOL    HW113724   0.800   2.583   3.653
 4275SOL    HW213725   0.806   2.586   3.816
 4276SOL     OW13726   2.803   5.041   4.016
 4276SOL    HW113727   2.835   5.082   3.931
 4276SOL    HW213728   2.802   4.942   4.008
 4277SOL     OW13729   6.477   4.957   3.841
 4277SOL    HW113730   6.561   4.903   3.830
 4277SOL    HW213731   6.455   5.001   3.753
 4278SOL     OW13732   6.603   6.410   2.764
 4278SOL    HW113733   6.677   6.410   2.696
 4278SOL    HW213734   6.523   6.363   2.727
 4279SOL     OW13735   1.218   1.469   2.709
 4279SOL    HW113736   1.124   1.504   2.720
 4279SOL    HW213737   1.270   1.533   2.653
 4280SOL     OW13738   6.487   6.559   6.616
 4280SOL    HW113739   6.517   6.470   6.649
 4280SOL    HW213740   6.398   6.582   6.656
 4281SOL     OW13741   4.513   5.577   4.009
 4281SOL    HW113742   4.427   5.629   4.008
 4281SOL    HW213743   4.572   5.612   4.082
 4282SOL     OW13744   3.083   3.890   0.753
 4282SOL    HW113745   2.999   3.882   0.806
 4282SOL    HW213746   3.066   3.946   0.672
 4283SOL     OW13747   4.974   0.650   2.995
 4283SOL    HW113748   5.003   0.556   2.980
 4283SOL    HW213749   5.001   0.679   3.087
 4284SOL     OW13750   4.341   5.345   0.526
 4284SOL    HW113751   4.399   5.275   0.568
 4284SOL    HW213752   4.379   5.370   0.437
 4285SOL     OW13753   3.238   0.388   6.301
 4285SOL    HW113754   3.275   0.481   6.293
 4285SOL    HW213755   3.311   0.325   6.328
 4286SOL     OW13756   6.499   1.444   0.064
 4286SOL    HW113757   6.538   1.378   0.128
 4286SOL    HW213758   6.407   1.468   0.093
 4287SOL     OW13759   4.389   0.510   0.003
 4287SOL    HW113760   4.313   0.445   0.005
 4287SOL    HW213761   4.471   0.466   0.041
 4288SOL     OW13762   6.215   6.029   1.765
 4288SOL    HW113763   6.175   6.023   1.673
 4288SOL    HW213764   6.315   6.027   1.757
 4289SOL     OW13765   0.515   2.343   5.659
 4289SOL    HW113766   0.536   2.441   5.656
 4289SOL    HW213767   0.575   2.294   5.596
 4290SOL     OW13768   0.307   0.413   3.301
 4290SOL    HW113769   0.292   0.507   3.269
 4290SOL    HW213770   0.254   0.350   3.244
 4291SOL     OW13771   4.714   3.075   5.815
 4291SOL    HW113772   4.718   3.150   5.881
 4291SOL    HW213773   4.672   2.995   5.859
 4292SOL     OW13774   4.782   2.101   6.960
 4292SOL    HW113775   4.867   2.077   6.912
 4292SOL    HW213776   4.780   2.053   0.025
 4293SOL     OW13777   5.263   4.084   6.775
 4293SOL    HW113778   5.218   4.055   6.690
 4293SOL    HW213779   5.228   4.029   6.851
 4294SOL     OW13780   2.919   1.990   6.118
 4294SOL    HW113781   2.984   1.916   6.133
 4294SOL    HW213782   2.932   2.028   6.026
 4295SOL     OW13783   4.193   6.721   2.158
 4295SOL    HW113784   4.284   6.684   2.176
 4295SOL    HW213785   4.139   6.722   2.242
 4296SOL     OW13786   3.165   6.343   1.116
 4296SOL    HW113787   3.090   6.282   1.091
 4296SOL    HW213788   3.133   6.409   1.184
 4297SOL     OW13789   6.822   5.312   1.009
 4297SOL    HW113790   6.776   5.259   0.938
 4297SOL    HW213791   6.902   5.261   1.042
 4298SOL     OW13792   3.514   6.245   1.379
 4298SOL    HW113793   3.511   6.242   1.280
 4298SOL    HW213794   3.545   6.335   1.410
 4299SOL     OW13795   0.263   2.438   6.633
 4299SOL    HW113796   0.263   2.341   6.658
 4299SOL    HW213797   0.357   2.473   6.632
 4300SOL     OW13798   3.579   0.671   0.959
 4300SOL    HW113799   3.511   0.691   0.889
 4300SOL    HW213800   3.575   0.740   1.031
 4301SOL     OW13801   3.152   5.942   1.472
 4301SOL    HW113802   3.246   5.924   1.501
 4301SOL    HW213803   3.145   6.037   1.440
 4302SOL     OW13804   0.496   6.755   6.617
 4302SOL    HW113805   0.550   6.671   6.620
 4302SOL    HW213806   0.486   6.784   6.522
 4303SOL     OW13807   6.709   4.879   3.986
 4303SOL    HW113808   6.777   4.819   4.029
 4303SOL    HW213809   6.629   4.887   4.045
 4304SOL     OW13810   3.113   3.677   1.555
 4304SOL    HW113811   3.201   3.656   1.514
 4304SOL    HW213812   3.126   3.739   1.632
 4305SOL     OW13813   0.240   6.811   5.757
 4305SOL    HW113814   0.203   6.824   5.849
 4305SOL    HW213815   0.337   6.835   5.756
 4306SOL     OW13816   4.846   3.926   4.518
 4306SOL    HW113817   4.831   3.896   4.612
 4306SOL    HW213818   4.864   3.847   4.460
 4307SOL     OW13819   6.343   2.951   5.542
 4307SOL    HW113820   6.351   2.878   5.474
 4307SOL    HW213821   6.249   2.984   5.544
 4308SOL     OW13822   5.061   5.160   1.509
 4308SOL    HW113823   5.086   5.065   1.493
 4308SOL    HW213824   4.961   5.168   1.518
 4309SOL     OW13825   0.764   3.286   0.017
 4309SOL    HW113826   0.765   3.254   0.112
 4309SOL    HW213827   0.676   3.329   7.020
 4310SOL     OW13828   1.236   1.968   2.589
 4310SOL    HW113829   1.220   1.980   2.491
 4310SOL    HW213830   1.241   2.058   2.633
 4311SOL     OW13831   1.160   6.332   2.270
 4311SOL    HW113832   1.152   6.264   2.342
 4311SOL    HW213833   1.076   6.333   2.215
 4312SOL     OW13834   1.016   4.594   2.072
 4312SOL    HW113835   1.103   4.611   2.026
 4312SOL    HW213836   0.993   4.672   2.130
 4313SOL     OW13837   5.162   1.780   0.449
 4313SOL    HW113838   5.093   1.708   0.460
 4313SOL    HW213839   5.238   1.745   0.394
 4314SOL     OW13840   6.632   2.738   5.880
 4314SOL    HW113841   6.629   2.658   5.941
 4314SOL    HW213842   6.719   2.786   5.892
 4315SOL     OW13843   2.084   1.591   3.102
 4315SOL    HW113844   2.125   1.536   3.176
 4315SOL    HW213845   2.026   1.662   3.142
 4316SOL     OW13846   5.325   0.832   2.203
 4316SOL    HW113847   5.338   0.921   2.247
 4316SOL    HW213848   5.237   0.794   2.231
 4317SOL     OW13849   4.455   0.775   5.422
 4317SOL    HW113850   4.367   0.766   5.468
 4317SOL    HW213851   4.527   0.788   5.491
 4318SOL     OW13852   0.618   0.979   4.249
 4318SOL    HW113853   0.715   1.005   4.243
 4318SOL    HW213854   0.600   0.904   4.186
 4319SOL     OW13855   1.494   2.883   1.703
 4319SOL    HW113856   1.407   2.840   1.726
 4319SOL    HW213857   1.568   2.816   1.714
 4320SOL     OW13858   3.794   6.135   0.529
 4320SOL    HW113859   3.871   6.197   0.543
 4320SOL    HW213860   3.726   6.150   0.602
 4321SOL     OW13861   6.851   5.982   2.539
 4321SOL    HW113862   6.762   6.012   2.573
 4321SOL    HW213863   6.900   5.935   2.612
 4322SOL     OW13864   0.657   2.266   5.426
 4322SOL    HW113865   0.756   2.275   5.417
 4322SOL    HW213866   0.616   2.248   5.337
 4323SOL     OW13867   3.849   5.547   0.002
 4323SOL    HW113868   3.865   5.614   0.074
 4323SOL    HW213869   3.867   5.589   6.936
 4324SOL     OW13870   0.725   3.704   5.652
 4324SOL    HW113871   0.688   3.759   5.577
 4324SOL    HW213872   0.696   3.744   5.739
 4325SOL     OW13873   2.936   0.482   3.361
 4325SOL    HW113874   2.968   0.576   3.370
 4325SOL    HW213875   2.843   0.474   3.399
 4326SOL     OW13876   5.203   3.055   2.618
 4326SOL    HW113877   5.155   3.142   2.619
 4326SOL    HW213878   5.296   3.068   2.584
 4327SOL     OW13879   3.368   5.415   3.515
 4327SOL    HW113880   3.426   5.351   3.567
 4327SOL    HW213881   3.288   5.366   3.481
 4328SOL     OW13882   6.442   5.025   4.743
 4328SOL    HW113883   6.342   5.027   4.736
 4328SOL    HW213884   6.469   4.991   4.833
 4329SOL     OW13885   5.480   3.174   5.290
 4329SOL    HW113886   5.443   3.220   5.210
 4329SOL    HW213887   5.531   3.093   5.262
 4330SOL     OW13888   2.485   6.248   5.269
 4330SOL    HW113889   2.415   6.308   5.231
 4330SOL    HW213890   2.475   6.243   5.369
 4331SOL     OW13891   6.624   0.357   1.496
 4331SOL    HW113892   6.561   0.337   1.572
 4331SOL    HW213893   6.655   0.452   1.502
 4332SOL     OW13894   6.309   3.760   3.074
 4332SOL    HW113895   6.220   3.779   3.031
 4332SOL    HW213896   6.330   3.663   3.064
 4333SOL     OW13897   4.668   2.176   5.278
 4333SOL    HW113898   4.684   2.189   5.376
 4333SOL    HW213899   4.730   2.105   5.244
 4334SOL     OW13900   1.154   2.814   3.068
 4334SOL    HW113901   1.117   2.760   2.992
 4334SOL    HW213902   1.155   2.911   3.043
 4335SOL     OW13903   3.402   2.927   0.489
 4335SOL    HW113904   3.408   2.988   0.410
 4335SOL    HW213905   3.370   2.837   0.460
 4336SOL     OW13906   1.565   5.433   6.151
 4336SOL    HW113907   1.602   5.520   6.186
 4336SOL    HW213908   1.625   5.398   6.080
 4337SOL     OW13909   1.334   5.939   2.339
 4337SOL    HW113910   1.258   5.883   2.305
 4337SOL    HW213911   1.341   6.022   2.283
 4338SOL     OW13912   6.518   0.102   5.866
 4338SOL    HW113913   6.476   0.175   5.919
 4338SOL    HW213914   6.567   0.140   5.788
 4339SOL     OW13915   3.878   2.185   6.624
 4339SOL    HW113916   3.960   2.207   6.676
 4339SOL    HW213917   3.887   2.095   6.583
 4340SOL     OW13918   6.306   3.773   0.860
 4340SOL    HW113919   6.291   3.765   0.959
 4340SOL    HW213920   6.400   3.748   0.839
 4341SOL     OW13921   0.699   5.929   1.533
 4341SOL    HW113922   0.665   5.893   1.620
 4341SOL    HW213923   0.746   6.016   1.549
 4342SOL     OW13924   5.381   3.724   2.627
 4342SOL    HW113925   5.400   3.645   2.570
 4342SOL    HW213926   5.449   3.795   2.611
 4343SOL     OW13927   3.938   0.485   5.642
 4343SOL    HW113928   3.886   0.402   5.665
 4343SOL    HW213929   4.028   0.459   5.607
 4344SOL     OW13930   0.569   3.210   4.111
 4344SOL    HW113931   0.561   3.186   4.014
 4344SOL    HW213932   0.544   3.131   4.166
 4345SOL     OW13933   2.959   3.294   2.733
 4345SOL    HW113934   2.860   3.297   2.723
 4345SOL    HW213935   2.993   3.386   2.754
 4346SOL     OW13936   2.330   2.714   2.863
 4346SOL    HW113937   2.252   2.729   2.923
 4346SOL    HW213938   2.305   2.647   2.792
 4347SOL     OW13939   6.226   5.209   1.355
 4347SOL    HW113940   6.239   5.220   1.257
 4347SOL    HW213941   6.231   5.112   1.379
 4348SOL     OW13942   6.624   5.892   3.686
 4348SOL    HW113943   6.617   5.940   3.599
 4348SOL    HW213944   6.567   5.937   3.755
 4349SOL     OW13945   0.193   4.338   3.447
 4349SOL    HW113946   0.290   4.318   3.462
 4349SOL    HW213947   0.143   4.329   3.533
 4350SOL     OW13948   5.996   1.653   4.595
 4350SOL    HW113949   5.990   1.701   4.683
 4350SOL    HW213950   5.933   1.695   4.530
 4351SOL     OW13951   1.005   6.383   1.396
 4351SOL    HW113952   0.951   6.324   1.336
 4351SOL    HW213953   0.999   6.478   1.365
 4352SOL     OW13954   5.305   4.607   1.111
 4352SOL    HW113955   5.253   4.690   1.092
 4352SOL    HW213956   5.346   4.614   1.203
 4353SOL     OW13957   3.218   3.543   6.686
 4353SOL    HW113958   3.312   3.510   6.674
 4353SOL    HW213959   3.208   3.580   6.779
 4354SOL     OW13960   0.083   0.703   4.109
 4354SOL    HW113961   0.141   0.766   4.161
 4354SOL    HW213962   0.093   0.721   4.011
 4355SOL     OW13963   1.364   0.323   3.880
 4355SOL    HW113964   1.437   0.310   3.948
 4355SOL    HW213965   1.285   0.268   3.906
 4356SOL     OW13966   5.224   2.883   5.873
 4356SOL    HW113967   5.158   2.939   5.822
 4356SOL    HW213968   5.175   2.824   5.937
 4357SOL     OW13969   6.240   1.547   2.171
 4357SOL    HW113970   6.169   1.477   2.166
 4357SOL    HW213971   6.326   1.510   2.137
 4358SOL     OW13972   0.465   1.280   0.206
 4358SOL    HW113973   0.429   1.348   0.271
 4358SOL    HW213974   0.474   1.322   0.116
 4359SOL     OW13975   2.464   0.501   6.617
 4359SOL    HW113976   2.519   0.427   6.578
 4359SOL    HW213977   2.372   0.497   6.579
 4360SOL     OW13978   0.909   2.783   3.284
 4360SOL    HW113979   0.876   2.872   3.317
 4360SOL    HW213980   0.950   2.795   3.194
 4361SOL     OW13981   1.412   2.278   1.198
 4361SOL    HW113982   1.489   2.250   1.141
 4361SOL    HW213983   1.326   2.258   1.152
 4362SOL     OW13984   0.810   6.236   4.037
 4362SOL    HW113985   0.836   6.166   4.103
 4362SOL    HW213986   0.872   6.314   4.045
 4363SOL     OW13987   4.415   0.850   2.994
 4363SOL    HW113988   4.437   0.764   3.041
 4363SOL    HW213989   4.333   0.837   2.938
 4364SOL     OW13990   3.007   3.703   2.509
 4364SOL    HW113991   2.985   3.733   2.416
 4364SOL    HW213992   3.007   3.781   2.570
 4365SOL     OW13993   3.206   2.149   1.814
 4365SOL    HW113994   3.277   2.216   1.835
 4365SOL    HW213995   3.227   2.063   1.858
 4366SOL     OW13996   5.370   5.582   5.154
 4366SOL    HW113997   5.432   5.655   5.185
 4366SOL    HW213998   5.303   5.563   5.225
 4367SOL     OW13999   2.773   5.362   3.345
 4367SOL    HW114000   2.809   5.453   3.323
 4367SOL    HW214001   2.808   5.295   3.280
 4368SOL     OW14002   4.914   5.947   2.554
 4368SOL    HW114003   4.972   6.017   2.595
 4368SOL    HW214004   4.871   5.984   2.471
 4369SOL     OW14005   4.902   5.091   2.973
 4369SOL    HW114006   4.935   5.041   2.892
 4369SOL    HW214007   4.847   5.168   2.944
 4370SOL     OW14008   3.698   4.343   1.583
 4370SOL    HW114009   3.654   4.322   1.670
 4370SOL    HW214010   3.661   4.428   1.546
 4371SOL     OW14011   2.615   0.803   1.727
 4371SOL    HW114012   2.696   0.768   1.774
 4371SOL    HW214013   2.634   0.893   1.689
 4372SOL     OW14014   1.806   2.329   5.176
 4372SOL    HW114015   1.720   2.329   5.226
 4372SOL    HW214016   1.802   2.396   5.102
 4373SOL     OW14017   4.847   1.031   6.218
 4373SOL    HW114018   4.785   1.022   6.296
 4373SOL    HW214019   4.868   1.128   6.204
 4374SOL     OW14020   2.252   1.907   1.462
 4374SOL    HW114021   2.315   1.886   1.537
 4374SOL    HW214022   2.294   1.975   1.402
 4375SOL     OW14023   3.826   0.239   3.673
 4375SOL    HW114024   3.865   0.293   3.747
 4375SOL    HW214025   3.846   0.282   3.585
 4376SOL     OW14026   6.374   6.195   1.503
 4376SOL    HW114027   6.284   6.158   1.480
 4376SOL    HW214028   6.434   6.189   1.423
 4377SOL     OW14029   5.787   6.355   0.491
 4377SOL    HW114030   5.716   6.401   0.545
 4377SOL    HW214031   5.873   6.405   0.500
 4378SOL     OW14032   1.829   5.200   2.170
 4378SOL    HW114033   1.901   5.153   2.119
 4378SOL    HW214034   1.861   5.292   2.194
 4379SOL     OW14035   1.902   0.841   1.803
 4379SOL    HW114036   1.819   0.893   1.783
 4379SOL    HW214037   1.902   0.815   1.900
 4380SOL     OW14038   2.163   5.831   4.884
 4380SOL    HW114039   2.200   5.756   4.829
 4380SOL    HW214040   2.084   5.798   4.936
 4381SOL     OW14041   3.852   5.713   4.610
 4381SOL    HW114042   3.823   5.791   4.554
 4381SOL    HW214043   3.830   5.628   4.562
 4382SOL     OW14044   4.927   4.194   4.472
 4382SOL    HW114045   4.873   4.255   4.531
 4382SOL    HW214046   4.908   4.099   4.496
 4383SOL     OW14047   1.248   1.610   6.024
 4383SOL    HW114048   1.185   1.665   6.078
 4383SOL    HW214049   1.321   1.574   6.083
 4384SOL     OW14050   3.991   0.241   1.331
 4384SOL    HW114051   3.954   0.239   1.239
 4384SOL    HW214052   3.926   0.285   1.393
 4385SOL     OW14053   0.101   1.849   3.733
 4385SOL    HW114054   0.041   1.815   3.806
 4385SOL    HW214055   0.162   1.776   3.703
 4386SOL     OW14056   0.996   4.126   6.718
 4386SOL    HW114057   1.071   4.183   6.683
 4386SOL    HW214058   0.976   4.053   6.653
 4387SOL     OW14059   6.445   2.913   1.267
 4387SOL    HW114060   6.525   2.921   1.326
 4387SOL    HW214061   6.416   2.817   1.263
 4388SOL     OW14062   3.881   0.560   6.551
 4388SOL    HW114063   3.962   0.533   6.499
 4388SOL    HW214064   3.799   0.547   6.495
 4389SOL     OW14065   5.592   2.550   1.264
 4389SOL    HW114066   5.508   2.600   1.244
 4389SOL    HW214067   5.661   2.614   1.298
 4390SOL     OW14068   4.921   1.926   1.667
 4390SOL    HW114069   4.962   1.841   1.633
 4390SOL    HW214070   4.993   1.994   1.682
 4391SOL     OW14071   0.939   5.972   6.926
 4391SOL    HW114072   0.903   5.983   6.834
 4391SOL    HW214073   0.946   6.061   6.970
 4392SOL     OW14074   4.858   3.160   4.305
 4392SOL    HW114075   4.850   3.062   4.321
 4392SOL    HW214076   4.851   3.178   4.207
 4393SOL     OW14077   5.452   6.998   3.829
 4393SOL    HW114078   5.438   0.072   3.813
 4393SOL    HW214079   5.540   6.970   3.789
 4394SOL     OW14080   6.096   5.947   3.087
 4394SOL    HW114081   6.036   5.922   3.011
 4394SOL    HW214082   6.108   6.047   3.089
 4395SOL     OW14083   4.424   1.492   1.715
 4395SOL    HW114084   4.409   1.576   1.663
 4395SOL    HW214085   4.347   1.430   1.702
 4396SOL     OW14086   1.764   1.621   4.604
 4396SOL    HW114087   1.811   1.535   4.621
 4396SOL    HW214088   1.773   1.645   4.507
 4397SOL     OW14089   0.408   1.602   4.601
 4397SOL    HW114090   0.425   1.683   4.545
 4397SOL    HW214091   0.310   1.589   4.613
 4398SOL     OW14092   1.009   3.953   4.556
 4398SOL    HW114093   0.942   4.016   4.594
 4398SOL    HW214094   1.088   4.004   4.523
 4399SOL     OW14095   2.479   0.248   0.841
 4399SOL    HW114096   2.388   0.268   0.878
 4399SOL    HW214097   2.535   0.203   0.911
 4400SOL     OW14098   2.302   6.676   4.275
 4400SOL    HW114099   2.317   6.747   4.206
 4400SOL    HW214100   2.206   6.676   4.302
 4401SOL     OW14101   5.459   6.450   5.541
 4401SOL    HW114102   5.537   6.426   5.483
 4401SOL    HW214103   5.378   6.400   5.509
 4402SOL     OW14104   1.250   5.611   2.672
 4402SOL    HW114105   1.226   5.690   2.728
 4402SOL    HW214106   1.262   5.639   2.577
 4403SOL     OW14107   6.929   0.246   3.249
 4403SOL    HW114108   7.003   0.179   3.254
 4403SOL    HW214109   6.899   0.256   3.154
 4404SOL     OW14110   0.926   4.166   4.094
 4404SOL    HW114111   0.943   4.070   4.072
 4404SOL    HW214112   0.937   4.179   4.193
 4405SOL     OW14113   3.062   4.450   5.702
 4405SOL    HW114114   3.066   4.480   5.606
 4405SOL    HW214115   3.145   4.398   5.724
 4406SOL     OW14116   4.708   4.878   1.541
 4406SOL    HW114117   4.722   4.787   1.581
 4406SOL    HW214118   4.788   4.902   1.485
 4407SOL     OW14119   0.004   6.152   0.642
 4407SOL    HW114120   6.932   6.167   0.616
 4407SOL    HW214121   0.063   6.217   0.594
 4408SOL     OW14122   4.541   0.178   0.685
 4408SOL    HW114123   4.491   0.251   0.638
 4408SOL    HW214124   4.573   0.111   0.618
 4409SOL     OW14125   4.265   1.809   1.943
 4409SOL    HW114126   4.294   1.755   1.864
 4409SOL    HW214127   4.183   1.768   1.983
 4410SOL     OW14128   2.458   4.328   0.107
 4410SOL    HW114129   2.486   4.245   0.156
 4410SOL    HW214130   2.424   4.395   0.173
 4411SOL     OW14131   3.713   3.670   2.902
 4411SOL    HW114132   3.761   3.690   2.988
 4411SOL    HW214133   3.648   3.743   2.883
 4412SOL     OW14134   4.409   1.101   5.485
 4412SOL    HW114135   4.352   1.020   5.490
 4412SOL    HW214136   4.469   1.096   5.405
 4413SOL     OW14137   4.003   5.678   4.151
 4413SOL    HW114138   3.929   5.650   4.090
 4413SOL    HW214139   3.969   5.750   4.212
 4414SOL     OW14140   4.451   5.093   2.616
 4414SOL    HW114141   4.495   5.015   2.572
 4414SOL    HW214142   4.520   5.162   2.638
 4415SOL     OW14143   5.718   3.973   6.184
 4415SOL    HW114144   5.697   3.884   6.225
 4415SOL    HW214145   5.753   4.034   6.255
 4416SOL     OW14146   3.021   1.518   3.936
 4416SOL    HW114147   3.081   1.438   3.936
 4416SOL    HW214148   2.940   1.499   3.991
 4417SOL     OW14149   6.702   4.626   2.191
 4417SOL    HW114150   6.648   4.642   2.273
 4417SOL    HW214151   6.652   4.659   2.111
 4418SOL     OW14152   4.731   6.383   3.808
 4418SOL    HW114153   4.689   6.352   3.722
 4418SOL    HW214154   4.661   6.395   3.878
 4419SOL     OW14155   5.756   5.583   0.732
 4419SOL    HW114156   5.823   5.651   0.702
 4419SOL    HW214157   5.796   5.492   0.724
 4420SOL     OW14158   4.774   0.672   0.847
 4420SOL    HW114159   4.861   0.715   0.872
 4420SOL    HW214160   4.736   0.627   0.927
 4421SOL     OW14161   2.735   1.513   2.481
 4421SOL    HW114162   2.660   1.575   2.460
 4421SOL    HW214163   2.721   1.427   2.431
 4422SOL     OW14164   3.302   3.087   5.922
 4422SOL    HW114165   3.397   3.080   5.951
 4422SOL    HW214166   3.297   3.144   5.840
 4423SOL     OW14167   1.450   1.734   5.864
 4423SOL    HW114168   1.367   1.701   5.909
 4423SOL    HW214169   1.494   1.803   5.921
 4424SOL     OW14170   4.863   6.398   2.848
 4424SOL    HW114171   4.797   6.409   2.922
 4424SOL    HW214172   4.931   6.330   2.874
 4425SOL     OW14173   3.601   5.265   6.096
 4425SOL    HW114174   3.691   5.261   6.140
 4425SOL    HW214175   3.546   5.186   6.124
 4426SOL     OW14176   6.964   0.861   5.761
 4426SOL    HW114177   6.996   0.793   5.826
 4426SOL    HW214178   0.003   0.865   5.683
 4427SOL     OW14179   0.755   0.866   3.173
 4427SOL    HW114180   0.766   0.767   3.181
 4427SOL    HW214181   0.818   0.911   3.237
 4428SOL     OW14182   2.929   4.773   4.246
 4428SOL    HW114183   2.914   4.758   4.149
 4428SOL    HW214184   2.848   4.742   4.298
 4429SOL     OW14185   2.775   0.201   3.603
 4429SOL    HW114186   2.733   0.208   3.513
 4429SOL    HW214187   2.815   0.110   3.614
 4430SOL     OW14188   4.572   2.577   3.260
 4430SOL    HW114189   4.571   2.673   3.288
 4430SOL    HW214190   4.537   2.569   3.167
 4431SOL     OW14191   2.980   1.489   2.890
 4431SOL    HW114192   2.913   1.536   2.833
 4431SOL    HW214193   2.992   1.539   2.976
 4432SOL     OW14194   3.686   2.847   3.181
 4432SOL    HW114195   3.638   2.799   3.107
 4432SOL    HW214196   3.724   2.932   3.146
 4433SOL     OW14197   6.136   0.020   3.368
 4433SOL    HW114198   6.218   0.073   3.392
 4433SOL    HW214199   6.067   0.032   3.440
 4434SOL     OW14200   5.180   1.564   4.057
 4434SOL    HW114201   5.126   1.627   4.000
 4434SOL    HW214202   5.268   1.547   4.013
 4435SOL     OW14203   3.717   3.061   1.119
 4435SOL    HW114204   3.771   3.024   1.195
 4435SOL    HW214205   3.754   3.151   1.093
 4436SOL     OW14206   2.986   1.885   0.018
 4436SOL    HW114207   3.013   1.915   6.950
 4436SOL    HW214208   3.068   1.872   0.074
 4437SOL     OW14209   4.410   0.777   4.574
 4437SOL    HW114210   4.372   0.686   4.589
 4437SOL    HW214211   4.416   0.826   4.661
 4438SOL     OW14212   4.503   1.951   0.389
 4438SOL    HW114213   4.439   1.945   0.312
 4438SOL    HW214214   4.512   2.046   0.418
 4439SOL     OW14215   0.534   4.949   1.558
 4439SOL    HW114216   0.527   4.998   1.644
 4439SOL    HW214217   0.447   4.952   1.510
 4440SOL     OW14218   1.988   5.563   0.321
 4440SOL    HW114219   1.953   5.656   0.332
 4440SOL    HW214220   2.085   5.567   0.297
 4441SOL     OW14221   6.472   2.212   2.125
 4441SOL    HW114222   6.386   2.262   2.119
 4441SOL    HW214223   6.540   2.267   2.173
 4442SOL     OW14224   3.719   6.386   3.354
 4442SOL    HW114225   3.750   6.440   3.432
 4442SOL    HW214226   3.714   6.444   3.273
 4443SOL     OW14227   1.844   1.922   6.587
 4443SOL    HW114228   1.906   1.895   6.661
 4443SOL    HW214229   1.827   2.021   6.593
 4444SOL     OW14230   4.610   6.126   0.062
 4444SOL    HW114231   4.562   6.044   0.093
 4444SOL    HW214232   4.678   6.100   7.017
 4445SOL     OW14233   1.344   0.606   6.225
 4445SOL    HW114234   1.362   0.682   6.163
 4445SOL    HW214235   1.420   0.540   6.220
 4446SOL     OW14236   5.864   1.173   1.551
 4446SOL    HW114237   5.792   1.104   1.556
 4446SOL    HW214238   5.953   1.127   1.550
 4447SOL     OW14239   5.104   3.081   5.431
 4447SOL    HW114240   5.112   3.171   5.473
 4447SOL    HW214241   5.069   3.090   5.338
 4448SOL     OW14242   2.882   3.865   0.370
 4448SOL    HW114243   2.895   3.856   0.271
 4448SOL    HW214244   2.926   3.787   0.415
 4449SOL     OW14245   3.508   0.578   5.693
 4449SOL    HW114246   3.453   0.504   5.731
 4449SOL    HW214247   3.498   0.578   5.593
 4450SOL     OW14248   3.015   3.316   3.143
 4450SOL    HW114249   3.075   3.345   3.068
 4450SOL    HW214250   3.029   3.218   3.160
 4451SOL     OW14251   6.184   4.329   2.705
 4451SOL    HW114252   6.130   4.410   2.730
 4451SOL    HW214253   6.267   4.326   2.761
 4452SOL     OW14254   6.296   6.957   5.432
 4452SOL    HW114255   6.318   6.860   5.424
 4452SOL    HW214256   6.303   6.984   5.528
 4453SOL     OW14257   6.348   3.214   1.645
 4453SOL    HW114258   6.431   3.269   1.640
 4453SOL    HW214259   6.342   3.154   1.565
 4454SOL     OW14260   5.319   2.483   1.017
 4454SOL    HW114261   5.248   2.534   1.064
 4454SOL    HW214262   5.305   2.385   1.032
 4455SOL     OW14263   3.403   6.046   1.751
 4455SOL    HW114264   3.497   6.030   1.784
 4455SOL    HW214265   3.395   6.141   1.720
 4456SOL     OW14266   2.329   5.492   2.236
 4456SOL    HW114267   2.309   5.417   2.300
 4456SOL    HW214268   2.375   5.455   2.155
 4457SOL     OW14269   4.278   2.488   6.445
 4457SOL    HW114270   4.234   2.574   6.473
 4457SOL    HW214271   4.283   2.484   6.345
 4458SOL     OW14272   2.333   3.136   6.344
 4458SOL    HW114273   2.290   3.227   6.340
 4458SOL    HW214274   2.262   3.066   6.346
 4459SOL     OW14275   5.333   0.426   3.914
 4459SOL    HW114276   5.338   0.330   3.890
 4459SOL    HW214277   5.375   0.481   3.842
 4460SOL     OW14278   2.164   3.360   6.384
 4460SOL    HW114279   2.066   3.353   6.403
 4460SOL    HW214280   2.196   3.451   6.411
 4461SOL     OW14281   1.041   6.881   2.321
 4461SOL    HW114282   1.116   6.815   2.324
 4461SOL    HW214283   0.956   6.837   2.348
 4462SOL     OW14284   6.300   4.686   0.824
 4462SOL    HW114285   6.209   4.650   0.802
 4462SOL    HW214286   6.343   4.629   0.894
 4463SOL     OW14287   1.621   2.696   6.799
 4463SOL    HW114288   1.669   2.686   6.887
 4463SOL    HW214289   1.688   2.717   6.728
 4464SOL     OW14290   5.935   4.946   0.220
 4464SOL    HW114291   5.852   4.946   0.163
 4464SOL    HW214292   5.986   4.862   0.203
 4465SOL     OW14293   1.757   6.876   2.307
 4465SOL    HW114294   1.681   6.842   2.252
 4465SOL    HW214295   1.744   6.973   2.328
 4466SOL     OW14296   0.786   0.907   2.519
 4466SOL    HW114297   0.869   0.866   2.482
 4466SOL    HW214298   0.764   0.864   2.607
 4467SOL     OW14299   1.416   6.557   3.523
 4467SOL    HW114300   1.342   6.624   3.524
 4467SOL    HW214301   1.478   6.574   3.600
 4468SOL     OW14302   1.089   2.103   0.246
 4468SOL    HW114303   1.075   2.108   0.147
 4468SOL    HW214304   1.014   2.150   0.293
 4469SOL     OW14305   2.985   7.001   2.131
 4469SOL    HW114306   2.988   0.013   2.225
 4469SOL    HW214307   2.890   6.990   2.102
 4470SOL     OW14308   5.269   3.999   1.619
 4470SOL    HW114309   5.314   3.975   1.533
 4470SOL    HW214310   5.273   4.098   1.632
 4471SOL     OW14311   0.488   2.803   0.189
 4471SOL    HW114312   0.448   2.713   0.169
 4471SOL    HW214313   0.432   2.849   0.257
 4472SOL     OW14314   1.743   4.141   2.665
 4472SOL    HW114315   1.805   4.085   2.721
 4472SOL    HW214316   1.700   4.211   2.722
 4473SOL     OW14317   0.114   0.654   4.529
 4473SOL    HW114318   0.150   0.738   4.570
 4473SOL    HW214319   0.177   0.621   4.459
 4474SOL     OW14320   3.049   0.153   2.632
 4474SOL    HW114321   3.017   0.125   2.723
 4474SOL    HW214322   3.018   0.246   2.613
 4475SOL     OW14323   1.344   3.873   1.335
 4475SOL    HW114324   1.412   3.856   1.407
 4475SOL    HW214325   1.369   3.822   1.253
 4476SOL     OW14326   4.922   6.448   2.605
 4476SOL    HW114327   4.884   6.539   2.586
 4476SOL    HW214328   4.901   6.423   2.699
 4477SOL     OW14329   2.129   0.012   6.664
 4477SOL    HW114330   2.056   0.028   6.599
 4477SOL    HW214331   2.193   0.089   6.663
 4478SOL     OW14332   2.468   6.787   2.182
 4478SOL    HW114333   2.553   6.743   2.154
 4478SOL    HW214334   2.402   6.716   2.208
 4479SOL     OW14335   1.376   0.109   6.252
 4479SOL    HW114336   1.436   0.182   6.283
 4479SOL    HW214337   1.306   0.092   6.322
 4480SOL     OW14338   2.050   3.833   4.568
 4480SOL    HW114339   2.100   3.775   4.633
 4480SOL    HW214340   2.036   3.783   4.482
 4481SOL     OW14341   1.887   6.273   4.534
 4481SOL    HW114342   1.940   6.276   4.618
 4481SOL    HW214343   1.898   6.184   4.490
 4482SOL     OW14344   0.719   4.035   4.448
 4482SOL    HW114345   0.657   3.958   4.432
 4482SOL    HW214346   0.677   4.097   4.515
 4483SOL     OW14347   0.298   3.305   1.167
 4483SOL    HW114348   0.244   3.349   1.095
 4483SOL    HW214349   0.394   3.304   1.141
 4484SOL     OW14350   3.615   2.432   5.339
 4484SOL    HW114351   3.537   2.370   5.347
 4484SOL    HW214352   3.699   2.380   5.351
 4485SOL     OW14353   4.970   2.602   6.595
 4485SOL    HW114354   4.876   2.610   6.563
 4485SOL    HW214355   4.971   2.569   6.689
 4486SOL     OW14356   0.104   4.164   5.243
 4486SOL    HW114357   0.139   4.176   5.150
 4486SOL    HW214358   0.010   4.131   5.238
 4487SOL     OW14359   2.518   3.642   6.658
 4487SOL    HW114360   2.446   3.632   6.589
 4487SOL    HW214361   2.512   3.733   6.698
 4488SOL     OW14362   5.524   2.493   6.010
 4488SOL    HW114363   5.471   2.433   5.951
 4488SOL    HW214364   5.551   2.575   5.959
 4489SOL     OW14365   5.344   5.811   4.508
 4489SOL    HW114366   5.259   5.779   4.549
 4489SOL    HW214367   5.324   5.860   4.423
 4490SOL     OW14368   5.792   1.906   1.544
 4490SOL    HW114369   5.698   1.939   1.550
 4490SOL    HW214370   5.849   1.954   1.611
 4491SOL     OW14371   1.060   3.598   2.745
 4491SOL    HW114372   1.020   3.511   2.773
 4491SOL    HW214373   1.009   3.673   2.788
 4492SOL     OW14374   5.252   2.396   0.170
 4492SOL    HW114375   5.236   2.398   0.269
 4492SOL    HW214376   5.247   2.302   0.137
 4493SOL     OW14377   4.178   5.181   4.717
 4493SOL    HW114378   4.258   5.208   4.770
 4493SOL    HW214379   4.206   5.152   4.625
 4494SOL     OW14380   6.994   2.622   6.046
 4494SOL    HW114381   6.939   2.655   6.122
 4494SOL    HW214382   0.026   2.697   6.010
 4495SOL     OW14383   5.200   0.083   2.756
 4495SOL    HW114384   5.233   0.171   2.792
 4495SOL    HW214385   5.180   0.092   2.659
 4496SOL     OW14386   5.071   4.900   0.139
 4496SOL    HW114387   5.162   4.924   0.106
 4496SOL    HW214388   5.058   4.801   0.132
 4497SOL     OW14389   5.535   6.000   0.033
 4497SOL    HW114390   5.454   6.050   0.065
 4497SOL    HW214391   5.532   5.992   6.957
 4498SOL     OW14392   0.197   3.708   6.600
 4498SOL    HW114393   0.131   3.784   6.599
 4498SOL    HW214394   0.214   3.678   6.507
 4499SOL     OW14395   6.615   2.843   4.544
 4499SOL    HW114396   6.614   2.777   4.619
 4499SOL    HW214397   6.565   2.805   4.466
 4500SOL     OW14398   2.903   3.768   3.777
 4500SOL    HW114399   2.983   3.806   3.823
 4500SOL    HW214400   2.907   3.789   3.679
 4501SOL     OW14401   1.074   3.753   6.011
 4501SOL    HW114402   1.123   3.759   6.098
 4501SOL    HW214403   1.013   3.674   6.012
 4502SOL     OW14404   1.727   2.363   6.144
 4502SOL    HW114405   1.800   2.408   6.092
 4502SOL    HW214406   1.766   2.321   6.226
 4503SOL     OW14407   2.418   1.119   3.319
 4503SOL    HW114408   2.507   1.157   3.345
 4503SOL    HW214409   2.398   1.144   3.224
 4504SOL     OW14410   6.840   2.308   5.671
 4504SOL    HW114411   6.749   2.300   5.711
 4504SOL    HW214412   6.904   2.340   5.740
 4505SOL     OW14413   0.602   5.935   4.801
 4505SOL    HW114414   0.563   5.843   4.811
 4505SOL    HW214415   0.648   5.960   4.886
 4506SOL     OW14416   3.821   1.672   4.900
 4506SOL    HW114417   3.731   1.642   4.868
 4506SOL    HW214418   3.840   1.763   4.865
 4507SOL     OW14419   5.339   5.120   1.755
 4507SOL    HW114420   5.323   5.134   1.657
 4507SOL    HW214421   5.350   5.022   1.773
 4508SOL     OW14422   1.526   4.236   0.427
 4508SOL    HW114423   1.465   4.304   0.468
 4508SOL    HW214424   1.476   4.151   0.412
 4509SOL     OW14425   4.438   1.944   4.337
 4509SOL    HW114426   4.369   1.954   4.266
 4509SOL    HW214427   4.513   2.008   4.320
 4510SOL     OW14428   5.700   0.765   5.131
 4510SOL    HW114429   5.798   0.751   5.116
 4510SOL    HW214430   5.675   0.731   5.221
 4511SOL     OW14431   0.451   3.201   0.057
 4511SOL    HW114432   0.485   3.118   0.102
 4511SOL    HW214433   0.465   3.193   6.981
 4512SOL     OW14434   2.663   6.479   6.544
 4512SOL    HW114435   2.664   6.419   6.464
 4512SOL    HW214436   2.608   6.560   6.524
 4513SOL     OW14437   4.623   6.564   1.354
 4513SOL    HW114438   4.650   6.650   1.398
 4513SOL    HW214439   4.698   6.499   1.358
 4514SOL     OW14440   3.881   1.380   4.893
 4514SOL    HW114441   3.811   1.381   4.821
 4514SOL    HW214442   3.917   1.473   4.905
 4515SOL     OW14443   6.519   4.469   6.812
 4515SOL    HW114444   6.600   4.448   6.758
 4515SOL    HW214445   6.527   4.559   6.854
 4516SOL     OW14446   1.215   0.967   5.566
 4516SOL    HW114447   1.127   0.929   5.595
 4516SOL    HW214448   1.275   0.892   5.537
 4517SOL     OW14449   2.602   6.485   6.069
 4517SOL    HW114450   2.542   6.561   6.044
 4517SOL    HW214451   2.680   6.519   6.120
 4518SOL     OW14452   0.851   2.531   3.969
 4518SOL    HW114453   0.812   2.440   3.968
 4518SOL    HW214454   0.844   2.570   4.061
 4519SOL     OW14455   0.100   1.945   3.269
 4519SOL    HW114456   0.085   1.996   3.353
 4519SOL    HW214457   0.156   1.864   3.289
 4520SOL     OW14458   6.026   4.523   2.778
 4520SOL    HW114459   5.961   4.558   2.710
 4520SOL    HW214460   5.977   4.498   2.861
 4521SOL     OW14461   4.927   1.959   6.410
 4521SOL    HW114462   5.017   1.915   6.411
 4521SOL    HW214463   4.919   2.014   6.327
 4522SOL     OW14464   5.346   6.580   3.480
 4522SOL    HW114465   5.290   6.648   3.432
 4522SOL    HW214466   5.440   6.587   3.449
 4523SOL     OW14467   2.701   4.304   6.715
 4523SOL    HW114468   2.611   4.263   6.730
 4523SOL    HW214469   2.757   4.240   6.661
 4524SOL     OW14470   5.249   1.484   5.659
 4524SOL    HW114471   5.334   1.431   5.658
 4524SOL    HW214472   5.173   1.426   5.632
 4525SOL     OW14473   6.717   1.581   4.005
 4525SOL    HW114474   6.625   1.618   4.020
 4525SOL    HW214475   6.783   1.656   4.007
 4526SOL     OW14476   5.000   0.092   1.220
 4526SOL    HW114477   4.983   7.022   1.188
 4526SOL    HW214478   4.970   0.157   1.150
 4527SOL     OW14479   3.976   0.613   3.558
 4527SOL    HW114480   4.045   0.542   3.572
 4527SOL    HW214481   3.983   0.680   3.632
 4528SOL     OW14482   4.852   6.834   0.195
 4528SOL    HW114483   4.855   6.735   0.178
 4528SOL    HW214484   4.944   6.872   0.184
 4529SOL     OW14485   2.904   1.330   3.135
 4529SOL    HW114486   2.962   1.343   3.056
 4529SOL    HW214487   2.949   1.270   3.201
 4530SOL     OW14488   0.512   3.379   5.468
 4530SOL    HW114489   0.479   3.288   5.495
 4530SOL    HW214490   0.466   3.448   5.524
 4531SOL     OW14491   1.324   4.120   3.174
 4531SOL    HW114492   1.225   4.133   3.171
 4531SOL    HW214493   1.351   4.094   3.267
 4532SOL     OW14494   6.746   1.366   1.438
 4532SOL    HW114495   6.762   1.270   1.412
 4532SOL    HW214496   6.763   1.425   1.359
 4533SOL     OW14497   1.643   0.327   3.601
 4533SOL    HW114498   1.552   0.310   3.564
 4533SOL    HW214499   1.679   0.413   3.564
 4534SOL     OW14500   6.393   3.716   5.066
 4534SOL    HW114501   6.341   3.729   4.981
 4534SOL    HW214502   6.354   3.639   5.117
 4535SOL     OW14503   4.700   2.236   2.582
 4535SOL    HW114504   4.674   2.286   2.499
 4535SOL    HW214505   4.685   2.139   2.568
 4536SOL     OW14506   4.642   1.388   4.280
 4536SOL    HW114507   4.639   1.368   4.378
 4536SOL    HW214508   4.642   1.487   4.265
 4537SOL     OW14509   3.701   3.288   6.400
 4537SOL    HW114510   3.760   3.345   6.344
 4537SOL    HW214511   3.608   3.325   6.401
 4538SOL     OW14512   3.182   2.153   3.916
 4538SOL    HW114513   3.159   2.164   3.819
 4538SOL    HW214514   3.268   2.102   3.925
 4539SOL     OW14515   2.814   2.318   4.025
 4539SOL    HW114516   2.775   2.309   4.117
 4539SOL    HW214517   2.747   2.361   3.965
 4540SOL     OW14518   3.432   3.387   3.707
 4540SOL    HW114519   3.427   3.467   3.647
 4540SOL    HW214520   3.370   3.316   3.673
 4541SOL     OW14521   5.021   0.671   0.217
 4541SOL    HW114522   5.061   0.757   0.249
 4541SOL    HW214523   5.093   0.602   0.210
 4542SOL     OW14524   6.121   6.081   1.512
 4542SOL    HW114525   6.124   5.985   1.487
 4542SOL    HW214526   6.032   6.119   1.488
 4543SOL     OW14527   4.534   1.806   6.907
 4543SOL    HW114528   4.605   1.856   6.956
 4543SOL    HW214529   4.457   1.867   6.889
 4544SOL     OW14530   2.127   5.833   6.652
 4544SOL    HW114531   2.087   5.904   6.710
 4544SOL    HW214532   2.075   5.826   6.567
 4545SOL     OW14533   4.404   2.148   5.215
 4545SOL    HW114534   4.339   2.072   5.211
 4545SOL    HW214535   4.493   2.115   5.248
 4546SOL     OW14536   0.804   0.281   6.152
 4546SOL    HW114537   0.727   0.216   6.146
 4546SOL    HW214538   0.869   0.248   6.221
 4547SOL     OW14539   5.454   2.942   1.784
 4547SOL    HW114540   5.512   2.875   1.739
 4547SOL    HW214541   5.360   2.909   1.787
 4548SOL     OW14542   0.670   4.824   4.129
 4548SOL    HW114543   0.738   4.754   4.107
 4548SOL    HW214544   0.715   4.904   4.167
 4549SOL     OW14545   6.589   3.408   3.398
 4549SOL    HW114546   6.555   3.498   3.371
 4549SOL    HW214547   6.614   3.356   3.317
 4550SOL     OW14548   0.845   6.109   3.632
 4550SOL    HW114549   0.861   6.084   3.536
 4550SOL    HW214550   0.924   6.085   3.687
 4551SOL     OW14551   6.998   1.905   5.413
 4551SOL    HW114552   6.954   1.995   5.415
 4551SOL    HW214553   6.994   1.869   5.320
 4552SOL     OW14554   0.343   2.992   5.874
 4552SOL    HW114555   0.400   3.040   5.807
 4552SOL    HW214556   0.362   3.027   5.965
 4553SOL     OW14557   3.988   4.881   6.802
 4553SOL    HW114558   4.074   4.916   6.764
 4553SOL    HW214559   3.973   4.788   6.771
 4554SOL     OW14560   3.912   0.692   2.399
 4554SOL    HW114561   3.904   0.682   2.498
 4554SOL    HW214562   3.827   0.729   2.362
 4555SOL     OW14563   4.278   1.698   6.799
 4555SOL    HW114564   4.281   1.634   6.876
 4555SOL    HW214565   4.352   1.764   6.808
 4556SOL     OW14566   3.917   0.870   3.707
 4556SOL    HW114567   3.876   0.961   3.698
 4556SOL    HW214568   3.859   0.813   3.764
 4557SOL     OW14569   5.202   0.456   4.677
 4557SOL    HW114570   5.202   0.552   4.704
 4557SOL    HW214571   5.216   0.399   4.759
 4558SOL     OW14572   6.226   3.807   6.444
 4558SOL    HW114573   6.172   3.803   6.527
 4558SOL    HW214574   6.300   3.740   6.448
 4559SOL     OW14575   1.693   6.464   1.354
 4559SOL    HW114576   1.770   6.460   1.290
 4559SOL    HW214577   1.607   6.470   1.302
 4560SOL     OW14578   4.937   3.883   3.116
 4560SOL    HW114579   5.018   3.825   3.107
 4560SOL    HW214580   4.965   3.979   3.128
 4561SOL     OW14581   2.673   0.779   0.699
 4561SOL    HW114582   2.612   0.825   0.764
 4561SOL    HW214583   2.661   0.680   0.708
 4562SOL     OW14584   2.892   5.694   5.530
 4562SOL    HW114585   2.861   5.681   5.624
 4562SOL    HW214586   2.971   5.635   5.513
 4563SOL     OW14587   5.381   3.096   0.326
 4563SOL    HW114588   5.474   3.124   0.347
 4563SOL    HW214589   5.316   3.149   0.381
 4564SOL     OW14590   0.646   5.390   0.481
 4564SOL    HW114591   0.717   5.453   0.449
 4564SOL    HW214592   0.646   5.388   0.581
 4565SOL     OW14593   0.488   1.490   5.602
 4565SOL    HW114594   0.474   1.564   5.537
 4565SOL    HW214595   0.586   1.482   5.622
 4566SOL     OW14596   6.772   0.853   6.804
 4566SOL    HW114597   6.776   0.812   6.713
 4566SOL    HW214598   6.835   0.805   6.865
 4567SOL     OW14599   0.327   0.593   0.999
 4567SOL    HW114600   0.391   0.520   0.978
 4567SOL    HW214601   0.239   0.574   0.956
 4568SOL     OW14602   1.966   4.272   5.247
 4568SOL    HW114603   1.943   4.298   5.341
 4568SOL    HW214604   1.999   4.178   5.247
 4569SOL     OW14605   1.524   2.437   4.004
 4569SOL    HW114606   1.598   2.385   3.960
 4569SOL    HW214607   1.562   2.519   4.048
 4570SOL     OW14608   6.959   5.907   3.211
 4570SOL    HW114609   0.033   5.913   3.230
 4570SOL    HW214610   6.928   5.812   3.223
 4571SOL     OW14611   3.214   3.760   4.906
 4571SOL    HW114612   3.261   3.675   4.929
 4571SOL    HW214613   3.117   3.753   4.931
 4572SOL     OW14614   0.092   0.014   0.591
 4572SOL    HW114615   0.048   7.006   0.675
 4572SOL    HW214616   0.164   6.973   0.566
 4573SOL     OW14617   5.480   6.076   0.884
 4573SOL    HW114618   5.424   6.157   0.900
 4573SOL    HW214619   5.421   6.000   0.856
 4574SOL     OW14620   6.937   4.795   0.957
 4574SOL    HW114621   6.842   4.768   0.974
 4574SOL    HW214622   6.943   4.842   0.868
 4575SOL     OW14623   6.811   2.338   0.602
 4575SOL    HW114624   6.794   2.403   0.528
 4575SOL    HW214625   6.888   2.280   0.579
 4576SOL     OW14626   3.090   5.723   6.128
 4576SOL    HW114627   3.114   5.718   6.031
 4576SOL    HW214628   2.995   5.753   6.138
 4577SOL     OW14629   0.692   3.541   2.851
 4577SOL    HW114630   0.762   3.469   2.851
 4577SOL    HW214631   0.696   3.591   2.938
 4578SOL     OW14632   1.073   3.506   3.157
 4578SOL    HW114633   1.092   3.434   3.224
 4578SOL    HW214634   0.975   3.527   3.158
 4579SOL     OW14635   4.738   1.597   2.848
 4579SOL    HW114636   4.776   1.629   2.934
 4579SOL    HW214637   4.780   1.648   2.772
 4580SOL     OW14638   6.190   5.040   0.432
 4580SOL    HW114639   6.281   5.082   0.434
 4580SOL    HW214640   6.139   5.076   0.354
 4581SOL     OW14641   3.184   4.843   2.579
 4581SOL    HW114642   3.193   4.755   2.533
 4581SOL    HW214643   3.195   4.917   2.512
 4582SOL     OW14644   5.651   6.834   4.522
 4582SOL    HW114645   5.622   6.807   4.430
 4582SOL    HW214646   5.705   6.917   4.518
 4583SOL     OW14647   3.170   2.010   5.146
 4583SOL    HW114648   3.152   2.098   5.103
 4583SOL    HW214649   3.180   2.023   5.245
 4584SOL     OW14650   0.285   5.578   6.061
 4584SOL    HW114651   0.212   5.625   6.112
 4584SOL    HW214652   0.325   5.641   5.995
 4585SOL     OW14653   2.803   6.845   3.066
 4585SOL    HW114654   2.892   6.800   3.063
 4585SOL    HW214655   2.739   6.797   3.006
 4586SOL     OW14656   3.406   4.525   0.954
 4586SOL    HW114657   3.402   4.428   0.930
 4586SOL    HW214658   3.498   4.548   0.985
 4587SOL     OW14659   4.253   3.345   1.815
 4587SOL    HW114660   4.201   3.313   1.895
 4587SOL    HW214661   4.196   3.338   1.733
 4588SOL     OW14662   3.541   3.907   5.382
 4588SOL    HW114663   3.572   3.959   5.462
 4588SOL    HW214664   3.613   3.906   5.313
 4589SOL     OW14665   5.800   2.133   2.725
 4589SOL    HW114666   5.872   2.198   2.747
 4589SOL    HW214667   5.837   2.059   2.669
 4590SOL     OW14668   4.603   6.283   2.061
 4590SOL    HW114669   4.508   6.311   2.046
 4590SOL    HW214670   4.606   6.205   2.123
 4591SOL     OW14671   6.865   6.030   5.703
 4591SOL    HW114672   6.785   6.015   5.761
 4591SOL    HW214673   6.939   5.970   5.734
 4592SOL     OW14674   3.919   3.095   1.333
 4592SOL    HW114675   3.998   3.110   1.273
 4592SOL    HW214676   3.934   3.014   1.390
 4593SOL     OW14677   4.072   5.512   3.401
 4593SOL    HW114678   4.123   5.598   3.394
 4593SOL    HW214679   4.102   5.451   3.328
 4594SOL     OW14680   3.949   1.290   2.092
 4594SOL    HW114681   3.939   1.340   2.005
 4594SOL    HW214682   3.946   1.355   2.168
 4595SOL     OW14683   3.690   2.699   6.855
 4595SOL    HW114684   3.672   2.777   6.915
 4595SOL    HW214685   3.604   2.661   6.823
 4596SOL     OW14686   6.222   6.290   1.864
 4596SOL    HW114687   6.198   6.201   1.824
 4596SOL    HW214688   6.264   6.347   1.793
 4597SOL     OW14689   5.346   5.370   6.487
 4597SOL    HW114690   5.426   5.312   6.471
 4597SOL    HW214691   5.339   5.439   6.416
 4598SOL     OW14692   1.282   5.064   6.192
 4598SOL    HW114693   1.296   5.103   6.101
 4598SOL    HW214694   1.257   4.967   6.184
 4599SOL     OW14695   1.320   3.548   1.250
 4599SOL    HW114696   1.346   3.628   1.196
 4599SOL    HW214697   1.384   3.538   1.327
 4600SOL     OW14698   3.052   5.183   6.163
 4600SOL    HW114699   3.073   5.276   6.193
 4600SOL    HW214700   3.091   5.118   6.228
 4601SOL     OW14701   1.598   0.818   5.528
 4601SOL    HW114702   1.650   0.873   5.462
 4601SOL    HW214703   1.515   0.784   5.484
 4602SOL     OW14704   1.428   6.514   1.283
 4602SOL    HW114705   1.395   6.482   1.194
 4602SOL    HW214706   1.407   6.611   1.294
 4603SOL     OW14707   3.612   6.516   1.460
 4603SOL    HW114708   3.615   6.590   1.393
 4603SOL    HW214709   3.578   6.552   1.547
 4604SOL     OW14710   4.187   0.959   1.338
 4604SOL    HW114711   4.122   1.008   1.397
 4604SOL    HW214712   4.236   0.891   1.392
 4605SOL     OW14713   4.899   0.930   3.806
 4605SOL    HW114714   4.804   0.944   3.778
 4605SOL    HW214715   4.935   1.015   3.844
 4606SOL     OW14716   0.030   6.458   3.348
 4606SOL    HW114717   0.070   6.366   3.349
 4606SOL    HW214718   6.965   6.456   3.302
 4607SOL     OW14719   2.703   2.329   0.771
 4607SOL    HW114720   2.668   2.418   0.743
 4607SOL    HW214721   2.627   2.271   0.802
 4608SOL     OW14722   1.088   5.179   5.330
 4608SOL    HW114723   1.171   5.135   5.365
 4608SOL    HW214724   1.017   5.177   5.400
 4609SOL     OW14725   4.193   5.636   6.452
 4609SOL    HW114726   4.165   5.732   6.440
 4609SOL    HW214727   4.229   5.601   6.365
 4610SOL     OW14728   0.124   2.397   0.315
 4610SOL    HW114729   0.193   2.416   0.385
 4610SOL    HW214730   0.063   2.325   0.347
 4611SOL     OW14731   6.371   4.246   0.038
 4611SOL    HW114732   6.430   4.196   0.101
 4611SOL    HW214733   6.275   4.224   0.058
 4612SOL     OW14734   1.567   5.815   6.667
 4612SOL    HW114735   1.586   5.867   6.583
 4612SOL    HW214736   1.483   5.849   6.708
 4613SOL     OW14737   2.273   5.877   3.207
 4613SOL    HW114738   2.303   5.968   3.236
 4613SOL    HW214739   2.277   5.871   3.108
 4614SOL     OW14740   1.750   4.982   6.440
 4614SOL    HW114741   1.765   4.891   6.400
 4614SOL    HW214742   1.734   5.048   6.366
 4615SOL     OW14743   1.473   1.424   0.903
 4615SOL    HW114744   1.564   1.406   0.865
 4615SOL    HW214745   1.481   1.482   0.984
 4616SOL     OW14746   6.807   0.673   6.571
 4616SOL    HW114747   6.871   0.629   6.508
 4616SOL    HW214748   6.751   0.739   6.522
 4617SOL     OW14749   0.868   2.689   2.620
 4617SOL    HW114750   0.946   2.670   2.561
 4617SOL    HW214751   0.802   2.615   2.613
 4618SOL     OW14752   1.378   1.790   5.588
 4618SOL    HW114753   1.457   1.850   5.575
 4618SOL    HW214754   1.399   1.721   5.657
 4619SOL     OW14755   4.410   6.895   3.646
 4619SOL    HW114756   4.326   6.844   3.627
 4619SOL    HW214757   4.387   6.988   3.674
 4620SOL     OW14758   3.701   4.374   6.922
 4620SOL    HW114759   3.603   4.360   6.932
 4620SOL    HW214760   3.718   4.438   6.847
 4621SOL     OW14761   6.318   2.110   4.731
 4621SOL    HW114762   6.410   2.073   4.721
 4621SOL    HW214763   6.261   2.080   4.654
 4622SOL     OW14764   1.425   2.798   0.879
 4622SOL    HW114765   1.472   2.886   0.869
 4622SOL    HW214766   1.481   2.726   0.838
 4623SOL     OW14767   0.324   5.103   1.031
 4623SOL    HW114768   0.308   5.171   1.103
 4623SOL    HW214769   0.257   5.115   0.958
 4624SOL     OW14770   4.576   0.851   3.845
 4624SOL    HW114771   4.524   0.780   3.894
 4624SOL    HW214772   4.522   0.935   3.841
 4625SOL     OW14773   1.727   4.357   0.266
 4625SOL    HW114774   1.747   4.423   0.339
 4625SOL    HW214775   1.648   4.302   0.291
 4626SOL     OW14776   6.335   4.388   1.613
 4626SOL    HW114777   6.388   4.381   1.697
 4626SOL    HW214778   6.321   4.297   1.574
 4627SOL     OW14779   3.913   5.789   5.800
 4627SOL    HW114780   3.905   5.689   5.799
 4627SOL    HW214781   3.823   5.829   5.818
 4628SOL     OW14782   5.625   4.550   2.835
 4628SOL    HW114783   5.713   4.525   2.794
 4628SOL    HW214784   5.628   4.646   2.865
 4629SOL     OW14785   1.914   4.814   6.017
 4629SOL    HW114786   1.949   4.748   6.083
 4629SOL    HW214787   1.834   4.860   6.054
 4630SOL     OW14788   2.652   5.985   4.018
 4630SOL    HW114789   2.573   5.970   3.958
 4630SOL    HW214790   2.717   5.910   4.007
 4631SOL     OW14791   2.413   6.813   3.444
 4631SOL    HW114792   2.348   6.780   3.376
 4631SOL    HW214793   2.502   6.827   3.401
 4632SOL     OW14794   4.439   5.037   3.513
 4632SOL    HW114795   4.343   5.032   3.543
 4632SOL    HW214796   4.468   5.133   3.510
 4633SOL     OW14797   6.850   1.994   5.091
 4633SOL    HW114798   6.932   1.944   5.120
 4633SOL    HW214799   6.864   2.030   4.998
 4634SOL     OW14800   2.843   4.753   6.872
 4634SOL    HW114801   2.919   4.814   6.893
 4634SOL    HW214802   2.764   4.806   6.842
 4635SOL     OW14803   5.851   3.081   2.177
 4635SOL    HW114804   5.880   3.097   2.083
 4635SOL    HW214805   5.752   3.074   2.181
 4636SOL     OW14806   2.706   5.444   6.622
 4636SOL    HW114807   2.747   5.443   6.531
 4636SOL    HW214808   2.700   5.351   6.657
 4637SOL     OW14809   1.031   0.736   6.631
 4637SOL    HW114810   1.079   0.713   6.546
 4637SOL    HW214811   0.938   0.699   6.627
 4638SOL     OW14812   3.760   2.946   6.488
 4638SOL    HW114813   3.757   2.954   6.388
 4638SOL    HW214814   3.855   2.934   6.518
 4639SOL     OW14815   1.245   4.105   6.037
 4639SOL    HW114816   1.151   4.075   6.057
 4639SOL    HW214817   1.258   4.110   5.938
 4640SOL     OW14818   4.982   4.777   4.073
 4640SOL    HW114819   4.932   4.731   4.000
 4640SOL    HW214820   4.917   4.822   4.135
 4641SOL     OW14821   2.577   4.909   4.233
 4641SOL    HW114822   2.613   4.847   4.303
 4641SOL    HW214823   2.582   4.864   4.143
 4642SOL     OW14824   6.537   5.555   4.793
 4642SOL    HW114825   6.473   5.566   4.869
 4642SOL    HW214826   6.627   5.529   4.829
 4643SOL     OW14827   4.640   2.384   0.231
 4643SOL    HW114828   4.583   2.354   0.154
 4643SOL    HW214829   4.653   2.483   0.225
 4644SOL     OW14830   1.438   5.426   5.034
 4644SOL    HW114831   1.509   5.447   4.966
 4644SOL    HW214832   1.471   5.356   5.096
 4645SOL     OW14833   1.937   6.768   4.457
 4645SOL    HW114834   1.928   6.699   4.385
 4645SOL    HW214835   1.959   6.724   4.544
 4646SOL     OW14836   2.780   0.211   2.365
 4646SOL    HW114837   2.842   0.267   2.420
 4646SOL    HW214838   2.805   0.114   2.375
 4647SOL     OW14839   1.150   6.576   3.306
 4647SOL    HW114840   1.075   6.640   3.291
 4647SOL    HW214841   1.233   6.626   3.333
 4648SOL     OW14842   3.723   6.764   1.760
 4648SOL    HW114843   3.667   6.690   1.795
 4648SOL    HW214844   3.737   6.752   1.661
 4649SOL     OW14845   4.998   0.949   5.726
 4649SOL    HW114846   4.964   0.864   5.766
 4649SOL    HW214847   4.948   1.026   5.765
 4650SOL     OW14848   3.838   6.022   2.912
 4650SOL    HW114849   3.746   5.984   2.924
 4650SOL    HW214850   3.855   6.039   2.815
 4651SOL     OW14851   0.722   2.376   2.000
 4651SOL    HW114852   0.711   2.349   1.905
 4651SOL    HW214853   0.634   2.371   2.047
 4652SOL     OW14854   0.691   6.599   3.716
 4652SOL    HW114855   0.673   6.574   3.812
 4652SOL    HW214856   0.672   6.520   3.658
 4653SOL     OW14857   6.787   6.202   0.529
 4653SOL    HW114858   6.800   6.108   0.498
 4653SOL    HW214859   6.693   6.231   0.510
 4654SOL     OW14860   0.863   0.108   0.239
 4654SOL    HW114861   0.830   0.025   0.284
 4654SOL    HW214862   0.785   0.158   0.200
 4655SOL     OW14863   0.539   4.851   2.755
 4655SOL    HW114864   0.574   4.941   2.780
 4655SOL    HW214865   0.440   4.858   2.740
 4656SOL     OW14866   1.062   6.835   3.177
 4656SOL    HW114867   1.118   6.808   3.099
 4656SOL    HW214868   1.040   6.932   3.172
 4657SOL     OW14869   5.462   6.973   1.649
 4657SOL    HW114870   5.521   0.009   1.704
 4657SOL    HW214871   5.368   7.005   1.654
 4658SOL     OW14872   4.092   0.241   2.896
 4658SOL    HW114873   4.038   0.306   2.950
 4658SOL    HW214874   4.033   0.195   2.830
 4659SOL     OW14875   1.606   3.127   5.283
 4659SOL    HW114876   1.544   3.140   5.206
 4659SOL    HW214877   1.653   3.214   5.303
 4660SOL     OW14878   1.666   1.616   4.958
 4660SOL    HW114879   1.623   1.577   5.040
 4660SOL    HW214880   1.638   1.563   4.878
 4661SOL     OW14881   3.726   3.802   4.989
 4661SOL    HW114882   3.646   3.741   4.987
 4661SOL    HW214883   3.740   3.836   5.082
 4662SOL     OW14884   4.742   0.632   5.384
 4662SOL    HW114885   4.774   0.683   5.305
 4662SOL    HW214886   4.734   0.693   5.463
 4663SOL     OW14887   0.058   2.131   2.479
 4663SOL    HW114888   0.132   2.065   2.470
 4663SOL    HW214889   6.994   2.083   2.490
 4664SOL     OW14890   2.121   2.457   6.723
 4664SOL    HW114891   2.031   2.425   6.693
 4664SOL    HW214892   2.175   2.485   6.644
 4665SOL     OW14893   4.741   6.766   6.929
 4665SOL    HW114894   4.816   6.830   6.915
 4665SOL    HW214895   4.736   6.742   0.003
 4666SOL     OW14896   2.178   0.999   0.212
 4666SOL    HW114897   2.106   0.936   0.239
 4666SOL    HW214898   2.143   1.063   0.144
 4667SOL     OW14899   6.732   4.639   6.260
 4667SOL    HW114900   6.634   4.646   6.240
 4667SOL    HW214901   6.765   4.549   6.232
 4668SOL     OW14902   0.589   1.556   4.814
 4668SOL    HW114903   0.674   1.607   4.801
 4668SOL    HW214904   0.542   1.547   4.727
 4669SOL     OW14905   2.389   6.208   0.378
 4669SOL    HW114906   2.406   6.271   0.454
 4669SOL    HW214907   2.291   6.193   0.367
 4670SOL     OW14908   3.151   1.120   4.986
 4670SOL    HW114909   3.226   1.180   5.015
 4670SOL    HW214910   3.189   1.036   4.946
 4671SOL     OW14911   5.913   3.345   1.506
 4671SOL    HW114912   5.843   3.408   1.539
 4671SOL    HW214913   5.969   3.390   1.436
 4672SOL     OW14914   2.542   4.362   6.183
 4672SOL    HW114915   2.445   4.357   6.204
 4672SOL    HW214916   2.558   4.333   6.088
 4673SOL     OW14917   3.603   7.011   1.239
 4673SOL    HW114918   3.627   0.040   1.321
 4673SOL    HW214919   3.687   6.978   1.195
 4674SOL     OW14920   5.722   6.389   5.988
 4674SOL    HW114921   5.642   6.380   5.929
 4674SOL    HW214922   5.757   6.299   6.012
 4675SOL     OW14923   1.265   3.547   0.890
 4675SOL    HW114924   1.183   3.497   0.865
 4675SOL    HW214925   1.332   3.485   0.931
 4676SOL     OW14926   1.024   5.617   3.503
 4676SOL    HW114927   1.110   5.573   3.529
 4676SOL    HW214928   1.032   5.651   3.409
 4677SOL     OW14929   1.507   1.669   1.029
 4677SOL    HW114930   1.490   1.766   1.011
 4677SOL    HW214931   1.447   1.638   1.102
 4678SOL     OW14932   2.067   4.366   2.886
 4678SOL    HW114933   2.047   4.339   2.980
 4678SOL    HW214934   2.116   4.292   2.840
 4679SOL     OW14935   4.748   6.543   1.641
 4679SOL    HW114936   4.804   6.465   1.668
 4679SOL    HW214937   4.704   6.582   1.722
 4680SOL     OW14938   4.009   0.535   1.429
 4680SOL    HW114939   3.920   0.554   1.470
 4680SOL    HW214940   4.065   0.485   1.495
 4681SOL     OW14941   4.956   4.903   6.874
 4681SOL    HW114942   5.055   4.907   6.871
 4681SOL    HW214943   4.918   4.970   6.811
 4682SOL     OW14944   5.438   3.410   6.273
 4682SOL    HW114945   5.492   3.363   6.343
 4682SOL    HW214946   5.455   3.368   6.184
 4683SOL     OW14947   6.314   5.128   2.833
 4683SOL    HW114948   6.257   5.098   2.756
 4683SOL    HW214949   6.333   5.050   2.892
 4684SOL     OW14950   4.330   6.089   6.398
 4684SOL    HW114951   4.326   6.045   6.488
 4684SOL    HW214952   4.248   6.145   6.385
 4685SOL     OW14953   1.793   3.862   6.073
 4685SOL    HW114954   1.879   3.865   6.021
 4685SOL    HW214955   1.785   3.945   6.129
 4686SOL     OW14956   3.505   5.474   0.439
 4686SOL    HW114957   3.599   5.494   0.466
 4686SOL    HW214958   3.500   5.464   0.340
 4687SOL     OW14959   3.775   1.689   3.760
 4687SOL    HW114960   3.706   1.708   3.830
 4687SOL    HW214961   3.865   1.714   3.795
 4688SOL     OW14962   6.035   2.775   5.938
 4688SOL    HW114963   6.122   2.814   5.966
 4688SOL    HW214964   5.966   2.794   6.008
 4689SOL     OW14965   5.406   0.253   1.407
 4689SOL    HW114966   5.496   0.293   1.428
 4689SOL    HW214967   5.350   0.321   1.359
 4690SOL     OW14968   1.925   0.944   0.921
 4690SOL    HW114969   1.970   0.921   1.007
 4690SOL    HW214970   1.890   1.038   0.926
 4691SOL     OW14971   4.548   4.205   0.730
 4691SOL    HW114972   4.583   4.258   0.807
 4691SOL    HW214973   4.563   4.256   0.645
 4692SOL     OW14974   6.309   4.347   3.028
 4692SOL    HW114975   6.370   4.274   2.999
 4692SOL    HW214976   6.298   4.344   3.128
 4693SOL     OW14977   1.653   1.162   4.384
 4693SOL    HW114978   1.649   1.258   4.413
 4693SOL    HW214979   1.739   1.122   4.415
 4694SOL     OW14980   2.547   2.004   0.471
 4694SOL    HW114981   2.531   1.939   0.397
 4694SOL    HW214982   2.645   2.013   0.488
 4695SOL     OW14983   1.601   5.675   0.476
 4695SOL    HW114984   1.539   5.628   0.413
 4695SOL    HW214985   1.601   5.627   0.564
 4696SOL     OW14986   0.392   5.213   6.147
 4696SOL    HW114987   0.365   5.119   6.125
 4696SOL    HW214988   0.310   5.268   6.164
 4697SOL     OW14989   1.311   3.399   2.114
 4697SOL    HW114990   1.373   3.447   2.177
 4697SOL    HW214991   1.237   3.357   2.167
 4698SOL     OW14992   4.056   0.304   3.351
 4698SOL    HW114993   4.099   0.386   3.312
 4698SOL    HW214994   4.107   0.276   3.433
 4699SOL     OW14995   0.491   6.702   2.382
 4699SOL    HW114996   0.570   6.759   2.404
 4699SOL    HW214997   0.418   6.720   2.447
 4700SOL     OW14998   6.961   1.639   2.443
 4700SOL    HW114999   6.921   1.690   2.367
 4700SOL    HW215000   0.033   1.620   2.424
 4701SOL     OW15001   3.306   1.803   2.300
 4701SOL    HW115002   3.345   1.785   2.210
 4701SOL    HW215003   3.296   1.901   2.313
 4702SOL     OW15004   4.931   4.949   0.382
 4702SOL    HW115005   5.008   4.926   0.323
 4702SOL    HW215006   4.962   4.955   0.477
 4703SOL     OW15007   1.432   5.642   2.435
 4703SOL    HW115008   1.469   5.734   2.446
 4703SOL    HW215009   1.382   5.637   2.348
 4704SOL     OW15010   0.189   6.278   5.540
 4704SOL    HW115011   0.275   6.227   5.548
 4704SOL    HW215012   0.209   6.375   5.528
 4705SOL     OW15013   3.221   2.289   0.712
 4705SOL    HW115014   3.286   2.256   0.779
 4705SOL    HW215015   3.191   2.214   0.654
 4706SOL     OW15016   1.218   0.206   0.939
 4706SOL    HW115017   1.169   0.241   0.859
 4706SOL    HW215018   1.153   0.193   1.015
 4707SOL     OW15019   1.454   6.161   1.711
 4707SOL    HW115020   1.546   6.186   1.680
 4707SOL    HW215021   1.408   6.107   1.641
 4708SOL     OW15022   1.123   2.114   5.491
 4708SOL    HW115023   1.193   2.118   5.420
 4708SOL    HW215024   1.167   2.110   5.581
 4709SOL     OW15025   4.799   5.195   4.886
 4709SOL    HW115026   4.764   5.220   4.976
 4709SOL    HW215027   4.731   5.217   4.816
 4710SOL     OW15028   6.059   6.801   4.386
 4710SOL    HW115029   6.074   6.821   4.483
 4710SOL    HW215030   6.143   6.820   4.335
 4711SOL     OW15031   6.364   2.928   3.501
 4711SOL    HW115032   6.442   2.875   3.535
 4711SOL    HW215033   6.279   2.881   3.525
 4712SOL     OW15034   4.519   4.767   6.028
 4712SOL    HW115035   4.452   4.834   5.995
 4712SOL    HW215036   4.592   4.757   5.960
 4713SOL     OW15037   5.308   5.784   1.144
 4713SOL    HW115038   5.319   5.770   1.242
 4713SOL    HW215039   5.226   5.840   1.127
 4714SOL     OW15040   6.686   1.501   6.469
 4714SOL    HW115041   6.675   1.539   6.377
 4714SOL    HW215042   6.635   1.556   6.534
 4715SOL     OW15043   5.986   2.381   1.265
 4715SOL    HW115044   5.997   2.382   1.365
 4715SOL    HW215045   6.050   2.446   1.224
 4716SOL     OW15046   4.813   5.628   5.766
 4716SOL    HW115047   4.885   5.647   5.699
 4716SOL    HW215048   4.742   5.572   5.723
 4717SOL     OW15049   2.168   5.531   5.505
 4717SOL    HW115050   2.209   5.439   5.509
 4717SOL    HW215051   2.216   5.586   5.437
 4718SOL     OW15052   4.798   2.828   1.068
 4718SOL    HW115053   4.886   2.798   1.033
 4718SOL    HW215054   4.725   2.799   1.006
 4719SOL     OW15055   5.400   3.465   3.411
 4719SOL    HW115056   5.368   3.429   3.324
 4719SOL    HW215057   5.462   3.400   3.454
 4720SOL     OW15058   3.011   4.358   6.420
 4720SOL    HW115059   3.094   4.392   6.377
 4720SOL    HW215060   2.933   4.412   6.389
 4721SOL     OW15061   5.919   3.083   1.486
 4721SOL    HW115062   5.953   3.169   1.523
 4721SOL    HW215063   5.940   3.077   1.389
 4722SOL     OW15064   0.987   5.138   0.328
 4722SOL    HW115065   0.890   5.144   0.353
 4722SOL    HW215066   1.011   5.042   0.315
 4723SOL     OW15067   3.376   4.117   5.275
 4723SOL    HW115068   3.398   4.065   5.192
 4723SOL    HW215069   3.390   4.060   5.355
 4724SOL     OW15070   6.817   6.513   3.884
 4724SOL    HW115071   6.850   6.493   3.792
 4724SOL    HW215072   6.790   6.428   3.930
 4725SOL     OW15073   6.122   5.130   0.144
 4725SOL    HW115074   6.063   5.054   0.168
 4725SOL    HW215075   6.066   5.207   0.111
 4726SOL     OW15076   1.602   3.020   5.736
 4726SOL    HW115077   1.702   3.014   5.745
 4726SOL    HW215078   1.560   2.982   5.818
 4727SOL     OW15079   0.575   5.900   0.210
 4727SOL    HW115080   0.616   5.814   0.241
 4727SOL    HW215081   0.518   5.938   0.282
 4728SOL     OW15082   6.543   1.906   2.680
 4728SOL    HW115083   6.548   1.853   2.595
 4728SOL    HW215084   6.450   1.940   2.693
 4729SOL     OW15085   5.079   0.221   0.176
 4729SOL    HW115086   5.116   0.224   0.084
 4729SOL    HW215087   5.143   0.265   0.239
 4730SOL     OW15088   3.710   6.320   4.942
 4730SOL    HW115089   3.747   6.353   4.855
 4730SOL    HW215090   3.717   6.220   4.945
 4731SOL     OW15091   3.301   0.858   1.047
 4731SOL    HW115092   3.276   0.787   0.981
 4731SOL    HW215093   3.244   0.939   1.032
 4732SOL     OW15094   0.783   4.014   5.327
 4732SOL    HW115095   0.695   3.970   5.345
 4732SOL    HW215096   0.851   3.980   5.392
 4733SOL     OW15097   1.723   4.664   2.964
 4733SOL    HW115098   1.721   4.630   2.870
 4733SOL    HW215099   1.818   4.678   2.993
 4734SOL     OW15100   5.222   3.408   6.565
 4734SOL    HW115101   5.291   3.480   6.575
 4734SOL    HW215102   5.134   3.442   6.598
 4735SOL     OW15103   6.941   5.854   3.686
 4735SOL    HW115104   6.875   5.801   3.738
 4735SOL    HW215105   6.969   5.803   3.604
 4736SOL     OW15106   6.018   1.893   4.306
 4736SOL    HW115107   6.005   1.973   4.247
 4736SOL    HW215108   5.928   1.857   4.333
 4737SOL     OW15109   2.168   4.028   0.728
 4737SOL    HW115110   2.201   4.084   0.652
 4737SOL    HW215111   2.241   4.015   0.794
 4738SOL     OW15112   3.564   6.690   3.848
 4738SOL    HW115113   3.470   6.693   3.881
 4738SOL    HW215114   3.611   6.774   3.872
 4739SOL     OW15115   5.731   2.244   3.962
 4739SOL    HW115116   5.662   2.253   3.890
 4739SOL    HW215117   5.767   2.334   3.985
 4740SOL     OW15118   0.239   0.521   1.276
 4740SOL    HW115119   0.152   0.563   1.250
 4740SOL    HW215120   0.304   0.530   1.201
 4741SOL     OW15121   4.458   4.918   1.652
 4741SOL    HW115122   4.388   4.933   1.582
 4741SOL    HW215123   4.548   4.911   1.608
 4742SOL     OW15124   2.811   5.114   1.298
 4742SOL    HW115125   2.906   5.130   1.325
 4742SOL    HW215126   2.756   5.196   1.318
 4743SOL     OW15127   2.470   0.920   6.088
 4743SOL    HW115128   2.557   0.916   6.038
 4743SOL    HW215129   2.402   0.967   6.032
 4744SOL     OW15130   2.441   2.568   5.212
 4744SOL    HW115131   2.439   2.657   5.259
 4744SOL    HW215132   2.367   2.565   5.145
 4745SOL     OW15133   2.857   4.997   5.818
 4745SOL    HW115134   2.874   4.931   5.745
 4745SOL    HW215135   2.934   5.060   5.825
 4746SOL     OW15136   5.569   5.722   0.899
 4746SOL    HW115137   5.584   5.639   0.844
 4746SOL    HW215138   5.654   5.775   0.902
 4747SOL     OW15139   0.890   2.934   6.775
 4747SOL    HW115140   0.936   3.009   6.823
 4747SOL    HW215141   0.853   2.967   6.688
 4748SOL     OW15142   1.274   0.293   1.595
 4748SOL    HW115143   1.330   0.374   1.578
 4748SOL    HW215144   1.216   0.308   1.674
 4749SOL     OW15145   3.008   6.295   6.218
 4749SOL    HW115146   2.934   6.277   6.153
 4749SOL    HW215147   3.013   6.221   6.284
 4750SOL     OW15148   0.178   1.787   4.484
 4750SOL    HW115149   0.176   1.695   4.444
 4750SOL    HW215150   0.089   1.830   4.473
 4751SOL     OW15151   1.948   3.441   6.854
 4751SOL    HW115152   1.950   3.499   6.936
 4751SOL    HW215153   2.014   3.475   6.787
 4752SOL     OW15154   2.510   6.384   0.550
 4752SOL    HW115155   2.559   6.467   0.526
 4752SOL    HW215156   2.575   6.311   0.570
 4753SOL     OW15157   5.719   0.116   4.665
 4753SOL    HW115158   5.812   0.092   4.635
 4753SOL    HW215159   5.718   0.125   4.764
 4754SOL     OW15160   5.932   0.577   6.038
 4754SOL    HW115161   6.001   0.630   6.086
 4754SOL    HW215162   5.970   0.540   5.953
 4755SOL     OW15163   2.560   0.093   6.065
 4755SOL    HW115164   2.537   0.179   6.111
 4755SOL    HW215165   2.654   0.098   6.031
 4756SOL     OW15166   5.926   2.507   1.909
 4756SOL    HW115167   5.828   2.510   1.929
 4756SOL    HW215168   5.940   2.494   1.811
 4757SOL     OW15169   2.360   2.133   2.156
 4757SOL    HW115170   2.451   2.174   2.153
 4757SOL    HW215171   2.310   2.156   2.073
 4758SOL     OW15172   3.766   6.053   4.976
 4758SOL    HW115173   3.824   6.025   4.900
 4758SOL    HW215174   3.725   5.972   5.019
 4759SOL     OW15175   5.166   5.533   4.762
 4759SOL    HW115176   5.250   5.552   4.711
 4759SOL    HW215177   5.173   5.443   4.806
 4760SOL     OW15178   2.946   1.484   1.294
 4760SOL    HW115179   3.037   1.514   1.267
 4760SOL    HW215180   2.916   1.408   1.236
 4761SOL     OW15181   6.683   0.464   6.682
 4761SOL    HW115182   6.711   0.555   6.650
 4761SOL    HW215183   6.751   0.397   6.653
 4762SOL     OW15184   2.099   4.937   3.049
 4762SOL    HW115185   2.126   4.942   3.146
 4762SOL    HW215186   2.178   4.959   2.992
 4763SOL     OW15187   5.748   5.854   3.221
 4763SOL    HW115188   5.801   5.880   3.301
 4763SOL    HW215189   5.708   5.936   3.179
 4764SOL     OW15190   4.649   4.157   5.153
 4764SOL    HW115191   4.695   4.075   5.118
 4764SOL    HW215192   4.716   4.229   5.168
 4765SOL     OW15193   4.824   6.514   4.774
 4765SOL    HW115194   4.868   6.604   4.780
 4765SOL    HW215195   4.744   6.521   4.715
 4766SOL     OW15196   3.808   0.760   4.204
 4766SOL    HW115197   3.732   0.791   4.260
 4766SOL    HW215198   3.839   0.834   4.145
 4767SOL     OW15199   4.055   6.239   0.476
 4767SOL    HW115200   4.095   6.314   0.423
 4767SOL    HW215201   4.031   6.164   0.413
 4768SOL     OW15202   5.482   1.807   4.691
 4768SOL    HW115203   5.512   1.809   4.787
 4768SOL    HW215204   5.530   1.734   4.643
 4769SOL     OW15205   4.118   5.055   1.557
 4769SOL    HW115206   4.140   4.961   1.582
 4769SOL    HW215207   4.124   5.066   1.458
 4770SOL     OW15208   2.251   0.440   3.390
 4770SOL    HW115209   2.204   0.450   3.478
 4770SOL    HW215210   2.183   0.440   3.316
 4771SOL     OW15211   3.141   4.927   5.864
 4771SOL    HW115212   3.232   4.967   5.870
 4771SOL    HW215213   3.120   4.906   5.768
 4772SOL     OW15214   2.632   6.480   1.150
 4772SOL    HW115215   2.611   6.401   1.093
 4772SOL    HW215216   2.549   6.510   1.198
 4773SOL     OW15217   6.918   5.460   4.448
 4773SOL    HW115218   6.820   5.445   4.462
 4773SOL    HW215219   6.931   5.517   4.366
 4774SOL     OW15220   0.550   2.835   2.899
 4774SOL    HW115221   0.486   2.760   2.914
 4774SOL    HW215222   0.505   2.908   2.847
 4775SOL     OW15223   5.744   0.200   3.056
 4775SOL    HW115224   5.798   0.228   2.977
 4775SOL    HW215225   5.647   0.197   3.032
 4776SOL     OW15226   2.456   6.532   2.852
 4776SOL    HW115227   2.518   6.564   2.923
 4776SOL    HW215228   2.424   6.440   2.875
 4777SOL     OW15229   2.480   4.222   1.053
 4777SOL    HW115230   2.498   4.301   0.995
 4777SOL    HW215231   2.395   4.236   1.103
 4778SOL     OW15232   5.638   2.529   1.863
 4778SOL    HW115233   5.596   2.450   1.819
 4778SOL    HW215234   5.571   2.575   1.920
 4779SOL     OW15235   6.257   0.088   2.249
 4779SOL    HW115236   6.257   0.009   2.188
 4779SOL    HW215237   6.351   0.114   2.270
 4780SOL     OW15238   0.695   0.035   6.544
 4780SOL    HW115239   0.638   0.098   6.597
 4780SOL    HW215240   0.640   7.014   6.474
 4781SOL     OW15241   2.651   5.586   1.128
 4781SOL    HW115242   2.678   5.681   1.135
 4781SOL    HW215243   2.628   5.564   1.034
 4782SOL     OW15244   4.509   0.149   0.027
 4782SOL    HW115245   4.541   0.090   0.101
 4782SOL    HW215246   4.587   0.188   7.001
 4783SOL     OW15247   4.296   4.393   0.053
 4783SOL    HW115248   4.297   4.493   0.044
 4783SOL    HW215249   4.225   4.355   7.016
 4784SOL     OW15250   6.092   5.166   6.660
 4784SOL    HW115251   6.125   5.190   6.569
 4784SOL    HW215252   6.011   5.221   6.682
 4785SOL     OW15253   6.486   6.483   1.182
 4785SOL    HW115254   6.565   6.423   1.200
 4785SOL    HW215255   6.518   6.574   1.157
 4786SOL     OW15256   2.010   2.264   2.065
 4786SOL    HW115257   2.069   2.228   1.993
 4786SOL    HW215258   2.012   2.203   2.144
 4787SOL     OW15259   3.484   2.068   3.718
 4787SOL    HW115260   3.439   2.056   3.807
 4787SOL    HW215261   3.582   2.083   3.732
 4788SOL     OW15262   1.594   5.134   6.236
 4788SOL    HW115263   1.600   5.210   6.302
 4788SOL    HW215264   1.501   5.098   6.235
 4789SOL     OW15265   5.361   0.583   6.996
 4789SOL    HW115266   5.322   0.659   6.944
 4789SOL    HW215267   5.452   0.562   6.962
 4790SOL     OW15268   5.992   3.293   6.937
 4790SOL    HW115269   5.988   3.294   6.837
 4790SOL    HW215270   6.084   3.317   6.967
 4791SOL     OW15271   5.942   1.785   1.862
 4791SOL    HW115272   5.928   1.883   1.849
 4791SOL    HW215273   5.855   1.737   1.853
 4792SOL     OW15274   1.835   3.165   2.355
 4792SOL    HW115275   1.845   3.102   2.433
 4792SOL    HW215276   1.750   3.217   2.365
 4793SOL     OW15277   1.280   2.120   5.750
 4793SOL    HW115278   1.377   2.097   5.760
 4793SOL    HW215279   1.268   2.218   5.760
 4794SOL     OW15280   3.766   0.580   3.229
 4794SOL    HW115281   3.700   0.650   3.201
 4794SOL    HW215282   3.847   0.625   3.268
 4795SOL     OW15283   6.724   2.338   3.987
 4795SOL    HW115284   6.779   2.291   4.056
 4795SOL    HW215285   6.627   2.323   4.006
 4796SOL     OW15286   5.033   2.025   6.846
 4796SOL    HW115287   5.059   2.079   6.765
 4796SOL    HW215288   5.073   1.934   6.839
 4797SOL     OW15289   1.292   6.028   5.155
 4797SOL    HW115290   1.371   6.077   5.191
 4797SOL    HW215291   1.238   5.991   5.231
 4798SOL     OW15292   0.406   3.869   5.643
 4798SOL    HW115293   0.334   3.936   5.659
 4798SOL    HW215294   0.446   3.842   5.731
 4799SOL     OW15295   5.029   1.699   5.295
 4799SOL    HW115296   5.127   1.688   5.278
 4799SOL    HW215297   5.004   1.653   5.380
 4800SOL     OW15298   3.282   3.344   6.065
 4800SOL    HW115299   3.264   3.247   6.047
 4800SOL    HW215300   3.243   3.399   5.991
 4801SOL     OW15301   2.469   1.770   0.274
 4801SOL    HW115302   2.417   1.827   0.211
 4801SOL    HW215303   2.406   1.706   0.320
 4802SOL     OW15304   1.306   6.549   2.140
 4802SOL    HW115305   1.270   6.473   2.194
 4802SOL    HW215306   1.345   6.513   2.055
 4803SOL     OW15307   1.031   6.233   0.363
 4803SOL    HW115308   1.121   6.251   0.324
 4803SOL    HW215309   1.041   6.179   0.447
 4804SOL     OW15310   4.138   5.264   6.523
 4804SOL    HW115311   4.085   5.200   6.468
 4804SOL    HW215312   4.151   5.228   6.615
 4805SOL     OW15313   6.706   6.883   0.924
 4805SOL    HW115314   6.675   6.938   1.001
 4805SOL    HW215315   6.640   6.810   0.906
 4806SOL     OW15316   6.609   3.701   4.035
 4806SOL    HW115317   6.520   3.660   4.017
 4806SOL    HW215318   6.656   3.719   3.949
 4807SOL     OW15319   1.335   5.177   1.307
 4807SOL    HW115320   1.323   5.186   1.208
 4807SOL    HW215321   1.397   5.248   1.339
 4808SOL     OW15322   5.856   3.683   0.659
 4808SOL    HW115323   5.773   3.647   0.701
 4808SOL    HW215324   5.852   3.782   0.656
 4809SOL     OW15325   3.646   4.082   6.860
 4809SOL    HW115326   3.730   4.065   6.807
 4809SOL    HW215327   3.649   4.174   6.899
 4810SOL     OW15328   1.659   4.924   1.409
 4810SOL    HW115329   1.622   4.901   1.319
 4810SOL    HW215330   1.693   4.842   1.454
 4811SOL     OW15331   2.507   4.845   2.071
 4811SOL    HW115332   2.604   4.837   2.094
 4811SOL    HW215333   2.455   4.874   2.152
 4812SOL     OW15334   6.631   4.921   5.625
 4812SOL    HW115335   6.699   4.977   5.577
 4812SOL    HW215336   6.656   4.913   5.721
 4813SOL     OW15337   4.817   1.427   1.998
 4813SOL    HW115338   4.756   1.415   2.076
 4813SOL    HW215339   4.798   1.357   1.929
 4814SOL     OW15340   5.698   4.969   0.098
 4814SOL    HW115341   5.658   4.944   0.010
 4814SOL    HW215342   5.697   5.068   0.109
 4815SOL     OW15343   5.703   4.703   2.329
 4815SOL    HW115344   5.703   4.683   2.231
 4815SOL    HW215345   5.649   4.634   2.377
 4816SOL     OW15346   5.987   5.590   2.989
 4816SOL    HW115347   5.959   5.521   2.922
 4816SOL    HW215348   6.086   5.594   2.994
 4817SOL     OW15349   0.377   2.053   6.561
 4817SOL    HW115350   0.308   2.093   6.501
 4817SOL    HW215351   0.361   1.955   6.570
 4818SOL     OW15352   1.027   6.758   3.961
 4818SOL    HW115353   1.004   6.839   4.015
 4818SOL    HW215354   1.127   6.749   3.958
 4819SOL     OW15355   1.748   3.072   0.501
 4819SOL    HW115356   1.776   3.155   0.550
 4819SOL    HW215357   1.663   3.038   0.541
 4820SOL     OW15358   0.256   2.827   1.957
 4820SOL    HW115359   0.271   2.869   2.046
 4820SOL    HW215360   0.182   2.760   1.964
 4821SOL     OW15361   1.080   5.811   2.271
 4821SOL    HW115362   1.027   5.860   2.202
 4821SOL    HW215363   1.021   5.746   2.319
 4822SOL     OW15364   1.473   4.003   4.301
 4822SOL    HW115365   1.539   4.009   4.375
 4822SOL    HW215366   1.450   4.095   4.268
 4823SOL     OW15367   1.540   2.005   2.479
 4823SOL    HW115368   1.636   2.000   2.503
 4823SOL    HW215369   1.484   1.989   2.560
 4824SOL     OW15370   5.200   1.977   5.239
 4824SOL    HW115371   5.152   1.991   5.325
 4824SOL    HW215372   5.248   1.889   5.242
 4825SOL     OW15373   0.891   1.231   4.486
 4825SOL    HW115374   0.957   1.254   4.557
 4825SOL    HW215375   0.805   1.202   4.529
 4826SOL     OW15376   5.156   0.634   0.582
 4826SOL    HW115377   5.061   0.661   0.571
 4826SOL    HW215378   5.160   0.544   0.625
 4827SOL     OW15379   6.630   1.829   0.248
 4827SOL    HW115380   6.532   1.844   0.261
 4827SOL    HW215381   6.649   1.820   0.150
 4828SOL     OW15382   4.402   0.293   1.532
 4828SOL    HW115383   4.323   0.338   1.573
 4828SOL    HW215384   4.371   0.235   1.456
 4829SOL     OW15385   3.765   6.513   6.442
 4829SOL    HW115386   3.788   6.502   6.345
 4829SOL    HW215387   3.801   6.601   6.474
 4830SOL     OW15388   3.826   5.975   3.730
 4830SOL    HW115389   3.734   6.013   3.737
 4830SOL    HW215390   3.827   5.903   3.661
 4831SOL     OW15391   2.751   5.214   5.618
 4831SOL    HW115392   2.719   5.124   5.591
 4831SOL    HW215393   2.811   5.251   5.547
 4832SOL     OW15394   3.941   3.526   4.482
 4832SOL    HW115395   3.963   3.617   4.516
 4832SOL    HW215396   3.889   3.534   4.397
 4833SOL     OW15397   5.599   1.992   3.680
 4833SOL    HW115398   5.675   1.930   3.666
 4833SOL    HW215399   5.513   1.947   3.655
 4834SOL     OW15400   2.659   6.017   2.504
 4834SOL    HW115401   2.754   6.023   2.474
 4834SOL    HW215402   2.637   6.093   2.564
 4835SOL     OW15403   6.414   3.504   5.955
 4835SOL    HW115404   6.479   3.565   5.910
 4835SOL    HW215405   6.333   3.557   5.981
 4836SOL     OW15406   4.634   1.411   5.293
 4836SOL    HW115407   4.650   1.376   5.385
 4836SOL    HW215408   4.718   1.450   5.257
 4837SOL     OW15409   6.752   3.314   3.146
 4837SOL    HW115410   6.770   3.226   3.100
 4837SOL    HW215411   6.827   3.335   3.208
 4838SOL     OW15412   1.230   5.290   6.347
 4838SOL    HW115413   1.164   5.346   6.297
 4838SOL    HW215414   1.236   5.200   6.305
 4839SOL     OW15415   1.621   3.268   0.068
 4839SOL    HW115416   1.598   3.174   0.096
 4839SOL    HW215417   1.619   3.274   6.991
 4840SOL     OW15418   5.300   4.195   5.339
 4840SOL    HW115419   5.391   4.161   5.317
 4840SOL    HW215420   5.233   4.152   5.278
 4841SOL     OW15421   2.983   5.523   2.841
 4841SOL    HW115422   2.901   5.470   2.862
 4841SOL    HW215423   2.985   5.605   2.898
 4842SOL     OW15424   2.346   5.490   3.544
 4842SOL    HW115425   2.407   5.545   3.486
 4842SOL    HW215426   2.379   5.494   3.639
 4843SOL     OW15427   6.602   2.657   2.063
 4843SOL    HW115428   6.582   2.747   2.101
 4843SOL    HW215429   6.605   2.590   2.137
 4844SOL     OW15430   1.199   4.068   5.773
 4844SOL    HW115431   1.254   3.991   5.742
 4844SOL    HW215432   1.103   4.053   5.750
 4845SOL     OW15433   4.648   4.776   5.020
 4845SOL    HW115434   4.735   4.729   5.039
 4845SOL    HW215435   4.651   4.816   4.929
 4846SOL     OW15436   0.423   2.269   3.534
 4846SOL    HW115437   0.514   2.262   3.575
 4846SOL    HW215438   0.384   2.177   3.524
 4847SOL     OW15439   2.533   0.348   5.608
 4847SOL    HW115440   2.555   0.304   5.521
 4847SOL    HW215441   2.612   0.403   5.638
 4848SOL     OW15442   2.068   1.455   3.827
 4848SOL    HW115443   2.093   1.359   3.841
 4848SOL    HW215444   2.139   1.501   3.776
 4849SOL     OW15445   1.736   6.992   0.555
 4849SOL    HW115446   1.690   6.935   0.486
 4849SOL    HW215447   1.682   0.050   0.573
 4850SOL     OW15448   4.396   0.630   1.229
 4850SOL    HW115449   4.329   0.580   1.174
 4850SOL    HW215450   4.437   0.567   1.296
 4851SOL     OW15451   3.756   5.261   6.764
 4851SOL    HW115452   3.751   5.184   6.827
 4851SOL    HW215453   3.670   5.312   6.766
 4852SOL     OW15454   3.764   5.475   4.489
 4852SOL    HW115455   3.829   5.418   4.538
 4852SOL    HW215456   3.711   5.419   4.425
 4853SOL     OW15457   3.361   0.802   3.053
 4853SOL    HW115458   3.360   0.887   3.105
 4853SOL    HW215459   3.395   0.820   2.960
 4854SOL     OW15460   5.747   6.567   1.650
 4854SOL    HW115461   5.693   6.634   1.700
 4854SOL    HW215462   5.725   6.571   1.553
 4855SOL     OW15463   0.227   3.694   5.013
 4855SOL    HW115464   0.256   3.763   5.080
 4855SOL    HW215465   0.162   3.631   5.057
 4856SOL     OW15466   0.428   3.641   2.819
 4856SOL    HW115467   0.416   3.736   2.849
 4856SOL    HW215468   0.526   3.619   2.815
 4857SOL     OW15469   3.478   2.069   4.305
 4857SOL    HW115470   3.566   2.103   4.337
 4857SOL    HW215471   3.404   2.110   4.359
 4858SOL     OW15472   0.610   0.497   4.943
 4858SOL    HW115473   0.629   0.465   4.851
 4858SOL    HW215474   0.535   0.444   4.983
 4859SOL     OW15475   0.823   5.279   1.812
 4859SOL    HW115476   0.824   5.196   1.868
 4859SOL    HW215477   0.783   5.355   1.864
 4860SOL     OW15478   4.030   4.983   0.041
 4860SOL    HW115479   4.013   4.959   6.969
 4860SOL    HW215480   4.076   5.071   0.046
 4861SOL     OW15481   6.576   4.715   5.388
 4861SOL    HW115482   6.549   4.782   5.319
 4861SOL    HW215483   6.499   4.698   5.450
 4862SOL     OW15484   2.633   4.725   4.713
 4862SOL    HW115485   2.617   4.626   4.706
 4862SOL    HW215486   2.658   4.747   4.808
 4863SOL     OW15487   4.898   3.369   2.621
 4863SOL    HW115488   4.802   3.372   2.651
 4863SOL    HW215489   4.914   3.439   2.552
 4864SOL     OW15490   3.267   1.462   1.994
 4864SOL    HW115491   3.339   1.409   1.951
 4864SOL    HW215492   3.271   1.452   2.093
 4865SOL     OW15493   3.289   5.304   5.822
 4865SOL    HW115494   3.242   5.292   5.734
 4865SOL    HW215495   3.324   5.397   5.828
 4866SOL     OW15496   6.218   4.696   2.083
 4866SOL    HW115497   6.169   4.630   2.025
 4866SOL    HW215498   6.255   4.769   2.026
 4867SOL     OW15499   4.693   5.352   3.239
 4867SOL    HW115500   4.786   5.319   3.257
 4867SOL    HW215501   4.688   5.450   3.260
 4868SOL     OW15502   0.639   5.542   1.349
 4868SOL    HW115503   0.617   5.445   1.343
 4868SOL    HW215504   0.639   5.581   1.257
 4869SOL     OW15505   0.196   1.988   0.555
 4869SOL    HW115506   0.187   1.977   0.456
 4869SOL    HW215507   0.147   2.071   0.583
 4870SOL     OW15508   4.083   6.001   1.897
 4870SOL    HW115509   4.020   5.948   1.840
 4870SOL    HW215510   4.165   6.022   1.844
 4871SOL     OW15511   1.592   1.466   3.304
 4871SOL    HW115512   1.492   1.466   3.302
 4871SOL    HW215513   1.627   1.402   3.235
 4872SOL     OW15514   0.809   6.803   2.847
 4872SOL    HW115515   0.742   6.832   2.915
 4872SOL    HW215516   0.815   6.872   2.775
 4873SOL     OW15517   0.227   5.008   5.269
 4873SOL    HW115518   0.268   5.016   5.178
 4873SOL    HW215519   0.128   5.006   5.262
 4874SOL     OW15520   5.149   3.814   2.473
 4874SOL    HW115521   5.077   3.823   2.542
 4874SOL    HW215522   5.231   3.777   2.516
 4875SOL     OW15523   5.690   1.270   1.259
 4875SOL    HW115524   5.703   1.339   1.330
 4875SOL    HW215525   5.767   1.207   1.259
 4876SOL     OW15526   5.953   0.273   6.108
 4876SOL    HW115527   6.049   0.295   6.126
 4876SOL    HW215528   5.894   0.325   6.169
 4877SOL     OW15529   6.280   2.020   1.076
 4877SOL    HW115530   6.243   1.965   1.001
 4877SOL    HW215531   6.367   2.060   1.048
 4878SOL     OW15532   0.242   1.493   1.707
 4878SOL    HW115533   0.191   1.483   1.622
 4878SOL    HW215534   0.325   1.546   1.690
 4879SOL     OW15535   4.123   4.684   2.866
 4879SOL    HW115536   4.182   4.646   2.795
 4879SOL    HW215537   4.031   4.646   2.856
 4880SOL     OW15538   5.255   1.295   0.147
 4880SOL    HW115539   5.311   1.223   0.187
 4880SOL    HW215540   5.283   1.310   0.052
 4881SOL     OW15541   2.779   6.229   6.071
 4881SOL    HW115542   2.835   6.197   5.994
 4881SOL    HW215543   2.695   6.271   6.035
 4882SOL     OW15544   6.516   1.765   5.076
 4882SOL    HW115545   6.592   1.823   5.104
 4882SOL    HW215546   6.536   1.670   5.099
 4883SOL     OW15547   6.092   4.083   2.237
 4883SOL    HW115548   6.086   4.135   2.322
 4883SOL    HW215549   6.153   4.005   2.250
 4884SOL     OW15550   4.674   0.303   1.630
 4884SOL    HW115551   4.715   0.214   1.609
 4884SOL    HW215552   4.574   0.295   1.630
 4885SOL     OW15553   1.899   6.530   1.162
 4885SOL    HW115554   1.941   6.442   1.139
 4885SOL    HW215555   1.961   6.604   1.137
 4886SOL     OW15556   6.879   6.765   6.489
 4886SOL    HW115557   6.815   6.737   6.561
 4886SOL    HW215558   6.954   6.817   6.529
 4887SOL     OW15559   6.820   1.931   3.967
 4887SOL    HW115560   6.788   2.001   3.903
 4887SOL    HW215561   6.789   1.954   4.059
 4888SOL     OW15562   1.817   6.314   3.126
 4888SOL    HW115563   1.789   6.404   3.092
 4888SOL    HW215564   1.874   6.325   3.207
 4889SOL     OW15565   1.151   1.986   0.469
 4889SOL    HW115566   1.085   2.022   0.534
 4889SOL    HW215567   1.135   2.027   0.379
 4890SOL     OW15568   0.587   1.511   4.193
 4890SOL    HW115569   0.644   1.439   4.152
 4890SOL    HW215570   0.644   1.569   4.251
 4891SOL     OW15571   0.761   4.661   0.769
 4891SOL    HW115572   0.751   4.735   0.703
 4891SOL    HW215573   0.858   4.646   0.787
 4892SOL     OW15574   1.559   5.852   1.810
 4892SOL    HW115575   1.473   5.852   1.759
 4892SOL    HW215576   1.558   5.928   1.875
 4893SOL     OW15577   6.761   4.412   6.698
 4893SOL    HW115578   6.823   4.440   6.772
 4893SOL    HW215579   6.781   4.317   6.673
 4894SOL     OW15580   1.909   0.139   3.417
 4894SOL    HW115581   1.860   0.226   3.415
 4894SOL    HW215582   1.932   0.111   3.324
 4895SOL     OW15583   1.129   3.373   0.414
 4895SOL    HW115584   1.148   3.471   0.401
 4895SOL    HW215585   1.153   3.323   0.331
 4896SOL     OW15586   3.107   5.192   4.029
 4896SOL    HW115587   3.026   5.195   4.088
 4896SOL    HW215588   3.111   5.104   3.982
 4897SOL     OW15589   3.584   4.868   6.827
 4897SOL    HW115590   3.594   4.838   6.922
 4897SOL    HW215591   3.595   4.790   6.766
 4898SOL     OW15592   5.914   2.632   5.358
 4898SOL    HW115593   6.005   2.662   5.385
 4898SOL    HW215594   5.912   2.532   5.351
 4899SOL     OW15595   6.311   4.959   2.586
 4899SOL    HW115596   6.332   5.032   2.521
 4899SOL    HW215597   6.395   4.929   2.632
 4900SOL     OW15598   0.222   6.545   5.684
 4900SOL    HW115599   0.235   6.639   5.716
 4900SOL    HW215600   0.253   6.481   5.755
 4901SOL     OW15601   1.461   0.144   4.328
 4901SOL    HW115602   1.474   0.046   4.312
 4901SOL    HW215603   1.442   0.190   4.241
 4902SOL     OW15604   1.680   4.400   1.849
 4902SOL    HW115605   1.633   4.312   1.860
 4902SOL    HW215606   1.771   4.395   1.892
 4903SOL     OW15607   3.724   6.926   6.642
 4903SOL    HW115608   3.791   6.938   6.716
 4903SOL    HW215609   3.767   6.876   6.566
 4904SOL     OW15610   1.943   5.794   4.501
 4904SOL    HW115611   1.894   5.718   4.458
 4904SOL    HW215612   2.015   5.826   4.439
 4905SOL     OW15613   4.833   2.590   2.071
 4905SOL    HW115614   4.772   2.574   1.994
 4905SOL    HW215615   4.878   2.679   2.060
 4906SOL     OW15616   4.693   7.000   0.507
 4906SOL    HW115617   4.732   7.005   0.600
 4906SOL    HW215618   4.762   0.005   0.441
 4907SOL     OW15619   4.160   6.533   3.622
 4907SOL    HW115620   4.144   6.481   3.707
 4907SOL    HW215621   4.135   6.477   3.544
 4908SOL     OW15622   3.962   5.646   6.777
 4908SOL    HW115623   3.930   5.601   6.694
 4908SOL    HW215624   4.025   5.719   6.753
 4909SOL     OW15625   6.047   6.972   5.319
 4909SOL    HW115626   6.132   6.971   5.371
 4909SOL    HW215627   6.047   0.027   5.257
 4910SOL     OW15628   5.239   0.638   5.213
 4910SOL    HW115629   5.163   0.580   5.182
 4910SOL    HW215630   5.319   0.582   5.230
 4911SOL     OW15631   0.068   1.980   6.036
 4911SOL    HW115632   0.055   2.054   6.103
 4911SOL    HW215633   0.043   2.013   5.945
 4912SOL     OW15634   4.185   1.924   2.239
 4912SOL    HW115635   4.198   1.984   2.159
 4912SOL    HW215636   4.180   1.829   2.209
 4913SOL     OW15637   3.387   4.108   3.641
 4913SOL    HW115638   3.298   4.065   3.629
 4913SOL    HW215639   3.410   4.110   3.739
 4914SOL     OW15640   2.935   0.822   4.283
 4914SOL    HW115641   3.025   0.843   4.245
 4914SOL    HW215642   2.946   0.769   4.368
 4915SOL     OW15643   4.268   6.485   4.256
 4915SOL    HW115644   4.210   6.534   4.190
 4915SOL    HW215645   4.349   6.540   4.275
 4916SOL     OW15646   2.892   2.259   3.051
 4916SOL    HW115647   2.864   2.289   2.960
 4916SOL    HW215648   2.824   2.288   3.118
 4917SOL     OW15649   1.578   3.884   0.989
 4917SOL    HW115650   1.663   3.844   1.023
 4917SOL    HW215651   1.563   3.854   0.895
 4918SOL     OW15652   2.870   0.624   2.644
 4918SOL    HW115653   2.796   0.645   2.579
 4918SOL    HW215654   2.945   0.688   2.630
 4919SOL     OW15655   1.708   1.672   2.648
 4919SOL    HW115656   1.708   1.719   2.736
 4919SOL    HW215657   1.797   1.683   2.603
 4920SOL     OW15658   4.384   0.745   0.151
 4920SOL    HW115659   4.370   0.655   0.110
 4920SOL    HW215660   4.296   0.784   0.176
 4921SOL     OW15661   2.298   3.569   1.657
 4921SOL    HW115662   2.217   3.535   1.611
 4921SOL    HW215663   2.307   3.526   1.747
 4922SOL     OW15664   1.399   3.529   5.633
 4922SOL    HW115665   1.361   3.485   5.714
 4922SOL    HW215666   1.484   3.482   5.607
 4923SOL     OW15667   5.317   6.919   1.965
 4923SOL    HW115668   5.322   6.897   2.063
 4923SOL    HW215669   5.260   6.851   1.919
 4924SOL     OW15670   1.862   3.795   4.286
 4924SOL    HW115671   1.801   3.809   4.208
 4924SOL    HW215672   1.811   3.807   4.371
 4925SOL     OW15673   5.153   6.578   1.115
 4925SOL    HW115674   5.214   6.520   1.169
 4925SOL    HW215675   5.058   6.557   1.139
 4926SOL     OW15676   5.655   3.149   1.516
 4926SOL    HW115677   5.628   3.158   1.612
 4926SOL    HW215678   5.752   3.126   1.511
 4927SOL     OW15679   3.606   2.844   2.678
 4927SOL    HW115680   3.688   2.840   2.622
 4927SOL    HW215681   3.526   2.824   2.622
 4928SOL     OW15682   0.266   6.891   6.448
 4928SOL    HW115683   0.218   6.902   6.535
 4928SOL    HW215684   0.252   6.798   6.414
 4929SOL     OW15685   0.923   4.258   5.322
 4929SOL    HW115686   0.850   4.324   5.339
 4929SOL    HW215687   0.884   4.166   5.313
 4930SOL     OW15688   1.036   1.154   0.481
 4930SOL    HW115689   0.982   1.207   0.547
 4930SOL    HW215690   1.062   1.067   0.522
 4931SOL     OW15691   0.366   0.474   6.855
 4931SOL    HW115692   0.401   0.450   6.764
 4931SOL    HW215693   0.288   0.416   6.877
 4932SOL     OW15694   2.506   2.635   1.716
 4932SOL    HW115695   2.604   2.654   1.709
 4932SOL    HW215696   2.454   2.718   1.693
 4933SOL     OW15697   2.442   1.053   4.275
 4933SOL    HW115698   2.540   1.071   4.268
 4933SOL    HW215699   2.394   1.104   4.203
 4934SOL     OW15700   0.717   5.098   4.063
 4934SOL    HW115701   0.788   5.116   3.996
 4934SOL    HW215702   0.721   5.166   4.136
 4935SOL     OW15703   1.764   1.279   6.667
 4935SOL    HW115704   1.734   1.225   6.588
 4935SOL    HW215705   1.718   1.368   6.665
 4936SOL     OW15706   2.921   5.768   1.499
 4936SOL    HW115707   2.895   5.786   1.594
 4936SOL    HW215708   2.989   5.835   1.470
 4937SOL     OW15709   0.873   3.649   6.380
 4937SOL    HW115710   0.814   3.724   6.350
 4937SOL    HW215711   0.969   3.676   6.368
 4938SOL     OW15712   3.132   4.300   1.521
 4938SOL    HW115713   3.119   4.270   1.615
 4938SOL    HW215714   3.228   4.323   1.506
 4939SOL     OW15715   2.005   1.724   1.694
 4939SOL    HW115716   2.087   1.779   1.704
 4939SOL    HW215717   1.942   1.769   1.630
 4940SOL     OW15718   6.695   2.375   4.803
 4940SOL    HW115719   6.763   2.433   4.850
 4940SOL    HW215720   6.645   2.321   4.870
 4941SOL     OW15721   3.986   2.510   5.404
 4941SOL    HW115722   4.002   2.596   5.452
 4941SOL    HW215723   4.031   2.513   5.315
 4942SOL     OW15724   5.573   3.211   4.019
 4942SOL    HW115725   5.637   3.180   4.089
 4942SOL    HW215726   5.492   3.152   4.019
 4943SOL     OW15727   5.758   3.705   6.880
 4943SOL    HW115728   5.739   3.609   6.901
 4943SOL    HW215729   5.673   3.758   6.885
 4944SOL     OW15730   2.061   4.786   0.728
 4944SOL    HW115731   2.002   4.792   0.809
 4944SOL    HW215732   2.101   4.694   0.722
 4945SOL     OW15733   2.204   1.190   5.235
 4945SOL    HW115734   2.286   1.199   5.178
 4945SOL    HW215735   2.186   1.093   5.251
 4946SOL     OW15736   1.298   4.554   6.959
 4946SOL    HW115737   1.199   4.543   6.972
 4946SOL    HW215738   1.340   4.465   6.943
 4947SOL     OW15739   2.730   0.716   2.439
 4947SOL    HW115740   2.745   0.794   2.378
 4947SOL    HW215741   2.656   0.660   2.402
 4948SOL     OW15742   2.077   2.538   2.276
 4948SOL    HW115743   1.987   2.504   2.304
 4948SOL    HW215744   2.091   2.518   2.179
 4949SOL     OW15745   6.731   3.364   5.911
 4949SOL    HW115746   6.642   3.317   5.911
 4949SOL    HW215747   6.719   3.457   5.878
 4950SOL     OW15748   2.525   4.398   5.278
 4950SOL    HW115749   2.591   4.350   5.335
 4950SOL    HW215750   2.453   4.335   5.249
 4951SOL     OW15751   6.249   5.979   3.783
 4951SOL    HW115752   6.214   6.066   3.818
 4951SOL    HW215753   6.237   5.976   3.683
 4952SOL     OW15754   0.044   0.508   6.578
 4952SOL    HW115755   0.112   0.577   6.553
 4952SOL    HW215756   7.015   0.539   6.657
 4953SOL     OW15757   1.551   1.850   4.745
 4953SOL    HW115758   1.478   1.847   4.677
 4953SOL    HW215759   1.603   1.765   4.743
 4954SOL     OW15760   2.449   4.073   5.766
 4954SOL    HW115761   2.430   3.987   5.814
 4954SOL    HW215762   2.388   4.083   5.688
 4955SOL     OW15763   2.894   5.127   0.248
 4955SOL    HW115764   2.973   5.160   0.299
 4955SOL    HW215765   2.910   5.140   0.150
 4956SOL     OW15766   2.681   0.747   5.376
 4956SOL    HW115767   2.780   0.760   5.364
 4956SOL    HW215768   2.650   0.671   5.320
 4957SOL     OW15769   6.083   4.079   6.901
 4957SOL    HW115770   6.025   4.159   6.886
 4957SOL    HW215771   6.098   4.032   6.814
 4958SOL     OW15772   1.983   6.315   5.508
 4958SOL    HW115773   2.009   6.316   5.605
 4958SOL    HW215774   1.913   6.246   5.493
 4959SOL     OW15775   6.811   2.094   1.302
 4959SOL    HW115776   6.878   2.118   1.233
 4959SOL    HW215777   6.853   2.097   1.393
 4960SOL     OW15778   4.112   5.114   3.564
 4960SOL    HW115779   4.136   5.166   3.646
 4960SOL    HW215780   4.018   5.135   3.538
 4961SOL     OW15781   2.931   1.136   6.917
 4961SOL    HW115782   2.951   1.198   6.994
 4961SOL    HW215783   2.863   1.069   6.945
 4962SOL     OW15784   6.553   2.682   0.739
 4962SOL    HW115785   6.589   2.661   0.830
 4962SOL    HW215786   6.488   2.611   0.711
 4963SOL     OW15787   0.941   5.230   0.887
 4963SOL    HW115788   1.036   5.232   0.858
 4963SOL    HW215789   0.920   5.312   0.940
 4964SOL     OW15790   2.413   6.677   4.684
 4964SOL    HW115791   2.452   6.654   4.595
 4964SOL    HW215792   2.405   6.776   4.693
 4965SOL     OW15793   1.237   6.808   2.937
 4965SOL    HW115794   1.258   6.710   2.939
 4965SOL    HW215795   1.297   6.854   2.872
 4966SOL     OW15796   2.641   5.775   4.401
 4966SOL    HW115797   2.615   5.690   4.446
 4966SOL    HW215798   2.592   5.852   4.442
 4967SOL     OW15799   3.798   4.649   5.485
 4967SOL    HW115800   3.886   4.675   5.446
 4967SOL    HW215801   3.811   4.575   5.551
 4968SOL     OW15802   0.228   0.866   4.334
 4968SOL    HW115803   0.190   0.952   4.366
 4968SOL    HW215804   0.326   0.863   4.354
 4969SOL     OW15805   0.291   6.399   2.442
 4969SOL    HW115806   0.385   6.403   2.406
 4969SOL    HW215807   0.231   6.455   2.386
 4970SOL     OW15808   1.779   1.134   1.650
 4970SOL    HW115809   1.805   1.159   1.744
 4970SOL    HW215810   1.751   1.038   1.648
 4971SOL     OW15811   6.318   6.114   2.796
 4971SOL    HW115812   6.286   6.159   2.880
 4971SOL    HW215813   6.240   6.074   2.748
 4972SOL     OW15814   1.121   3.955   0.986
 4972SOL    HW115815   1.126   4.054   0.981
 4972SOL    HW215816   1.202   3.921   1.035
 4973SOL     OW15817   0.048   0.204   1.730
 4973SOL    HW115818   6.986   0.164   1.762
 4973SOL    HW215819   0.042   0.304   1.733
 4974SOL     OW15820   4.847   4.103   6.403
 4974SOL    HW115821   4.874   4.007   6.412
 4974SOL    HW215822   4.919   4.161   6.440
 4975SOL     OW15823   4.948   3.584   0.963
 4975SOL    HW115824   4.943   3.485   0.980
 4975SOL    HW215825   5.034   3.619   1.001
 4976SOL     OW15826   0.670   0.750   4.604
 4976SOL    HW115827   0.736   0.807   4.654
 4976SOL    HW215828   0.610   0.705   4.670
 4977SOL     OW15829   3.563   3.853   6.672
 4977SOL    HW115830   3.605   3.917   6.736
 4977SOL    HW215831   3.478   3.891   6.637
 4978SOL     OW15832   4.778   4.720   5.476
 4978SOL    HW115833   4.733   4.725   5.566
 4978SOL    HW215834   4.783   4.811   5.436
 4979SOL     OW15835   0.906   6.921   0.014
 4979SOL    HW115836   0.968   6.989   0.054
 4979SOL    HW215837   0.886   6.946   6.943
 4980SOL     OW15838   6.751   4.520   2.923
 4980SOL    HW115839   6.734   4.438   2.977
 4980SOL    HW215840   6.796   4.495   2.837
 4981SOL     OW15841   3.585   5.196   1.895
 4981SOL    HW115842   3.580   5.268   1.963
 4981SOL    HW215843   3.510   5.132   1.909
 4982SOL     OW15844   3.996   1.449   6.548
 4982SOL    HW115845   4.020   1.544   6.565
 4982SOL    HW215846   3.930   1.418   6.617
 4983SOL     OW15847   6.182   5.013   3.998
 4983SOL    HW115848   6.238   4.939   3.960
 4983SOL    HW215849   6.096   4.975   4.033
 4984SOL     OW15850   4.921   4.179   2.836
 4984SOL    HW115851   4.867   4.115   2.782
 4984SOL    HW215852   5.006   4.200   2.788
 4985SOL     OW15853   5.130   6.147   2.676
 4985SOL    HW115854   5.218   6.103   2.690
 4985SOL    HW215855   5.142   6.227   2.617
 4986SOL     OW15856   6.711   4.724   1.484
 4986SOL    HW115857   6.633   4.702   1.542
 4986SOL    HW215858   6.680   4.780   1.406
 4987SOL     OW15859   1.343   6.208   2.819
 4987SOL    HW115860   1.437   6.171   2.821
 4987SOL    HW215861   1.308   6.212   2.912
 4988SOL     OW15862   6.355   0.970   3.542
 4988SOL    HW115863   6.323   0.899   3.480
 4988SOL    HW215864   6.305   0.965   3.628
 4989SOL     OW15865   4.658   0.660   1.695
 4989SOL    HW115866   4.724   0.597   1.736
 4989SOL    HW215867   4.595   0.694   1.765
 4990SOL     OW15868   3.730   1.951   0.134
 4990SOL    HW115869   3.743   1.872   0.074
 4990SOL    HW215870   3.764   2.034   0.088
 4991SOL     OW15871   0.101   5.882   4.119
 4991SOL    HW115872   0.191   5.923   4.105
 4991SOL    HW215873   0.047   5.940   4.181
 4992SOL     OW15874   6.480   1.751   2.949
 4992SOL    HW115875   6.520   1.815   2.883
 4992SOL    HW215876   6.385   1.732   2.923
 4993SOL     OW15877   4.394   6.808   4.839
 4993SOL    HW115878   4.470   6.776   4.894
 4993SOL    HW215879   4.324   6.737   4.834
 4994SOL     OW15880   2.082   5.289   4.947
 4994SOL    HW115881   1.988   5.300   4.913
 4994SOL    HW215882   2.108   5.370   4.999
 4995SOL     OW15883   0.471   0.700   4.788
 4995SOL    HW115884   0.514   0.725   4.875
 4995SOL    HW215885   0.426   0.612   4.798
 4996SOL     OW15886   0.302   1.528   3.824
 4996SOL    HW115887   0.348   1.584   3.893
 4996SOL    HW215888   0.363   1.512   3.747
 4997SOL     OW15889   3.805   2.466   1.459
 4997SOL    HW115890   3.902   2.449   1.446
 4997SOL    HW215891   3.787   2.484   1.556
 4998SOL     OW15892   1.656   3.563   3.429
 4998SOL    HW115893   1.639   3.660   3.407
 4998SOL    HW215894   1.572   3.511   3.412
 4999SOL     OW15895   0.860   3.384   5.080
 4999SOL    HW115896   0.925   3.447   5.124
 4999SOL    HW215897   0.782   3.369   5.141
 5000SOL     OW15898   2.999   6.516   3.620
 5000SOL    HW115899   3.070   6.551   3.680
 5000SOL    HW215900   2.972   6.588   3.556
 5001SOL     OW15901   0.257   5.783   2.599
 5001SOL    HW115902   0.285   5.874   2.567
 5001SOL    HW215903   0.338   5.724   2.602
 5002SOL     OW15904   0.898   4.680   2.729
 5002SOL    HW115905   0.903   4.596   2.676
 5002SOL    HW215906   0.805   4.718   2.725
 5003SOL     OW15907   3.943   6.158   3.132
 5003SOL    HW115908   3.901   6.102   3.060
 5003SOL    HW215909   3.941   6.254   3.105
 5004SOL     OW15910   2.625   5.418   5.347
 5004SOL    HW115911   2.622   5.467   5.434
 5004SOL    HW215912   2.710   5.441   5.299
 5005SOL     OW15913   2.444   3.196   6.097
 5005SOL    HW115914   2.427   3.144   6.180
 5005SOL    HW215915   2.473   3.135   6.023
 5006SOL     OW15916   5.398   1.094   2.284
 5006SOL    HW115917   5.364   1.065   2.374
 5006SOL    HW215918   5.375   1.190   2.269
 5007SOL     OW15919   6.760   0.458   0.888
 5007SOL    HW115920   6.839   0.458   0.950
 5007SOL    HW215921   6.791   0.482   0.796
 5008SOL     OW15922   6.724   5.337   1.255
 5008SOL    HW115923   6.663   5.416   1.252
 5008SOL    HW215924   6.769   5.327   1.166
 5009SOL     OW15925   1.232   2.815   0.316
 5009SOL    HW115926   1.173   2.890   0.348
 5009SOL    HW215927   1.325   2.830   0.348
 5010SOL     OW15928   3.903   2.288   0.699
 5010SOL    HW115929   3.851   2.289   0.614
 5010SOL    HW215930   3.998   2.314   0.680
 5011SOL     OW15931   2.074   4.152   1.259
 5011SOL    HW115932   2.158   4.103   1.236
 5011SOL    HW215933   2.030   4.183   1.175
 5012SOL     OW15934   6.100   2.991   5.276
 5012SOL    HW115935   6.153   3.060   5.226
 5012SOL    HW215936   6.067   3.030   5.362
 5013SOL     OW15937   5.788   0.478   5.643
 5013SOL    HW115938   5.838   0.457   5.559
 5013SOL    HW215939   5.740   0.396   5.674
 5014SOL     OW15940   6.879   4.541   6.893
 5014SOL    HW115941   6.812   4.514   6.961
 5014SOL    HW215942   6.956   4.587   6.939
 5015SOL     OW15943   5.368   0.705   4.574
 5015SOL    HW115944   5.431   0.676   4.502
 5015SOL    HW215945   5.277   0.717   4.535
 5016SOL     OW15946   1.365   2.693   4.892
 5016SOL    HW115947   1.268   2.674   4.878
 5016SOL    HW215948   1.405   2.620   4.948
 5017SOL     OW15949   0.942   2.332   1.110
 5017SOL    HW115950   1.032   2.331   1.066
 5017SOL    HW215951   0.941   2.399   1.184
 5018SOL     OW15952   1.391   4.986   2.273
 5018SOL    HW115953   1.327   4.955   2.202
 5018SOL    HW215954   1.460   5.045   2.231
 5019SOL     OW15955   2.156   5.813   5.895
 5019SOL    HW115956   2.250   5.811   5.861
 5019SOL    HW215957   2.106   5.734   5.859
 5020SOL     OW15958   0.197   6.672   5.092
 5020SOL    HW115959   0.102   6.677   5.063
 5020SOL    HW215960   0.212   6.734   5.169
 5021SOL     OW15961   1.427   0.560   1.578
 5021SOL    HW115962   1.356   0.614   1.532
 5021SOL    HW215963   1.485   0.516   1.510
 5022SOL     OW15964   0.904   2.562   1.279
 5022SOL    HW115965   0.933   2.554   1.374
 5022SOL    HW215966   0.896   2.659   1.254
 5023SOL     OW15967   0.020   4.208   1.476
 5023SOL    HW115968   0.111   4.249   1.470
 5023SOL    HW215969   6.982   4.255   1.412
 5024SOL     OW15970   5.874   5.143   0.867
 5024SOL    HW115971   5.834   5.208   0.803
 5024SOL    HW215972   5.886   5.055   0.822
 5025SOL     OW15973   3.998   1.864   3.795
 5025SOL    HW115974   3.986   1.962   3.779
 5025SOL    HW215975   4.095   1.842   3.798
 5026SOL     OW15976   0.041   5.202   4.726
 5026SOL    HW115977   0.051   5.173   4.821
 5026SOL    HW215978   6.969   5.224   4.707
 5027SOL     OW15979   6.047   0.362   1.311
 5027SOL    HW115980   6.007   0.278   1.276
 5027SOL    HW215981   5.975   0.428   1.330
 5028SOL     OW15982   6.779   2.068   3.705
 5028SOL    HW115983   6.803   2.062   3.609
 5028SOL    HW215984   6.679   2.069   3.715
 5029SOL     OW15985   6.403   2.406   2.346
 5029SOL    HW115986   6.351   2.452   2.418
 5029SOL    HW215987   6.356   2.418   2.258
 5030SOL     OW15988   6.945   6.049   6.395
 5030SOL    HW115989   6.915   6.125   6.338
 5030SOL    HW215990   0.004   6.074   6.445
 5031SOL     OW15991   0.158   0.932   5.589
 5031SOL    HW115992   0.189   1.013   5.638
 5031SOL    HW215993   0.237   0.887   5.546
 5032SOL     OW15994   2.503   1.883   5.888
 5032SOL    HW115995   2.486   1.969   5.936
 5032SOL    HW215996   2.599   1.857   5.900
 5033SOL     OW15997   1.966   0.530   0.297
 5033SOL    HW115998   2.049   0.535   0.353
 5033SOL    HW215999   1.931   0.436   0.297
 5034SOL     OW16000   5.353   6.891   4.065
 5034SOL    HW116001   5.386   6.914   3.973
 5034SOL    HW216002   5.282   6.821   4.058
 5035SOL     OW16003   1.067   3.702   5.707
 5035SOL    HW116004   1.064   3.728   5.803
 5035SOL    HW216005   0.975   3.700   5.669
 5036SOL     OW16006   6.230   5.201   6.424
 5036SOL    HW116007   6.314   5.241   6.461
 5036SOL    HW216008   6.179   5.271   6.376
 5037SOL     OW16009   4.506   4.632   1.484
 5037SOL    HW116010   4.580   4.589   1.433
 5037SOL    HW216011   4.537   4.654   1.577
 5038SOL     OW16012   4.019   3.445   4.023
 5038SOL    HW116013   4.086   3.440   4.097
 5038SOL    HW216014   4.044   3.381   3.951
 5039SOL     OW16015   2.306   3.116   5.720
 5039SOL    HW116016   2.342   3.110   5.626
 5039SOL    HW216017   2.374   3.161   5.778
 5040SOL     OW16018   0.871   5.978   5.127
 5040SOL    HW116019   0.773   5.961   5.120
 5040SOL    HW216020   0.907   5.934   5.209
 5041SOL     OW16021   1.191   2.048   1.927
 5041SOL    HW116022   1.132   2.093   1.995
 5041SOL    HW216023   1.286   2.059   1.954
 5042SOL     OW16024   0.117   2.943   0.516
 5042SOL    HW116025   0.097   3.026   0.568
 5042SOL    HW216026   0.083   2.863   0.565
 5043SOL     OW16027   4.538   0.565   6.728
 5043SOL    HW116028   4.631   0.590   6.755
 5043SOL    HW216029   4.485   0.540   6.810
 5044SOL     OW16030   0.589   5.654   1.077
 5044SOL    HW116031   0.588   5.754   1.085
 5044SOL    HW216032   0.504   5.623   1.036
 5045SOL     OW16033   6.473   5.822   5.941
 5045SOL    HW116034   6.525   5.738   5.953
 5045SOL    HW216035   6.535   5.900   5.939
 5046SOL     OW16036   3.797   4.048   3.922
 5046SOL    HW116037   3.846   3.976   3.972
 5046SOL    HW216038   3.838   4.061   3.832
 5047SOL     OW16039   2.346   4.239   3.106
 5047SOL    HW116040   2.401   4.196   3.178
 5047SOL    HW216041   2.249   4.221   3.123
 5048SOL     OW16042   1.400   0.729   4.575
 5048SOL    HW116043   1.495   0.724   4.604
 5048SOL    HW216044   1.369   0.639   4.544
 5049SOL     OW16045   4.589   1.140   0.037
 5049SOL    HW116046   4.546   1.174   6.977
 5049SOL    HW216047   4.520   1.128   0.108
 5050SOL     OW16048   1.416   1.271   6.663
 5050SOL    HW116049   1.348   1.288   6.734
 5050SOL    HW216050   1.501   1.318   6.686
 5051SOL     OW16051   4.597   4.209   1.373
 5051SOL    HW116052   4.621   4.125   1.420
 5051SOL    HW216053   4.510   4.243   1.408
 5052SOL     OW16054   3.290   1.921   6.146
 5052SOL    HW116055   3.245   1.947   6.231
 5052SOL    HW216056   3.232   1.858   6.095
 5053SOL     OW16057   1.018   5.049   3.035
 5053SOL    HW116058   1.092   4.994   2.996
 5053SOL    HW216059   1.031   5.145   3.010
 5054SOL     OW16060   2.715   4.876   5.224
 5054SOL    HW116061   2.737   4.779   5.225
 5054SOL    HW216062   2.677   4.901   5.134
 5055SOL     OW16063   1.280   2.081   6.089
 5055SOL    HW116064   1.227   2.032   6.158
 5055SOL    HW216065   1.255   2.047   5.998
 5056SOL     OW16066   5.306   3.841   5.435
 5056SOL    HW116067   5.330   3.799   5.348
 5056SOL    HW216068   5.313   3.773   5.508
 5057SOL     OW16069   0.095   0.054   3.183
 5057SOL    HW116070   0.141   6.989   3.174
 5057SOL    HW216071   0.154   0.126   3.145
 5058SOL     OW16072   3.408   4.349   6.957
 5058SOL    HW116073   3.422   4.351   6.858
 5058SOL    HW216074   3.341   4.278   6.980
 5059SOL     OW16075   0.086   0.705   3.297
 5059SOL    HW116076   0.175   0.706   3.251
 5059SOL    HW216077   0.063   0.797   3.327
 5060SOL     OW16078   0.020   2.395   6.406
 5060SOL    HW116079   0.067   2.483   6.418
 5060SOL    HW216080   0.018   2.347   6.493
 5061SOL     OW16081   4.738   2.578   0.522
 5061SOL    HW116082   4.821   2.606   0.475
 5061SOL    HW216083   4.744   2.480   0.545
 5062SOL     OW16084   6.092   0.172   2.536
 5062SOL    HW116085   6.097   0.272   2.527
 5062SOL    HW216086   6.173   0.132   2.493
 5063SOL     OW16087   0.054   6.784   2.201
 5063SOL    HW116088   0.054   6.691   2.239
 5063SOL    HW216089   0.144   6.825   2.215
 5064SOL     OW16090   4.958   2.920   0.719
 5064SOL    HW116091   4.955   2.886   0.813
 5064SOL    HW216092   4.868   2.910   0.677
 5065SOL     OW16093   3.114   0.587   5.546
 5065SOL    HW116094   3.113   0.579   5.645
 5065SOL    HW216095   3.175   0.662   5.519
 5066SOL     OW16096   5.150   4.723   1.959
 5066SOL    HW116097   5.073   4.666   1.932
 5066SOL    HW216098   5.130   4.767   2.047
 5067SOL     OW16099   4.878   1.669   0.854
 5067SOL    HW116100   4.801   1.635   0.909
 5067SOL    HW216101   4.943   1.594   0.838
 5068SOL     OW16102   2.203   4.629   1.055
 5068SOL    HW116103   2.194   4.588   1.146
 5068SOL    HW216104   2.290   4.678   1.050
 5069SOL     OW16105   2.006   4.515   3.279
 5069SOL    HW116106   1.996   4.547   3.373
 5069SOL    HW216107   2.007   4.593   3.217
 5070SOL     OW16108   4.889   3.329   3.618
 5070SOL    HW116109   4.793   3.320   3.647
 5070SOL    HW216110   4.942   3.254   3.657
 5071SOL     OW16111   4.299   2.194   4.937
 5071SOL    HW116112   4.329   2.158   5.025
 5071SOL    HW216113   4.240   2.273   4.952
 5072SOL     OW16114   0.551   5.947   0.658
 5072SOL    HW116115   0.648   5.950   0.634
 5072SOL    HW216116   0.537   5.989   0.747
 5073SOL     OW16117   6.655   6.591   2.999
 5073SOL    HW116118   6.594   6.620   3.073
 5073SOL    HW216119   6.609   6.523   2.943
 5074SOL     OW16120   3.488   3.435   6.790
 5074SOL    HW116121   3.457   3.418   6.884
 5074SOL    HW216122   3.572   3.489   6.792
 5075SOL     OW16123   0.397   1.122   5.702
 5075SOL    HW116124   0.445   1.156   5.783
 5075SOL    HW216125   0.427   1.173   5.622
 5076SOL     OW16126   4.317   1.073   1.151
 5076SOL    HW116127   4.358   0.997   1.100
 5076SOL    HW216128   4.255   1.037   1.221
 5077SOL     OW16129   1.153   2.448   3.781
 5077SOL    HW116130   1.165   2.420   3.876
 5077SOL    HW216131   1.135   2.546   3.778
 5078SOL     OW16132   0.840   1.682   3.435
 5078SOL    HW116133   0.918   1.744   3.439
 5078SOL    HW216134   0.815   1.666   3.340
 5079SOL     OW16135   2.962   4.826   6.130
 5079SOL    HW116136   2.904   4.798   6.054
 5079SOL    HW216137   2.919   4.801   6.216
 5080SOL     OW16138   5.634   6.629   5.020
 5080SOL    HW116139   5.632   6.674   5.109
 5080SOL    HW216140   5.713   6.568   5.014
 5081SOL     OW16141   3.756   3.366   3.049
 5081SOL    HW116142   3.784   3.351   3.144
 5081SOL    HW216143   3.703   3.450   3.043
 5082SOL     OW16144   5.671   6.189   5.123
 5082SOL    HW116145   5.607   6.201   5.047
 5082SOL    HW216146   5.687   6.092   5.138
 5083SOL     OW16147   1.947   6.393   2.397
 5083SOL    HW116148   1.968   6.481   2.439
 5083SOL    HW216149   1.850   6.389   2.374
 5084SOL     OW16150   1.174   4.796   4.722
 5084SOL    HW116151   1.202   4.838   4.636
 5084SOL    HW216152   1.252   4.792   4.784
 5085SOL     OW16153   5.415   2.247   6.264
 5085SOL    HW116154   5.315   2.255   6.269
 5085SOL    HW216155   5.457   2.323   6.313
 5086SOL     OW16156   6.407   5.369   3.992
 5086SOL    HW116157   6.361   5.306   4.054
 5086SOL    HW216158   6.498   5.334   3.970
 5087SOL     OW16159   7.010   6.224   3.922
 5087SOL    HW116160   6.945   6.171   3.977
 5087SOL    HW216161   6.978   6.228   3.827
 5088SOL     OW16162   6.116   1.331   5.639
 5088SOL    HW116163   6.190   1.345   5.573
 5088SOL    HW216164   6.037   1.387   5.613
 5089SOL     OW16165   6.653   3.136   3.431
 5089SOL    HW116166   6.741   3.103   3.399
 5089SOL    HW216167   6.667   3.213   3.494
 5090SOL     OW16168   2.068   3.895   1.386
 5090SOL    HW116169   2.136   3.936   1.447
 5090SOL    HW216170   2.023   3.967   1.333
 5091SOL     OW16171   1.125   5.930   3.105
 5091SOL    HW116172   1.033   5.938   3.069
 5091SOL    HW216173   1.168   6.021   3.110
 5092SOL     OW16174   3.603   2.699   1.293
 5092SOL    HW116175   3.593   2.754   1.210
 5092SOL    HW216176   3.542   2.620   1.287
 5093SOL     OW16177   1.240   1.853   1.695
 5093SOL    HW116178   1.196   1.878   1.609
 5093SOL    HW216179   1.196   1.900   1.771
 5094SOL     OW16180   1.019   0.198   5.535
 5094SOL    HW116181   0.964   0.164   5.458
 5094SOL    HW216182   1.115   0.171   5.521
 5095SOL     OW16183   1.271   0.535   4.439
 5095SOL    HW116184   1.288   0.501   4.346
 5095SOL    HW216185   1.173   0.551   4.451
 5096SOL     OW16186   4.152   3.800   0.701
 5096SOL    HW116187   4.248   3.774   0.689
 5096SOL    HW216188   4.137   3.830   0.795
 5097SOL     OW16189   1.530   0.310   6.302
 5097SOL    HW116190   1.548   0.357   6.216
 5097SOL    HW216191   1.536   0.375   6.378
 5098SOL     OW16192   0.277   0.513   1.700
 5098SOL    HW116193   0.313   0.490   1.790
 5098SOL    HW216194   0.314   0.602   1.672
 5099SOL     OW16195   1.140   0.256   6.197
 5099SOL    HW116196   1.076   0.194   6.153
 5099SOL    HW216197   1.228   0.210   6.210
 5100SOL     OW16198   4.602   6.616   6.089
 5100SOL    HW116199   4.594   6.695   6.027
 5100SOL    HW216200   4.627   6.535   6.036
 5101SOL     OW16201   5.327   6.350   0.217
 5101SOL    HW116202   5.393   6.406   0.167
 5101SOL    HW216203   5.293   6.402   0.296
 5102SOL     OW16204   6.150   0.598   5.487
 5102SOL    HW116205   6.085   0.558   5.422
 5102SOL    HW216206   6.141   0.552   5.576
 5103SOL     OW16207   6.927   1.009   4.209
 5103SOL    HW116208   6.984   1.019   4.128
 5103SOL    HW216209   6.969   0.943   4.272
 5104SOL     OW16210   1.774   6.800   1.051
 5104SOL    HW116211   1.861   6.787   1.002
 5104SOL    HW216212   1.762   6.727   1.118
 5105SOL     OW16213   4.290   3.937   6.748
 5105SOL    HW116214   4.309   3.933   6.847
 5105SOL    HW216215   4.272   4.031   6.722
 5106SOL     OW16216   3.604   0.184   2.382
 5106SOL    HW116217   3.513   0.146   2.369
 5106SOL    HW216218   3.623   0.192   2.480
 5107SOL     OW16219   2.957   0.514   0.201
 5107SOL    HW116220   2.933   0.587   0.265
 5107SOL    HW216221   2.878   0.494   0.143
 5108SOL     OW16222   3.145   3.959   3.647
 5108SOL    HW116223   3.152   3.919   3.739
 5108SOL    HW216224   3.133   3.886   3.580
 5109SOL     OW16225   1.013   1.724   1.099
 5109SOL    HW116226   1.008   1.768   1.009
 5109SOL    HW216227   0.977   1.631   1.093
 5110SOL     OW16228   1.247   6.617   6.280
 5110SOL    HW116229   1.299   6.532   6.282
 5110SOL    HW216230   1.207   6.634   6.370
 5111SOL     OW16231   0.753   0.871   5.673
 5111SOL    HW116232   0.803   0.957   5.678
 5111SOL    HW216233   0.657   0.888   5.651
 5112SOL     OW16234   0.408   6.698   3.328
 5112SOL    HW116235   0.432   6.606   3.299
 5112SOL    HW216236   0.488   6.741   3.372
 5113SOL     OW16237   0.901   0.553   1.145
 5113SOL    HW116238   0.965   0.543   1.069
 5113SOL    HW216239   0.952   0.570   1.229
 5114SOL     OW16240   3.400   3.343   0.029
 5114SOL    HW116241   3.395   3.426   0.084
 5114SOL    HW216242   3.476   3.287   0.060
 5115SOL     OW16243   1.550   4.480   5.637
 5115SOL    HW116244   1.595   4.494   5.725
 5115SOL    HW216245   1.457   4.446   5.652
 5116SOL     OW16246   5.195   5.629   5.833
 5116SOL    HW116247   5.177   5.611   5.736
 5116SOL    HW216248   5.154   5.716   5.858
 5117SOL     OW16249   2.217   4.650   4.143
 5117SOL    HW116250   2.172   4.592   4.211
 5117SOL    HW216251   2.215   4.605   4.054
 5118SOL     OW16252   4.390   6.753   0.316
 5118SOL    HW116253   4.295   6.723   0.308
 5118SOL    HW216254   4.406   6.793   0.406
 5119SOL     OW16255   5.100   0.363   1.666
 5119SOL    HW116256   5.167   0.315   1.722
 5119SOL    HW216257   5.064   0.301   1.596
 5120SOL     OW16258   6.093   1.455   2.947
 5120SOL    HW116259   6.106   1.502   3.035
 5120SOL    HW216260   6.182   1.439   2.904
 5121SOL     OW16261   1.088   3.097   6.416
 5121SOL    HW116262   1.180   3.085   6.452
 5121SOL    HW216263   1.074   3.193   6.392
 5122SOL     OW16264   2.702   0.558   3.890
 5122SOL    HW116265   2.698   0.510   3.978
 5122SOL    HW216266   2.609   0.577   3.859
 5123SOL     OW16267   5.369   3.462   3.994
 5123SOL    HW116268   5.360   3.551   3.950
 5123SOL    HW216269   5.446   3.413   3.954
 5124SOL     OW16270   2.577   5.548   6.212
 5124SOL    HW116271   2.562   5.455   6.244
 5124SOL    HW216272   2.620   5.602   6.285
 5125SOL     OW16273   0.395   3.614   4.560
 5125SOL    HW116274   0.342   3.585   4.480
 5125SOL    HW216275   0.413   3.534   4.618
 5126SOL     OW16276   6.047   4.977   5.796
 5126SOL    HW116277   6.075   4.961   5.701
 5126SOL    HW216278   6.099   4.915   5.856
 5127SOL     OW16279   5.649   3.948   0.822
 5127SOL    HW116280   5.735   3.939   0.772
 5127SOL    HW216281   5.663   3.920   0.917
 5128SOL     OW16282   0.762   0.324   6.948
 5128SOL    HW116283   0.708   0.253   6.903
 5128SOL    HW216284   0.744   0.322   0.023
 5129SOL     OW16285   5.499   0.457   2.938
 5129SOL    HW116286   5.453   0.375   2.973
 5129SOL    HW216287   5.564   0.490   3.007
 5130SOL     OW16288   0.887   5.409   4.445
 5130SOL    HW116289   0.952   5.429   4.518
 5130SOL    HW216290   0.794   5.419   4.481
 5131SOL     OW16291   3.444   4.870   3.428
 5131SOL    HW116292   3.363   4.927   3.442
 5131SOL    HW216293   3.431   4.813   3.347
 5132SOL     OW16294   3.156   1.721   6.586
 5132SOL    HW116295   3.178   1.710   6.489
 5132SOL    HW216296   3.114   1.636   6.620
 5133SOL     OW16297   3.282   5.372   6.149
 5133SOL    HW116298   3.362   5.315   6.169
 5133SOL    HW216299   3.266   5.372   6.051
 5134SOL     OW16300   6.481   7.021   1.636
 5134SOL    HW116301   6.497   6.932   1.593
 5134SOL    HW216302   6.485   7.010   1.735
 5135SOL     OW16303   6.459   3.503   3.100
 5135SOL    HW116304   6.474   3.406   3.121
 5135SOL    HW216305   6.541   3.540   3.056
 5136SOL     OW16306   0.234   1.027   5.941
 5136SOL    HW116307   0.184   0.949   5.980
 5136SOL    HW216308   0.171   1.083   5.888
 5137SOL     OW16309   4.771   2.722   5.548
 5137SOL    HW116310   4.839   2.649   5.554
 5137SOL    HW216311   4.816   2.808   5.523
 5138SOL     OW16312   3.398   4.114   3.953
 5138SOL    HW116313   3.317   4.079   4.000
 5138SOL    HW216314   3.472   4.127   4.019
 5139SOL     OW16315   1.401   0.356   4.668
 5139SOL    HW116316   1.392   0.257   4.681
 5139SOL    HW216317   1.316   0.392   4.629
 5140SOL     OW16318   3.859   1.765   6.271
 5140SOL    HW116319   3.832   1.734   6.180
 5140SOL    HW216320   3.955   1.743   6.287
 5141SOL     OW16321   6.280   3.085   1.384
 5141SOL    HW116322   6.190   3.063   1.347
 5141SOL    HW216323   6.350   3.031   1.337
 5142SOL     OW16324   5.696   6.626   3.776
 5142SOL    HW116325   5.701   6.611   3.875
 5142SOL    HW216326   5.602   6.615   3.745
 5143SOL     OW16327   0.667   4.173   4.712
 5143SOL    HW116328   0.712   4.119   4.782
 5143SOL    HW216329   0.572   4.142   4.702
 5144SOL     OW16330   2.156   3.516   6.697
 5144SOL    HW116331   2.210   3.543   6.777
 5144SOL    HW216332   2.154   3.591   6.631
 5145SOL     OW16333   3.587   6.208   6.237
 5145SOL    HW116334   3.631   6.147   6.171
 5145SOL    HW216335   3.549   6.287   6.190
 5146SOL     OW16336   4.212   4.344   5.585
 5146SOL    HW116337   4.152   4.271   5.619
 5146SOL    HW216338   4.186   4.367   5.492
 5147SOL     OW16339   5.164   3.741   3.070
 5147SOL    HW116340   5.240   3.739   3.136
 5147SOL    HW216341   5.199   3.722   2.978
 5148SOL     OW16342   0.711   0.388   2.039
 5148SOL    HW116343   0.748   0.440   2.116
 5148SOL    HW216344   0.619   0.356   2.062
 5149SOL     OW16345   5.871   4.809   3.844
 5149SOL    HW116346   5.920   4.858   3.917
 5149SOL    HW216347   5.902   4.714   3.841
 5150SOL     OW16348   1.044   5.283   3.639
 5150SOL    HW116349   0.987   5.289   3.557
 5150SOL    HW216350   1.079   5.190   3.649
 5151SOL     OW16351   5.901   4.678   1.228
 5151SOL    HW116352   5.908   4.777   1.213
 5151SOL    HW216353   5.929   4.657   1.322
 5152SOL     OW16354   1.778   6.377   6.460
 5152SOL    HW116355   1.693   6.346   6.504
 5152SOL    HW216356   1.856   6.336   6.506
 5153SOL     OW16357   1.695   0.994   0.575
 5153SOL    HW116358   1.638   0.972   0.496
 5153SOL    HW216359   1.640   1.039   0.645
 5154SOL     OW16360   0.542   2.517   6.686
 5154SOL    HW116361   0.574   2.423   6.692
 5154SOL    HW216362   0.584   2.562   6.608
 5155SOL     OW16363   2.519   1.594   0.695
 5155SOL    HW116364   2.461   1.672   0.673
 5155SOL    HW216365   2.549   1.600   0.791
 5156SOL     OW16366   5.083   5.307   4.901
 5156SOL    HW116367   4.994   5.263   4.911
 5156SOL    HW216368   5.123   5.321   4.992
 5157SOL     OW16369   4.079   1.646   2.115
 5157SOL    HW116370   3.990   1.670   2.076
 5157SOL    HW216371   4.065   1.592   2.198
 5158SOL     OW16372   3.769   1.567   1.256
 5158SOL    HW116373   3.785   1.473   1.226
 5158SOL    HW216374   3.844   1.597   1.316
 5159SOL     OW16375   5.937   3.786   6.699
 5159SOL    HW116376   5.874   3.753   6.769
 5159SOL    HW216377   5.922   3.735   6.614
 5160SOL     OW16378   6.555   6.828   3.223
 5160SOL    HW116379   6.530   6.781   3.308
 5160SOL    HW216380   6.652   6.854   3.227
 5161SOL     OW16381   1.224   3.213   6.825
 5161SOL    HW116382   1.284   3.133   6.826
 5161SOL    HW216383   1.129   3.185   6.833
 5162SOL     OW16384   0.218   5.365   2.640
 5162SOL    HW116385   0.236   5.450   2.688
 5162SOL    HW216386   0.144   5.316   2.686
 5163SOL     OW16387   3.137   5.950   1.899
 5163SOL    HW116388   3.134   5.982   1.994
 5163SOL    HW216389   3.215   5.992   1.853
 5164SOL     OW16390   2.875   3.062   0.448
 5164SOL    HW116391   2.875   2.993   0.376
 5164SOL    HW216392   2.932   3.030   0.525
 5165SOL     OW16393   1.645   4.794   0.099
 5165SOL    HW116394   1.612   4.707   0.135
 5165SOL    HW216395   1.567   4.853   0.078
 5166SOL     OW16396   1.829   5.356   1.739
 5166SOL    HW116397   1.914   5.409   1.732
 5166SOL    HW216398   1.752   5.418   1.756
 5167SOL     OW16399   5.609   3.661   5.654
 5167SOL    HW116400   5.513   3.637   5.641
 5167SOL    HW216401   5.620   3.760   5.646
 5168SOL     OW16402   4.925   2.434   2.263
 5168SOL    HW116403   4.847   2.407   2.319
 5168SOL    HW216404   4.895   2.499   2.193
 5169SOL     OW16405   3.871   1.185   3.870
 5169SOL    HW116406   3.921   1.267   3.898
 5169SOL    HW216407   3.841   1.195   3.775
 5170SOL     OW16408   1.426   3.184   6.210
 5170SOL    HW116409   1.349   3.168   6.147
 5170SOL    HW216410   1.487   3.252   6.170
 5171SOL     OW16411   1.519   5.103   5.786
 5171SOL    HW116412   1.613   5.068   5.791
 5171SOL    HW216413   1.456   5.036   5.826
 5172SOL     OW16414   1.076   5.083   4.310
 5172SOL    HW116415   1.044   5.107   4.401
 5172SOL    HW216416   1.034   4.997   4.280
 5173SOL     OW16417   4.597   3.894   6.244
 5173SOL    HW116418   4.583   3.952   6.325
 5173SOL    HW216419   4.584   3.949   6.161
 5174SOL     OW16420   1.377   6.917   3.723
 5174SOL    HW116421   1.460   6.971   3.710
 5174SOL    HW216422   1.298   6.966   3.686
 5175SOL     OW16423   3.221   4.266   6.618
 5175SOL    HW116424   3.226   4.250   6.520
 5175SOL    HW216425   3.156   4.340   6.636
 5176SOL     OW16426   5.397   5.431   6.243
 5176SOL    HW116427   5.323   5.407   6.181
 5176SOL    HW216428   5.449   5.508   6.205
 5177SOL     OW16429   5.066   0.351   0.825
 5177SOL    HW116430   5.015   0.339   0.740
 5177SOL    HW216431   5.014   0.313   0.902
 5178SOL     OW16432   1.136   4.321   2.035
 5178SOL    HW116433   1.115   4.224   2.028
 5178SOL    HW216434   1.057   4.370   2.073
 5179SOL     OW16435   5.193   3.997   2.932
 5179SOL    HW116436   5.113   3.973   2.878
 5179SOL    HW216437   5.187   3.956   3.023
 5180SOL     OW16438   3.023   6.500   1.301
 5180SOL    HW116439   2.963   6.441   1.354
 5180SOL    HW216440   2.970   6.547   1.230
 5181SOL     OW16441   6.998   1.041   6.819
 5181SOL    HW116442   6.901   1.027   6.836
 5181SOL    HW216443   7.014   1.049   6.721
 5182SOL     OW16444   4.219   4.674   2.601
 5182SOL    HW116445   4.259   4.665   2.509
 5182SOL    HW216446   4.140   4.735   2.597
 5183SOL     OW16447   4.069   2.113   3.272
 5183SOL    HW116448   3.979   2.133   3.233
 5183SOL    HW216449   4.128   2.193   3.261
 5184SOL     OW16450   2.087   2.678   3.771
 5184SOL    HW116451   2.062   2.639   3.860
 5184SOL    HW216452   2.118   2.605   3.710
 5185SOL     OW16453   4.798   0.389   2.424
 5185SOL    HW116454   4.865   0.429   2.486
 5185SOL    HW216455   4.780   0.295   2.450
 5186SOL     OW16456   6.475   3.457   5.635
 5186SOL    HW116457   6.497   3.366   5.601
 5186SOL    HW216458   6.393   3.452   5.692
 5187SOL     OW16459   2.403   5.114   4.568
 5187SOL    HW116460   2.410   5.042   4.637
 5187SOL    HW216461   2.370   5.076   4.482
 5188SOL     OW16462   6.819   6.369   1.463
 5188SOL    HW116463   6.851   6.447   1.408
 5188SOL    HW216464   6.764   6.402   1.539
 5189SOL     OW16465   5.906   0.062   6.427
 5189SOL    HW116466   5.938   0.031   6.337
 5189SOL    HW216467   5.818   0.108   6.416
 5190SOL     OW16468   1.763   2.916   1.988
 5190SOL    HW116469   1.748   2.941   1.893
 5190SOL    HW216470   1.800   2.994   2.038
 5191SOL     OW16471   3.065   6.175   2.313
 5191SOL    HW116472   3.039   6.145   2.405
 5191SOL    HW216473   3.119   6.104   2.268
 5192SOL     OW16474   1.566   5.977   1.315
 5192SOL    HW116475   1.621   5.917   1.374
 5192SOL    HW216476   1.578   5.949   1.220
 5193SOL     OW16477   5.606   0.475   6.592
 5193SOL    HW116478   5.703   0.460   6.575
 5193SOL    HW216479   5.554   0.393   6.568
 5194SOL     OW16480   3.316   1.632   6.336
 5194SOL    HW116481   3.267   1.548   6.317
 5194SOL    HW216482   3.382   1.650   6.263
 5195SOL     OW16483   0.800   0.668   3.484
 5195SOL    HW116484   0.894   0.648   3.510
 5195SOL    HW216485   0.781   0.629   3.394
 5196SOL     OW16486   4.730   6.746   2.944
 5196SOL    HW116487   4.693   6.655   2.963
 5196SOL    HW216488   4.828   6.746   2.962
 5197SOL     OW16489   1.934   3.611   6.412
 5197SOL    HW116490   1.983   3.657   6.338
 5197SOL    HW216491   1.946   3.662   6.497
 5198SOL     OW16492   4.252   5.750   3.315
 5198SOL    HW116493   4.203   5.832   3.286
 5198SOL    HW216494   4.338   5.776   3.359
 5199SOL     OW16495   6.826   5.587   1.001
 5199SOL    HW116496   6.816   5.489   0.983
 5199SOL    HW216497   6.897   5.601   1.070
 5200SOL     OW16498   0.582   3.846   5.424
 5200SOL    HW116499   0.534   3.778   5.368
 5200SOL    HW216500   0.518   3.887   5.490
 5201SOL     OW16501   0.994   6.355   4.296
 5201SOL    HW116502   0.951   6.265   4.283
 5201SOL    HW216503   0.979   6.411   4.214
 5202SOL     OW16504   6.901   3.227   6.808
 5202SOL    HW116505   6.832   3.179   6.754
 5202SOL    HW216506   6.968   3.270   6.747
 5203SOL     OW16507   1.137   2.378   7.012
 5203SOL    HW116508   1.098   2.387   0.080
 5203SOL    HW216509   1.191   2.459   6.991
 5204SOL     OW16510   3.879   5.100   0.481
 5204SOL    HW116511   3.852   5.094   0.385
 5204SOL    HW216512   3.798   5.110   0.538
 5205SOL     OW16513   1.768   0.461   1.799
 5205SOL    HW116514   1.843   0.452   1.864
 5205SOL    HW216515   1.745   0.371   1.762
 5206SOL     OW16516   0.408   4.528   6.715
 5206SOL    HW116517   0.374   4.540   6.622
 5206SOL    HW216518   0.337   4.557   6.780
 5207SOL     OW16519   1.306   5.614   4.635
 5207SOL    HW116520   1.333   5.702   4.595
 5207SOL    HW216521   1.369   5.543   4.604
 5208SOL     OW16522   3.849   0.987   0.569
 5208SOL    HW116523   3.777   1.042   0.526
 5208SOL    HW216524   3.809   0.906   0.612
 5209SOL     OW16525   5.830   6.195   3.668
 5209SOL    HW116526   5.815   6.112   3.722
 5209SOL    HW216527   5.883   6.260   3.723
 5210SOL     OW16528   5.459   3.681   4.711
 5210SOL    HW116529   5.424   3.594   4.677
 5210SOL    HW216530   5.402   3.713   4.786
 5211SOL     OW16531   3.801   3.003   4.296
 5211SOL    HW116532   3.754   2.959   4.219
 5211SOL    HW216533   3.790   3.102   4.289
 5212SOL     OW16534   0.067   2.482   0.675
 5212SOL    HW116535   0.132   2.500   0.748
 5212SOL    HW216536   0.023   2.567   0.647
 5213SOL     OW16537   5.015   2.013   6.111
 5213SOL    HW116538   5.079   1.986   6.039
 5213SOL    HW216539   4.929   2.042   6.069
 5214SOL     OW16540   5.355   1.430   6.328
 5214SOL    HW116541   5.293   1.374   6.272
 5214SOL    HW216542   5.340   1.527   6.308
 5215SOL     OW16543   5.841   5.237   3.189
 5215SOL    HW116544   5.925   5.216   3.140
 5215SOL    HW216545   5.844   5.197   3.280
 5216SOL     OW16546   4.676   5.564   1.417
 5216SOL    HW116547   4.587   5.610   1.418
 5216SOL    HW216548   4.668   5.477   1.465
 5217SOL     OW16549   2.885   5.108   3.725
 5217SOL    HW116550   2.874   5.206   3.705
 5217SOL    HW216551   2.850   5.054   3.649
 5218SOL     OW16552   1.920   0.530   3.837
 5218SOL    HW116553   1.889   0.435   3.832
 5218SOL    HW216554   1.842   0.591   3.830
 5219SOL     OW16555   3.684   0.274   6.644
 5219SOL    HW116556   3.733   0.317   6.719
 5219SOL    HW216557   3.749   0.230   6.582
 5220SOL     OW16558   1.046   5.279   2.383
 5220SOL    HW116559   0.956   5.311   2.355
 5220SOL    HW216560   1.097   5.248   2.302
 5221SOL     OW16561   5.626   1.995   4.493
 5221SOL    HW116562   5.562   1.920   4.512
 5221SOL    HW216563   5.632   2.055   4.572
 5222SOL     OW16564   2.804   0.131   4.064
 5222SOL    HW116565   2.840   0.043   4.034
 5222SOL    HW216566   2.857   0.164   4.141
 5223SOL     OW16567   4.633   0.520   1.057
 5223SOL    HW116568   4.649   0.435   1.007
 5223SOL    HW216569   4.535   0.533   1.070
 5224SOL     OW16570   6.641   2.062   3.106
 5224SOL    HW116571   6.639   2.065   3.006
 5224SOL    HW216572   6.715   2.002   3.136
 5225SOL     OW16573   6.428   0.529   3.234
 5225SOL    HW116574   6.502   0.467   3.259
 5225SOL    HW216575   6.341   0.488   3.260
 5226SOL     OW16576   0.303   6.438   5.006
 5226SOL    HW116577   0.228   6.388   4.963
 5226SOL    HW216578   0.269   6.528   5.036
 5227SOL     OW16579   0.448   4.732   3.887
 5227SOL    HW116580   0.521   4.796   3.868
 5227SOL    HW216581   0.374   4.779   3.935
 5228SOL     OW16582   6.426   2.746   0.281
 5228SOL    HW116583   6.402   2.841   0.263
 5228SOL    HW216584   6.359   2.685   0.238
 5229SOL     OW16585   2.095   4.614   6.445
 5229SOL    HW116586   2.183   4.569   6.457
 5229SOL    HW216587   2.068   4.659   6.531
 5230SOL     OW16588   0.524   0.223   0.755
 5230SOL    HW116589   0.428   0.211   0.731
 5230SOL    HW216590   0.571   0.273   0.682
 5231SOL     OW16591   3.176   2.970   4.590
 5231SOL    HW116592   3.220   2.971   4.500
 5231SOL    HW216593   3.238   2.931   4.657
 5232SOL     OW16594   3.251   2.376   6.168
 5232SOL    HW116595   3.329   2.399   6.227
 5232SOL    HW216596   3.241   2.445   6.097
 5233SOL     OW16597   6.797   6.648   1.342
 5233SOL    HW116598   6.886   6.689   1.360
 5233SOL    HW216599   6.728   6.692   1.400
 5234SOL     OW16600   3.081   0.303   0.343
 5234SOL    HW116601   3.044   0.372   0.281
 5234SOL    HW216602   3.029   0.218   0.333
 5235SOL     OW16603   1.375   2.851   1.350
 5235SOL    HW116604   1.399   2.778   1.413
 5235SOL    HW216605   1.330   2.813   1.269
 5236SOL     OW16606   5.407   3.256   1.379
 5236SOL    HW116607   5.351   3.174   1.364
 5236SOL    HW216608   5.488   3.231   1.432
 5237SOL     OW16609   3.130   1.927   5.413
 5237SOL    HW116610   3.032   1.933   5.431
 5237SOL    HW216611   3.149   1.848   5.355
 5238SOL     OW16612   1.514   4.984   0.559
 5238SOL    HW116613   1.441   4.992   0.491
 5238SOL    HW216614   1.580   5.058   0.546
 5239SOL     OW16615   3.434   4.066   4.325
 5239SOL    HW116616   3.509   4.130   4.308
 5239SOL    HW216617   3.401   4.030   4.238
 5240SOL     OW16618   3.115   1.809   5.782
 5240SOL    HW116619   3.070   1.788   5.869
 5240SOL    HW216620   3.146   1.904   5.782
 5241SOL     OW16621   1.050   5.939   6.398
 5241SOL    HW116622   1.114   5.901   6.332
 5241SOL    HW216623   1.100   5.994   6.465
 5242SOL     OW16624   5.936   0.387   5.458
 5242SOL    HW116625   6.005   0.315   5.469
 5242SOL    HW216626   5.869   0.359   5.390
 5243SOL     OW16627   0.862   5.746   0.913
 5243SOL    HW116628   0.922   5.709   0.985
 5243SOL    HW216629   0.789   5.680   0.895
 5244SOL     OW16630   4.636   4.096   5.783
 5244SOL    HW116631   4.659   4.102   5.686
 5244SOL    HW216632   4.593   4.181   5.813
 5245SOL     OW16633   4.524   4.079   6.050
 5245SOL    HW116634   4.582   4.080   5.968
 5245SOL    HW216635   4.513   4.172   6.085
 5246SOL     OW16636   6.697   4.065   2.656
 5246SOL    HW116637   6.728   4.060   2.561
 5246SOL    HW216638   6.602   4.037   2.662
 5247SOL     OW16639   0.900   6.532   0.170
 5247SOL    HW116640   0.996   6.506   0.169
 5247SOL    HW216641   0.850   6.471   0.232
 5248SOL     OW16642   5.376   0.506   5.657
 5248SOL    HW116643   5.421   0.452   5.586
 5248SOL    HW216644   5.438   0.516   5.735
 5249SOL     OW16645   0.934   4.944   4.891
 5249SOL    HW116646   0.931   4.851   4.854
 5249SOL    HW216647   0.982   4.943   4.979
 5250SOL     OW16648   0.258   1.175   6.166
 5250SOL    HW116649   0.277   1.134   6.077
 5250SOL    HW216650   0.160   1.191   6.175
 5251SOL     OW16651   0.515   3.184   1.303
 5251SOL    HW116652   0.537   3.179   1.400
 5251SOL    HW216653   0.553   3.268   1.265
 5252SOL     OW16654   2.070   5.366   0.796
 5252SOL    HW116655   2.068   5.268   0.816
 5252SOL    HW216656   2.033   5.416   0.875
 5253SOL     OW16657   6.039   3.692   4.603
 5253SOL    HW116658   5.942   3.717   4.606
 5253SOL    HW216659   6.095   3.774   4.599
 5254SOL     OW16660   5.310   1.651   3.387
 5254SOL    HW116661   5.279   1.742   3.415
 5254SOL    HW216662   5.336   1.599   3.468
 5255SOL     OW16663   4.309   0.304   4.295
 5255SOL    HW116664   4.376   0.370   4.262
 5255SOL    HW216665   4.335   0.272   4.386
 5256SOL     OW16666   5.450   0.905   3.125
 5256SOL    HW116667   5.458   0.861   3.214
 5256SOL    HW216668   5.450   0.835   3.053
 5257SOL     OW16669   4.599   7.007   1.911
 5257SOL    HW116670   4.659   0.046   1.862
 5257SOL    HW216671   4.508   7.011   1.872
 5258SOL     OW16672   5.406   4.715   1.840
 5258SOL    HW116673   5.450   4.644   1.895
 5258SOL    HW216674   5.313   4.731   1.875
 5259SOL     OW16675   4.825   6.094   1.563
 5259SOL    HW116676   4.816   6.102   1.662
 5259SOL    HW216677   4.839   5.998   1.538
 5260SOL     OW16678   4.701   3.267   0.553
 5260SOL    HW116679   4.672   3.341   0.491
 5260SOL    HW216680   4.639   3.189   0.542
 5261SOL     OW16681   1.220   2.518   5.156
 5261SOL    HW116682   1.288   2.459   5.112
 5261SOL    HW216683   1.255   2.550   5.244
 5262SOL     OW16684   2.379   7.010   2.548
 5262SOL    HW116685   2.439   7.018   2.468
 5262SOL    HW216686   2.399   6.924   2.595
 5263SOL     OW16687   1.082   6.998   6.105
 5263SOL    HW116688   1.061   6.921   6.045
 5263SOL    HW216689   1.089   6.967   6.200
 5264SOL     OW16690   6.148   1.480   1.666
 5264SOL    HW116691   6.099   1.464   1.580
 5264SOL    HW216692   6.157   1.394   1.716
 5265SOL     OW16693   5.054   4.157   2.315
 5265SOL    HW116694   5.046   4.061   2.290
 5265SOL    HW216695   5.047   4.166   2.415
 5266SOL     OW16696   2.704   6.394   1.660
 5266SOL    HW116697   2.702   6.421   1.756
 5266SOL    HW216698   2.617   6.352   1.635
 5267SOL     OW16699   4.683   5.068   5.679
 5267SOL    HW116700   4.716   4.996   5.740
 5267SOL    HW216701   4.611   5.120   5.724
 5268SOL     OW16702   6.327   5.561   4.964
 5268SOL    HW116703   6.242   5.579   4.914
 5268SOL    HW216704   6.329   5.618   5.046
 5269SOL     OW16705   2.294   6.412   3.837
 5269SOL    HW116706   2.304   6.420   3.738
 5269SOL    HW216707   2.277   6.502   3.877
 5270SOL     OW16708   4.657   1.846   1.610
 5270SOL    HW116709   4.701   1.761   1.579
 5270SOL    HW216710   4.727   1.917   1.620
 5271SOL     OW16711   4.177   5.098   4.210
 5271SOL    HW116712   4.096   5.067   4.161
 5271SOL    HW216713   4.243   5.135   4.145
 5272SOL     OW16714   0.712   6.291   3.782
 5272SOL    HW116715   0.774   6.243   3.720
 5272SOL    HW216716   0.744   6.281   3.876
 5273SOL     OW16717   1.183   2.958   3.541
 5273SOL    HW116718   1.213   2.862   3.548
 5273SOL    HW216719   1.252   3.010   3.491
 5274SOL     OW16720   6.233   5.392   2.747
 5274SOL    HW116721   6.250   5.411   2.651
 5274SOL    HW216722   6.278   5.306   2.773
 5275SOL     OW16723   3.107   0.606   6.509
 5275SOL    HW116724   3.177   0.535   6.511
 5275SOL    HW216725   3.111   0.658   6.594
 5276SOL     OW16726   0.318   6.295   0.340
 5276SOL    HW116727   0.385   6.238   0.291
 5276SOL    HW216728   0.313   6.385   0.296
 5277SOL     OW16729   1.942   1.992   3.133
 5277SOL    HW116730   1.935   1.907   3.185
 5277SOL    HW216731   1.973   1.972   3.040
 5278SOL     OW16732   5.789   6.774   5.831
 5278SOL    HW116733   5.821   6.788   5.737
 5278SOL    HW216734   5.690   6.787   5.835
 5279SOL     OW16735   1.257   6.447   6.653
 5279SOL    HW116736   1.192   6.518   6.629
 5279SOL    HW216737   1.263   6.439   6.753
 5280SOL     OW16738   3.709   6.096   5.303
 5280SOL    HW116739   3.666   6.186   5.291
 5280SOL    HW216740   3.640   6.025   5.288
 5281SOL     OW16741   0.993   1.422   4.007
 5281SOL    HW116742   1.070   1.361   3.988
 5281SOL    HW216743   1.014   1.477   4.088
 5282SOL     OW16744   2.086   0.208   2.487
 5282SOL    HW116745   2.125   0.151   2.559
 5282SOL    HW216746   2.138   0.293   2.479
 5283SOL     OW16747   1.586   0.806   3.391
 5283SOL    HW116748   1.524   0.862   3.445
 5283SOL    HW216749   1.680   0.838   3.404
 5284SOL     OW16750   4.621   2.560   2.901
 5284SOL    HW116751   4.688   2.522   2.964
 5284SOL    HW216752   4.531   2.520   2.918
 5285SOL     OW16753   0.955   3.741   4.372
 5285SOL    HW116754   0.907   3.666   4.418
 5285SOL    HW216755   0.952   3.823   4.429
 5286SOL     OW16756   6.139   2.971   0.516
 5286SOL    HW116757   6.220   2.927   0.555
 5286SOL    HW216758   6.141   3.069   0.537
 5287SOL     OW16759   3.061   5.093   1.435
 5287SOL    HW116760   3.000   5.023   1.472
 5287SOL    HW216761   3.155   5.074   1.462
 5288SOL     OW16762   4.664   0.561   2.899
 5288SOL    HW116763   4.678   0.505   2.981
 5288SOL    HW216764   4.567   0.587   2.893
 5289SOL     OW16765   2.745   5.088   6.447
 5289SOL    HW116766   2.699   5.012   6.402
 5289SOL    HW216767   2.774   5.155   6.379
 5290SOL     OW16768   1.368   3.921   5.641
 5290SOL    HW116769   1.355   3.857   5.566
 5290SOL    HW216770   1.466   3.936   5.656
 5291SOL     OW16771   2.936   4.280   6.091
 5291SOL    HW116772   2.870   4.277   6.166
 5291SOL    HW216773   2.943   4.373   6.056
 5292SOL     OW16774   5.652   4.816   6.123
 5292SOL    HW116775   5.731   4.877   6.120
 5292SOL    HW216776   5.661   4.753   6.200
 5293SOL     OW16777   2.022   6.624   5.124
 5293SOL    HW116778   1.975   6.592   5.206
 5293SOL    HW216779   2.111   6.660   5.148
 5294SOL     OW16780   4.829   1.899   5.754
 5294SOL    HW116781   4.748   1.951   5.781
 5294SOL    HW216782   4.815   1.862   5.662
 5295SOL     OW16783   3.630   0.800   3.168
 5295SOL    HW116784   3.534   0.817   3.143
 5295SOL    HW216785   3.674   0.887   3.190
 5296SOL     OW16786   3.554   4.032   0.206
 5296SOL    HW116787   3.540   3.980   0.290
 5296SOL    HW216788   3.618   4.107   0.223
 5297SOL     OW16789   1.872   3.340   0.136
 5297SOL    HW116790   1.913   3.422   0.096
 5297SOL    HW216791   1.780   3.327   0.098
 5298SOL     OW16792   1.782   5.975   6.133
 5298SOL    HW116793   1.808   5.880   6.124
 5298SOL    HW216794   1.853   6.025   6.182
 5299SOL     OW16795   3.026   2.865   0.612
 5299SOL    HW116796   2.996   2.820   0.697
 5299SOL    HW216797   3.101   2.813   0.571
 5300SOL     OW16798   0.808   5.418   1.037
 5300SOL    HW116799   0.717   5.452   1.013
 5300SOL    HW216800   0.847   5.474   1.110
 5301SOL     OW16801   3.995   1.140   5.926
 5301SOL    HW116802   4.080   1.146   5.875
 5301SOL    HW216803   4.001   1.066   5.993
 5302SOL     OW16804   5.567   5.913   3.702
 5302SOL    HW116805   5.619   5.959   3.773
 5302SOL    HW216806   5.615   5.829   3.675
 5303SOL     OW16807   0.031   5.193   5.015
 5303SOL    HW116808   0.118   5.243   5.021
 5303SOL    HW216809   0.022   5.132   5.094
 5304SOL     OW16810   5.790   1.117   0.515
 5304SOL    HW116811   5.857   1.043   0.505
 5304SOL    HW216812   5.816   1.174   0.592
 5305SOL     OW16813   0.781   5.049   2.550
 5305SOL    HW116814   0.852   4.987   2.517
 5305SOL    HW216815   0.822   5.121   2.605
 5306SOL     OW16816   0.949   4.616   5.630
 5306SOL    HW116817   1.043   4.604   5.598
 5306SOL    HW216818   0.926   4.544   5.695
 5307SOL     OW16819   3.501   1.942   0.258
 5307SOL    HW116820   3.588   1.942   0.207
 5307SOL    HW216821   3.491   1.855   0.305
 5308SOL     OW16822   1.484   4.364   2.445
 5308SOL    HW116823   1.421   4.374   2.368
 5308SOL    HW216824   1.578   4.356   2.410
 5309SOL     OW16825   4.120   4.973   2.021
 5309SOL    HW116826   4.027   4.947   1.995
 5309SOL    HW216827   4.147   4.922   2.103
 5310SOL     OW16828   6.266   3.528   1.446
 5310SOL    HW116829   6.295   3.611   1.398
 5310SOL    HW216830   6.295   3.532   1.541
 5311SOL     OW16831   5.971   6.779   0.339
 5311SOL    HW116832   5.889   6.773   0.282
 5311SOL    HW216833   5.977   6.869   0.380
 5312SOL     OW16834   0.854   5.574   1.631
 5312SOL    HW116835   0.838   5.668   1.662
 5312SOL    HW216836   0.766   5.530   1.611
 5313SOL     OW16837   1.235   3.143   5.981
 5313SOL    HW116838   1.151   3.112   6.026
 5313SOL    HW216839   1.288   3.065   5.950
 5314SOL     OW16840   3.833   6.395   0.290
 5314SOL    HW116841   3.776   6.383   0.209
 5314SOL    HW216842   3.929   6.378   0.266
 5315SOL     OW16843   4.955   3.482   1.973
 5315SOL    HW116844   4.951   3.383   1.963
 5315SOL    HW216845   4.940   3.525   1.884
 5316SOL     OW16846   1.034   3.113   5.333
 5316SOL    HW116847   0.980   3.188   5.372
 5316SOL    HW216848   0.982   3.028   5.341
 5317SOL     OW16849   5.976   2.357   5.363
 5317SOL    HW116850   6.003   2.292   5.292
 5317SOL    HW216851   6.030   2.341   5.446
 5318SOL     OW16852   0.786   2.594   0.641
 5318SOL    HW116853   0.782   2.676   0.585
 5318SOL    HW216854   0.709   2.593   0.705
 5319SOL     OW16855   4.398   6.143   0.862
 5319SOL    HW116856   4.496   6.150   0.879
 5319SOL    HW216857   4.350   6.211   0.917
 5320SOL     OW16858   4.102   4.992   0.756
 5320SOL    HW116859   4.147   5.081   0.756
 5320SOL    HW216860   4.086   4.962   0.661
 5321SOL     OW16861   2.155   4.477   4.379
 5321SOL    HW116862   2.195   4.386   4.373
 5321SOL    HW216863   2.202   4.529   4.450
 5322SOL     OW16864   5.077   6.077   0.464
 5322SOL    HW116865   5.156   6.046   0.411
 5322SOL    HW216866   5.046   6.166   0.429
 5323SOL     OW16867   3.385   1.608   6.009
 5323SOL    HW116868   3.434   1.523   6.030
 5323SOL    HW216869   3.409   1.638   5.917
 5324SOL     OW16870   3.355   1.946   0.834
 5324SOL    HW116871   3.369   2.042   0.860
 5324SOL    HW216872   3.385   1.933   0.739
 5325SOL     OW16873   4.513   0.472   4.229
 5325SOL    HW116874   4.527   0.517   4.141
 5325SOL    HW216875   4.533   0.537   4.303
 5326SOL     OW16876   6.604   5.678   3.040
 5326SOL    HW116877   6.504   5.684   3.043
 5326SOL    HW216878   6.635   5.697   2.947
 5327SOL     OW16879   5.819   3.281   5.314
 5327SOL    HW116880   5.917   3.285   5.331
 5327SOL    HW216881   5.771   3.263   5.400
 5328SOL     OW16882   3.732   3.889   6.073
 5328SOL    HW116883   3.714   3.904   5.976
 5328SOL    HW216884   3.667   3.822   6.109
 5329SOL     OW16885   0.516   5.019   6.584
 5329SOL    HW116886   0.538   5.007   6.487
 5329SOL    HW216887   0.446   5.090   6.593
 5330SOL     OW16888   4.667   3.701   0.067
 5330SOL    HW116889   4.724   3.779   0.093
 5330SOL    HW216890   4.586   3.698   0.126
 5331SOL     OW16891   6.450   1.316   5.809
 5331SOL    HW116892   6.387   1.391   5.830
 5331SOL    HW216893   6.418   1.232   5.854
 5332SOL     OW16894   0.868   3.218   1.690
 5332SOL    HW116895   0.923   3.247   1.768
 5332SOL    HW216896   0.786   3.275   1.684
 5333SOL     OW16897   0.998   0.990   3.263
 5333SOL    HW116898   1.060   0.985   3.185
 5333SOL    HW216899   1.021   1.070   3.319
 5334SOL     OW16900   3.259   0.179   4.410
 5334SOL    HW116901   3.246   0.266   4.361
 5334SOL    HW216902   3.203   0.108   4.367
 5335SOL     OW16903   0.168   6.129   0.882
 5335SOL    HW116904   0.081   6.128   0.833
 5335SOL    HW216905   0.231   6.064   0.839
 5336SOL     OW16906   1.839   3.458   2.680
 5336SOL    HW116907   1.841   3.530   2.611
 5336SOL    HW216908   1.933   3.430   2.702
 5337SOL     OW16909   4.929   4.501   1.192
 5337SOL    HW116910   5.021   4.461   1.186
 5337SOL    HW216911   4.900   4.531   1.101
 5338SOL     OW16912   5.834   1.920   0.362
 5338SOL    HW116913   5.797   1.836   0.322
 5338SOL    HW216914   5.782   1.943   0.445
 5339SOL     OW16915   6.973   1.716   3.951
 5339SOL    HW116916   6.935   1.808   3.942
 5339SOL    HW216917   6.937   1.659   3.877
 5340SOL     OW16918   4.492   4.656   1.048
 5340SOL    HW116919   4.446   4.741   1.073
 5340SOL    HW216920   4.565   4.636   1.113
 5341SOL     OW16921   3.932   2.630   6.721
 5341SOL    HW116922   3.899   2.598   6.632
 5341SOL    HW216923   3.855   2.664   6.775
 5342SOL     OW16924   4.104   6.971   4.184
 5342SOL    HW116925   4.150   6.936   4.103
 5342SOL    HW216926   4.061   6.896   4.233
 5343SOL     OW16927   3.360   4.178   4.753
 5343SOL    HW116928   3.281   4.174   4.814
 5343SOL    HW216929   3.441   4.204   4.805
 5344SOL     OW16930   1.864   2.764   2.176
 5344SOL    HW116931   1.959   2.790   2.193
 5344SOL    HW216932   1.826   2.824   2.105
 5345SOL     OW16933   4.110   5.837   1.523
 5345SOL    HW116934   4.136   5.741   1.522
 5345SOL    HW216935   4.021   5.848   1.567
 5346SOL     OW16936   3.342   5.961   4.064
 5346SOL    HW116937   3.401   5.981   4.141
 5346SOL    HW216938   3.270   5.898   4.092
 5347SOL     OW16939   0.674   2.511   2.533
 5347SOL    HW116940   0.725   2.426   2.549
 5347SOL    HW216941   0.576   2.490   2.525
 5348SOL     OW16942   6.949   1.648   0.948
 5348SOL    HW116943   6.879   1.689   0.889
 5348SOL    HW216944   6.995   1.574   0.900
 5349SOL     OW16945   1.301   2.567   6.980
 5349SOL    HW116946   1.303   2.665   6.962
 5349SOL    HW216947   1.389   2.538   7.018
 5350SOL     OW16948   1.508   0.476   5.703
 5350SOL    HW116949   1.408   0.479   5.712
 5350SOL    HW216950   1.539   0.381   5.712
 5351SOL     OW16951   5.904   5.469   1.670
 5351SOL    HW116952   5.974   5.461   1.742
 5351SOL    HW216953   5.902   5.563   1.637
 5352SOL     OW16954   1.639   5.420   4.212
 5352SOL    HW116955   1.656   5.344   4.150
 5352SOL    HW216956   1.550   5.461   4.191
 5353SOL     OW16957   3.722   5.712   3.857
 5353SOL    HW116958   3.742   5.642   3.926
 5353SOL    HW216959   3.625   5.736   3.861
 5354SOL     OW16960   2.027   5.056   1.569
 5354SOL    HW116961   2.033   4.963   1.533
 5354SOL    HW216962   1.992   5.054   1.663
 5355SOL     OW16963   4.959   2.563   3.608
 5355SOL    HW116964   4.904   2.616   3.672
 5355SOL    HW216965   4.900   2.499   3.558
 5356SOL     OW16966   5.981   4.648   1.485
 5356SOL    HW116967   6.044   4.591   1.537
 5356SOL    HW216968   5.905   4.676   1.544
 5357SOL     OW16969   3.293   6.802   0.174
 5357SOL    HW116970   3.294   6.704   0.156
 5357SOL    HW216971   3.307   6.818   0.272
 5358SOL     OW16972   4.193   1.629   0.461
 5358SOL    HW116973   4.256   1.707   0.468
 5358SOL    HW216974   4.186   1.584   0.550
 5359SOL     OW16975   2.043   1.741   0.287
 5359SOL    HW116976   1.981   1.675   0.244
 5359SOL    HW216977   1.990   1.805   0.343
 5360SOL     OW16978   4.785   6.698   5.544
 5360SOL    HW116979   4.756   6.766   5.476
 5360SOL    HW216980   4.838   6.626   5.499
 5361SOL     OW16981   2.125   7.008   4.812
 5361SOL    HW116982   2.141   6.910   4.824
 5361SOL    HW216983   2.113   0.005   4.714
 5362SOL     OW16984   5.335   5.019   3.493
 5362SOL    HW116985   5.346   5.056   3.585
 5362SOL    HW216986   5.241   5.030   3.462
 5363SOL     OW16987   0.544   6.945   6.358
 5363SOL    HW116988   0.558   6.925   6.261
 5363SOL    HW216989   0.448   6.931   6.382
 5364SOL     OW16990   6.874   5.722   1.434
 5364SOL    HW116991   6.800   5.786   1.415
 5364SOL    HW216992   6.916   5.744   1.522
 5365SOL     OW16993   3.559   2.910   7.010
 5365SOL    HW116994   3.624   2.979   0.015
 5365SOL    HW216995   3.515   2.938   6.925
 5366SOL     OW16996   5.132   5.918   1.544
 5366SOL    HW116997   5.095   5.899   1.635
 5366SOL    HW216998   5.097   6.005   1.510
 5367SOL     OW16999   0.456   5.696   0.671
 5367SOL    HW117000   0.497   5.787   0.672
 5367SOL    HW217001   0.405   5.684   0.585
 5368SOL     OW17002   5.105   0.739   2.766
 5368SOL    HW117003   5.128   0.830   2.801
 5368SOL    HW217004   5.044   0.693   2.830
 5369SOL     OW17005   3.374   0.063   2.184
 5369SOL    HW117006   3.287   0.093   2.145
 5369SOL    HW217007   3.364   0.051   2.283
 5370SOL     OW17008   4.531   2.840   1.275
 5370SOL    HW117009   4.478   2.811   1.354
 5370SOL    HW217010   4.567   2.760   1.228
 5371SOL     OW17011   1.815   3.968   4.676
 5371SOL    HW117012   1.813   3.895   4.607
 5371SOL    HW217013   1.898   3.959   4.731
 5372SOL     OW17014   2.244   6.082   3.635
 5372SOL    HW117015   2.202   5.991   3.632
 5372SOL    HW217016   2.343   6.074   3.621
 5373SOL     OW17017   3.101   5.600   3.939
 5373SOL    HW117018   3.189   5.588   3.985
 5373SOL    HW217019   3.039   5.526   3.964
 5374SOL     OW17020   0.992   4.254   0.270
 5374SOL    HW117021   0.975   4.348   0.299
 5374SOL    HW217022   1.063   4.254   0.200
 5375SOL     OW17023   1.577   4.078   4.574
 5375SOL    HW117024   1.657   4.025   4.605
 5375SOL    HW217025   1.604   4.173   4.560
 5376SOL     OW17026   2.038   3.357   0.786
 5376SOL    HW117027   2.026   3.442   0.836
 5376SOL    HW217028   2.024   3.279   0.848
 5377SOL     OW17029   0.129   6.957   1.651
 5377SOL    HW117030   0.124   0.028   1.683
 5377SOL    HW217031   0.183   6.903   1.716
 5378SOL     OW17032   6.956   0.532   2.319
 5378SOL    HW117033   6.985   0.459   2.382
 5378SOL    HW217034   0.005   0.551   2.254
 5379SOL     OW17035   1.546   5.664   5.262
 5379SOL    HW117036   1.555   5.574   5.217
 5379SOL    HW217037   1.530   5.734   5.192
 5380SOL     OW17038   1.575   1.407   3.798
 5380SOL    HW117039   1.575   1.505   3.818
 5380SOL    HW217040   1.623   1.391   3.711
 5381SOL     OW17041   6.330   4.202   0.938
 5381SOL    HW117042   6.249   4.257   0.920
 5381SOL    HW217043   6.379   4.184   0.852
 5382SOL     OW17044   3.304   0.487   2.518
 5382SOL    HW117045   3.285   0.506   2.615
 5382SOL    HW217046   3.367   0.555   2.483
 5383SOL     OW17047   2.755   2.383   5.499
 5383SOL    HW117048   2.736   2.391   5.402
 5383SOL    HW217049   2.673   2.403   5.552
 5384SOL     OW17050   5.712   0.450   4.308
 5384SOL    HW117051   5.698   0.417   4.215
 5384SOL    HW217052   5.746   0.544   4.305
 5385SOL     OW17053   2.931   3.248   3.843
 5385SOL    HW117054   2.868   3.287   3.910
 5385SOL    HW217055   3.011   3.307   3.833
 5386SOL     OW17056   4.677   0.225   4.386
 5386SOL    HW117057   4.738   0.264   4.317
 5386SOL    HW217058   4.609   0.167   4.341
 5387SOL     OW17059   2.969   6.083   3.641
 5387SOL    HW117060   2.879   6.106   3.678
 5387SOL    HW217061   2.984   5.985   3.647
 5388SOL     OW17062   6.205   0.431   3.376
 5388SOL    HW117063   6.120   0.429   3.324
 5388SOL    HW217064   6.242   0.338   3.383
 5389SOL     OW17065   5.169   0.700   1.845
 5389SOL    HW117066   5.174   0.667   1.750
 5389SOL    HW217067   5.077   0.682   1.881
 5390SOL     OW17068   4.740   4.140   3.264
 5390SOL    HW117069   4.686   4.114   3.185
 5390SOL    HW217070   4.695   4.214   3.313
 5391SOL     OW17071   1.521   2.472   1.377
 5391SOL    HW117072   1.439   2.518   1.409
 5391SOL    HW217073   1.496   2.403   1.308
 5392SOL     OW17074   6.043   3.179   0.830
 5392SOL    HW117075   5.996   3.110   0.885
 5392SOL    HW217076   6.141   3.159   0.830
 5393SOL     OW17077   5.488   0.070   6.300
 5393SOL    HW117078   5.465   0.027   6.212
 5393SOL    HW217079   5.446   0.017   6.374
 5394SOL     OW17080   6.562   4.146   6.871
 5394SOL    HW117081   6.506   4.228   6.883
 5394SOL    HW217082   6.599   4.144   6.778
 5395SOL     OW17083   4.711   1.024   1.709
 5395SOL    HW117084   4.706   1.123   1.708
 5395SOL    HW217085   4.760   0.993   1.790
 5396SOL     OW17086   5.082   4.276   3.054
 5396SOL    HW117087   5.085   4.280   2.955
 5396SOL    HW217088   5.025   4.350   3.090
 5397SOL     OW17089   0.103   3.126   1.989
 5397SOL    HW117090   0.005   3.105   1.994
 5397SOL    HW217091   0.146   3.105   2.077
 5398SOL     OW17092   3.369   1.720   2.575
 5398SOL    HW117093   3.341   1.749   2.483
 5398SOL    HW217094   3.361   1.796   2.638
 5399SOL     OW17095   2.211   5.646   6.869
 5399SOL    HW117096   2.120   5.625   6.904
 5399SOL    HW217097   2.204   5.710   6.793
 5400SOL     OW17098   2.602   3.865   0.758
 5400SOL    HW117099   2.680   3.812   0.791
 5400SOL    HW217100   2.518   3.832   0.800
 5401SOL     OW17101   5.994   3.628   1.668
 5401SOL    HW117102   5.896   3.616   1.651
 5401SOL    HW217103   6.022   3.572   1.746
 5402SOL     OW17104   1.983   4.483   1.684
 5402SOL    HW117105   1.974   4.444   1.776
 5402SOL    HW217106   2.015   4.412   1.621
 5403SOL     OW17107   6.481   2.523   6.105
 5403SOL    HW117108   6.411   2.523   6.034
 5403SOL    HW217109   6.443   2.563   6.189
 5404SOL     OW17110   1.266   1.355   2.995
 5404SOL    HW117111   1.276   1.416   2.917
 5404SOL    HW217112   1.183   1.300   2.984
 5405SOL     OW17113   5.815   6.036   0.008
 5405SOL    HW117114   5.808   6.119   6.976
 5405SOL    HW217115   5.727   6.017   0.051
 5406SOL     OW17116   2.333   0.460   0.030
 5406SOL    HW117117   2.305   0.441   0.123
 5406SOL    HW217118   2.400   0.535   0.029
 5407SOL     OW17119   4.180   3.068   1.198
 5407SOL    HW117120   4.146   2.976   1.213
 5407SOL    HW217121   4.226   3.100   1.281
 5408SOL     OW17122   3.260   1.159   6.695
 5408SOL    HW117123   3.307   1.185   6.611
 5408SOL    HW217124   3.268   1.233   6.761
 5409SOL     OW17125   6.023   0.951   3.535
 5409SOL    HW117126   6.094   0.942   3.605
 5409SOL    HW217127   5.983   0.862   3.516
 5410SOL     OW17128   2.403   2.282   1.575
 5410SOL    HW117129   2.439   2.367   1.537
 5410SOL    HW217130   2.471   2.243   1.638
 5411SOL     OW17131   6.265   5.502   5.422
 5411SOL    HW117132   6.248   5.435   5.495
 5411SOL    HW217133   6.287   5.454   5.337
 5412SOL     OW17134   3.907   0.978   6.701
 5412SOL    HW117135   3.861   0.951   6.785
 5412SOL    HW217136   3.996   0.932   6.695
 5413SOL     OW17137   1.965   1.699   1.207
 5413SOL    HW117138   1.921   1.655   1.285
 5413SOL    HW217139   2.062   1.712   1.226
 5414SOL     OW17140   4.997   2.243   4.918
 5414SOL    HW117141   5.013   2.335   4.883
 5414SOL    HW217142   5.057   2.226   4.996
 5415SOL     OW17143   1.562   5.566   0.747
 5415SOL    HW117144   1.606   5.500   0.806
 5415SOL    HW217145   1.466   5.576   0.774
 5416SOL     OW17146   4.808   5.218   6.100
 5416SOL    HW117147   4.799   5.290   6.032
 5416SOL    HW217148   4.904   5.206   6.124
 5417SOL     OW17149   4.018   6.729   5.289
 5417SOL    HW117150   4.113   6.722   5.259
 5417SOL    HW217151   4.013   6.714   5.387
 5418SOL     OW17152   3.491   6.458   3.707
 5418SOL    HW117153   3.507   6.373   3.757
 5418SOL    HW217154   3.543   6.532   3.749
 5419SOL     OW17155   2.864   5.294   0.526
 5419SOL    HW117156   2.959   5.264   0.512
 5419SOL    HW217157   2.854   5.388   0.493
 5420SOL     OW17158   1.085   1.996   2.338
 5420SOL    HW117159   1.136   1.915   2.309
 5420SOL    HW217160   1.147   2.072   2.352
 5421SOL     OW17161   2.146   3.107   2.626
 5421SOL    HW117162   2.211   3.033   2.643
 5421SOL    HW217163   2.153   3.136   2.531
 5422SOL     OW17164   0.466   5.587   0.125
 5422SOL    HW117165   0.425   5.653   0.063
 5422SOL    HW217166   0.425   5.497   0.109
 5423SOL     OW17167   5.754   2.630   0.037
 5423SOL    HW117168   5.705   2.715   0.016
 5423SOL    HW217169   5.710   2.554   7.013
 5424SOL     OW17170   5.281   2.967   4.142
 5424SOL    HW117171   5.217   2.891   4.143
 5424SOL    HW217172   5.302   2.994   4.236
 5425SOL     OW17173   4.045   1.540   3.887
 5425SOL    HW117174   4.097   1.584   3.813
 5425SOL    HW217175   4.092   1.456   3.914
 5426SOL     OW17176   6.610   5.215   3.939
 5426SOL    HW117177   6.560   5.129   3.931
 5426SOL    HW217178   6.703   5.196   3.973
 5427SOL     OW17179   4.384   4.773   0.155
 5427SOL    HW117180   4.402   4.752   0.059
 5427SOL    HW217181   4.461   4.824   0.193
 5428SOL     OW17182   0.266   6.816   1.883
 5428SOL    HW117183   0.342   6.865   1.925
 5428SOL    HW217184   0.256   6.726   1.927
 5429SOL     OW17185   1.485   1.890   6.687
 5429SOL    HW117186   1.513   1.975   6.730
 5429SOL    HW217187   1.508   1.813   6.747
 5430SOL     OW17188   0.419   3.144   6.082
 5430SOL    HW117189   0.383   3.218   6.138
 5430SOL    HW217190   0.518   3.154   6.073
 5431SOL     OW17191   3.460   5.772   0.515
 5431SOL    HW117192   3.459   5.867   0.481
 5431SOL    HW217193   3.496   5.712   0.443
 5432SOL     OW17194   5.185   6.571   6.917
 5432SOL    HW117195   5.157   6.647   6.858
 5432SOL    HW217196   5.278   6.543   6.894
 5433SOL     OW17197   0.463   1.725   4.013
 5433SOL    HW117198   0.531   1.675   4.067
 5433SOL    HW217199   0.377   1.730   4.064
 5434SOL     OW17200   3.991   0.818   5.340
 5434SOL    HW117201   3.997   0.887   5.268
 5434SOL    HW217202   4.008   0.727   5.302
 5435SOL     OW17203   4.832   0.889   1.911
 5435SOL    HW117204   4.848   0.973   1.962
 5435SOL    HW217205   4.898   0.820   1.939
 5436SOL     OW17206   5.078   3.902   3.916
 5436SOL    HW117207   5.161   3.950   3.885
 5436SOL    HW217208   5.072   3.908   4.015
 5437SOL     OW17209   3.286   4.662   5.925
 5437SOL    HW117210   3.377   4.669   5.884
 5437SOL    HW217211   3.250   4.754   5.941
 5438SOL     OW17212   6.575   3.546   2.513
 5438SOL    HW117213   6.520   3.493   2.579
 5438SOL    HW217214   6.665   3.563   2.552
 5439SOL     OW17215   0.833   2.516   0.925
 5439SOL    HW117216   0.864   2.448   0.992
 5439SOL    HW217217   0.877   2.500   0.837
 5440SOL     OW17218   0.762   1.212   1.995
 5440SOL    HW117219   0.839   1.159   2.030
 5440SOL    HW217220   0.795   1.284   1.934
 5441SOL     OW17221   5.111   2.530   2.723
 5441SOL    HW117222   5.013   2.512   2.717
 5441SOL    HW217223   5.127   2.628   2.718
 5442SOL     OW17224   3.065   5.989   3.238
 5442SOL    HW117225   3.089   5.899   3.275
 5442SOL    HW217226   2.966   5.997   3.230
 5443SOL     OW17227   2.431   0.627   3.850
 5443SOL    HW117228   2.457   0.683   3.929
 5443SOL    HW217229   2.352   0.669   3.805
 5444SOL     OW17230   1.873   0.453   4.349
 5444SOL    HW117231   1.801   0.405   4.297
 5444SOL    HW217232   1.878   0.414   4.441
 5445SOL     OW17233   5.964   3.760   3.713
 5445SOL    HW117234   5.979   3.853   3.679
 5445SOL    HW217235   6.009   3.749   3.801
 5446SOL     OW17236   6.793   5.252   4.953
 5446SOL    HW117237   6.771   5.191   4.878
 5446SOL    HW217238   6.878   5.223   4.996
 5447SOL     OW17239   2.359   1.455   6.504
 5447SOL    HW117240   2.374   1.498   6.416
 5447SOL    HW217241   2.391   1.516   6.577
 5448SOL     OW17242   4.719   2.858   5.219
 5448SOL    HW117243   4.772   2.817   5.293
 5448SOL    HW217244   4.668   2.936   5.255
 5449SOL     OW17245   1.842   2.728   6.660
 5449SOL    HW117246   1.912   2.792   6.689
 5449SOL    HW217247   1.836   2.728   6.560
 5450SOL     OW17248   1.511   0.590   2.018
 5450SOL    HW117249   1.532   0.610   1.923
 5450SOL    HW217250   1.422   0.544   2.024
 5451SOL     OW17251   1.179   6.312   3.295
 5451SOL    HW117252   1.195   6.275   3.387
 5451SOL    HW217253   1.181   6.412   3.298
 5452SOL     OW17254   2.205   4.570   6.925
 5452SOL    HW117255   2.178   4.643   6.861
 5452SOL    HW217256   2.205   4.605   7.018
 5453SOL     OW17257   5.809   4.702   1.704
 5453SOL    HW117258   5.861   4.733   1.783
 5453SOL    HW217259   5.734   4.766   1.686
 5454SOL     OW17260   0.044   3.929   6.629
 5454SOL    HW117261   0.049   3.998   6.702
 5454SOL    HW217262   7.019   3.848   6.664
 5455SOL     OW17263   6.278   3.555   0.510
 5455SOL    HW117264   6.230   3.574   0.424
 5455SOL    HW217265   6.213   3.559   0.586
 5456SOL     OW17266   3.071   0.197   7.023
 5456SOL    HW117267   3.103   0.135   0.071
 5456SOL    HW217268   3.100   0.162   6.934
 5457SOL     OW17269   5.977   2.628   6.904
 5457SOL    HW117270   5.908   2.616   6.975
 5457SOL    HW217271   5.931   2.641   6.815
 5458SOL     OW17272   0.753   4.498   0.122
 5458SOL    HW117273   0.719   4.501   0.216
 5458SOL    HW217274   0.705   4.567   0.067
 5459SOL     OW17275   2.440   4.167   6.650
 5459SOL    HW117276   2.407   4.233   6.718
 5459SOL    HW217277   2.368   4.148   6.583
 5460SOL     OW17278   3.676   0.448   2.838
 5460SOL    HW117279   3.607   0.472   2.906
 5460SOL    HW217280   3.658   0.498   2.753
 5461SOL     OW17281   5.910   6.720   5.228
 5461SOL    HW117282   5.965   6.784   5.282
 5461SOL    HW217283   5.913   6.746   5.132
 5462SOL     OW17284   1.032   0.276   6.659
 5462SOL    HW117285   0.942   0.316   6.670
 5462SOL    HW217286   1.079   0.319   6.583
 5463SOL     OW17287   6.731   2.250   0.209
 5463SOL    HW117288   6.765   2.298   0.128
 5463SOL    HW217289   6.672   2.174   0.180
 5464SOL     OW17290   1.245   1.247   3.968
 5464SOL    HW117291   1.286   1.218   4.054
 5464SOL    HW217292   1.291   1.330   3.935
 5465SOL     OW17293   4.103   5.965   3.260
 5465SOL    HW117294   4.020   5.985   3.209
 5465SOL    HW217295   4.083   5.967   3.358
 5466SOL     OW17296   5.528   4.031   5.301
 5466SOL    HW117297   5.549   3.937   5.328
 5466SOL    HW217298   5.581   4.095   5.356
 5467SOL     OW17299   5.481   2.616   3.185
 5467SOL    HW117300   5.426   2.587   3.106
 5467SOL    HW217301   5.563   2.664   3.152
 5468SOL     OW17302   5.596   2.133   4.757
 5468SOL    HW117303   5.661   2.063   4.788
 5468SOL    HW217304   5.570   2.190   4.834
 5469SOL     OW17305   3.718   5.574   6.423
 5469SOL    HW117306   3.792   5.545   6.484
 5469SOL    HW217307   3.648   5.503   6.420
 5470SOL     OW17308   3.355   6.184   2.554
 5470SOL    HW117309   3.398   6.119   2.490
 5470SOL    HW217310   3.318   6.133   2.632
 5471SOL     OW17311   4.991   0.092   2.169
 5471SOL    HW117312   4.943   0.174   2.138
 5471SOL    HW217313   4.955   0.011   2.122
 5472SOL     OW17314   4.105   3.876   5.945
 5472SOL    HW117315   4.144   3.822   6.020
 5472SOL    HW217316   4.175   3.937   5.908
 5473SOL     OW17317   6.978   3.450   3.244
 5473SOL    HW117318   0.020   3.462   3.169
 5473SOL    HW217319   0.003   3.455   3.331
 5474SOL     OW17320   1.634   4.370   4.603
 5474SOL    HW117321   1.720   4.401   4.643
 5474SOL    HW217322   1.569   4.351   4.675
 5475SOL     OW17323   2.178   2.412   1.654
 5475SOL    HW117324   2.253   2.350   1.631
 5475SOL    HW217325   2.212   2.506   1.658
 5476SOL     OW17326   1.867   4.346   5.489
 5476SOL    HW117327   1.831   4.301   5.570
 5476SOL    HW217328   1.901   4.437   5.513
 5477SOL     OW17329   2.310   4.601   3.567
 5477SOL    HW117330   2.391   4.607   3.624
 5477SOL    HW217331   2.323   4.654   3.484
 5478SOL     OW17332   4.212   5.221   5.176
 5478SOL    HW117333   4.139   5.179   5.122
 5478SOL    HW217334   4.220   5.317   5.152
 5479SOL     OW17335   4.559   1.596   6.181
 5479SOL    HW117336   4.581   1.578   6.085
 5479SOL    HW217337   4.639   1.577   6.237
 5480SOL     OW17338   6.884   3.910   3.397
 5480SOL    HW117339   6.864   3.821   3.355
 5480SOL    HW217340   6.980   3.934   3.381
 5481SOL     OW17341   4.146   1.315   4.023
 5481SOL    HW117342   4.114   1.365   4.104
 5481SOL    HW217343   4.185   1.228   4.052
 5482SOL     OW17344   3.648   4.608   1.557
 5482SOL    HW117345   3.713   4.681   1.535
 5482SOL    HW217346   3.603   4.627   1.644
 5483SOL     OW17347   0.021   2.068   5.780
 5483SOL    HW117348   6.993   2.013   5.714
 5483SOL    HW217349   0.077   2.135   5.731
 5484SOL     OW17350   4.650   0.703   4.736
 5484SOL    HW117351   4.644   0.802   4.731
 5484SOL    HW217352   4.695   0.676   4.821
 5485SOL     OW17353   4.392   0.132   5.519
 5485SOL    HW117354   4.422   0.150   5.426
 5485SOL    HW217355   4.352   0.040   5.525
 5486SOL     OW17356   2.681   5.806   5.752
 5486SOL    HW117357   2.690   5.832   5.848
 5486SOL    HW217358   2.584   5.797   5.728
 5487SOL     OW17359   3.992   3.536   6.609
 5487SOL    HW117360   4.007   3.440   6.632
 5487SOL    HW217361   4.028   3.594   6.682
 5488SOL     OW17362   6.234   0.801   1.262
 5488SOL    HW117363   6.147   0.783   1.308
 5488SOL    HW217364   6.308   0.802   1.330
 5489SOL     OW17365   6.914   3.505   1.429
 5489SOL    HW117366   6.817   3.525   1.419
 5489SOL    HW217367   6.926   3.429   1.493
 5490SOL     OW17368   2.409   0.179   2.191
 5490SOL    HW117369   2.491   0.219   2.150
 5490SOL    HW217370   2.343   0.157   2.119
 5491SOL     OW17371   0.716   2.952   0.152
 5491SOL    HW117372   0.632   2.899   0.164
 5491SOL    HW217373   0.712   3.003   0.067
 5492SOL     OW17374   0.633   2.831   5.843
 5492SOL    HW117375   0.640   2.830   5.943
 5492SOL    HW217376   0.715   2.874   5.805
 5493SOL     OW17377   3.886   3.702   3.128
 5493SOL    HW117378   3.941   3.619   3.131
 5493SOL    HW217379   3.893   3.750   3.216
 5494SOL     OW17380   6.822   4.077   5.282
 5494SOL    HW117381   6.734   4.077   5.330
 5494SOL    HW217382   6.809   4.052   5.187
 5495SOL     OW17383   5.686   0.822   1.051
 5495SOL    HW117384   5.641   0.887   0.990
 5495SOL    HW217385   5.710   0.739   0.999
 5496SOL     OW17386   4.320   0.908   3.484
 5496SOL    HW117387   4.397   0.846   3.496
 5496SOL    HW217388   4.255   0.894   3.559
 5497SOL     OW17389   0.449   1.257   5.470
 5497SOL    HW117390   0.440   1.352   5.501
 5497SOL    HW217391   0.498   1.255   5.383
 5498SOL     OW17392   6.923   4.850   2.196
 5498SOL    HW117393   7.022   4.843   2.208
 5498SOL    HW217394   6.879   4.775   2.245
 5499SOL     OW17395   0.965   0.566   3.799
 5499SOL    HW117396   0.887   0.628   3.808
 5499SOL    HW217397   0.933   0.474   3.777
 5500SOL     OW17398   0.947   0.724   0.010
 5500SOL    HW117399   0.961   0.643   0.067
 5500SOL    HW217400   1.018   0.727   6.963
 5501SOL     OW17401   3.866   1.789   0.862
 5501SOL    HW117402   3.813   1.749   0.936
 5501SOL    HW217403   3.805   1.841   0.801
 5502SOL     OW17404   5.670   3.600   6.410
 5502SOL    HW117405   5.695   3.510   6.373
 5502SOL    HW217406   5.612   3.588   6.491
 5503SOL     OW17407   0.317   4.380   1.162
 5503SOL    HW117408   0.407   4.417   1.139
 5503SOL    HW217409   0.281   4.329   1.084
 5504SOL     OW17410   4.401   1.138   5.074
 5504SOL    HW117411   4.324   1.200   5.089
 5504SOL    HW217412   4.462   1.140   5.153
 5505SOL     OW17413   2.124   4.946   3.311
 5505SOL    HW117414   2.166   5.027   3.353
 5505SOL    HW217415   2.027   4.942   3.335
 5506SOL     OW17416   0.208   3.199   0.196
 5506SOL    HW117417   0.209   3.105   0.231
 5506SOL    HW217418   0.294   3.219   0.149
 5507SOL     OW17419   3.871   0.628   4.971
 5507SOL    HW117420   3.839   0.603   4.880
 5507SOL    HW217421   3.799   0.679   5.019
 5508SOL     OW17422   0.775   0.615   0.311
 5508SOL    HW117423   0.715   0.653   0.240
 5508SOL    HW217424   0.724   0.608   0.397
 5509SOL     OW17425   0.318   5.656   0.431
 5509SOL    HW117426   0.223   5.654   0.400
 5509SOL    HW217427   0.379   5.639   0.354
 5510SOL     OW17428   4.695   5.034   6.592
 5510SOL    HW117429   4.676   4.981   6.674
 5510SOL    HW217430   4.794   5.038   6.578
 5511SOL     OW17431   1.086   1.243   4.974
 5511SOL    HW117432   0.988   1.241   4.995
 5511SOL    HW217433   1.134   1.294   5.045
 5512SOL     OW17434   3.182   1.162   0.673
 5512SOL    HW117435   3.101   1.203   0.715
 5512SOL    HW217436   3.241   1.123   0.744
 5513SOL     OW17437   3.417   5.122   5.505
 5513SOL    HW117438   3.327   5.162   5.522
 5513SOL    HW217439   3.416   5.025   5.530
 5514SOL     OW17440   3.245   0.298   5.202
 5514SOL    HW117441   3.306   0.307   5.123
 5514SOL    HW217442   3.300   0.285   5.285
 5515SOL     OW17443   1.631   5.572   1.859
 5515SOL    HW117444   1.560   5.536   1.920
 5515SOL    HW217445   1.601   5.659   1.821
 5516SOL     OW17446   2.315   2.765   4.959
 5516SOL    HW117447   2.346   2.845   5.009
 5516SOL    HW217448   2.231   2.787   4.909
 5517SOL     OW17449   2.032   3.688   1.916
 5517SOL    HW117450   1.949   3.672   1.969
 5517SOL    HW217451   2.100   3.618   1.938
 5518SOL     OW17452   6.358   4.812   5.589
 5518SOL    HW117453   6.316   4.815   5.679
 5518SOL    HW217454   6.446   4.859   5.591
 5519SOL     OW17455   5.660   3.275   3.344
 5519SOL    HW117456   5.631   3.312   3.256
 5519SOL    HW217457   5.759   3.284   3.352
 5520SOL     OW17458   5.673   6.391   2.183
 5520SOL    HW117459   5.629   6.430   2.101
 5520SOL    HW217460   5.648   6.445   2.263
 5521SOL     OW17461   5.696   5.729   1.308
 5521SOL    HW117462   5.655   5.796   1.246
 5521SOL    HW217463   5.792   5.716   1.284
 5522SOL     OW17464   6.678   5.305   1.640
 5522SOL    HW117465   6.708   5.339   1.551
 5522SOL    HW217466   6.735   5.228   1.667
 5523SOL     OW17467   4.977   1.013   2.448
 5523SOL    HW117468   4.879   1.016   2.470
 5523SOL    HW217469   5.015   1.105   2.451
 5524SOL     OW17470   3.390   6.615   4.788
 5524SOL    HW117471   3.431   6.559   4.716
 5524SOL    HW217472   3.459   6.634   4.858
 5525SOL     OW17473   0.563   2.500   0.366
 5525SOL    HW117474   0.624   2.458   0.433
 5525SOL    HW217475   0.535   2.432   0.299
 5526SOL     OW17476   4.535   4.506   2.959
 5526SOL    HW117477   4.516   4.526   2.863
 5526SOL    HW217478   4.604   4.434   2.965
 5527SOL     OW17479   4.850   3.745   3.333
 5527SOL    HW117480   4.880   3.777   3.243
 5527SOL    HW217481   4.754   3.768   3.346
 5528SOL     OW17482   1.324   1.521   1.578
 5528SOL    HW117483   1.360   1.612   1.560
 5528SOL    HW217484   1.363   1.456   1.512
 5529SOL     OW17485   2.904   6.976   3.701
 5529SOL    HW117486   2.989   6.960   3.651
 5529SOL    HW217487   2.836   6.908   3.672
 5530SOL     OW17488   6.434   2.334   1.694
 5530SOL    HW117489   6.442   2.241   1.730
 5530SOL    HW217490   6.461   2.399   1.765
 5531SOL     OW17491   3.812   3.673   1.695
 5531SOL    HW117492   3.792   3.594   1.754
 5531SOL    HW217493   3.816   3.756   1.751
 5532SOL     OW17494   2.100   2.894   0.835
 5532SOL    HW117495   2.153   2.879   0.752
 5532SOL    HW217496   2.005   2.866   0.820
 5533SOL     OW17497   4.896   1.678   3.844
 5533SOL    HW117498   4.816   1.620   3.857
 5533SOL    HW217499   4.868   1.773   3.840
 5534SOL     OW17500   1.045   1.319   6.164
 5534SOL    HW117501   1.139   1.328   6.200
 5534SOL    HW217502   1.039   1.238   6.107
 5535SOL     OW17503   0.871   1.291   2.815
 5535SOL    HW117504   0.882   1.387   2.788
 5535SOL    HW217505   0.884   1.232   2.735
 5536SOL     OW17506   4.036   0.362   4.339
 5536SOL    HW117507   4.128   0.329   4.317
 5536SOL    HW217508   3.973   0.338   4.266
 5537SOL     OW17509   3.688   1.804   2.817
 5537SOL    HW117510   3.678   1.710   2.783
 5537SOL    HW217511   3.599   1.838   2.848
 5538SOL     OW17512   4.260   6.037   4.546
 5538SOL    HW117513   4.240   5.940   4.560
 5538SOL    HW217514   4.192   6.092   4.595
 5539SOL     OW17515   1.784   3.467   1.291
 5539SOL    HW117516   1.694   3.496   1.324
 5539SOL    HW217517   1.849   3.542   1.304
 5540SOL     OW17518   4.520   4.842   3.691
 5540SOL    HW117519   4.467   4.758   3.690
 5540SOL    HW217520   4.498   4.897   3.610
 5541SOL     OW17521   4.352   1.331   5.985
 5541SOL    HW117522   4.354   1.423   6.022
 5541SOL    HW217523   4.345   1.265   6.060
 5542SOL     OW17524   4.019   3.353   6.135
 5542SOL    HW117525   4.045   3.404   6.053
 5542SOL    HW217526   3.996   3.416   6.208
 5543SOL     OW17527   5.497   3.851   6.861
 5543SOL    HW117528   5.509   3.875   6.765
 5543SOL    HW217529   5.423   3.784   6.870
 5544SOL     OW17530   5.580   0.808   6.255
 5544SOL    HW117531   5.647   0.768   6.318
 5544SOL    HW217532   5.491   0.765   6.269
 5545SOL     OW17533   4.297   1.940   3.014
 5545SOL    HW117534   4.348   2.025   3.004
 5545SOL    HW217535   4.314   1.901   3.105
 5546SOL     OW17536   1.334   5.577   5.431
 5546SOL    HW117537   1.346   5.631   5.514
 5546SOL    HW217538   1.401   5.606   5.362
 5547SOL     OW17539   3.132   5.825   5.028
 5547SOL    HW117540   3.154   5.857   4.936
 5547SOL    HW217541   3.058   5.880   5.066
 5548SOL     OW17542   6.083   3.486   5.566
 5548SOL    HW117543   6.031   3.567   5.594
 5548SOL    HW217544   6.119   3.440   5.648
 5549SOL     OW17545   3.253   4.947   6.748
 5549SOL    HW117546   3.333   4.989   6.791
 5549SOL    HW217547   3.281   4.865   6.698
 5550SOL     OW17548   2.581   5.824   1.863
 5550SOL    HW117549   2.658   5.852   1.806
 5550SOL    HW217550   2.561   5.727   1.846
 5551SOL     OW17551   1.582   0.514   3.360
 5551SOL    HW117552   1.570   0.613   3.366
 5551SOL    HW217553   1.506   0.475   3.309
 5552SOL     OW17554   0.333   1.050   0.982
 5552SOL    HW117555   0.335   0.971   1.044
 5552SOL    HW217556   0.412   1.108   0.999
 5553SOL     OW17557   4.382   6.727   6.933
 5553SOL    HW117558   4.443   6.757   6.861
 5553SOL    HW217559   4.432   6.670   6.998
 5554SOL     OW17560   3.069   2.234   5.342
 5554SOL    HW117561   2.978   2.250   5.302
 5554SOL    HW217562   3.138   2.279   5.286
 5555SOL     OW17563   0.218   5.520   3.212
 5555SOL    HW117564   0.176   5.430   3.210
 5555SOL    HW217565   0.226   5.552   3.306
 5556SOL     OW17566   1.243   2.111   4.944
 5556SOL    HW117567   1.225   2.209   4.942
 5556SOL    HW217568   1.342   2.096   4.941
 5557SOL     OW17569   2.215   6.143   3.886
 5557SOL    HW117570   2.205   6.242   3.884
 5557SOL    HW217571   2.211   6.106   3.793
 5558SOL     OW17572   5.008   2.923   5.166
 5558SOL    HW117573   4.947   2.857   5.122
 5558SOL    HW217574   5.102   2.888   5.164
 5559SOL     OW17575   2.569   6.768   0.774
 5559SOL    HW117576   2.469   6.768   0.776
 5559SOL    HW217577   2.602   6.675   0.790
 5560SOL     OW17578   0.439   0.768   2.860
 5560SOL    HW117579   0.535   0.795   2.851
 5560SOL    HW217580   0.381   0.849   2.852
 5561SOL     OW17581   1.451   3.422   3.683
 5561SOL    HW117582   1.453   3.481   3.763
 5561SOL    HW217583   1.399   3.467   3.610
 5562SOL     OW17584   1.996   2.714   6.276
 5562SOL    HW117585   1.904   2.714   6.315
 5562SOL    HW217586   2.014   2.625   6.233
 5563SOL     OW17587   4.488   6.443   2.413
 5563SOL    HW117588   4.580   6.402   2.412
 5563SOL    HW217589   4.436   6.408   2.335
 5564SOL     OW17590   4.989   4.178   1.793
 5564SOL    HW117591   4.989   4.104   1.726
 5564SOL    HW217592   4.895   4.201   1.819
 5565SOL     OW17593   4.033   2.353   5.672
 5565SOL    HW117594   4.033   2.451   5.653
 5565SOL    HW217595   3.940   2.317   5.662
 5566SOL     OW17596   2.021   5.310   0.440
 5566SOL    HW117597   2.010   5.223   0.488
 5566SOL    HW217598   1.931   5.346   0.415
 5567SOL     OW17599   1.985   5.490   1.035
 5567SOL    HW117600   2.024   5.454   1.120
 5567SOL    HW217601   1.886   5.474   1.035
 5568SOL     OW17602   4.373   1.286   1.298
 5568SOL    HW117603   4.361   1.222   1.221
 5568SOL    HW217604   4.369   1.235   1.384
 5569SOL     OW17605   4.357   1.792   1.313
 5569SOL    HW117606   4.355   1.853   1.233
 5569SOL    HW217607   4.264   1.767   1.338
 5570SOL     OW17608   6.451   4.577   5.096
 5570SOL    HW117609   6.378   4.642   5.074
 5570SOL    HW217610   6.466   4.517   5.018
 5571SOL     OW17611   6.946   5.801   0.553
 5571SOL    HW117612   6.880   5.728   0.572
 5571SOL    HW217613   6.955   5.860   0.633
 5572SOL     OW17614   4.063   2.471   6.052
 5572SOL    HW117615   3.994   2.439   6.116
 5572SOL    HW217616   4.020   2.500   5.967
 5573SOL     OW17617   1.337   3.819   0.569
 5573SOL    HW117618   1.250   3.816   0.618
 5573SOL    HW217619   1.322   3.853   0.476
 5574SOL     OW17620   0.216   6.544   4.688
 5574SOL    HW117621   0.267   6.617   4.733
 5574SOL    HW217622   0.153   6.584   4.621
 5575SOL     OW17623   1.261   1.220   0.995
 5575SOL    HW117624   1.335   1.239   1.059
 5575SOL    HW217625   1.239   1.123   0.997
 5576SOL     OW17626   5.478   6.069   0.536
 5576SOL    HW117627   5.467   5.971   0.549
 5576SOL    HW217628   5.571   6.096   0.559
 5577SOL     OW17629   2.298   3.501   5.331
 5577SOL    HW117630   2.263   3.595   5.332
 5577SOL    HW217631   2.250   3.448   5.262
 5578SOL     OW17632   4.357   2.432   0.300
 5578SOL    HW117633   4.411   2.412   0.218
 5578SOL    HW217634   4.382   2.523   0.334
 5579SOL     OW17635   5.250   3.726   6.855
 5579SOL    HW117636   5.202   3.640   6.874
 5579SOL    HW217637   5.216   3.797   6.916
 5580SOL     OW17638   5.264   1.069   0.651
 5580SOL    HW117639   5.357   1.093   0.680
 5580SOL    HW217640   5.199   1.099   0.720
 5581SOL     OW17641   1.805   0.579   6.377
 5581SOL    HW117642   1.888   0.622   6.412
 5581SOL    HW217643   1.765   0.521   6.448
 5582SOL     OW17644   3.523   3.421   3.968
 5582SOL    HW117645   3.486   3.392   3.880
 5582SOL    HW217646   3.564   3.512   3.959
 5583SOL     OW17647   3.411   6.852   1.994
 5583SOL    HW117648   3.339   6.816   1.935
 5583SOL    HW217649   3.383   6.942   2.028
 5584SOL     OW17650   6.465   4.155   2.910
 5584SOL    HW117651   6.543   4.217   2.903
 5584SOL    HW217652   6.488   4.079   2.971
 5585SOL     OW17653   6.751   0.645   3.890
 5585SOL    HW117654   6.795   0.582   3.825
 5585SOL    HW217655   6.792   0.735   3.882
 5586SOL     OW17656   2.374   1.458   5.886
 5586SOL    HW117657   2.399   1.392   5.815
 5586SOL    HW217658   2.336   1.540   5.844
 5587SOL     OW17659   4.168   0.343   3.625
 5587SOL    HW117660   4.267   0.342   3.634
 5587SOL    HW217661   4.126   0.343   3.716
 5588SOL     OW17662   2.532   0.233   5.337
 5588SOL    HW117663   2.519   0.137   5.360
 5588SOL    HW217664   2.603   0.242   5.267
 5589SOL     OW17665   4.907   2.840   6.249
 5589SOL    HW117666   4.886   2.774   6.177
 5589SOL    HW217667   4.977   2.802   6.309
 5590SOL     OW17668   0.020   5.929   4.572
 5590SOL    HW117669   0.049   5.946   4.478
 5590SOL    HW217670   6.944   5.940   4.579
 5591SOL     OW17671   5.645   0.568   6.924
 5591SOL    HW117672   5.620   0.473   6.906
 5591SOL    HW217673   5.727   0.571   6.980
 5592SOL     OW17674   1.667   3.905   2.497
 5592SOL    HW117675   1.713   3.830   2.544
 5592SOL    HW217676   1.675   3.988   2.551
 5593SOL     OW17677   1.670   2.735   5.915
 5593SOL    HW117678   1.615   2.664   5.959
 5593SOL    HW217679   1.668   2.722   5.816
 5594SOL     OW17680   1.991   6.981   0.433
 5594SOL    HW117681   2.078   0.005   0.419
 5594SOL    HW217682   1.924   0.020   0.472
 5595SOL     OW17683   6.756   1.570   5.818
 5595SOL    HW117684   6.803   1.644   5.867
 5595SOL    HW217685   6.822   1.517   5.765
 5596SOL     OW17686   5.106   0.781   2.353
 5596SOL    HW117687   5.025   0.839   2.360
 5596SOL    HW217688   5.154   0.778   2.441
 5597SOL     OW17689   6.308   1.468   6.340
 5597SOL    HW117690   6.213   1.479   6.310
 5597SOL    HW217691   6.319   1.379   6.385
 5598SOL     OW17692   6.210   1.703   3.924
 5598SOL    HW117693   6.240   1.621   3.874
 5598SOL    HW217694   6.199   1.680   4.021
 5599SOL     OW17695   4.797   4.151   2.146
 5599SOL    HW117696   4.849   4.231   2.176
 5599SOL    HW217697   4.714   4.181   2.100
 5600SOL     OW17698   2.440   1.318   2.689
 5600SOL    HW117699   2.374   1.259   2.736
 5600SOL    HW217700   2.515   1.262   2.654
 5601SOL     OW17701   5.380   3.267   5.727
 5601SOL    HW117702   5.285   3.287   5.704
 5601SOL    HW217703   5.437   3.278   5.645
 5602SOL     OW17704   0.294   2.322   3.320
 5602SOL    HW117705   0.339   2.318   3.409
 5602SOL    HW217706   0.197   2.342   3.332
 5603SOL     OW17707   4.058   2.243   4.768
 5603SOL    HW117708   4.013   2.323   4.807
 5603SOL    HW217709   4.152   2.266   4.743
 5604SOL     OW17710   0.858   0.303   3.753
 5604SOL    HW117711   0.895   0.262   3.836
 5604SOL    HW217712   0.771   0.259   3.730
 5605SOL     OW17713   2.480   5.996   4.485
 5605SOL    HW117714   2.504   6.007   4.582
 5605SOL    HW217715   2.380   5.991   4.476
 5606SOL     OW17716   4.561   2.223   0.476
 5606SOL    HW117717   4.628   2.238   0.549
 5606SOL    HW217718   4.565   2.299   0.411
 5607SOL     OW17719   5.894   3.140   1.886
 5607SOL    HW117720   5.962   3.209   1.862
 5607SOL    HW217721   5.905   3.060   1.827
 5608SOL     OW17722   4.720   1.272   3.699
 5608SOL    HW117723   4.774   1.261   3.783
 5608SOL    HW217724   4.631   1.230   3.711
 5609SOL     OW17725   6.264   6.683   1.037
 5609SOL    HW117726   6.231   6.763   1.087
 5609SOL    HW217727   6.202   6.606   1.053
 5610SOL     OW17728   5.180   4.626   0.519
 5610SOL    HW117729   5.227   4.540   0.500
 5610SOL    HW217730   5.101   4.608   0.579
 5611SOL     OW17731   0.155   5.270   1.843
 5611SOL    HW117732   0.159   5.172   1.858
 5611SOL    HW217733   0.242   5.312   1.869
 5612SOL     OW17734   2.877   0.942   0.908
 5612SOL    HW117735   2.815   0.878   0.953
 5612SOL    HW217736   2.918   0.900   0.828
 5613SOL     OW17737   6.604   5.397   5.138
 5613SOL    HW117738   6.652   5.457   5.203
 5613SOL    HW217739   6.668   5.366   5.067
 5614SOL     OW17740   5.880   2.185   4.517
 5614SOL    HW117741   5.818   2.255   4.551
 5614SOL    HW217742   5.872   2.178   4.418
 5615SOL     OW17743   6.781   3.166   2.475
 5615SOL    HW117744   6.787   3.101   2.551
 5615SOL    HW217745   6.861   3.224   2.474
 5616SOL     OW17746   1.773   3.513   3.076
 5616SOL    HW117747   1.864   3.551   3.061
 5616SOL    HW217748   1.704   3.584   3.057
 5617SOL     OW17749   2.145   5.139   6.476
 5617SOL    HW117750   2.072   5.092   6.426
 5617SOL    HW217751   2.211   5.175   6.411
 5618SOL     OW17752   6.824   6.062   4.053
 5618SOL    HW117753   6.801   6.033   4.146
 5618SOL    HW217754   6.840   5.981   3.996
 5619SOL     OW17755   3.509   3.180   4.685
 5619SOL    HW117756   3.539   3.110   4.620
 5619SOL    HW217757   3.424   3.221   4.652
 5620SOL     OW17758   4.658   4.534   5.747
 5620SOL    HW117759   4.618   4.447   5.719
 5620SOL    HW217760   4.751   4.520   5.781
 5621SOL     OW17761   1.895   2.484   4.982
 5621SOL    HW117762   1.860   2.577   4.968
 5621SOL    HW217763   1.994   2.486   4.990
 5622SOL     OW17764   4.915   5.617   4.873
 5622SOL    HW117765   4.952   5.632   4.965
 5622SOL    HW217766   4.982   5.567   4.818
 5623SOL     OW17767   4.952   6.420   3.977
 5623SOL    HW117768   4.917   6.378   4.061
 5623SOL    HW217769   4.875   6.442   3.917
 5624SOL     OW17770   0.006   5.232   4.354
 5624SOL    HW117771   6.972   5.153   4.331
 5624SOL    HW217772   6.972   5.304   4.393
 5625SOL     OW17773   1.085   5.456   4.644
 5625SOL    HW117774   1.160   5.500   4.595
 5625SOL    HW217775   1.121   5.405   4.722
 5626SOL     OW17776   2.171   4.057   4.491
 5626SOL    HW117777   2.134   3.979   4.540
 5626SOL    HW217778   2.203   4.126   4.556
 5627SOL     OW17779   0.953   5.522   0.081
 5627SOL    HW117780   0.926   5.500   0.175
 5627SOL    HW217781   0.889   5.589   0.043
 5628SOL     OW17782   2.691   2.987   0.909
 5628SOL    HW117783   2.660   3.004   1.002
 5628SOL    HW217784   2.691   2.888   0.891
 5629SOL     OW17785   5.194   4.205   1.371
 5629SOL    HW117786   5.097   4.185   1.354
 5629SOL    HW217787   5.201   4.266   1.450
 5630SOL     OW17788   2.000   3.763   6.628
 5630SOL    HW117789   2.030   3.796   6.717
 5630SOL    HW217790   1.950   3.836   6.581
 5631SOL     OW17791   4.308   0.614   2.491
 5631SOL    HW117792   4.313   0.589   2.394
 5631SOL    HW217793   4.390   0.580   2.538
 5632SOL     OW17794   5.997   6.993   5.586
 5632SOL    HW117795   5.998   0.064   5.620
 5632SOL    HW217796   5.995   6.993   5.487
 5633SOL     OW17797   0.106   4.546   5.765
 5633SOL    HW117798   0.134   4.604   5.688
 5633SOL    HW217799   0.040   4.595   5.822
 5634SOL     OW17800   2.965   6.099   6.714
 5634SOL    HW117801   3.036   6.167   6.698
 5634SOL    HW217802   3.006   6.009   6.729
 5635SOL     OW17803   2.559   6.900   6.664
 5635SOL    HW117804   2.610   6.950   6.594
 5635SOL    HW217805   2.490   6.842   6.620
 5636SOL     OW17806   6.637   1.138   5.712
 5636SOL    HW117807   6.663   1.158   5.617
 5636SOL    HW217808   6.572   1.207   5.744
 5637SOL     OW17809   5.374   6.191   4.638
 5637SOL    HW117810   5.275   6.198   4.646
 5637SOL    HW217811   5.410   6.276   4.600
 5638SOL     OW17812   4.787   5.175   0.921
 5638SOL    HW117813   4.791   5.150   1.018
 5638SOL    HW217814   4.874   5.215   0.893
 5639SOL     OW17815   0.922   6.990   1.489
 5639SOL    HW117816   0.917   6.892   1.467
 5639SOL    HW217817   0.866   7.008   1.570
 5640SOL     OW17818   3.113   6.020   2.977
 5640SOL    HW117819   3.043   6.087   2.950
 5640SOL    HW217820   3.115   6.014   3.077
 5641SOL     OW17821   0.956   4.833   4.230
 5641SOL    HW117822   0.943   4.779   4.147
 5641SOL    HW217823   1.016   4.783   4.293
 5642SOL     OW17824   1.411   4.587   0.210
 5642SOL    HW117825   1.388   4.668   0.265
 5642SOL    HW217826   1.375   4.599   0.117
 5643SOL     OW17827   4.318   2.304   4.697
 5643SOL    HW117828   4.332   2.253   4.782
 5643SOL    HW217829   4.406   2.336   4.663
 5644SOL     OW17830   5.110   1.385   5.114
 5644SOL    HW117831   5.144   1.447   5.044
 5644SOL    HW217832   5.182   1.319   5.138
 5645SOL     OW17833   5.355   6.028   2.853
 5645SOL    HW117834   5.348   5.935   2.888
 5645SOL    HW217835   5.336   6.093   2.927
 5646SOL     OW17836   0.223   6.149   3.553
 5646SOL    HW117837   0.286   6.214   3.596
 5646SOL    HW217838   0.256   6.056   3.567
 5647SOL     OW17839   5.881   6.505   0.068
 5647SOL    HW117840   5.814   6.459   0.009
 5647SOL    HW217841   5.896   6.449   0.149
 5648SOL     OW17842   1.816   1.703   3.663
 5648SOL    HW117843   1.758   1.708   3.581
 5648SOL    HW217844   1.876   1.624   3.657
 5649SOL     OW17845   1.013   0.610   4.409
 5649SOL    HW117846   0.996   0.683   4.343
 5649SOL    HW217847   0.933   0.551   4.415
 5650SOL     OW17848   6.785   4.800   6.803
 5650SOL    HW117849   6.722   4.792   6.879
 5650SOL    HW217850   6.869   4.750   6.824
 5651SOL     OW17851   0.132   1.143   1.840
 5651SOL    HW117852   0.175   1.056   1.863
 5651SOL    HW217853   0.183   1.218   1.883
 5652SOL     OW17854   5.154   5.425   1.507
 5652SOL    HW117855   5.120   5.512   1.471
 5652SOL    HW217856   5.091   5.351   1.483
 5653SOL     OW17857   0.154   5.314   5.541
 5653SOL    HW117858   0.081   5.300   5.608
 5653SOL    HW217859   0.208   5.230   5.533
 5654SOL     OW17860   0.136   0.508   5.303
 5654SOL    HW117861   0.235   0.513   5.314
 5654SOL    HW217862   0.095   0.595   5.331
 5655SOL     OW17863   1.092   3.581   3.734
 5655SOL    HW117864   1.179   3.630   3.741
 5655SOL    HW217865   1.074   3.531   3.819
 5656SOL     OW17866   3.221   3.374   0.750
 5656SOL    HW117867   3.185   3.299   0.806
 5656SOL    HW217868   3.313   3.396   0.781
 5657SOL     OW17869   4.371   0.186   1.842
 5657SOL    HW117870   4.433   0.253   1.884
 5657SOL    HW217871   4.304   0.155   1.910
 5658SOL     OW17872   3.588   6.935   5.372
 5658SOL    HW117873   3.683   6.930   5.339
 5658SOL    HW217874   3.538   6.854   5.343
 5659SOL     OW17875   2.895   3.560   3.051
 5659SOL    HW117876   2.934   3.477   3.091
 5659SOL    HW217877   2.929   3.572   2.958
 5660SOL     OW17878   5.205   0.330   6.939
 5660SOL    HW117879   5.235   0.354   6.847
 5660SOL    HW217880   5.163   0.409   6.983
 5661SOL     OW17881   0.119   5.948   5.264
 5661SOL    HW117882   0.046   5.982   5.323
 5661SOL    HW217883   0.207   5.956   5.311
 5662SOL     OW17884   2.600   4.736   3.676
 5662SOL    HW117885   2.576   4.796   3.601
 5662SOL    HW217886   2.694   4.754   3.705
 5663SOL     OW17887   0.907   3.978   0.665
 5663SOL    HW117888   0.912   3.973   0.565
 5663SOL    HW217889   0.990   3.940   0.705
 5664SOL     OW17890   0.233   4.622   2.881
 5664SOL    HW117891   0.172   4.698   2.859
 5664SOL    HW217892   0.203   4.540   2.833
 5665SOL     OW17893   2.247   2.525   6.486
 5665SOL    HW117894   2.207   2.496   6.399
 5665SOL    HW217895   2.219   2.619   6.506
 5666SOL     OW17896   4.550   5.547   0.656
 5666SOL    HW117897   4.593   5.504   0.576
 5666SOL    HW217898   4.455   5.569   0.635
 5667SOL     OW17899   6.893   5.272   3.069
 5667SOL    HW117900   6.894   5.189   3.124
 5667SOL    HW217901   6.800   5.292   3.039
 5668SOL     OW17902   4.710   2.083   6.065
 5668SOL    HW117903   4.676   2.164   6.112
 5668SOL    HW217904   4.690   2.002   6.119
 5669SOL     OW17905   0.003   5.095   5.977
 5669SOL    HW117906   6.996   5.184   6.011
 5669SOL    HW217907   0.003   5.095   5.877
 5670SOL     OW17908   0.313   3.639   3.869
 5670SOL    HW117909   0.395   3.619   3.815
 5670SOL    HW217910   0.245   3.683   3.811
 5671SOL     OW17911   2.050   6.705   6.511
 5671SOL    HW117912   2.059   6.738   6.417
 5671SOL    HW217913   1.955   6.715   6.541
 5672SOL     OW17914   5.169   3.696   5.853
 5672SOL    HW117915   5.084   3.736   5.820
 5672SOL    HW217916   5.171   3.699   5.953
 5673SOL     OW17917   0.535   0.379   2.327
 5673SOL    HW117918   0.532   0.472   2.290
 5673SOL    HW217919   0.464   0.369   2.397
 5674SOL     OW17920   0.153   3.618   1.467
 5674SOL    HW117921   0.185   3.566   1.547
 5674SOL    HW217922   0.064   3.583   1.438
 5675SOL     OW17923   4.452   2.516   5.569
 5675SOL    HW117924   4.475   2.580   5.495
 5675SOL    HW217925   4.383   2.451   5.538
 5676SOL     OW17926   1.613   0.927   1.702
 5676SOL    HW117927   1.520   0.963   1.707
 5676SOL    HW217928   1.613   0.831   1.730
 5677SOL     OW17929   6.499   1.984   3.712
 5677SOL    HW117930   6.554   1.906   3.683
 5677SOL    HW217931   6.472   1.972   3.807
 5678SOL     OW17932   3.890   6.434   3.094
 5678SOL    HW117933   3.844   6.441   3.005
 5678SOL    HW217934   3.920   6.525   3.123
 5679SOL     OW17935   1.651   6.565   4.905
 5679SOL    HW117936   1.735   6.513   4.890
 5679SOL    HW217937   1.671   6.663   4.895
 5680SOL     OW17938   1.279   5.205   6.617
 5680SOL    HW117939   1.271   5.109   6.644
 5680SOL    HW217940   1.271   5.212   6.517
 5681SOL     OW17941   1.186   2.278   6.578
 5681SOL    HW117942   1.272   2.313   6.542
 5681SOL    HW217943   1.156   2.335   6.654
 5682SOL     OW17944   1.597   2.610   5.649
 5682SOL    HW117945   1.541   2.541   5.603
 5682SOL    HW217946   1.640   2.669   5.581
 5683SOL     OW17947   3.650   2.695   6.494
 5683SOL    HW117948   3.682   2.786   6.469
 5683SOL    HW217949   3.711   2.626   6.455
 5684SOL     OW17950   3.701   3.735   4.502
 5684SOL    HW117951   3.697   3.700   4.596
 5684SOL    HW217952   3.623   3.701   4.450
 5685SOL     OW17953   0.632   5.271   2.742
 5685SOL    HW117954   0.717   5.272   2.690
 5685SOL    HW217955   0.559   5.231   2.686
 5686SOL     OW17956   3.894   0.296   0.690
 5686SOL    HW117957   3.803   0.333   0.707
 5686SOL    HW217958   3.951   0.309   0.771
 5687SOL     OW17959   5.986   4.432   4.829
 5687SOL    HW117960   6.067   4.415   4.773
 5687SOL    HW217961   5.915   4.475   4.773
 5688SOL     OW17962   5.796   2.630   1.652
 5688SOL    HW117963   5.755   2.606   1.741
 5688SOL    HW217964   5.850   2.554   1.618
 5689SOL     OW17965   4.749   1.277   0.547
 5689SOL    HW117966   4.814   1.304   0.619
 5689SOL    HW217967   4.660   1.257   0.589
 5690SOL     OW17968   4.072   6.065   0.261
 5690SOL    HW117969   3.998   6.038   0.198
 5690SOL    HW217970   4.133   5.987   0.276
 5691SOL     OW17971   3.170   6.538   2.278
 5691SOL    HW117972   3.152   6.546   2.180
 5691SOL    HW217973   3.264   6.567   2.297
 5692SOL     OW17974   6.610   1.761   5.663
 5692SOL    HW117975   6.627   1.685   5.725
 5692SOL    HW217976   6.515   1.759   5.633
 5693SOL     OW17977   5.090   2.897   2.258
 5693SOL    HW117978   5.174   2.950   2.269
 5693SOL    HW217979   5.018   2.937   2.315
 5694SOL     OW17980   0.438   1.148   3.346
 5694SOL    HW117981   0.491   1.144   3.431
 5694SOL    HW217982   0.351   1.195   3.364
 5695SOL     OW17983   1.275   2.310   3.992
 5695SOL    HW117984   1.357   2.365   4.003
 5695SOL    HW217985   1.295   2.215   4.016
 5696SOL     OW17986   2.789   1.759   4.948
 5696SOL    HW117987   2.859   1.688   4.945
 5696SOL    HW217988   2.830   1.846   4.973
 5697SOL     OW17989   0.063   2.189   0.682
 5697SOL    HW117990   0.040   2.150   0.771
 5697SOL    HW217991   0.089   2.285   0.694
 5698SOL     OW17992   0.664   2.539   2.269
 5698SOL    HW117993   0.667   2.530   2.368
 5698SOL    HW217994   0.638   2.633   2.245
 5699SOL     OW17995   6.265   1.084   4.103
 5699SOL    HW117996   6.200   1.080   4.028
 5699SOL    HW217997   6.246   1.011   4.168
 5700SOL     OW17998   1.106   6.089   4.801
 5700SOL    HW117999   1.042   6.165   4.801
 5700SOL    HW218000   1.196   6.121   4.830
 5701SOL     OW18001   0.581   6.203   2.537
 5701SOL    HW118002   0.489   6.166   2.543
 5701SOL    HW218003   0.588   6.265   2.458
 5702SOL     OW18004   1.593   6.638   5.736
 5702SOL    HW118005   1.671   6.575   5.742
 5702SOL    HW218006   1.602   6.709   5.806
 5703SOL     OW18007   4.730   5.177   6.966
 5703SOL    HW118008   4.793   5.144   0.013
 5703SOL    HW218009   4.781   5.229   6.898
 5704SOL     OW18010   4.503   5.312   3.444
 5704SOL    HW118011   4.582   5.316   3.383
 5704SOL    HW218012   4.419   5.313   3.389
 5705SOL     OW18013   5.813   0.590   1.009
 5705SOL    HW118014   5.767   0.504   1.028
 5705SOL    HW218015   5.908   0.573   0.982
 5706SOL     OW18016   1.790   1.853   0.387
 5706SOL    HW118017   1.735   1.924   0.344
 5706SOL    HW218018   1.784   1.861   0.487
 5707SOL     OW18019   1.673   7.022   6.606
 5707SOL    HW118020   1.679   0.064   6.681
 5707SOL    HW218021   1.579   7.018   6.572
 5708SOL     OW18022   4.920   6.737   2.283
 5708SOL    HW118023   4.928   6.749   2.382
 5708SOL    HW218024   4.843   6.791   2.249
 5709SOL     OW18025   0.587   6.454   3.479
 5709SOL    HW118026   0.680   6.481   3.457
 5709SOL    HW218027   0.533   6.447   3.395
 5710SOL     OW18028   3.058   3.535   5.952
 5710SOL    HW118029   3.022   3.608   5.894
 5710SOL    HW218030   2.997   3.522   6.031
 5711SOL     OW18031   4.962   1.183   3.876
 5711SOL    HW118032   4.998   1.189   3.969
 5711SOL    HW218033   4.979   1.269   3.828
 5712SOL     OW18034   6.621   0.167   5.292
 5712SOL    HW118035   6.605   0.265   5.275
 5712SOL    HW218036   6.558   0.114   5.235
 5713SOL     OW18037   0.468   2.362   2.154
 5713SOL    HW118038   0.409   2.400   2.083
 5713SOL    HW218039   0.513   2.436   2.204
 5714SOL     OW18040   1.511   6.986   6.901
 5714SOL    HW118041   1.466   0.000   6.820
 5714SOL    HW218042   1.531   6.889   6.886
 5715SOL     OW18043   1.242   6.333   2.581
 5715SOL    HW118044   1.275   6.282   2.660
 5715SOL    HW218045   1.147   6.307   2.563
 5716SOL     OW18046   1.661   3.954   5.712
 5716SOL    HW118047   1.673   4.035   5.655
 5716SOL    HW218048   1.749   3.908   5.723
 5717SOL     OW18049   1.287   4.900   1.219
 5717SOL    HW118050   1.303   4.933   1.126
 5717SOL    HW218051   1.328   4.963   1.285
 5718SOL     OW18052   1.892   4.736   6.621
 5718SOL    HW118053   1.963   4.804   6.640
 5718SOL    HW218054   1.802   4.779   6.630
 5719SOL     OW18055   3.337   0.937   6.127
 5719SOL    HW118056   3.408   0.883   6.081
 5719SOL    HW218057   3.293   0.882   6.197
 5720SOL     OW18058   0.322   4.982   4.993
 5720SOL    HW118059   0.301   5.076   4.966
 5720SOL    HW218060   0.411   4.956   4.958
 5721SOL     OW18061   1.026   3.062   0.246
 5721SOL    HW118062   0.942   3.114   0.266
 5721SOL    HW218063   1.097   3.125   0.214
 5722SOL     OW18064   5.334   0.918   4.762
 5722SOL    HW118065   5.421   0.940   4.808
 5722SOL    HW218066   5.353   0.866   4.679
 5723SOL     OW18067   3.341   5.006   0.483
 5723SOL    HW118068   3.412   4.976   0.420
 5723SOL    HW218069   3.354   4.962   0.572
 5724SOL     OW18070   4.363   2.207   6.638
 5724SOL    HW118071   4.423   2.159   6.574
 5724SOL    HW218072   4.408   2.290   6.671
 5725SOL     OW18073   5.239   5.384   4.003
 5725SOL    HW118074   5.320   5.359   3.951
 5725SOL    HW218075   5.205   5.472   3.970
 5726SOL     OW18076   6.251   3.490   5.130
 5726SOL    HW118077   6.254   3.530   5.221
 5726SOL    HW218078   6.157   3.492   5.096
 5727SOL     OW18079   6.091   2.642   2.848
 5727SOL    HW118080   6.172   2.604   2.893
 5727SOL    HW218081   6.088   2.741   2.862
 5728SOL     OW18082   6.150   1.112   5.791
 5728SOL    HW118083   6.138   1.169   5.710
 5728SOL    HW218084   6.246   1.112   5.818
 5729SOL     OW18085   0.248   1.985   0.285
 5729SOL    HW118086   0.332   1.944   0.249
 5729SOL    HW218087   0.209   2.047   0.216
 5730SOL     OW18088   4.103   5.900   5.008
 5730SOL    HW118089   4.127   5.856   5.095
 5730SOL    HW218090   4.075   5.994   5.025
 5731SOL     OW18091   1.726   6.545   4.347
 5731SOL    HW118092   1.649   6.510   4.293
 5731SOL    HW218093   1.692   6.577   4.435
 5732SOL     OW18094   5.935   4.756   4.366
 5732SOL    HW118095   5.902   4.670   4.327
 5732SOL    HW218096   5.857   4.815   4.387
 5733SOL     OW18097   3.740   0.697   0.105
 5733SOL    HW118098   3.716   0.605   0.074
 5733SOL    HW218099   3.662   0.737   0.153
 5734SOL     OW18100   1.543   6.868   5.161
 5734SOL    HW118101   1.567   6.957   5.199
 5734SOL    HW218102   1.587   6.858   5.071
 5735SOL     OW18103   3.872   0.896   2.792
 5735SOL    HW118104   3.909   0.912   2.884
 5735SOL    HW218105   3.854   0.984   2.749
 5736SOL     OW18106   5.052   4.370   6.199
 5736SOL    HW118107   5.108   4.386   6.117
 5736SOL    HW218108   4.967   4.324   6.173
 5737SOL     OW18109   5.103   6.237   1.193
 5737SOL    HW118110   5.184   6.294   1.204
 5737SOL    HW218111   5.081   6.193   1.280
 5738SOL     OW18112   3.462   0.972   6.840
 5738SOL    HW118113   3.526   1.049   6.844
 5738SOL    HW218114   3.512   0.887   6.826
 5739SOL     OW18115   2.048   6.654   5.914
 5739SOL    HW118116   1.959   6.686   5.945
 5739SOL    HW218117   2.101   6.620   5.993
 5740SOL     OW18118   4.733   3.336   0.826
 5740SOL    HW118119   4.661   3.405   0.829
 5740SOL    HW218120   4.727   3.286   0.739
 5741SOL     OW18121   0.603   3.774   4.415
 5741SOL    HW118122   0.543   3.740   4.488
 5741SOL    HW218123   0.677   3.708   4.400
 5742SOL     OW18124   3.892   6.763   3.785
 5742SOL    HW118125   3.976   6.798   3.826
 5742SOL    HW218126   3.846   6.837   3.735
 5743SOL     OW18127   3.913   4.689   5.840
 5743SOL    HW118128   3.815   4.710   5.834
 5743SOL    HW218129   3.937   4.623   5.769
 5744SOL     OW18130   5.970   0.417   3.219
 5744SOL    HW118131   5.989   0.333   3.169
 5744SOL    HW218132   5.999   0.496   3.164
 5745SOL     OW18133   2.344   2.784   3.815
 5745SOL    HW118134   2.382   2.838   3.739
 5745SOL    HW218135   2.250   2.758   3.793
 5746SOL     OW18136   4.041   0.049   3.711
 5746SOL    HW118137   4.108   0.108   3.666
 5746SOL    HW218138   3.958   0.102   3.731
 5747SOL     OW18139   1.048   6.147   1.840
 5747SOL    HW118140   1.086   6.196   1.761
 5747SOL    HW218141   1.085   6.055   1.842
 5748SOL     OW18142   0.492   6.425   0.519
 5748SOL    HW118143   0.416   6.386   0.466
 5748SOL    HW218144   0.569   6.361   0.517
 5749SOL     OW18145   1.839   6.833   5.040
 5749SOL    HW118146   1.854   6.861   5.135
 5749SOL    HW218147   1.896   6.754   5.019
 5750SOL     OW18148   6.545   4.320   5.012
 5750SOL    HW118149   6.472   4.255   5.032
 5750SOL    HW218150   6.579   4.304   4.919
 5751SOL     OW18151   2.000   3.612   4.407
 5751SOL    HW118152   1.977   3.652   4.318
 5751SOL    HW218153   2.016   3.514   4.397
 5752SOL     OW18154   5.522   0.490   0.931
 5752SOL    HW118155   5.601   0.431   0.947
 5752SOL    HW218156   5.443   0.456   0.982
 5753SOL     OW18157   2.870   3.952   5.219
 5753SOL    HW118158   2.952   3.900   5.241
 5753SOL    HW218159   2.896   4.043   5.187
 5754SOL     OW18160   1.774   6.468   1.615
 5754SOL    HW118161   1.731   6.545   1.662
 5754SOL    HW218162   1.754   6.472   1.517
 5755SOL     OW18163   2.088   1.849   6.727
 5755SOL    HW118164   2.145   1.805   6.658
 5755SOL    HW218165   2.035   1.779   6.775
 5756SOL     OW18166   6.737   0.236   2.494
 5756SOL    HW118167   6.831   0.269   2.496
 5756SOL    HW218168   6.698   0.242   2.586
 5757SOL     OW18169   6.771   5.815   3.939
 5757SOL    HW118170   6.715   5.830   3.858
 5757SOL    HW218171   6.762   5.720   3.969
 5758SOL     OW18172   1.996   0.051   3.157
 5758SOL    HW118173   2.002   6.975   3.168
 5758SOL    HW218174   2.019   0.076   3.063
 5759SOL     OW18175   4.543   6.816   1.638
 5759SOL    HW118176   4.538   6.726   1.682
 5759SOL    HW218177   4.462   6.870   1.665
 5760SOL     OW18178   6.979   3.482   2.241
 5760SOL    HW118179   7.023   3.467   2.329
 5760SOL    HW218180   0.024   3.477   2.168
 5761SOL     OW18181   5.113   6.191   4.670
 5761SOL    HW118182   5.112   6.097   4.705
 5761SOL    HW218183   5.067   6.251   4.736
 5762SOL     OW18184   4.570   4.447   0.876
 5762SOL    HW118185   4.663   4.429   0.909
 5762SOL    HW218186   4.528   4.518   0.933
 5763SOL     OW18187   5.295   6.734   0.274
 5763SOL    HW118188   5.392   6.751   0.254
 5763SOL    HW218189   5.285   6.715   0.372
 5764SOL     OW18190   3.890   5.238   3.121
 5764SOL    HW118191   3.896   5.336   3.101
 5764SOL    HW218192   3.975   5.193   3.094
 5765SOL     OW18193   6.215   4.365   0.599
 5765SOL    HW118194   6.133   4.412   0.567
 5765SOL    HW218195   6.294   4.394   0.545
 5766SOL     OW18196   1.829   1.930   4.625
 5766SOL    HW118197   1.768   1.861   4.585
 5766SOL    HW218198   1.844   1.908   4.722
 5767SOL     OW18199   2.018   0.208   0.166
 5767SOL    HW118200   2.114   0.180   0.177
 5767SOL    HW218201   1.964   0.170   0.241
 5768SOL     OW18202   6.905   6.821   3.553
 5768SOL    HW118203   6.980   6.868   3.506
 5768SOL    HW218204   6.912   6.838   3.651
 5769SOL     OW18205   2.239   5.123   5.992
 5769SOL    HW118206   2.330   5.092   6.018
 5769SOL    HW218207   2.197   5.055   5.931
 5770SOL     OW18208   0.692   6.547   6.719
 5770SOL    HW118209   0.715   6.450   6.730
 5770SOL    HW218210   0.743   6.601   6.786
 5771SOL     OW18211   2.013   6.785   3.641
 5771SOL    HW118212   2.103   6.823   3.623
 5771SOL    HW218213   1.996   6.785   3.740
 5772SOL     OW18214   4.383   1.135   1.871
 5772SOL    HW118215   4.346   1.178   1.789
 5772SOL    HW218216   4.377   1.036   1.862
 5773SOL     OW18217   4.351   1.646   2.446
 5773SOL    HW118218   4.273   1.671   2.504
 5773SOL    HW218219   4.352   1.547   2.433
 5774SOL     OW18220   1.751   0.356   5.153
 5774SOL    HW118221   1.778   0.409   5.073
 5774SOL    HW218222   1.794   0.266   5.151
 5775SOL     OW18223   1.187   5.973   2.777
 5775SOL    HW118224   1.192   5.917   2.860
 5775SOL    HW218225   1.212   6.067   2.799
 5776SOL     OW18226   1.212   0.224   3.146
 5776SOL    HW118227   1.274   0.196   3.073
 5776SOL    HW218228   1.126   0.174   3.139
 5777SOL     OW18229   1.329   0.357   3.614
 5777SOL    HW118230   1.303   0.453   3.602
 5777SOL    HW218231   1.368   0.345   3.706
 5778SOL     OW18232   1.357   0.492   0.394
 5778SOL    HW118233   1.261   0.471   0.375
 5778SOL    HW218234   1.365   0.532   0.486
 5779SOL     OW18235   4.905   2.870   6.677
 5779SOL    HW118236   4.900   2.885   6.776
 5779SOL    HW218237   4.946   2.781   6.659
 5780SOL     OW18238   5.709   5.725   4.827
 5780SOL    HW118239   5.616   5.761   4.820
 5780SOL    HW218240   5.762   5.783   4.888
 5781SOL     OW18241   6.488   4.873   4.956
 5781SOL    HW118242   6.516   4.810   4.882
 5781SOL    HW218243   6.547   4.858   5.036
 5782SOL     OW18244   1.227   1.046   0.707
 5782SOL    HW118245   1.136   1.024   0.743
 5782SOL    HW218246   1.240   1.145   0.708
 5783SOL     OW18247   1.101   0.958   2.380
 5783SOL    HW118248   1.047   0.876   2.399
 5783SOL    HW218249   1.166   0.974   2.455
 5784SOL     OW18250   0.109   6.133   7.013
 5784SOL    HW118251   0.128   6.045   6.968
 5784SOL    HW218252   0.124   6.124   0.088
 5785SOL     OW18253   2.264   1.596   0.364
 5785SOL    HW118254   2.205   1.666   0.323
 5785SOL    HW218255   2.209   1.514   0.384
 5786SOL     OW18256   6.589   4.278   0.484
 5786SOL    HW118257   6.566   4.210   0.415
 5786SOL    HW218258   6.555   4.368   0.456
 5787SOL     OW18259   2.271   1.827   5.493
 5787SOL    HW118260   2.257   1.824   5.394
 5787SOL    HW218261   2.346   1.891   5.514
 5788SOL     OW18262   2.781   1.617   2.763
 5788SOL    HW118263   2.765   1.598   2.666
 5788SOL    HW218264   2.698   1.596   2.814
 5789SOL     OW18265   3.506   5.066   6.624
 5789SOL    HW118266   3.568   5.021   6.688
 5789SOL    HW218267   3.505   5.164   6.643
 5790SOL     OW18268   1.417   3.777   4.582
 5790SOL    HW118269   1.367   3.860   4.605
 5790SOL    HW218270   1.406   3.710   4.656
 5791SOL     OW18271   4.159   0.356   2.007
 5791SOL    HW118272   4.103   0.329   1.930
 5791SOL    HW218273   4.121   0.319   2.091
 5792SOL     OW18274   6.854   2.406   2.938
 5792SOL    HW118275   6.879   2.309   2.940
 5792SOL    HW218276   6.851   2.442   3.031
 5793SOL     OW18277   5.381   1.237   3.254
 5793SOL    HW118278   5.306   1.302   3.264
 5793SOL    HW218279   5.454   1.279   3.199
 5794SOL     OW18280   3.698   1.934   0.686
 5794SOL    HW118281   3.607   1.905   0.656
 5794SOL    HW218282   3.760   1.936   0.608
 5795SOL     OW18283   6.119   5.518   6.101
 5795SOL    HW118284   6.088   5.433   6.143
 5795SOL    HW218285   6.128   5.506   6.002
 5796SOL     OW18286   4.106   0.814   0.210
 5796SOL    HW118287   4.034   0.876   0.180
 5796SOL    HW218288   4.085   0.779   0.302
 5797SOL     OW18289   4.172   1.975   5.216
 5797SOL    HW118290   4.122   1.907   5.270
 5797SOL    HW218291   4.122   2.061   5.217
 5798SOL     OW18292   1.132   4.301   5.505
 5798SOL    HW118293   1.098   4.288   5.599
 5798SOL    HW218294   1.055   4.294   5.441
 5799SOL     OW18295   5.562   1.610   3.732
 5799SOL    HW118296   5.635   1.622   3.664
 5799SOL    HW218297   5.509   1.695   3.739
 5800SOL     OW18298   5.095   5.972   0.702
 5800SOL    HW118299   5.187   5.935   0.714
 5800SOL    HW218300   5.084   6.003   0.607
 5801SOL     OW18301   1.101   2.450   4.801
 5801SOL    HW118302   1.095   2.550   4.812
 5801SOL    HW218303   1.176   2.429   4.739
 5802SOL     OW18304   0.944   4.501   0.378
 5802SOL    HW118305   0.846   4.518   0.389
 5802SOL    HW218306   0.983   4.570   0.316
 5803SOL     OW18307   1.213   4.320   2.327
 5803SOL    HW118308   1.202   4.321   2.227
 5803SOL    HW218309   1.154   4.249   2.366
 5804SOL     OW18310   6.169   4.539   3.570
 5804SOL    HW118311   6.254   4.520   3.520
 5804SOL    HW218312   6.166   4.635   3.596
 5805SOL     OW18313   3.520   4.073   6.434
 5805SOL    HW118314   3.505   4.028   6.346
 5805SOL    HW218315   3.448   4.044   6.499
 5806SOL     OW18316   0.151   6.309   6.350
 5806SOL    HW118317   0.121   6.247   6.423
 5806SOL    HW218318   0.238   6.277   6.313
 5807SOL     OW18319   1.494   3.675   1.820
 5807SOL    HW118320   1.410   3.729   1.811
 5807SOL    HW218321   1.472   3.578   1.828
 5808SOL     OW18322   6.006   3.988   3.592
 5808SOL    HW118323   6.000   3.979   3.492
 5808SOL    HW218324   6.039   4.080   3.615
 5809SOL     OW18325   0.252   2.401   5.006
 5809SOL    HW118326   0.328   2.431   5.063
 5809SOL    HW218327   0.182   2.359   5.064
 5810SOL     OW18328   3.286   1.062   3.920
 5810SOL    HW118329   3.293   1.160   3.900
 5810SOL    HW218330   3.199   1.028   3.885
 5811SOL     OW18331   2.689   0.160   5.110
 5811SOL    HW118332   2.644   0.194   5.027
 5811SOL    HW218333   2.644   0.076   5.140
 5812SOL     OW18334   5.606   0.449   4.017
 5812SOL    HW118335   5.631   0.543   3.993
 5812SOL    HW218336   5.513   0.430   3.986
 5813SOL     OW18337   1.190   0.895   0.486
 5813SOL    HW118338   1.245   0.893   0.403
 5813SOL    HW218339   1.237   0.947   0.557
 5814SOL     OW18340   6.049   4.525   1.067
 5814SOL    HW118341   5.985   4.584   1.115
 5814SOL    HW218342   6.143   4.555   1.085
 5815SOL     OW18343   4.572   2.566   4.251
 5815SOL    HW118344   4.564   2.507   4.331
 5815SOL    HW218345   4.482   2.577   4.208
 5816SOL     OW18346   4.780   5.623   7.010
 5816SOL    HW118347   4.796   5.694   0.056
 5816SOL    HW218348   4.712   5.656   6.944
 5817SOL     OW18349   5.112   3.313   5.679
 5817SOL    HW118350   5.081   3.222   5.705
 5817SOL    HW218351   5.058   3.382   5.728
 5818SOL     OW18352   6.639   6.070   5.153
 5818SOL    HW118353   6.717   6.107   5.204
 5818SOL    HW218354   6.608   6.138   5.086
 5819SOL     OW18355   4.478   0.226   6.742
 5819SOL    HW118356   4.456   0.139   6.699
 5819SOL    HW218357   4.489   0.213   6.840
 5820SOL     OW18358   4.595   6.490   4.078
 5820SOL    HW118359   4.582   6.560   4.148
 5820SOL    HW218360   4.644   6.412   4.116
 5821SOL     OW18361   0.731   6.911   2.161
 5821SOL    HW118362   0.732   6.815   2.131
 5821SOL    HW218363   0.781   6.919   2.247
 5822SOL     OW18364   0.421   2.418   2.505
 5822SOL    HW118365   0.367   2.419   2.590
 5822SOL    HW218366   0.371   2.468   2.434
 5823SOL     OW18367   0.773   0.969   5.979
 5823SOL    HW118368   0.705   1.025   6.027
 5823SOL    HW218369   0.728   0.920   5.904
 5824SOL     OW18370   6.671   6.091   2.715
 5824SOL    HW118371   6.726   6.171   2.692
 5824SOL    HW218372   6.663   6.084   2.814
 5825SOL     OW18373   2.365   1.709   4.999
 5825SOL    HW118374   2.364   1.677   4.904
 5825SOL    HW218375   2.457   1.701   5.036
 5826SOL     OW18376   6.919   5.283   5.329
 5826SOL    HW118377   6.891   5.377   5.307
 5826SOL    HW218378   7.004   5.262   5.281
 5827SOL     OW18379   1.854   4.925   4.998
 5827SOL    HW118380   1.825   4.996   5.063
 5827SOL    HW218381   1.785   4.853   4.995
 5828SOL     OW18382   6.860   3.125   1.441
 5828SOL    HW118383   6.807   3.040   1.445
 5828SOL    HW218384   6.829   3.180   1.363
 5829SOL     OW18385   2.760   1.977   2.767
 5829SOL    HW118386   2.847   2.020   2.747
 5829SOL    HW218387   2.775   1.881   2.792
 5830SOL     OW18388   4.044   0.211   5.591
 5830SOL    HW118389   4.035   0.117   5.625
 5830SOL    HW218390   4.057   0.209   5.492
 5831SOL     OW18391   6.911   0.314   3.830
 5831SOL    HW118392   6.958   0.374   3.765
 5831SOL    HW218393   6.867   0.239   3.781
 5832SOL     OW18394   3.688   4.356   5.310
 5832SOL    HW118395   3.603   4.384   5.354
 5832SOL    HW218396   3.738   4.295   5.371
 5833SOL     OW18397   4.009   3.270   5.047
 5833SOL    HW118398   3.979   3.313   4.961
 5833SOL    HW218399   4.000   3.171   5.039
 5834SOL     OW18400   5.935   2.525   0.545
 5834SOL    HW118401   5.956   2.431   0.572
 5834SOL    HW218402   5.836   2.538   0.544
 5835SOL     OW18403   4.950   3.157   2.798
 5835SOL    HW118404   4.954   3.219   2.719
 5835SOL    HW218405   4.985   3.205   2.879
 5836SOL     OW18406   3.088   6.786   2.936
 5836SOL    HW118407   3.134   6.698   2.942
 5836SOL    HW218408   3.118   6.835   2.854
 5837SOL     OW18409   4.491   5.236   5.785
 5837SOL    HW118410   4.404   5.251   5.832
 5837SOL    HW218411   4.523   5.322   5.745
 5838SOL     OW18412   2.318   1.711   5.750
 5838SOL    HW118413   2.393   1.755   5.798
 5838SOL    HW218414   2.282   1.773   5.680
 5839SOL     OW18415   0.331   2.650   2.924
 5839SOL    HW118416   0.344   2.612   3.015
 5839SOL    HW218417   0.248   2.704   2.921
 5840SOL     OW18418   1.521   5.301   0.038
 5840SOL    HW118419   1.485   5.289   6.970
 5840SOL    HW218420   1.619   5.280   0.039
 5841SOL     OW18421   5.568   1.958   2.465
 5841SOL    HW118422   5.618   2.016   2.401
 5841SOL    HW218423   5.609   1.866   2.467
 5842SOL     OW18424   4.219   3.046   1.617
 5842SOL    HW118425   4.169   2.973   1.571
 5842SOL    HW218426   4.160   3.127   1.623
 5843SOL     OW18427   2.071   3.625   2.228
 5843SOL    HW118428   2.121   3.561   2.169
 5843SOL    HW218429   2.130   3.703   2.248
 5844SOL     OW18430   0.521   6.999   5.887
 5844SOL    HW118431   0.591   0.047   5.886
 5844SOL    HW218432   0.514   6.958   5.797
 5845SOL     OW18433   1.510   0.378   3.032
 5845SOL    HW118434   1.422   0.333   3.018
 5845SOL    HW218435   1.578   0.311   3.064
 5846SOL     OW18436   6.363   3.146   4.494
 5846SOL    HW118437   6.404   3.234   4.469
 5846SOL    HW218438   6.350   3.091   4.411
 5847SOL     OW18439   2.206   1.853   2.086
 5847SOL    HW118440   2.297   1.813   2.096
 5847SOL    HW218441   2.207   1.946   2.122
 5848SOL     OW18442   2.407   5.371   3.003
 5848SOL    HW118443   2.426   5.348   2.908
 5848SOL    HW218444   2.331   5.436   3.007
 5849SOL     OW18445   6.663   0.875   6.436
 5849SOL    HW118446   6.564   0.858   6.442
 5849SOL    HW218447   6.678   0.973   6.420
 5850SOL     OW18448   0.639   3.558   2.177
 5850SOL    HW118449   0.663   3.477   2.230
 5850SOL    HW218450   0.692   3.559   2.092
 5851SOL     OW18451   5.182   3.400   2.654
 5851SOL    HW118452   5.086   3.425   2.639
 5851SOL    HW218453   5.238   3.440   2.581
 5852SOL     OW18454   5.003   6.571   3.304
 5852SOL    HW118455   4.924   6.516   3.333
 5852SOL    HW218456   4.976   6.667   3.298
 5853SOL     OW18457   3.080   5.567   5.045
 5853SOL    HW118458   3.106   5.663   5.039
 5853SOL    HW218459   3.162   5.512   5.061
 5854SOL     OW18460   6.213   3.632   5.367
 5854SOL    HW118461   6.152   3.684   5.307
 5854SOL    HW218462   6.160   3.586   5.438
 5855SOL     OW18463   0.292   0.576   4.338
 5855SOL    HW118464   0.336   0.665   4.330
 5855SOL    HW218465   0.297   0.529   4.250
 5856SOL     OW18466   2.191   6.355   3.559
 5856SOL    HW118467   2.213   6.257   3.564
 5856SOL    HW218468   2.276   6.408   3.560
 5857SOL     OW18469   6.262   2.763   5.365
 5857SOL    HW118470   6.204   2.824   5.311
 5857SOL    HW218471   6.206   2.709   5.428
 5858SOL     OW18472   2.647   2.211   2.162
 5858SOL    HW118473   2.628   2.249   2.253
 5858SOL    HW218474   2.742   2.230   2.138
 5859SOL     OW18475   5.479   0.128   0.965
 5859SOL    HW118476   5.406   0.093   1.023
 5859SOL    HW218477   5.475   0.228   0.962
 5860SOL     OW18478   2.197   3.908   1.994
 5860SOL    HW118479   2.220   3.897   2.090
 5860SOL    HW218480   2.141   3.830   1.964
 5861SOL     OW18481   5.166   1.417   4.291
 5861SOL    HW118482   5.165   1.475   4.210
 5861SOL    HW218483   5.255   1.372   4.299
 5862SOL     OW18484   5.098   4.717   3.251
 5862SOL    HW118485   5.106   4.657   3.172
 5862SOL    HW218486   5.115   4.812   3.223
 5863SOL     OW18487   3.165   0.843   4.588
 5863SOL    HW118488   3.173   0.883   4.679
 5863SOL    HW218489   3.256   0.839   4.545
 5864SOL     OW18490   4.109   3.566   1.955
 5864SOL    HW118491   4.027   3.513   1.978
 5864SOL    HW218492   4.184   3.503   1.935
 5865SOL     OW18493   5.544   0.266   4.440
 5865SOL    HW118494   5.606   0.338   4.409
 5865SOL    HW218495   5.595   0.182   4.455
 5866SOL     OW18496   3.501   5.905   6.565
 5866SOL    HW118497   3.465   5.956   6.486
 5866SOL    HW218498   3.502   5.964   6.645
 5867SOL     OW18499   0.283   3.686   0.981
 5867SOL    HW118500   0.232   3.739   1.048
 5867SOL    HW218501   0.239   3.597   0.969
 5868SOL     OW18502   6.833   0.960   5.389
 5868SOL    HW118503   6.747   0.938   5.343
 5868SOL    HW218504   6.836   1.058   5.408
 5869SOL     OW18505   2.097   5.547   3.457
 5869SOL    HW118506   2.188   5.509   3.475
 5869SOL    HW218507   2.105   5.645   3.439
 5870SOL     OW18508   4.814   5.807   4.658
 5870SOL    HW118509   4.842   5.792   4.563
 5870SOL    HW218510   4.865   5.746   4.718
 5871SOL     OW18511   4.233   3.480   0.257
 5871SOL    HW118512   4.180   3.405   0.297
 5871SOL    HW218513   4.214   3.485   0.159
 5872SOL     OW18514   3.769   4.992   6.544
 5872SOL    HW118515   3.671   5.007   6.556
 5872SOL    HW218516   3.803   4.934   6.618
 5873SOL     OW18517   2.146   2.581   0.977
 5873SOL    HW118518   2.059   2.624   0.998
 5873SOL    HW218519   2.220   2.635   1.017
 5874SOL     OW18520   2.724   2.854   1.222
 5874SOL    HW118521   2.737   2.756   1.209
 5874SOL    HW218522   2.761   2.881   1.311
 5875SOL     OW18523   3.606   1.380   1.072
 5875SOL    HW118524   3.537   1.450   1.059
 5875SOL    HW218525   3.665   1.374   0.991
 5876SOL     OW18526   3.036   2.919   6.893
 5876SOL    HW118527   3.124   2.872   6.903
 5876SOL    HW218528   2.963   2.851   6.889
 5877SOL     OW18529   6.260   0.178   0.823
 5877SOL    HW118530   6.307   0.096   0.790
 5877SOL    HW218531   6.320   0.257   0.814
 5878SOL     OW18532   5.086   4.979   3.174
 5878SOL    HW118533   5.072   5.007   3.269
 5878SOL    HW218534   5.018   5.024   3.116
 5879SOL     OW18535   2.878   3.262   6.155
 5879SOL    HW118536   2.937   3.194   6.112
 5879SOL    HW218537   2.874   3.246   6.254
 5880SOL     OW18538   4.576   4.251   6.428
 5880SOL    HW118539   4.506   4.181   6.418
 5880SOL    HW218540   4.665   4.208   6.443
 5881SOL     OW18541   1.236   0.028   2.488
 5881SOL    HW118542   1.217   6.971   2.432
 5881SOL    HW218543   1.327   0.020   2.529
 5882SOL     OW18544   0.499   6.876   5.634
 5882SOL    HW118545   0.588   6.832   5.639
 5882SOL    HW218546   0.472   6.886   5.538
 5883SOL     OW18547   0.381   1.479   0.361
 5883SOL    HW118548   0.392   1.462   0.459
 5883SOL    HW218549   0.442   1.553   0.332
 5884SOL     OW18550   6.425   0.856   4.717
 5884SOL    HW118551   6.398   0.945   4.754
 5884SOL    HW218552   6.372   0.838   4.634
 5885SOL     OW18553   0.662   5.577   0.792
 5885SOL    HW118554   0.584   5.618   0.744
 5885SOL    HW218555   0.641   5.482   0.813
 5886SOL     OW18556   1.316   3.566   3.511
 5886SOL    HW118557   1.250   3.639   3.529
 5886SOL    HW218558   1.331   3.559   3.412
 5887SOL     OW18559   3.043   1.909   2.054
 5887SOL    HW118560   3.115   1.952   2.109
 5887SOL    HW218561   2.995   1.979   2.001
 5888SOL     OW18562   2.813   6.659   1.069
 5888SOL    HW118563   2.833   6.647   0.972
 5888SOL    HW218564   2.740   6.596   1.096
 5889SOL     OW18565   6.637   1.222   0.976
 5889SOL    HW118566   6.625   1.130   0.940
 5889SOL    HW218567   6.630   1.288   0.901
 5890SOL     OW18568   1.661   6.827   2.599
 5890SOL    HW118569   1.639   6.869   2.512
 5890SOL    HW218570   1.732   6.881   2.645
 5891SOL     OW18571   2.690   3.716   0.029
 5891SOL    HW118572   2.608   3.767   0.002
 5891SOL    HW218573   2.664   3.621   0.050
 5892SOL     OW18574   0.167   4.701   1.491
 5892SOL    HW118575   0.235   4.637   1.527
 5892SOL    HW218576   0.154   4.686   1.393
 5893SOL     OW18577   1.489   5.040   1.666
 5893SOL    HW118578   1.426   4.965   1.646
 5893SOL    HW218579   1.575   5.004   1.701
 5894SOL     OW18580   0.788   5.664   5.220
 5894SOL    HW118581   0.706   5.647   5.166
 5894SOL    HW218582   0.868   5.627   5.172
 5895SOL     OW18583   6.321   3.197   4.008
 5895SOL    HW118584   6.244   3.197   3.944
 5895SOL    HW218585   6.391   3.134   3.975
 5896SOL     OW18586   5.079   1.290   1.754
 5896SOL    HW118587   5.071   1.288   1.654
 5896SOL    HW218588   5.009   1.230   1.794
 5897SOL     OW18589   4.021   1.465   1.785
 5897SOL    HW118590   3.967   1.383   1.765
 5897SOL    HW218591   3.960   1.538   1.815
 5898SOL     OW18592   2.542   1.269   5.763
 5898SOL    HW118593   2.615   1.314   5.813
 5898SOL    HW218594   2.570   1.256   5.668
 5899SOL     OW18595   0.206   5.347   5.925
 5899SOL    HW118596   0.245   5.430   5.965
 5899SOL    HW218597   0.272   5.272   5.934
 5900SOL     OW18598   6.636   5.392   3.250
 5900SOL    HW118599   6.582   5.411   3.332
 5900SOL    HW218600   6.715   5.453   3.248
 5901SOL     OW18601   1.639   0.904   1.145
 5901SOL    HW118602   1.707   0.852   1.093
 5901SOL    HW218603   1.548   0.885   1.109
 5902SOL     OW18604   5.817   3.708   5.037
 5902SOL    HW118605   5.790   3.673   5.127
 5902SOL    HW218606   5.815   3.634   4.970
 5903SOL     OW18607   5.473   2.619   6.972
 5903SOL    HW118608   5.514   2.687   6.912
 5903SOL    HW218609   5.387   2.587   6.933
 5904SOL     OW18610   1.687   4.270   1.182
 5904SOL    HW118611   1.615   4.332   1.214
 5904SOL    HW218612   1.678   4.256   1.084
 5905SOL     OW18613   5.356   1.067   3.748
 5905SOL    HW118614   5.285   1.138   3.752
 5905SOL    HW218615   5.340   1.008   3.669
 5906SOL     OW18616   5.549   1.655   5.097
 5906SOL    HW118617   5.560   1.599   5.179
 5906SOL    HW218618   5.564   1.599   5.016
 5907SOL     OW18619   1.574   6.843   0.391
 5907SOL    HW118620   1.517   6.885   0.462
 5907SOL    HW218621   1.520   6.774   0.343
 5908SOL     OW18622   5.153   3.766   0.458
 5908SOL    HW118623   5.137   3.714   0.374
 5908SOL    HW218624   5.172   3.702   0.533
 5909SOL     OW18625   0.493   4.300   5.862
 5909SOL    HW118626   0.404   4.291   5.818
 5909SOL    HW218627   0.481   4.312   5.961
 5910SOL     OW18628   1.538   4.299   0.845
 5910SOL    HW118629   1.487   4.384   0.859
 5910SOL    HW218630   1.474   4.224   0.827
 5911SOL     OW18631   0.375   5.917   6.136
 5911SOL    HW118632   0.416   5.876   6.054
 5911SOL    HW218633   0.376   6.016   6.127
 5912SOL     OW18634   6.081   3.303   6.658
 5912SOL    HW118635   6.168   3.271   6.620
 5912SOL    HW218636   6.024   3.337   6.583
 5913SOL     OW18637   2.151   2.851   5.709
 5913SOL    HW118638   2.239   2.844   5.664
 5913SOL    HW218639   2.163   2.845   5.808
 5914SOL     OW18640   2.450   5.760   6.966
 5914SOL    HW118641   2.356   5.728   6.967
 5914SOL    HW218642   2.495   5.733   6.881
 5915SOL     OW18643   5.537   3.568   2.137
 5915SOL    HW118644   5.483   3.487   2.113
 5915SOL    HW218645   5.512   3.644   2.076
 5916SOL     OW18646   4.262   0.425   5.603
 5916SOL    HW118647   4.207   0.343   5.620
 5916SOL    HW218648   4.341   0.425   5.665
 5917SOL     OW18649   3.736   3.392   3.338
 5917SOL    HW118650   3.681   3.314   3.366
 5917SOL    HW218651   3.823   3.392   3.388
 5918SOL     OW18652   2.085   3.646   4.828
 5918SOL    HW118653   1.993   3.610   4.818
 5918SOL    HW218654   2.081   3.744   4.848
 5919SOL     OW18655   3.061   1.694   0.254
 5919SOL    HW118656   2.976   1.660   0.213
 5919SOL    HW218657   3.049   1.702   0.353
 5920SOL     OW18658   3.458   0.077   0.012
 5920SOL    HW118659   3.511   0.044   0.090
 5920SOL    HW218660   3.400   0.003   7.001
 5921SOL     OW18661   3.539   4.978   5.094
 5921SOL    HW118662   3.459   4.918   5.098
 5921SOL    HW218663   3.612   4.940   5.151
 5922SOL     OW18664   6.258   5.106   3.536
 5922SOL    HW118665   6.231   5.136   3.628
 5922SOL    HW218666   6.207   5.159   3.468
 5923SOL     OW18667   6.412   0.973   2.885
 5923SOL    HW118668   6.400   1.019   2.797
 5923SOL    HW218669   6.496   1.004   2.928
 5924SOL     OW18670   5.719   2.600   5.096
 5924SOL    HW118671   5.659   2.637   5.026
 5924SOL    HW218672   5.687   2.509   5.123
 5925SOL     OW18673   4.512   6.163   3.038
 5925SOL    HW118674   4.519   6.112   3.124
 5925SOL    HW218675   4.460   6.246   3.052
 5926SOL     OW18676   3.129   4.980   1.750
 5926SOL    HW118677   3.038   5.023   1.746
 5926SOL    HW218678   3.123   4.893   1.800
 5927SOL     OW18679   1.920   4.381   1.940
 5927SOL    HW118680   1.967   4.293   1.955
 5927SOL    HW218681   1.946   4.445   2.012
 5928SOL     OW18682   2.522   0.273   2.447
 5928SOL    HW118683   2.612   0.265   2.406
 5928SOL    HW218684   2.453   0.240   2.382
 5929SOL     OW18685   0.677   6.206   5.900
 5929SOL    HW118686   0.587   6.170   5.877
 5929SOL    HW218687   0.712   6.259   5.823
 5930SOL     OW18688   5.921   1.371   3.798
 5930SOL    HW118689   5.946   1.410   3.887
 5930SOL    HW218690   5.840   1.419   3.762
 5931SOL     OW18691   5.754   4.861   2.668
 5931SOL    HW118692   5.805   4.891   2.588
 5931SOL    HW218693   5.772   4.924   2.744
 5932SOL     OW18694   2.095   6.689   0.790
 5932SOL    HW118695   2.006   6.726   0.764
 5932SOL    HW218696   2.132   6.635   0.714
 5933SOL     OW18697   6.962   4.651   1.797
 5933SOL    HW118698   6.899   4.727   1.816
 5933SOL    HW218699   6.921   4.590   1.729
 5934SOL     OW18700   3.454   3.781   3.704
 5934SOL    HW118701   3.390   3.851   3.675
 5934SOL    HW218702   3.424   3.691   3.672
 5935SOL     OW18703   3.714   3.383   4.531
 5935SOL    HW118704   3.682   3.334   4.612
 5935SOL    HW218705   3.775   3.457   4.559
 5936SOL     OW18706   4.266   3.573   6.523
 5936SOL    HW118707   4.167   3.583   6.526
 5936SOL    HW218708   4.304   3.588   6.615
 5937SOL     OW18709   0.387   3.985   2.094
 5937SOL    HW118710   0.322   4.029   2.155
 5937SOL    HW218711   0.346   3.901   2.056
 5938SOL     OW18712   1.447   4.847   4.174
 5938SOL    HW118713   1.396   4.762   4.169
 5938SOL    HW218714   1.494   4.853   4.263
 5939SOL     OW18715   3.413   0.440   3.385
 5939SOL    HW118716   3.379   0.419   3.293
 5939SOL    HW218717   3.442   0.536   3.389
 5940SOL     OW18718   4.442   6.654   2.211
 5940SOL    HW118719   4.520   6.708   2.177
 5940SOL    HW218720   4.470   6.601   2.290
 5941SOL     OW18721   6.054   4.494   1.965
 5941SOL    HW118722   5.963   4.506   2.004
 5941SOL    HW218723   6.091   4.405   1.991
 5942SOL     OW18724   4.373   2.748   6.133
 5942SOL    HW118725   4.330   2.791   6.054
 5942SOL    HW218726   4.443   2.809   6.170
 5943SOL     OW18727   2.795   6.022   0.164
 5943SOL    HW118728   2.769   5.961   0.089
 5943SOL    HW218729   2.720   6.084   0.185
 5944SOL     OW18730   5.705   1.607   1.892
 5944SOL    HW118731   5.689   1.616   1.794
 5944SOL    HW218732   5.711   1.511   1.917
 5945SOL     OW18733   7.019   4.789   5.826
 5945SOL    HW118734   0.045   4.863   5.779
 5945SOL    HW218735   6.921   4.801   5.813
 5946SOL     OW18736   3.429   4.166   5.692
 5946SOL    HW118737   3.399   4.257   5.722
 5946SOL    HW218738   3.349   4.111   5.668
 5947SOL     OW18739   3.763   2.923   1.955
 5947SOL    HW118740   3.844   2.963   1.912
 5947SOL    HW218741   3.723   2.854   1.894
 5948SOL     OW18742   3.625   5.142   3.107
 5948SOL    HW118743   3.721   5.170   3.111
 5948SOL    HW218744   3.617   5.046   3.134
 5949SOL     OW18745   3.952   4.011   1.531
 5949SOL    HW118746   3.970   3.958   1.614
 5949SOL    HW218747   3.943   3.949   1.453
 5950SOL     OW18748   5.663   2.798   5.740
 5950SOL    HW118749   5.619   2.714   5.769
 5950SOL    HW218750   5.593   2.864   5.711
 5951SOL     OW18751   0.578   6.249   4.830
 5951SOL    HW118752   0.510   6.193   4.878
 5951SOL    HW218753   0.531   6.318   4.774
 5952SOL     OW18754   6.084   6.527   3.817
 5952SOL    HW118755   6.066   6.477   3.901
 5952SOL    HW218756   6.025   6.608   3.813
 5953SOL     OW18757   0.030   2.842   5.664
 5953SOL    HW118758   0.080   2.842   5.751
 5953SOL    HW218759   0.072   2.776   5.602
 5954SOL     OW18760   6.622   4.498   5.806
 5954SOL    HW118761   6.579   4.418   5.848
 5954SOL    HW218762   6.618   4.490   5.707
 5955SOL     OW18763   6.194   5.907   1.997
 5955SOL    HW118764   6.230   5.978   2.057
 5955SOL    HW218765   6.177   5.944   1.906
 5956SOL     OW18766   3.414   1.814   1.068
 5956SOL    HW118767   3.427   1.863   0.982
 5956SOL    HW218768   3.371   1.725   1.050
 5957SOL     OW18769   4.749   6.913   5.708
 5957SOL    HW118770   4.748   7.001   5.660
 5957SOL    HW218771   4.775   6.840   5.644
 5958SOL     OW18772   5.864   6.186   2.548
 5958SOL    HW118773   5.843   6.283   2.536
 5958SOL    HW218774   5.783   6.138   2.583
 5959SOL     OW18775   3.467   1.750   5.427
 5959SOL    HW118776   3.465   1.837   5.475
 5959SOL    HW218777   3.534   1.755   5.352
 5960SOL     OW18778   3.649   6.928   3.937
 5960SOL    HW118779   3.594   6.981   3.873
 5960SOL    HW218780   3.609   6.935   4.029
 5961SOL     OW18781   4.249   1.329   3.273
 5961SOL    HW118782   4.267   1.246   3.221
 5961SOL    HW218783   4.335   1.366   3.308
 5962SOL     OW18784   5.189   5.640   2.172
 5962SOL    HW118785   5.108   5.602   2.217
 5962SOL    HW218786   5.226   5.573   2.108
 5963SOL     OW18787   3.803   3.260   4.249
 5963SOL    HW118788   3.770   3.286   4.159
 5963SOL    HW218789   3.737   3.289   4.319
 5964SOL     OW18790   6.886   5.317   6.115
 5964SOL    HW118791   6.957   5.316   6.185
 5964SOL    HW218792   6.842   5.406   6.112
 5965SOL     OW18793   1.894   1.899   6.329
 5965SOL    HW118794   1.878   1.869   6.423
 5965SOL    HW218795   1.992   1.915   6.316
 5966SOL     OW18796   2.850   5.520   5.211
 5966SOL    HW118797   2.775   5.569   5.166
 5966SOL    HW218798   2.934   5.533   5.158
 5967SOL     OW18799   4.035   6.335   2.505
 5967SOL    HW118800   4.004   6.330   2.410
 5967SOL    HW218801   3.972   6.392   2.557
 5968SOL     OW18802   5.897   1.806   3.140
 5968SOL    HW118803   5.848   1.890   3.164
 5968SOL    HW218804   5.904   1.799   3.041
 5969SOL     OW18805   6.290   1.881   5.244
 5969SOL    HW118806   6.276   1.977   5.220
 5969SOL    HW218807   6.379   1.851   5.211
 5970SOL     OW18808   0.563   4.620   2.461
 5970SOL    HW118809   0.490   4.552   2.453
 5970SOL    HW218810   0.617   4.602   2.543
 5971SOL     OW18811   2.008   0.130   2.905
 5971SOL    HW118812   2.071   0.134   2.827
 5971SOL    HW218813   1.963   0.218   2.916
 5972SOL     OW18814   3.999   6.514   0.463
 5972SOL    HW118815   3.935   6.455   0.414
 5972SOL    HW218816   4.034   6.584   0.401
 5973SOL     OW18817   1.960   5.396   2.701
 5973SOL    HW118818   1.906   5.358   2.626
 5973SOL    HW218819   1.902   5.406   2.782
 5974SOL     OW18820   5.851   4.158   5.920
 5974SOL    HW118821   5.854   4.082   5.855
 5974SOL    HW218822   5.780   4.223   5.892
 5975SOL     OW18823   3.951   2.112   1.004
 5975SOL    HW118824   3.905   2.158   0.928
 5975SOL    HW218825   3.885   2.057   1.055
 5976SOL     OW18826   2.961   3.622   5.178
 5976SOL    HW118827   3.015   3.700   5.208
 5976SOL    HW218828   2.869   3.627   5.217
 5977SOL     OW18829   1.311   4.832   1.611
 5977SOL    HW118830   1.303   4.785   1.523
 5977SOL    HW218831   1.230   4.888   1.627
 5978SOL     OW18832   5.813   5.045   2.877
 5978SOL    HW118833   5.751   5.010   2.947
 5978SOL    HW218834   5.905   5.009   2.893
 5979SOL     OW18835   6.845   0.931   3.362
 5979SOL    HW118836   6.812   0.871   3.434
 5979SOL    HW218837   6.831   0.887   3.273
 5980SOL     OW18838   3.757   4.563   6.738
 5980SOL    HW118839   3.832   4.597   6.682
 5980SOL    HW218840   3.671   4.576   6.688
 5981SOL     OW18841   6.946   1.490   1.748
 5981SOL    HW118842   6.869   1.503   1.686
 5981SOL    HW218843   0.005   1.531   1.708
 5982SOL     OW18844   5.810   1.711   6.613
 5982SOL    HW118845   5.883   1.707   6.545
 5982SOL    HW218846   5.723   1.733   6.568
 5983SOL     OW18847   2.486   1.547   4.167
 5983SOL    HW118848   2.495   1.504   4.077
 5983SOL    HW218849   2.415   1.617   4.164
 5984SOL     OW18850   0.159   0.200   4.431
 5984SOL    HW118851   0.155   0.198   4.332
 5984SOL    HW218852   0.106   0.278   4.465
 5985SOL     OW18853   5.526   2.613   4.208
 5985SOL    HW118854   5.586   2.540   4.240
 5985SOL    HW218855   5.547   2.633   4.112
 5986SOL     OW18856   3.071   3.085   4.017
 5986SOL    HW118857   3.019   3.123   3.940
 5986SOL    HW218858   3.038   3.124   4.103
 5987SOL     OW18859   4.229   0.876   5.109
 5987SOL    HW118860   4.179   0.852   5.027
 5987SOL    HW218861   4.274   0.965   5.096
 5988SOL     OW18862   4.348   6.407   4.645
 5988SOL    HW118863   4.386   6.369   4.730
 5988SOL    HW218864   4.366   6.345   4.569
 5989SOL     OW18865   2.230   6.394   6.564
 5989SOL    HW118866   2.224   6.479   6.617
 5989SOL    HW218867   2.289   6.329   6.613
 5990SOL     OW18868   3.772   4.044   0.838
 5990SOL    HW118869   3.857   4.029   0.788
 5990SOL    HW218870   3.769   4.139   0.870
 5991SOL     OW18871   4.253   4.916   4.928
 5991SOL    HW118872   4.281   4.850   4.858
 5991SOL    HW218873   4.222   5.000   4.885
 5992SOL     OW18874   3.857   0.295   4.167
 5992SOL    HW118875   3.875   0.212   4.115
 5992SOL    HW218876   3.799   0.274   4.246
 5993SOL     OW18877   3.519   6.969   6.057
 5993SOL    HW118878   3.496   6.906   6.131
 5993SOL    HW218879   3.604   7.017   6.080
 5994SOL     OW18880   6.095   2.301   1.767
 5994SOL    HW118881   6.083   2.291   1.866
 5994SOL    HW218882   6.192   2.289   1.745
 5995SOL     OW18883   6.961   5.525   1.253
 5995SOL    HW118884   6.946   5.594   1.323
 5995SOL    HW218885   6.885   5.460   1.253
 5996SOL     OW18886   0.655   5.935   6.530
 5996SOL    HW118887   0.584   5.919   6.462
 5996SOL    HW218888   0.613   5.962   6.617
 5997SOL     OW18889   0.560   6.457   2.668
 5997SOL    HW118890   0.540   6.551   2.694
 5997SOL    HW218891   0.531   6.441   2.574
 5998SOL     OW18892   5.136   2.509   2.449
 5998SOL    HW118893   5.056   2.469   2.406
 5998SOL    HW218894   5.117   2.527   2.546
 5999SOL     OW18895   1.238   2.094   2.945
 5999SOL    HW118896   1.291   2.117   3.027
 5999SOL    HW218897   1.176   2.019   2.965
 6000SOL     OW18898   4.027   5.422   2.078
 6000SOL    HW118899   3.947   5.460   2.032
 6000SOL    HW218900   4.107   5.478   2.059
 6001SOL     OW18901   0.611   3.865   6.538
 6001SOL    HW118902   0.574   3.958   6.531
 6001SOL    HW218903   0.566   3.817   6.613
 6002SOL     OW18904   0.353   6.587   1.459
 6002SOL    HW118905   0.388   6.680   1.445
 6002SOL    HW218906   0.392   6.548   1.542
 6003SOL     OW18907   6.094   3.047   4.634
 6003SOL    HW118908   6.182   3.063   4.588
 6003SOL    HW218909   6.093   2.954   4.671
 6004SOL     OW18910   0.119   3.939   3.278
 6004SOL    HW118911   0.125   3.899   3.186
 6004SOL    HW218912   0.197   4.000   3.293
 6005SOL     OW18913   4.042   4.806   3.860
 6005SOL    HW118914   4.059   4.889   3.807
 6005SOL    HW218915   3.946   4.778   3.848
 6006SOL     OW18916   3.451   0.154   6.745
 6006SOL    HW118917   3.526   0.174   6.683
 6006SOL    HW218918   3.488   0.123   6.833
 6007SOL     OW18919   4.885   2.990   3.533
 6007SOL    HW118920   4.946   3.020   3.606
 6007SOL    HW218921   4.926   3.012   3.444
 6008SOL     OW18922   2.611   5.464   5.641
 6008SOL    HW118923   2.650   5.514   5.718
 6008SOL    HW218924   2.657   5.376   5.632
 6009SOL     OW18925   2.670   1.600   4.755
 6009SOL    HW118926   2.729   1.523   4.731
 6009SOL    HW218927   2.725   1.674   4.794
 6010SOL     OW18928   2.345   4.339   2.136
 6010SOL    HW118929   2.252   4.369   2.118
 6010SOL    HW218930   2.409   4.403   2.093
 6011SOL     OW18931   5.314   2.507   1.863
 6011SOL    HW118932   5.220   2.478   1.843
 6011SOL    HW218933   5.336   2.485   1.958
 6012SOL     OW18934   6.968   2.168   0.364
 6012SOL    HW118935   6.953   2.073   0.392
 6012SOL    HW218936   6.882   2.207   0.332
 6013SOL     OW18937   6.140   1.581   2.444
 6013SOL    HW118938   6.053   1.540   2.472
 6013SOL    HW218939   6.149   1.575   2.345
 6014SOL     OW18940   4.848   1.882   0.703
 6014SOL    HW118941   4.824   1.940   0.781
 6014SOL    HW218942   4.871   1.790   0.735
 6015SOL     OW18943   6.275   2.593   5.811
 6015SOL    HW118944   6.296   2.687   5.786
 6015SOL    HW218945   6.225   2.549   5.736
 6016SOL     OW18946   1.057   1.075   6.038
 6016SOL    HW118947   0.960   1.050   6.037
 6016SOL    HW218948   1.110   1.006   5.988
 6017SOL     OW18949   5.981   5.485   2.482
 6017SOL    HW118950   5.926   5.410   2.445
 6017SOL    HW218951   5.925   5.566   2.493
 6018SOL     OW18952   3.538   2.673   0.175
 6018SOL    HW118953   3.505   2.584   0.144
 6018SOL    HW218954   3.502   2.745   0.115
 6019SOL     OW18955   4.864   1.949   3.954
 6019SOL    HW118956   4.894   2.043   3.936
 6019SOL    HW218957   4.911   1.914   4.035
 6020SOL     OW18958   2.324   6.541   1.563
 6020SOL    HW118959   2.229   6.526   1.590
 6020SOL    HW218960   2.379   6.560   1.644
 6021SOL     OW18961   4.799   6.912   2.726
 6021SOL    HW118962   4.862   6.956   2.790
 6021SOL    HW218963   4.727   6.864   2.778
 6022SOL     OW18964   4.641   0.708   4.425
 6022SOL    HW118965   4.564   0.726   4.485
 6022SOL    HW218966   4.727   0.726   4.474
 6023SOL     OW18967   6.574   1.423   3.181
 6023SOL    HW118968   6.487   1.385   3.148
 6023SOL    HW218969   6.566   1.522   3.191
 6024SOL     OW18970   0.514   4.644   2.927
 6024SOL    HW118971   0.417   4.624   2.908
 6024SOL    HW218972   0.539   4.731   2.885
 6025SOL     OW18973   4.651   0.516   2.048
 6025SOL    HW118974   4.579   0.453   2.017
 6025SOL    HW218975   4.632   0.607   2.012
 6026SOL     OW18976   0.524   4.317   4.410
 6026SOL    HW118977   0.445   4.364   4.449
 6026SOL    HW218978   0.605   4.338   4.465
 6027SOL     OW18979   2.018   3.858   5.911
 6027SOL    HW118980   2.000   3.948   5.873
 6027SOL    HW218981   2.047   3.796   5.838
 6028SOL     OW18982   0.993   4.009   0.411
 6028SOL    HW118983   0.974   3.950   0.333
 6028SOL    HW218984   1.014   4.102   0.379
 6029SOL     OW18985   2.086   6.451   6.935
 6029SOL    HW118986   2.120   6.498   6.853
 6029SOL    HW218987   1.991   6.478   6.952
 6030SOL     OW18988   2.533   0.785   3.168
 6030SOL    HW118989   2.477   0.815   3.091
 6030SOL    HW218990   2.619   0.747   3.134
 6031SOL     OW18991   4.404   5.224   4.880
 6031SOL    HW118992   4.433   5.317   4.906
 6031SOL    HW218993   4.417   5.162   4.958
 6032SOL     OW18994   1.600   3.331   2.383
 6032SOL    HW118995   1.598   3.430   2.393
 6032SOL    HW218996   1.579   3.306   2.289
 6033SOL     OW18997   1.899   2.420   2.979
 6033SOL    HW118998   1.946   2.504   2.951
 6033SOL    HW218999   1.800   2.436   2.978
 6034SOL     OW19000   1.996   5.069   4.471
 6034SOL    HW119001   2.041   5.125   4.402
 6034SOL    HW219002   2.064   5.009   4.515
 6035SOL     OW19003   6.086   1.150   3.875
 6035SOL    HW119004   6.017   1.143   3.947
 6035SOL    HW219005   6.074   1.237   3.826
 6036SOL     OW19006   0.252   6.987   4.600
 6036SOL    HW119007   0.221   0.039   4.543
 6036SOL    HW219008   0.210   6.994   4.691
 6037SOL     OW19009   4.961   5.642   6.212
 6037SOL    HW119010   4.887   5.619   6.150
 6037SOL    HW219011   4.993   5.558   6.258
 6038SOL     OW19012   0.691   3.198   6.067
 6038SOL    HW119013   0.779   3.154   6.083
 6038SOL    HW219014   0.701   3.268   5.996
 6039SOL     OW19015   3.389   3.780   3.141
 6039SOL    HW119016   3.459   3.729   3.191
 6039SOL    HW219017   3.361   3.860   3.194
 6040SOL     OW19018   0.238   1.630   6.369
 6040SOL    HW119019   0.229   1.718   6.323
 6040SOL    HW219020   0.303   1.573   6.318
 6041SOL     OW19021   1.518   1.677   6.175
 6041SOL    HW119022   1.581   1.753   6.188
 6041SOL    HW219023   1.570   1.591   6.175
 6042SOL     OW19024   5.854   4.976   1.899
 6042SOL    HW119025   5.825   4.997   1.992
 6042SOL    HW219026   5.775   4.977   1.838
 6043SOL     OW19027   1.068   4.936   5.121
 6043SOL    HW119028   1.066   5.019   5.176
 6043SOL    HW219029   1.147   4.880   5.146
 6044SOL     OW19030   0.177   1.811   0.852
 6044SOL    HW119031   0.102   1.766   0.805
 6044SOL    HW219032   0.216   1.748   0.921
 6045SOL     OW19033   5.079   5.600   1.025
 6045SOL    HW119034   5.005   5.630   1.086
 6045SOL    HW219035   5.143   5.675   1.012
 6046SOL     OW19036   2.877   2.001   0.795
 6046SOL    HW119037   2.855   1.925   0.734
 6046SOL    HW219038   2.945   2.060   0.751
 6047SOL     OW19039   6.506   1.139   3.811
 6047SOL    HW119040   6.464   1.194   3.739
 6047SOL    HW219041   6.452   1.149   3.895
 6048SOL     OW19042   4.576   6.886   3.425
 6048SOL    HW119043   4.507   6.870   3.355
 6048SOL    HW219044   4.532   6.894   3.515
 6049SOL     OW19045   5.076   3.166   6.437
 6049SOL    HW119046   5.103   3.175   6.533
 6049SOL    HW219047   5.074   3.257   6.395
 6050SOL     OW19048   3.810   4.243   5.858
 6050SOL    HW119049   3.840   4.317   5.918
 6050SOL    HW219050   3.745   4.185   5.907
 6051SOL     OW19051   2.325   2.271   3.145
 6051SOL    HW119052   2.397   2.301   3.083
 6051SOL    HW219053   2.244   2.247   3.092
 6052SOL     OW19054   6.491   0.234   0.451
 6052SOL    HW119055   6.524   0.188   0.533
 6052SOL    HW219056   6.556   0.217   0.376
 6053SOL     OW19057   3.294   0.350   6.659
 6053SOL    HW119058   3.210   0.375   6.708
 6053SOL    HW219059   3.347   0.286   6.715
 6054SOL     OW19060   2.445   3.631   1.057
 6054SOL    HW119061   2.369   3.629   1.122
 6054SOL    HW219062   2.410   3.648   0.965
 6055SOL     OW19063   5.465   0.772   5.528
 6055SOL    HW119064   5.375   0.802   5.496
 6055SOL    HW219065   5.462   0.758   5.627
 6056SOL     OW19066   4.497   1.894   5.359
 6056SOL    HW119067   4.439   1.826   5.404
 6056SOL    HW219068   4.505   1.873   5.261
 6057SOL     OW19069   4.355   1.923   4.590
 6057SOL    HW119070   4.380   1.948   4.496
 6057SOL    HW219071   4.428   1.950   4.652
 6058SOL     OW19072   5.665   2.980   3.146
 6058SOL    HW119073   5.578   3.029   3.154
 6058SOL    HW219074   5.687   2.938   3.235
 6059SOL     OW19075   4.613   5.471   5.658
 6059SOL    HW119076   4.677   5.425   5.596
 6059SOL    HW219077   4.527   5.487   5.610
 6060SOL     OW19078   3.304   3.887   5.788
 6060SOL    HW119079   3.320   3.957   5.719
 6060SOL    HW219080   3.366   3.810   5.773
 6061SOL     OW19081   3.490   2.822   0.710
 6061SOL    HW119082   3.457   2.854   0.622
 6061SOL    HW219083   3.590   2.815   0.708
 6062SOL     OW19084   2.530   1.692   4.446
 6062SOL    HW119085   2.602   1.652   4.502
 6062SOL    HW219086   2.547   1.673   4.350
 6063SOL     OW19087   3.779   1.318   6.404
 6063SOL    HW119088   3.870   1.335   6.442
 6063SOL    HW219089   3.730   1.254   6.463
 6064SOL     OW19090   2.388   5.613   2.680
 6064SOL    HW119091   2.293   5.633   2.707
 6064SOL    HW219092   2.410   5.519   2.703
 6065SOL     OW19093   6.023   6.523   1.019
 6065SOL    HW119094   5.997   6.614   1.051
 6065SOL    HW219095   6.028   6.460   1.097
 6066SOL     OW19096   4.544   1.620   1.199
 6066SOL    HW119097   4.485   1.681   1.253
 6066SOL    HW219098   4.568   1.540   1.255
 6067SOL     OW19099   6.686   1.914   6.597
 6067SOL    HW119100   6.677   1.990   6.533
 6067SOL    HW219101   6.760   1.853   6.567
 6068SOL     OW19102   5.815   3.475   4.906
 6068SOL    HW119103   5.857   3.443   4.821
 6068SOL    HW219104   5.839   3.412   4.980
 6069SOL     OW19105   6.514   3.854   6.206
 6069SOL    HW119106   6.469   3.892   6.125
 6069SOL    HW219107   6.538   3.928   6.269
 6070SOL     OW19108   2.900   1.809   6.459
 6070SOL    HW119109   2.885   1.824   6.556
 6070SOL    HW219110   2.851   1.727   6.430
 6071SOL     OW19111   4.475   6.093   6.083
 6071SOL    HW119112   4.480   6.024   6.155
 6071SOL    HW219113   4.519   6.177   6.114
 6072SOL     OW19114   0.954   1.021   2.040
 6072SOL    HW119115   0.991   0.947   1.984
 6072SOL    HW219116   1.029   1.074   2.080
 6073SOL     OW19117   6.429   3.311   0.427
 6073SOL    HW119118   6.472   3.241   0.483
 6073SOL    HW219119   6.414   3.394   0.482
 6074SOL     OW19120   1.351   6.693   4.478
 6074SOL    HW119121   1.308   6.638   4.407
 6074SOL    HW219122   1.429   6.643   4.517
 6075SOL     OW19123   6.587   3.054   6.742
 6075SOL    HW119124   6.608   2.956   6.742
 6075SOL    HW219125   6.589   3.089   6.835
 6076SOL     OW19126   2.233   6.989   5.082
 6076SOL    HW119127   2.215   0.056   5.121
 6076SOL    HW219128   2.175   6.975   5.002
 6077SOL     OW19129   4.944   5.869   2.823
 6077SOL    HW119130   4.940   5.904   2.729
 6077SOL    HW219131   4.884   5.924   2.881
 6078SOL     OW19132   3.499   5.104   2.497
 6078SOL    HW119133   3.470   5.193   2.531
 6078SOL    HW219134   3.582   5.076   2.545
 6079SOL     OW19135   3.148   3.789   6.492
 6079SOL    HW119136   3.138   3.744   6.403
 6079SOL    HW219137   3.125   3.724   6.565
 6080SOL     OW19138   0.294   1.504   0.990
 6080SOL    HW119139   0.313   1.599   1.016
 6080SOL    HW219140   0.292   1.447   1.072
 6081SOL     OW19141   6.448   3.794   4.496
 6081SOL    HW119142   6.508   3.715   4.483
 6081SOL    HW219143   6.359   3.775   4.453
 6082SOL     OW19144   3.513   0.711   3.424
 6082SOL    HW119145   3.557   0.677   3.507
 6082SOL    HW219146   3.582   0.742   3.359
 6083SOL     OW19147   0.963   5.786   6.038
 6083SOL    HW119148   1.049   5.751   5.999
 6083SOL    HW219149   0.894   5.714   6.036
 6084SOL     OW19150   6.937   5.632   4.207
 6084SOL    HW119151   7.022   5.661   4.251
 6084SOL    HW219152   6.958   5.597   4.116
 6085SOL     OW19153   6.697   4.147   0.113
 6085SOL    HW119154   6.658   4.112   0.028
 6085SOL    HW219155   6.794   4.169   0.099
 6086SOL     OW19156   3.767   1.559   4.529
 6086SOL    HW119157   3.754   1.544   4.431
 6086SOL    HW219158   3.779   1.656   4.547
 6087SOL     OW19159   5.130   0.068   6.778
 6087SOL    HW119160   5.108   0.161   6.808
 6087SOL    HW219161   5.226   0.048   6.798
 6088SOL     OW19162   0.087   6.295   4.407
 6088SOL    HW119163   0.166   6.313   4.348
 6088SOL    HW219164   0.118   6.278   4.500
 6089SOL     OW19165   0.562   3.717   1.788
 6089SOL    HW119166   0.623   3.795   1.772
 6089SOL    HW219167   0.508   3.699   1.706
 6090SOL     OW19168   0.466   6.284   6.292
 6090SOL    HW119169   0.541   6.230   6.252
 6090SOL    HW219170   0.477   6.286   6.392
 6091SOL     OW19171   0.734   1.540   2.377
 6091SOL    HW119172   0.658   1.576   2.430
 6091SOL    HW219173   0.710   1.449   2.342
 6092SOL     OW19174   2.774   0.675   3.069
 6092SOL    HW119175   2.757   0.614   2.992
 6092SOL    HW219176   2.781   0.622   3.153
 6093SOL     OW19177   1.492   2.711   2.323
 6093SOL    HW119178   1.497   2.700   2.224
 6093SOL    HW219179   1.575   2.676   2.365
 6094SOL     OW19180   2.273   1.352   1.855
 6094SOL    HW119181   2.229   1.271   1.893
 6094SOL    HW219182   2.211   1.396   1.789
 6095SOL     OW19183   4.828   3.204   6.783
 6095SOL    HW119184   4.789   3.207   6.691
 6095SOL    HW219185   4.927   3.194   6.777
 6096SOL     OW19186   5.934   0.877   3.860
 6096SOL    HW119187   5.860   0.943   3.849
 6096SOL    HW219188   5.986   0.870   3.776
 6097SOL     OW19189   2.458   0.446   3.118
 6097SOL    HW119190   2.426   0.473   3.209
 6097SOL    HW219191   2.442   0.349   3.104
 6098SOL     OW19192   2.039   2.270   5.466
 6098SOL    HW119193   2.000   2.355   5.430
 6098SOL    HW219194   2.137   2.283   5.481
 6099SOL     OW19195   5.475   5.941   5.710
 6099SOL    HW119196   5.540   6.000   5.757
 6099SOL    HW219197   5.382   5.970   5.733
 6100SOL     OW19198   5.999   3.415   6.421
 6100SOL    HW119199   5.980   3.512   6.435
 6100SOL    HW219200   5.932   3.377   6.357
 6101SOL     OW19201   6.883   1.812   5.657
 6101SOL    HW119202   6.935   1.845   5.577
 6101SOL    HW219203   6.786   1.827   5.642
 6102SOL     OW19204   3.512   1.230   4.456
 6102SOL    HW119205   3.526   1.256   4.361
 6102SOL    HW219206   3.487   1.311   4.510
 6103SOL     OW19207   0.282   0.613   3.873
 6103SOL    HW119208   0.268   0.545   3.800
 6103SOL    HW219209   0.254   0.703   3.840
 6104SOL     OW19210   6.405   2.137   6.434
 6104SOL    HW119211   6.317   2.155   6.390
 6104SOL    HW219212   6.401   2.164   6.530
 6105SOL     OW19213   3.417   6.448   5.534
 6105SOL    HW119214   3.507   6.450   5.491
 6105SOL    HW219215   3.356   6.390   5.480
 6106SOL     OW19216   2.608   4.844   6.449
 6106SOL    HW119217   2.544   4.910   6.489
 6106SOL    HW219218   2.558   4.775   6.398
 6107SOL     OW19219   2.169   4.930   4.111
 6107SOL    HW119220   2.168   4.832   4.131
 6107SOL    HW219221   2.076   4.966   4.117
 6108SOL     OW19222   0.678   2.173   3.087
 6108SOL    HW119223   0.598   2.114   3.098
 6108SOL    HW219224   0.728   2.145   3.005
 6109SOL     OW19225   5.254   2.650   6.814
 6109SOL    HW119226   5.244   2.735   6.762
 6109SOL    HW219227   5.165   2.620   6.848
 6110SOL     OW19228   2.708   2.699   6.750
 6110SOL    HW119229   2.610   2.686   6.763
 6110SOL    HW219230   2.728   2.702   6.652
 6111SOL     OW19231   1.432   4.963   2.575
 6111SOL    HW119232   1.376   4.899   2.628
 6111SOL    HW219233   1.421   4.945   2.478
 6112SOL     OW19234   1.717   2.101   2.832
 6112SOL    HW119235   1.716   2.053   2.920
 6112SOL    HW219236   1.625   2.102   2.793
 6113SOL     OW19237   0.609   1.121   6.137
 6113SOL    HW119238   0.652   1.151   6.222
 6113SOL    HW219239   0.543   1.049   6.157
 6114SOL     OW19240   4.996   4.984   0.672
 6114SOL    HW119241   4.897   4.976   0.667
 6114SOL    HW219242   5.022   5.078   0.692
 6115SOL     OW19243   4.887   5.237   3.506
 6115SOL    HW119244   4.817   5.167   3.488
 6115SOL    HW219245   4.904   5.242   3.605
 6116SOL     OW19246   3.257   1.231   1.738
 6116SOL    HW119247   3.217   1.255   1.649
 6116SOL    HW219248   3.213   1.148   1.773
 6117SOL     OW19249   6.258   0.134   4.845
 6117SOL    HW119250   6.234   0.101   4.937
 6117SOL    HW219251   6.303   0.223   4.852
 6118SOL     OW19252   0.267   2.304   1.776
 6118SOL    HW119253   0.288   2.356   1.859
 6118SOL    HW219254   0.226   2.365   1.708
 6119SOL     OW19255   0.296   4.415   4.567
 6119SOL    HW119256   0.270   4.488   4.631
 6119SOL    HW219257   0.232   4.414   4.490
 6120SOL     OW19258   3.198   6.950   4.005
 6120SOL    HW119259   3.101   6.940   3.986
 6120SOL    HW219260   3.221   0.024   4.012
 6121SOL     OW19261   6.896   2.745   4.733
 6121SOL    HW119262   6.918   2.842   4.741
 6121SOL    HW219263   6.814   2.725   4.787
 6122SOL     OW19264   3.859   6.506   2.624
 6122SOL    HW119265   3.815   6.595   2.624
 6122SOL    HW219266   3.823   6.450   2.698
 6123SOL     OW19267   0.213   0.809   1.587
 6123SOL    HW119268   0.296   0.853   1.553
 6123SOL    HW219269   0.193   0.843   1.679
 6124SOL     OW19270   3.713   6.510   5.126
 6124SOL    HW119271   3.732   6.437   5.061
 6124SOL    HW219272   3.721   6.599   5.080
 6125SOL     OW19273   2.331   5.392   1.075
 6125SOL    HW119274   2.403   5.348   1.128
 6125SOL    HW219275   2.246   5.393   1.128
 6126SOL     OW19276   5.200   5.747   4.198
 6126SOL    HW119277   5.232   5.749   4.104
 6126SOL    HW219278   5.211   5.837   4.240
 6127SOL     OW19279   2.362   6.813   1.114
 6127SOL    HW119280   2.394   6.882   1.179
 6127SOL    HW219281   2.382   6.722   1.149
 6128SOL     OW19282   6.843   3.121   0.712
 6128SOL    HW119283   6.773   3.119   0.640
 6128SOL    HW219284   6.804   3.086   0.797
 6129SOL     OW19285   6.531   3.935   3.056
 6129SOL    HW119286   6.451   3.876   3.063
 6129SOL    HW219287   6.609   3.881   3.024
 6130SOL     OW19288   6.784   3.319   4.789
 6130SOL    HW119289   6.691   3.324   4.827
 6130SOL    HW219290   6.814   3.410   4.760
 6131SOL     OW19291   0.185   1.516   5.525
 6131SOL    HW119292   0.166   1.440   5.463
 6131SOL    HW219293   0.251   1.577   5.482
 6132SOL     OW19294   3.745   0.842   1.214
 6132SOL    HW119295   3.711   0.932   1.188
 6132SOL    HW219296   3.669   0.786   1.246
 6133SOL     OW19297   0.427   3.206   2.533
 6133SOL    HW119298   0.473   3.293   2.514
 6133SOL    HW219299   0.374   3.177   2.453
 6134SOL     OW19300   3.973   3.174   6.391
 6134SOL    HW119301   3.875   3.191   6.396
 6134SOL    HW219302   4.013   3.226   6.315
 6135SOL     OW19303   6.516   0.176   2.340
 6135SOL    HW119304   6.590   0.202   2.402
 6135SOL    HW219305   6.555   0.126   2.262
 6136SOL     OW19306   0.484   1.060   2.578
 6136SOL    HW119307   0.516   0.966   2.572
 6136SOL    HW219308   0.523   1.103   2.659
 6137SOL     OW19309   3.645   0.985   6.151
 6137SOL    HW119310   3.702   1.068   6.151
 6137SOL    HW219311   3.662   0.934   6.067
 6138SOL     OW19312   3.201   6.854   2.700
 6138SOL    HW119313   3.134   6.893   2.637
 6138SOL    HW219314   3.256   6.786   2.652
 6139SOL     OW19315   1.782   3.314   5.349
 6139SOL    HW119316   1.860   3.260   5.380
 6139SOL    HW219317   1.808   3.365   5.267
 6140SOL     OW19318   0.491   6.952   1.969
 6140SOL    HW119319   0.562   6.919   2.032
 6140SOL    HW219320   0.473   0.025   1.986
 6141SOL     OW19321   6.262   6.359   4.622
 6141SOL    HW119322   6.163   6.348   4.616
 6141SOL    HW219323   6.283   6.429   4.691
 6142SOL     OW19324   0.227   4.938   0.646
 6142SOL    HW119325   0.256   4.855   0.693
 6142SOL    HW219326   0.179   4.998   0.710
 6143SOL     OW19327   5.936   4.630   6.415
 6143SOL    HW119328   5.997   4.556   6.383
 6143SOL    HW219329   5.956   4.713   6.364
 6144SOL     OW19330   6.876   4.480   2.681
 6144SOL    HW119331   6.958   4.447   2.729
 6144SOL    HW219332   6.903   4.531   2.600
 6145SOL     OW19333   4.911   5.853   3.551
 6145SOL    HW119334   4.881   5.772   3.603
 6145SOL    HW219335   4.850   5.929   3.571
 6146SOL     OW19336   4.490   1.418   3.373
 6146SOL    HW119337   4.486   1.415   3.473
 6146SOL    HW219338   4.581   1.448   3.344
 6147SOL     OW19339   1.654   4.982   3.007
 6147SOL    HW119340   1.631   4.918   3.081
 6147SOL    HW219341   1.638   4.937   2.919
 6148SOL     OW19342   7.022   6.497   4.137
 6148SOL    HW119343   6.992   6.483   4.231
 6148SOL    HW219344   6.963   6.445   4.075
 6149SOL     OW19345   3.685   4.925   3.562
 6149SOL    HW119346   3.605   4.932   3.503
 6149SOL    HW219347   3.761   4.885   3.510
 6150SOL     OW19348   4.471   5.153   6.921
 6150SOL    HW119349   4.431   5.135   7.011
 6150SOL    HW219350   4.570   5.148   6.927
 6151SOL     OW19351   5.917   3.263   5.057
 6151SOL    HW119352   6.004   3.217   5.073
 6151SOL    HW219353   5.867   3.270   5.143
 6152SOL     OW19354   5.341   4.956   5.986
 6152SOL    HW119355   5.249   4.917   5.976
 6152SOL    HW219356   5.384   4.963   5.896
 6153SOL     OW19357   4.735   4.034   1.550
 6153SOL    HW119358   4.829   4.004   1.569
 6153SOL    HW219359   4.681   3.956   1.520
 6154SOL     OW19360   5.280   1.634   2.205
 6154SOL    HW119361   5.218   1.684   2.267
 6154SOL    HW219362   5.271   1.671   2.113
 6155SOL     OW19363   1.387   3.434   4.325
 6155SOL    HW119364   1.376   3.532   4.314
 6155SOL    HW219365   1.480   3.407   4.300
 6156SOL     OW19366   4.690   6.123   2.726
 6156SOL    HW119367   4.670   6.221   2.731
 6156SOL    HW219368   4.634   6.081   2.654
 6157SOL     OW19369   1.374   2.518   3.653
 6157SOL    HW119370   1.304   2.459   3.693
 6157SOL    HW219371   1.330   2.590   3.599
 6158SOL     OW19372   4.822   0.865   6.610
 6158SOL    HW119373   4.857   0.956   6.591
 6158SOL    HW219374   4.747   0.844   6.547
 6159SOL     OW19375   5.004   1.589   0.274
 6159SOL    HW119376   4.998   1.574   0.373
 6159SOL    HW219377   5.100   1.601   0.248
 6160SOL     OW19378   5.418   5.781   0.561
 6160SOL    HW119379   5.355   5.759   0.487
 6160SOL    HW219380   5.471   5.699   0.584
 6161SOL     OW19381   6.086   1.635   5.752
 6161SOL    HW119382   6.047   1.701   5.817
 6161SOL    HW219383   6.012   1.595   5.698
 6162SOL     OW19384   0.815   4.809   4.515
 6162SOL    HW119385   0.789   4.864   4.435
 6162SOL    HW219386   0.767   4.722   4.512
 6163SOL     OW19387   5.574   5.298   1.014
 6163SOL    HW119388   5.671   5.286   1.036
 6163SOL    HW219389   5.534   5.365   1.077
 6164SOL     OW19390   2.132   2.518   1.967
 6164SOL    HW119391   2.106   2.422   1.957
 6164SOL    HW219392   2.231   2.523   1.981
 6165SOL     OW19393   3.694   6.015   0.324
 6165SOL    HW119394   3.744   6.053   0.401
 6165SOL    HW219395   3.742   6.038   0.239
 6166SOL     OW19396   2.862   1.083   5.795
 6166SOL    HW119397   2.867   1.060   5.698
 6166SOL    HW219398   2.823   1.174   5.806
 6167SOL     OW19399   0.990   4.791   2.248
 6167SOL    HW119400   1.027   4.875   2.210
 6167SOL    HW219401   0.995   4.794   2.348
 6168SOL     OW19402   0.796   3.356   1.336
 6168SOL    HW119403   0.796   3.354   1.436
 6168SOL    HW219404   0.876   3.405   1.303
 6169SOL     OW19405   1.865   3.115   1.719
 6169SOL    HW119406   1.858   3.168   1.634
 6169SOL    HW219407   1.944   3.054   1.714
 6170SOL     OW19408   0.642   3.349   5.215
 6170SOL    HW119409   0.572   3.282   5.191
 6170SOL    HW219410   0.665   3.341   5.312
 6171SOL     OW19411   0.683   1.226   0.341
 6171SOL    HW119412   0.599   1.253   0.294
 6171SOL    HW219413   0.660   1.180   0.427
 6172SOL     OW19414   0.969   2.359   3.075
 6172SOL    HW119415   0.913   2.420   3.019
 6172SOL    HW219416   0.988   2.403   3.163
 6173SOL     OW19417   6.457   5.806   2.631
 6173SOL    HW119418   6.537   5.756   2.664
 6173SOL    HW219419   6.426   5.869   2.701
 6174SOL     OW19420   4.733   4.987   3.173
 6174SOL    HW119421   4.774   5.022   3.088
 6174SOL    HW219422   4.698   5.063   3.227
 6175SOL     OW19423   3.687   0.459   4.489
 6175SOL    HW119424   3.647   0.487   4.402
 6175SOL    HW219425   3.619   0.409   4.542
 6176SOL     OW19426   4.533   3.497   5.327
 6176SOL    HW119427   4.605   3.507   5.258
 6176SOL    HW219428   4.495   3.587   5.349
 6177SOL     OW19429   5.950   2.052   1.703
 6177SOL    HW119430   6.031   2.024   1.652
 6177SOL    HW219431   5.963   2.143   1.741
 6178SOL     OW19432   4.932   3.698   1.804
 6178SOL    HW119433   4.854   3.743   1.847
 6178SOL    HW219434   4.912   3.681   1.707
 6179SOL     OW19435   6.673   4.903   1.255
 6179SOL    HW119436   6.594   4.964   1.255
 6179SOL    HW219437   6.753   4.953   1.288
 6180SOL     OW19438   3.227   4.742   0.838
 6180SOL    HW119439   3.298   4.704   0.898
 6180SOL    HW219440   3.137   4.727   0.878
 6181SOL     OW19441   5.081   5.859   6.046
 6181SOL    HW119442   5.040   5.792   6.107
 6181SOL    HW219443   5.175   5.877   6.076
 6182SOL     OW19444   3.738   3.076   0.115
 6182SOL    HW119445   3.776   2.993   0.156
 6182SOL    HW219446   3.813   3.134   0.081
 6183SOL     OW19447   1.755   2.381   1.077
 6183SOL    HW119448   1.727   2.359   1.170
 6183SOL    HW219449   1.837   2.330   1.053
 6184SOL     OW19450   3.144   0.751   5.904
 6184SOL    HW119451   3.094   0.664   5.913
 6184SOL    HW219452   3.125   0.791   5.815
 6185SOL     OW19453   2.948   3.051   5.742
 6185SOL    HW119454   3.030   3.094   5.704
 6185SOL    HW219455   2.928   2.967   5.690
 6186SOL     OW19456   6.990   1.786   1.643
 6186SOL    HW119457   6.896   1.759   1.666
 6186SOL    HW219458   6.988   1.846   1.563
 6187SOL     OW19459   4.772   2.395   5.076
 6187SOL    HW119460   4.686   2.426   5.034
 6187SOL    HW219461   4.834   2.362   5.004
 6188SOL     OW19462   1.866   1.456   5.112
 6188SOL    HW119463   1.879   1.552   5.136
 6188SOL    HW219464   1.888   1.399   5.191
 6189SOL     OW19465   3.974   5.623   2.337
 6189SOL    HW119466   4.032   5.572   2.401
 6189SOL    HW219467   3.886   5.643   2.381
 6190SOL     OW19468   6.626   3.590   5.802
 6190SOL    HW119469   6.601   3.686   5.811
 6190SOL    HW219470   6.588   3.553   5.717
 6191SOL     OW19471   2.502   3.038   5.884
 6191SOL    HW119472   2.420   2.996   5.843
 6191SOL    HW219473   2.551   3.089   5.815
 6192SOL     OW19474   2.186   1.246   6.647
 6192SOL    HW119475   2.114   1.202   6.593
 6192SOL    HW219476   2.239   1.306   6.589
 6193SOL     OW19477   5.155   5.190   0.432
 6193SOL    HW119478   5.197   5.222   0.518
 6193SOL    HW219479   5.183   5.095   0.416
 6194SOL     OW19480   6.531   1.008   6.792
 6194SOL    HW119481   6.463   1.001   6.865
 6194SOL    HW219482   6.604   0.942   6.808
 6195SOL     OW19483   5.540   0.367   5.062
 6195SOL    HW119484   5.544   0.294   4.994
 6195SOL    HW219485   5.552   0.455   5.018
 6196SOL     OW19486   5.352   4.653   2.672
 6196SOL    HW119487   5.361   4.558   2.701
 6196SOL    HW219488   5.287   4.659   2.596
 6197SOL     OW19489   2.694   5.273   2.370
 6197SOL    HW119490   2.622   5.215   2.334
 6197SOL    HW219491   2.663   5.318   2.454
 6198SOL     OW19492   5.537   6.308   6.290
 6198SOL    HW119493   5.633   6.281   6.290
 6198SOL    HW219494   5.529   6.400   6.253
 6199SOL     OW19495   0.636   0.380   0.541
 6199SOL    HW119496   0.648   0.470   0.582
 6199SOL    HW219497   0.721   0.351   0.498
 6200SOL     OW19498   1.322   0.894   2.763
 6200SOL    HW119499   1.300   0.958   2.690
 6200SOL    HW219500   1.417   0.906   2.791
 6201SOL     OW19501   7.017   4.629   3.836
 6201SOL    HW119502   0.067   4.575   3.879
 6201SOL    HW219503   6.929   4.583   3.850
 6202SOL     OW19504   6.050   1.815   3.462
 6202SOL    HW119505   6.126   1.833   3.525
 6202SOL    HW219506   6.029   1.718   3.463
 6203SOL     OW19507   6.580   5.533   1.760
 6203SOL    HW119508   6.582   5.554   1.858
 6203SOL    HW219509   6.603   5.436   1.746
 6204SOL     OW19510   0.947   5.863   4.872
 6204SOL    HW119511   0.917   5.863   4.967
 6204SOL    HW219512   1.007   5.941   4.856
 6205SOL     OW19513   4.822   4.879   2.177
 6205SOL    HW119514   4.892   4.809   2.193
 6205SOL    HW219515   4.740   4.837   2.139
 6206SOL     OW19516   4.663   1.795   3.720
 6206SOL    HW119517   4.608   1.776   3.802
 6206SOL    HW219518   4.602   1.816   3.644
 6207SOL     OW19519   1.558   5.932   4.326
 6207SOL    HW119520   1.578   5.873   4.248
 6207SOL    HW219521   1.640   5.985   4.349
 6208SOL     OW19522   3.361   2.938   6.467
 6208SOL    HW119523   3.442   2.985   6.503
 6208SOL    HW219524   3.279   2.988   6.492
 6209SOL     OW19525   3.535   4.261   0.878
 6209SOL    HW119526   3.629   4.271   0.913
 6209SOL    HW219527   3.496   4.176   0.912
 6210SOL     OW19528   4.923   3.517   2.956
 6210SOL    HW119529   4.983   3.495   3.033
 6210SOL    HW219530   4.878   3.435   2.923
 6211SOL     OW19531   4.699   5.585   5.121
 6211SOL    HW119532   4.688   5.655   5.051
 6211SOL    HW219533   4.789   5.543   5.113
 6212SOL     OW19534   2.570   4.926   4.969
 6212SOL    HW119535   2.525   4.954   4.884
 6212SOL    HW219536   2.510   4.947   5.046
 6213SOL     OW19537   4.812   6.566   0.179
 6213SOL    HW119538   4.759   6.483   0.164
 6213SOL    HW219539   4.909   6.549   0.158
 6214SOL     OW19540   5.840   5.697   5.209
 6214SOL    HW119541   5.935   5.690   5.180
 6214SOL    HW219542   5.832   5.670   5.305
 6215SOL     OW19543   5.127   3.301   6.071
 6215SOL    HW119544   5.073   3.384   6.090
 6215SOL    HW219545   5.081   3.222   6.110
 6216SOL     OW19546   5.800   2.876   3.365
 6216SOL    HW119547   5.781   2.889   3.463
 6216SOL    HW219548   5.850   2.790   3.352
 6217SOL     OW19549   1.030   4.815   2.510
 6217SOL    HW119550   1.122   4.785   2.535
 6217SOL    HW219551   0.969   4.802   2.589
 6218SOL     OW19552   4.990   6.036   0.015
 6218SOL    HW119553   5.009   6.125   0.057
 6218SOL    HW219554   4.922   6.048   6.966
 6219SOL     OW19555   1.227   1.034   5.132
 6219SOL    HW119556   1.221   1.065   5.037
 6219SOL    HW219557   1.321   1.043   5.164
 6220SOL     OW19558   3.544   0.501   0.371
 6220SOL    HW119559   3.548   0.433   0.298
 6220SOL    HW219560   3.635   0.514   0.409
 6221SOL     OW19561   6.811   6.268   6.656
 6221SOL    HW119562   6.865   6.230   6.731
 6221SOL    HW219563   6.864   6.338   6.608
 6222SOL     OW19564   6.004   1.035   1.854
 6222SOL    HW119565   6.049   0.978   1.923
 6222SOL    HW219566   6.033   1.130   1.865
 6223SOL     OW19567   0.451   5.333   3.973
 6223SOL    HW119568   0.477   5.255   4.029
 6223SOL    HW219569   0.491   5.324   3.882
 6224SOL     OW19570   4.237   1.205   6.229
 6224SOL    HW119571   4.177   1.126   6.219
 6224SOL    HW219572   4.193   1.273   6.288
 6225SOL     OW19573   4.135   0.843   6.706
 6225SOL    HW119574   4.156   0.805   6.616
 6225SOL    HW219575   4.208   0.904   6.735
 6226SOL     OW19576   1.306   1.492   4.245
 6226SOL    HW119577   1.263   1.541   4.169
 6226SOL    HW219578   1.402   1.474   4.222
 6227SOL     OW19579   3.136   4.449   5.412
 6227SOL    HW119580   3.119   4.532   5.360
 6227SOL    HW219581   3.079   4.375   5.375
 6228SOL     OW19582   2.041   2.382   3.508
 6228SOL    HW119583   2.003   2.473   3.518
 6228SOL    HW219584   1.972   2.313   3.532
 6229SOL     OW19585   0.002   3.335   5.004
 6229SOL    HW119586   0.012   3.428   5.040
 6229SOL    HW219587   6.966   3.336   4.924
 6230SOL     OW19588   0.201   1.620   2.379
 6230SOL    HW119589   0.284   1.565   2.389
 6230SOL    HW219590   0.178   1.629   2.282
 6231SOL     OW19591   5.353   4.417   0.691
 6231SOL    HW119592   5.374   4.491   0.755
 6231SOL    HW219593   5.413   4.424   0.611
 6232SOL     OW19594   5.503   0.735   0.309
 6232SOL    HW119595   5.575   0.736   0.378
 6232SOL    HW219596   5.434   0.804   0.330
 6233SOL     OW19597   0.544   3.844   2.266
 6233SOL    HW119598   0.590   3.757   2.250
 6233SOL    HW219599   0.508   3.880   2.180
 6234SOL     OW19600   0.271   6.802   4.332
 6234SOL    HW119601   0.274   6.737   4.255
 6234SOL    HW219602   0.240   6.891   4.299
 6235SOL     OW19603   6.896   0.707   2.528
 6235SOL    HW119604   6.912   0.645   2.452
 6235SOL    HW219605   6.846   0.659   2.601
 6236SOL     OW19606   0.787   4.284   1.068
 6236SOL    HW119607   0.824   4.200   1.107
 6236SOL    HW219608   0.810   4.289   0.971
 6237SOL     OW19609   3.873   6.860   0.541
 6237SOL    HW119610   3.820   6.945   0.545
 6237SOL    HW219611   3.880   6.822   0.633
 6238SOL     OW19612   3.095   6.509   4.002
 6238SOL    HW119613   3.021   6.569   4.034
 6238SOL    HW219614   3.057   6.421   3.974
 6239SOL     OW19615   4.500   6.997   2.577
 6239SOL    HW119616   4.497   6.915   2.635
 6239SOL    HW219617   4.578   0.031   2.605
 6240SOL     OW19618   3.026   3.226   4.523
 6240SOL    HW119619   2.979   3.237   4.611
 6240SOL    HW219620   3.061   3.133   4.516
 6241SOL     OW19621   3.322   6.708   3.993
 6241SOL    HW119622   3.250   6.639   3.980
 6241SOL    HW219623   3.281   6.799   3.989
 6242SOL     OW19624   2.987   2.129   2.686
 6242SOL    HW119625   2.959   2.209   2.634
 6242SOL    HW219626   3.040   2.158   2.766
 6243SOL     OW19627   5.920   0.904   6.290
 6243SOL    HW119628   5.894   0.886   6.195
 6243SOL    HW219629   6.019   0.896   6.300
 6244SOL     OW19630   4.479   4.742   3.116
 6244SOL    HW119631   4.568   4.787   3.109
 6244SOL    HW219632   4.480   4.657   3.065
 6245SOL     OW19633   1.283   4.766   2.683
 6245SOL    HW119634   1.246   4.732   2.770
 6245SOL    HW219635   1.330   4.692   2.635
 6246SOL     OW19636   1.276   6.911   4.636
 6246SOL    HW119637   1.176   6.918   4.643
 6246SOL    HW219638   1.300   6.821   4.601
 6247SOL     OW19639   6.937   5.362   3.452
 6247SOL    HW119640   6.893   5.418   3.522
 6247SOL    HW219641   6.912   5.266   3.465
 6248SOL     OW19642   4.383   2.771   6.640
 6248SOL    HW119643   4.457   2.810   6.694
 6248SOL    HW219644   4.359   2.681   6.676
 6249SOL     OW19645   0.006   3.307   1.577
 6249SOL    HW119646   0.061   3.303   1.660
 6249SOL    HW219647   6.996   3.215   1.554
 6250SOL     OW19648   6.950   6.967   0.813
 6250SOL    HW119649   7.006   6.919   0.881
 6250SOL    HW219650   6.854   6.945   0.828
 6251SOL     OW19651   2.871   0.017   4.462
 6251SOL    HW119652   2.820   6.955   4.453
 6251SOL    HW219653   2.929   0.013   4.543
 6252SOL     OW19654   2.914   5.567   6.782
 6252SOL    HW119655   2.936   5.530   6.873
 6252SOL    HW219656   2.837   5.516   6.744
 6253SOL     OW19657   3.129   4.910   4.405
 6253SOL    HW119658   3.079   4.857   4.336
 6253SOL    HW219659   3.079   4.907   4.492
 6254SOL     OW19660   0.057   5.462   0.826
 6254SOL    HW119661   0.044   5.369   0.861
 6254SOL    HW219662   0.020   5.469   0.733
 6255SOL     OW19663   1.376   1.862   1.284
 6255SOL    HW119664   1.362   1.935   1.217
 6255SOL    HW219665   1.358   1.773   1.240
 6256SOL     OW19666   4.889   5.762   2.368
 6256SOL    HW119667   4.951   5.798   2.297
 6256SOL    HW219668   4.901   5.815   2.452
 6257SOL     OW19669   4.409   3.795   0.590
 6257SOL    HW119670   4.505   3.804   0.564
 6257SOL    HW219671   4.383   3.698   0.592
 6258SOL     OW19672   4.481   0.114   5.906
 6258SOL    HW119673   4.433   0.186   5.856
 6258SOL    HW219674   4.443   0.104   5.998
 6259SOL     OW19675   1.952   6.916   5.778
 6259SOL    HW119676   1.880   6.847   5.784
 6259SOL    HW219677   2.034   6.875   5.736
 6260SOL     OW19678   1.668   0.409   0.341
 6260SOL    HW119679   1.588   0.353   0.363
 6260SOL    HW219680   1.674   0.485   0.406
 6261SOL     OW19681   4.719   6.892   1.191
 6261SOL    HW119682   4.708   6.797   1.219
 6261SOL    HW219683   4.684   6.952   1.263
 6262SOL     OW19684   6.270   6.647   2.243
 6262SOL    HW119685   6.302   6.557   2.214
 6262SOL    HW219686   6.194   6.676   2.185
 6263SOL     OW19687   0.258   6.619   4.133
 6263SOL    HW119688   0.161   6.594   4.133
 6263SOL    HW219689   0.285   6.649   4.041
 6264SOL     OW19690   0.294   7.012   1.070
 6264SOL    HW119691   0.382   6.982   1.035
 6264SOL    HW219692   0.290   6.996   1.169
 6265SOL     OW19693   4.001   2.608   0.523
 6265SOL    HW119694   3.919   2.561   0.490
 6265SOL    HW219695   4.051   2.546   0.585
 6266SOL     OW19696   3.191   5.450   2.693
 6266SOL    HW119697   3.160   5.365   2.650
 6266SOL    HW219698   3.121   5.482   2.756
 6267SOL     OW19699   0.913   6.387   5.264
 6267SOL    HW119700   0.976   6.314   5.292
 6267SOL    HW219701   0.846   6.351   5.200
 6268SOL     OW19702   3.836   0.540   1.900
 6268SOL    HW119703   3.825   0.584   1.989
 6268SOL    HW219704   3.747   0.507   1.868
 6269SOL     OW19705   5.588   6.436   1.229
 6269SOL    HW119706   5.571   6.516   1.172
 6269SOL    HW219707   5.665   6.384   1.192
 6270SOL     OW19708   1.345   6.421   6.964
 6270SOL    HW119709   1.435   6.404   7.003
 6270SOL    HW219710   1.333   6.520   6.950
 6271SOL     OW19711   5.940   2.952   6.922
 6271SOL    HW119712   5.921   2.940   7.019
 6271SOL    HW219713   6.039   2.952   6.907
 6272SOL     OW19714   6.146   0.165   0.201
 6272SOL    HW119715   6.191   0.076   0.190
 6272SOL    HW219716   6.146   0.214   0.114
 6273SOL     OW19717   6.772   6.613   2.337
 6273SOL    HW119718   6.783   6.708   2.308
 6273SOL    HW219719   6.810   6.602   2.429
 6274SOL     OW19720   3.139   6.001   4.812
 6274SOL    HW119721   3.133   6.090   4.856
 6274SOL    HW219722   3.088   6.003   4.726
 6275SOL     OW19723   2.527   6.028   0.818
 6275SOL    HW119724   2.452   6.079   0.776
 6275SOL    HW219725   2.533   5.937   0.779
 6276SOL     OW19726   2.423   5.692   3.373
 6276SOL    HW119727   2.456   5.622   3.310
 6276SOL    HW219728   2.349   5.744   3.329
 6277SOL     OW19729   5.349   2.420   1.561
 6277SOL    HW119730   5.371   2.371   1.477
 6277SOL    HW219731   5.331   2.516   1.540
 6278SOL     OW19732   3.324   0.380   5.682
 6278SOL    HW119733   3.345   0.384   5.585
 6278SOL    HW219734   3.322   0.285   5.712
 6279SOL     OW19735   3.400   6.033   1.005
 6279SOL    HW119736   3.485   5.991   0.974
 6279SOL    HW219737   3.331   5.962   1.018
 6280SOL     OW19738   6.497   1.821   6.778
 6280SOL    HW119739   6.439   1.759   6.724
 6280SOL    HW219740   6.573   1.852   6.722
 6281SOL     OW19741   6.262   3.721   4.844
 6281SOL    HW119742   6.224   3.628   4.844
 6281SOL    HW219743   6.288   3.747   4.751
 6282SOL     OW19744   0.199   3.601   6.327
 6282SOL    HW119745   0.163   3.687   6.292
 6282SOL    HW219746   0.158   3.525   6.278
 6283SOL     OW19747   1.120   5.701   5.147
 6283SOL    HW119748   1.119   5.602   5.161
 6283SOL    HW219749   1.170   5.723   5.063
 6284SOL     OW19750   2.187   4.154   6.854
 6284SOL    HW119751   2.102   4.196   6.823
 6284SOL    HW219752   2.263   4.216   6.837
 6285SOL     OW19753   1.841   3.762   2.658
 6285SOL    HW119754   1.786   3.789   2.737
 6285SOL    HW219755   1.937   3.761   2.683
 6286SOL     OW19756   1.036   3.304   4.622
 6286SOL    HW119757   0.989   3.329   4.537
 6286SOL    HW219758   1.100   3.229   4.604
 6287SOL     OW19759   4.310   4.836   5.171
 6287SOL    HW119760   4.296   4.858   5.074
 6287SOL    HW219761   4.226   4.799   5.209
 6288SOL     OW19762   3.671   3.602   6.281
 6288SOL    HW119763   3.585   3.616   6.331
 6288SOL    HW219764   3.652   3.599   6.183
 6289SOL     OW19765   2.326   4.436   6.533
 6289SOL    HW119766   2.422   4.414   6.517
 6289SOL    HW219767   2.271   4.352   6.530
 6290SOL     OW19768   6.038   5.266   6.215
 6290SOL    HW119769   5.945   5.266   6.180
 6290SOL    HW219770   6.093   5.201   6.163
 6291SOL     OW19771   3.421   3.164   2.777
 6291SOL    HW119772   3.324   3.140   2.769
 6291SOL    HW219773   3.429   3.263   2.793
 6292SOL     OW19774   2.026   2.857   4.351
 6292SOL    HW119775   2.120   2.825   4.365
 6292SOL    HW219776   1.979   2.863   4.439
 6293SOL     OW19777   5.109   1.037   6.990
 6293SOL    HW119778   5.161   1.111   6.948
 6293SOL    HW219779   5.013   1.062   6.994
 6294SOL     OW19780   3.041   1.237   3.931
 6294SOL    HW119781   3.044   1.137   3.935
 6294SOL    HW219782   2.986   1.266   3.852
 6295SOL     OW19783   5.339   4.788   5.161
 6295SOL    HW119784   5.303   4.713   5.105
 6295SOL    HW219785   5.276   4.808   5.236
 6296SOL     OW19786   0.207   3.133   6.393
 6296SOL    HW119787   0.292   3.082   6.405
 6296SOL    HW219788   0.226   3.221   6.350
 6297SOL     OW19789   6.300   0.451   4.486
 6297SOL    HW119790   6.235   0.377   4.466
 6297SOL    HW219791   6.391   0.425   4.453
 6298SOL     OW19792   5.730   4.623   6.678
 6298SOL    HW119793   5.750   4.593   6.772
 6298SOL    HW219794   5.642   4.586   6.649
 6299SOL     OW19795   5.225   2.798   2.974
 6299SOL    HW119796   5.302   2.849   2.935
 6299SOL    HW219797   5.260   2.731   3.039
 6300SOL     OW19798   3.785   1.232   6.102
 6300SOL    HW119799   3.876   1.205   6.069
 6300SOL    HW219800   3.793   1.266   6.196
 6301SOL     OW19801   3.227   6.722   6.689
 6301SOL    HW119802   3.172   6.727   6.606
 6301SOL    HW219803   3.276   6.635   6.692
 6302SOL     OW19804   2.668   0.851   5.917
 6302SOL    HW119805   2.752   0.875   5.967
 6302SOL    HW219806   2.691   0.819   5.825
 6303SOL     OW19807   1.106   6.388   5.855
 6303SOL    HW119808   1.046   6.331   5.911
 6303SOL    HW219809   1.144   6.461   5.911
 6304SOL     OW19810   4.598   1.088   3.124
 6304SOL    HW119811   4.512   1.072   3.173
 6304SOL    HW219812   4.638   1.001   3.097
 6305SOL     OW19813   0.109   5.434   5.250
 6305SOL    HW119814   0.119   5.417   5.348
 6305SOL    HW219815   0.083   5.529   5.234
 6306SOL     OW19816   0.136   4.231   3.972
 6306SOL    HW119817   0.110   4.183   4.056
 6306SOL    HW219818   0.144   4.329   3.991
 6307SOL     OW19819   4.003   3.890   3.837
 6307SOL    HW119820   4.063   3.950   3.889
 6307SOL    HW219821   3.989   3.929   3.745
 6308SOL     OW19822   0.317   2.733   6.434
 6308SOL    HW119823   0.365   2.696   6.355
 6308SOL    HW219824   0.229   2.686   6.444
 6309SOL     OW19825   0.935   6.558   4.637
 6309SOL    HW119826   0.940   6.458   4.629
 6309SOL    HW219827   0.852   6.583   4.687
 6310SOL     OW19828   1.749   6.603   3.175
 6310SOL    HW119829   1.663   6.653   3.186
 6310SOL    HW219830   1.789   6.626   3.086
 6311SOL     OW19831   5.669   1.189   5.924
 6311SOL    HW119832   5.640   1.237   6.007
 6311SOL    HW219833   5.768   1.172   5.930
 6312SOL     OW19834   3.125   6.336   6.696
 6312SOL    HW119835   3.120   6.395   6.776
 6312SOL    HW219836   3.127   6.392   6.613
 6313SOL     OW19837   5.059   6.053   3.191
 6313SOL    HW119838   5.074   6.058   3.093
 6313SOL    HW219839   5.147   6.052   3.239
 6314SOL     OW19840   2.762   0.296   1.598
 6314SOL    HW119841   2.807   0.255   1.519
 6314SOL    HW219842   2.817   0.278   1.680
 6315SOL     OW19843   1.837   2.956   4.201
 6315SOL    HW119844   1.875   2.963   4.109
 6315SOL    HW219845   1.903   2.910   4.260
 6316SOL     OW19846   5.579   1.888   4.969
 6316SOL    HW119847   5.589   1.822   5.044
 6316SOL    HW219848   5.487   1.927   4.970
 6317SOL     OW19849   5.173   4.493   2.514
 6317SOL    HW119850   5.202   4.455   2.601
 6317SOL    HW219851   5.238   4.466   2.443
 6318SOL     OW19852   6.504   0.384   6.478
 6318SOL    HW119853   6.555   0.399   6.563
 6318SOL    HW219854   6.556   0.420   6.401
 6319SOL     OW19855   5.525   2.960   4.475
 6319SOL    HW119856   5.546   3.005   4.561
 6319SOL    HW219857   5.426   2.954   4.464
 6320SOL     OW19858   0.470   0.766   4.066
 6320SOL    HW119859   0.438   0.684   4.019
 6320SOL    HW219860   0.403   0.839   4.056
 6321SOL     OW19861   5.673   2.280   0.609
 6321SOL    HW119862   5.692   2.331   0.693
 6321SOL    HW219863   5.709   2.187   0.618
 6322SOL     OW19864   2.025   0.766   0.711
 6322SOL    HW119865   1.990   0.794   0.622
 6322SOL    HW219866   2.004   0.836   0.779
 6323SOL     OW19867   2.941   2.695   0.811
 6323SOL    HW119868   2.988   2.613   0.846
 6323SOL    HW219869   2.849   2.699   0.850
 6324SOL     OW19870   4.511   1.480   0.963
 6324SOL    HW119871   4.540   1.549   0.896
 6324SOL    HW219872   4.517   1.518   1.055
 6325SOL     OW19873   1.532   2.425   2.168
 6325SOL    HW119874   1.580   2.398   2.084
 6325SOL    HW219875   1.547   2.355   2.239
 6326SOL     OW19876   4.966   5.239   5.795
 6326SOL    HW119877   4.939   5.147   5.769
 6326SOL    HW219878   5.063   5.239   5.822
 6327SOL     OW19879   0.149   2.321   3.845
 6327SOL    HW119880   0.201   2.236   3.845
 6327SOL    HW219881   0.052   2.300   3.857
 6328SOL     OW19882   4.421   3.265   6.050
 6328SOL    HW119883   4.455   3.347   6.005
 6328SOL    HW219884   4.363   3.213   5.987
 6329SOL     OW19885   1.570   2.730   5.276
 6329SOL    HW119886   1.481   2.752   5.315
 6329SOL    HW219887   1.558   2.686   5.187
 6330SOL     OW19888   6.644   1.230   3.349
 6330SOL    HW119889   6.619   1.146   3.302
 6330SOL    HW219890   6.606   1.308   3.300
 6331SOL     OW19891   6.652   3.100   4.581
 6331SOL    HW119892   6.622   3.004   4.585
 6331SOL    HW219893   6.580   3.158   4.619
 6332SOL     OW19894   1.775   1.609   1.386
 6332SOL    HW119895   1.790   1.592   1.483
 6332SOL    HW219896   1.724   1.533   1.346
 6333SOL     OW19897   4.922   0.097   0.401
 6333SOL    HW119898   4.997   0.050   0.448
 6333SOL    HW219899   4.958   0.148   0.323
 6334SOL     OW19900   2.937   1.686   1.963
 6334SOL    HW119901   2.985   1.763   2.004
 6334SOL    HW219902   2.876   1.645   2.030
 6335SOL     OW19903   5.729   0.749   0.534
 6335SOL    HW119904   5.803   0.782   0.593
 6335SOL    HW219905   5.654   0.716   0.591
 6336SOL     OW19906   0.306   3.949   6.118
 6336SOL    HW119907   0.373   3.876   6.104
 6336SOL    HW219908   0.221   3.910   6.153
 6337SOL     OW19909   4.263   5.745   4.866
 6337SOL    HW119910   4.215   5.661   4.841
 6337SOL    HW219911   4.199   5.809   4.907
 6338SOL     OW19912   3.059   2.266   4.135
 6338SOL    HW119913   2.969   2.278   4.093
 6338SOL    HW219914   3.126   2.243   4.065
 6339SOL     OW19915   1.063   4.151   2.902
 6339SOL    HW119916   1.048   4.157   3.001
 6339SOL    HW219917   0.985   4.191   2.854
 6340SOL     OW19918   2.282   4.010   1.512
 6340SOL    HW119919   2.343   4.074   1.466
 6340SOL    HW219920   2.317   3.990   1.604
 6341SOL     OW19921   1.081   4.378   4.048
 6341SOL    HW119922   1.045   4.421   4.131
 6341SOL    HW219923   1.055   4.282   4.045
 6342SOL     OW19924   1.785   1.019   2.136
 6342SOL    HW119925   1.719   0.944   2.134
 6342SOL    HW219926   1.789   1.057   2.228
 6343SOL     OW19927   2.994   6.221   0.207
 6343SOL    HW119928   2.989   6.248   0.303
 6343SOL    HW219929   2.946   6.135   0.194
 6344SOL     OW19930   6.020   2.514   3.454
 6344SOL    HW119931   5.921   2.511   3.440
 6344SOL    HW219932   6.065   2.528   3.365
 6345SOL     OW19933   5.495   3.649   1.541
 6345SOL    HW119934   5.452   3.594   1.469
 6345SOL    HW219935   5.428   3.669   1.612
 6346SOL     OW19936   0.758   4.397   5.847
 6346SOL    HW119937   0.662   4.381   5.826
 6346SOL    HW219938   0.767   4.480   5.902
 6347SOL     OW19939   2.767   2.343   2.558
 6347SOL    HW119940   2.684   2.330   2.503
 6347SOL    HW219941   2.793   2.439   2.557
 6348SOL     OW19942   0.240   1.558   6.035
 6348SOL    HW119943   0.293   1.508   5.966
 6348SOL    HW219944   0.252   1.513   6.124
 6349SOL     OW19945   1.063   0.551   0.665
 6349SOL    HW119946   0.982   0.603   0.639
 6349SOL    HW219947   1.039   0.454   0.672
 6350SOL     OW19948   0.816   4.880   1.924
 6350SOL    HW119949   0.719   4.866   1.944
 6350SOL    HW219950   0.853   4.798   1.879
 6351SOL     OW19951   6.659   3.866   3.542
 6351SOL    HW119952   6.740   3.860   3.484
 6351SOL    HW219953   6.647   3.961   3.572
 6352SOL     OW19954   2.124   0.760   4.351
 6352SOL    HW119955   2.224   0.767   4.354
 6352SOL    HW219956   2.095   0.734   4.259
 6353SOL     OW19957   2.371   5.860   6.520
 6353SOL    HW119958   2.322   5.892   6.601
 6353SOL    HW219959   2.368   5.931   6.450
 6354SOL     OW19960   5.068   4.565   2.955
 6354SOL    HW119961   5.124   4.648   2.962
 6354SOL    HW219962   4.973   4.590   2.937
 6355SOL     OW19963   2.741   4.494   0.428
 6355SOL    HW119964   2.668   4.434   0.462
 6355SOL    HW219965   2.779   4.547   0.504
 6356SOL     OW19966   4.958   5.417   6.433
 6356SOL    HW119967   4.999   5.487   6.491
 6356SOL    HW219968   5.009   5.331   6.444
 6357SOL     OW19969   5.937   2.418   1.544
 6357SOL    HW119970   5.860   2.356   1.529
 6357SOL    HW219971   6.016   2.366   1.577
 6358SOL     OW19972   1.410   2.004   6.388
 6358SOL    HW119973   1.430   1.961   6.476
 6358SOL    HW219974   1.313   2.029   6.385
 6359SOL     OW19975   5.595   6.432   0.682
 6359SOL    HW119976   5.592   6.495   0.760
 6359SOL    HW219977   5.506   6.386   0.673
 6360SOL     OW19978   6.814   2.558   3.586
 6360SOL    HW119979   6.908   2.591   3.577
 6360SOL    HW219980   6.797   2.487   3.518
 6361SOL     OW19981   0.016   0.833   0.096
 6361SOL    HW119982   0.113   0.856   0.088
 6361SOL    HW219983   6.988   0.913   0.126
 6362SOL     OW19984   0.915   5.612   6.713
 6362SOL    HW119985   0.885   5.664   6.634
 6362SOL    HW219986   0.957   5.527   6.683
 6363SOL     OW19987   2.436   4.881   3.089
 6363SOL    HW119988   2.434   4.979   3.110
 6363SOL    HW219989   2.435   4.868   2.989
 6364SOL     OW19990   2.781   2.299   4.803
 6364SOL    HW119991   2.860   2.239   4.807
 6364SOL    HW219992   2.741   2.308   4.895
 6365SOL     OW19993   6.070   6.065   4.213
 6365SOL    HW119994   6.027   6.041   4.127
 6365SOL    HW219995   6.023   6.144   4.253
 6366SOL     OW19996   6.106   6.461   5.022
 6366SOL    HW119997   6.186   6.479   5.079
 6366SOL    HW219998   6.085   6.363   5.022
 6367SOL     OW19999   3.401   2.105   3.026
 6367SOL    HW120000   3.415   2.012   3.058
 6367SOL    HW220001   3.462   2.124   2.950
 6368SOL     OW20002   4.749   4.203   3.745
 6368SOL    HW120003   4.761   4.135   3.818
 6368SOL    HW220004   4.774   4.162   3.657
 6369SOL     OW20005   3.430   6.372   6.096
 6369SOL    HW120006   3.350   6.415   6.139
 6369SOL    HW220007   3.400   6.299   6.035
 6370SOL     OW20008   4.891   3.618   3.552
 6370SOL    HW120009   4.882   3.518   3.547
 6370SOL    HW220010   4.871   3.658   3.463
 6371SOL     OW20011   5.168   4.378   1.609
 6371SOL    HW120012   5.078   4.361   1.651
 6371SOL    HW220013   5.238   4.377   1.680
 6372SOL     OW20014   0.242   0.937   2.732
 6372SOL    HW120015   0.178   0.988   2.790
 6372SOL    HW220016   0.296   1.001   2.678
 6373SOL     OW20017   5.533   4.584   1.284
 6373SOL    HW120018   5.568   4.520   1.352
 6373SOL    HW220019   5.586   4.575   1.200
 6374SOL     OW20020   4.886   2.671   0.168
 6374SOL    HW120021   4.905   2.589   0.222
 6374SOL    HW220022   4.866   2.747   0.229
 6375SOL     OW20023   6.691   2.853   2.449
 6375SOL    HW120024   6.610   2.908   2.467
 6375SOL    HW220025   6.758   2.907   2.398
 6376SOL     OW20026   4.161   0.887   5.542
 6376SOL    HW120027   4.106   0.958   5.585
 6376SOL    HW220028   4.112   0.848   5.465
 6377SOL     OW20029   6.989   0.331   0.207
 6377SOL    HW120030   6.965   0.269   0.282
 6377SOL    HW220031   0.037   0.289   0.151
 6378SOL     OW20032   5.636   5.838   2.611
 6378SOL    HW120033   5.599   5.772   2.676
 6378SOL    HW220034   5.561   5.882   2.562
 6379SOL     OW20035   2.182   5.799   6.216
 6379SOL    HW120036   2.183   5.795   6.116
 6379SOL    HW220037   2.202   5.708   6.253
 6380SOL     OW20038   1.147   3.121   5.060
 6380SOL    HW120039   1.104   3.118   5.150
 6380SOL    HW220040   1.108   3.196   5.006
 6381SOL     OW20041   4.510   3.067   0.444
 6381SOL    HW120042   4.486   3.148   0.392
 6381SOL    HW220043   4.458   2.988   0.409
 6382SOL     OW20044   2.516   1.901   1.264
 6382SOL    HW120045   2.561   1.827   1.314
 6382SOL    HW220046   2.505   1.980   1.324
 6383SOL     OW20047   1.987   2.565   2.754
 6383SOL    HW120048   1.945   2.655   2.741
 6383SOL    HW220049   2.080   2.566   2.717
 6384SOL     OW20050   6.065   2.639   2.375
 6384SOL    HW120051   6.137   2.589   2.424
 6384SOL    HW220052   6.105   2.715   2.325
 6385SOL     OW20053   0.579   3.421   1.164
 6385SOL    HW120054   0.674   3.423   1.198
 6385SOL    HW220055   0.569   3.489   1.092
 6386SOL     OW20056   1.684   3.485   0.722
 6386SOL    HW120057   1.682   3.507   0.820
 6386SOL    HW220058   1.590   3.474   0.689
 6387SOL     OW20059   6.235   1.461   0.105
 6387SOL    HW120060   6.161   1.447   0.171
 6387SOL    HW220061   6.203   1.433   0.014
 6388SOL     OW20062   6.238   5.403   2.476
 6388SOL    HW120063   6.143   5.434   2.478
 6388SOL    HW220064   6.288   5.451   2.404
 6389SOL     OW20065   1.600   0.083   0.117
 6389SOL    HW120066   1.686   0.036   0.138
 6389SOL    HW220067   1.558   0.041   0.036
 6390SOL     OW20068   5.814   0.829   0.275
 6390SOL    HW120069   5.745   0.867   0.213
 6390SOL    HW220070   5.777   0.823   0.367
 6391SOL     OW20071   1.029   0.855   5.216
 6391SOL    HW120072   1.113   0.900   5.185
 6391SOL    HW220073   1.030   0.759   5.188
 6392SOL     OW20074   3.100   5.730   3.370
 6392SOL    HW120075   3.150   5.696   3.290
 6392SOL    HW220076   3.025   5.668   3.391
 6393SOL     OW20077   5.618   6.858   1.430
 6393SOL    HW120078   5.566   6.887   1.510
 6393SOL    HW220079   5.607   6.924   1.356
 6394SOL     OW20080   0.863   4.960   0.916
 6394SOL    HW120081   0.881   5.058   0.925
 6394SOL    HW220082   0.828   4.942   0.824
 6395SOL     OW20083   0.842   4.272   2.849
 6395SOL    HW120084   0.753   4.228   2.862
 6395SOL    HW220085   0.841   4.362   2.892
 6396SOL     OW20086   6.774   3.440   0.377
 6396SOL    HW120087   6.784   3.351   0.332
 6396SOL    HW220088   6.709   3.496   0.326
 6397SOL     OW20089   5.855   2.379   3.122
 6397SOL    HW120090   5.781   2.355   3.059
 6397SOL    HW220091   5.821   2.383   3.215
 6398SOL     OW20092   0.854   6.149   1.582
 6398SOL    HW120093   0.945   6.152   1.622
 6398SOL    HW220094   0.813   6.240   1.587
 6399SOL     OW20095   2.233   6.818   6.232
 6399SOL    HW120096   2.327   6.850   6.230
 6399SOL    HW220097   2.171   6.895   6.213
 6400SOL     OW20098   1.755   5.744   2.900
 6400SOL    HW120099   1.695   5.823   2.908
 6400SOL    HW220100   1.787   5.735   2.805
 6401SOL     OW20101   3.946   4.942   2.839
 6401SOL    HW120102   3.928   5.027   2.790
 6401SOL    HW220103   4.041   4.943   2.873
 6402SOL     OW20104   1.790   4.750   3.871
 6402SOL    HW120105   1.696   4.782   3.867
 6402SOL    HW220106   1.808   4.711   3.961
 6403SOL     OW20107   5.451   6.249   4.904
 6403SOL    HW120108   5.390   6.186   4.952
 6403SOL    HW220109   5.418   6.261   4.810
 6404SOL     OW20110   3.592   0.884   2.545
 6404SOL    HW120111   3.665   0.932   2.496
 6404SOL    HW220112   3.541   0.827   2.480
 6405SOL     OW20113   5.218   1.020   2.809
 6405SOL    HW120114   5.292   1.007   2.875
 6405SOL    HW220115   5.189   1.116   2.810
 6406SOL     OW20116   1.165   2.448   2.735
 6406SOL    HW120117   1.201   2.538   2.712
 6406SOL    HW220118   1.221   2.378   2.691
 6407SOL     OW20119   2.419   6.535   3.609
 6407SOL    HW120120   2.481   6.489   3.546
 6407SOL    HW220121   2.426   6.634   3.596
 6408SOL     OW20122   6.849   0.593   0.659
 6408SOL    HW120123   6.790   0.622   0.583
 6408SOL    HW220124   6.920   0.662   0.675
 6409SOL     OW20125   6.502   4.986   3.567
 6409SOL    HW120126   6.559   5.063   3.538
 6409SOL    HW220127   6.408   5.001   3.538
 6410SOL     OW20128   3.025   1.130   5.328
 6410SOL    HW120129   3.120   1.159   5.316
 6410SOL    HW220130   2.973   1.148   5.245
 6411SOL     OW20131   0.147   2.749   2.521
 6411SOL    HW120132   0.213   2.781   2.589
 6411SOL    HW220133   0.054   2.774   2.550
 6412SOL     OW20134   3.308   0.697   6.718
 6412SOL    HW120135   3.407   0.690   6.726
 6412SOL    HW220136   3.264   0.637   6.785
 6413SOL     OW20137   4.139   4.796   4.381
 6413SOL    HW120138   4.077   4.830   4.310
 6413SOL    HW220139   4.211   4.741   4.339
 6414SOL     OW20140   0.893   6.969   6.740
 6414SOL    HW120141   0.966   0.010   6.759
 6414SOL    HW220142   0.819   7.016   6.691
 6415SOL     OW20143   1.448   3.427   3.306
 6415SOL    HW120144   1.492   3.399   3.220
 6415SOL    HW220145   1.390   3.352   3.339
 6416SOL     OW20146   2.871   0.081   6.373
 6416SOL    HW120147   2.953   0.095   6.429
 6416SOL    HW220148   2.890   0.013   6.302
 6417SOL     OW20149   4.774   1.765   1.138
 6417SOL    HW120150   4.689   1.716   1.156
 6417SOL    HW220151   4.794   1.827   1.213
 6418SOL     OW20152   4.072   4.709   1.437
 6418SOL    HW120153   4.059   4.632   1.374
 6418SOL    HW220154   3.992   4.717   1.496
 6419SOL     OW20155   1.043   6.746   6.748
 6419SOL    HW120156   0.990   6.679   6.800
 6419SOL    HW220157   0.990   6.829   6.735
 6420SOL     OW20158   1.482   3.554   3.931
 6420SOL    HW120159   1.414   3.612   3.976
 6420SOL    HW220160   1.569   3.560   3.980
 6421SOL     OW20161   5.227   0.105   1.573
 6421SOL    HW120162   5.133   0.126   1.546
 6421SOL    HW220163   5.290   0.157   1.517
 6422SOL     OW20164   0.158   2.783   4.734
 6422SOL    HW120165   0.199   2.785   4.825
 6422SOL    HW220166   0.064   2.750   4.741
 6423SOL     OW20167   2.347   5.027   4.300
 6423SOL    HW120168   2.270   4.997   4.244
 6423SOL    HW220169   2.431   4.981   4.269
 6424SOL     OW20170   0.452   3.378   4.730
 6424SOL    HW120171   0.412   3.336   4.648
 6424SOL    HW220172   0.518   3.315   4.771
 6425SOL     OW20173   6.961   5.831   2.751
 6425SOL    HW120174   6.966   5.905   2.818
 6425SOL    HW220175   0.011   5.765   2.769
 6426SOL     OW20176   4.560   4.455   4.794
 6426SOL    HW120177   4.551   4.504   4.707
 6426SOL    HW220178   4.476   4.466   4.847
 6427SOL     OW20179   3.305   3.225   3.486
 6427SOL    HW120180   3.286   3.136   3.446
 6427SOL    HW220181   3.219   3.275   3.498
 6428SOL     OW20182   4.983   2.589   6.922
 6428SOL    HW120183   4.888   2.579   6.890
 6428SOL    HW220184   4.984   2.590   7.022
 6429SOL     OW20185   2.399   0.939   4.903
 6429SOL    HW120186   2.443   0.903   4.821
 6429SOL    HW220187   2.317   0.990   4.879
 6430SOL     OW20188   0.018   0.744   5.385
 6430SOL    HW120189   6.965   0.804   5.409
 6430SOL    HW220190   0.104   0.786   5.414
 6431SOL     OW20191   4.392   5.641   2.823
 6431SOL    HW120192   4.419   5.697   2.902
 6431SOL    HW220193   4.454   5.563   2.815
 6432SOL     OW20194   3.036   4.674   6.657
 6432SOL    HW120195   3.021   4.583   6.620
 6432SOL    HW220196   2.977   4.689   6.736
 6433SOL     OW20197   2.438   5.527   6.541
 6433SOL    HW120198   2.530   5.516   6.579
 6433SOL    HW220199   2.421   5.624   6.524
 6434SOL     OW20200   3.156   5.995   6.226
 6434SOL    HW120201   3.139   5.901   6.195
 6434SOL    HW220202   3.169   6.054   6.146
 6435SOL     OW20203   5.535   0.386   0.566
 6435SOL    HW120204   5.513   0.458   0.632
 6435SOL    HW220205   5.568   0.305   0.614
 6436SOL     OW20206   0.655   4.006   3.600
 6436SOL    HW120207   0.605   3.938   3.653
 6436SOL    HW220208   0.737   4.034   3.650
 6437SOL     OW20209   0.923   1.124   5.227
 6437SOL    HW120210   0.941   1.036   5.271
 6437SOL    HW220211   0.996   1.188   5.251
 6438SOL     OW20212   0.536   5.715   6.888
 6438SOL    HW120213   0.620   5.704   6.941
 6438SOL    HW220214   0.553   5.686   6.793
 6439SOL     OW20215   6.075   1.210   3.468
 6439SOL    HW120216   5.979   1.232   3.454
 6439SOL    HW220217   6.085   1.111   3.480
 6440SOL     OW20218   2.409   0.671   5.967
 6440SOL    HW120219   2.466   0.744   6.006
 6440SOL    HW220220   2.433   0.584   6.012
 6441SOL     OW20221   0.565   0.339   3.244
 6441SOL    HW120222   0.493   0.398   3.279
 6441SOL    HW220223   0.541   0.243   3.261
 6442SOL     OW20224   2.403   2.088   5.252
 6442SOL    HW120225   2.462   2.049   5.324
 6442SOL    HW220226   2.434   2.054   5.163
 6443SOL     OW20227   4.313   2.127   0.630
 6443SOL    HW120228   4.287   2.141   0.726
 6443SOL    HW220229   4.386   2.191   0.606
 6444SOL     OW20230   0.099   2.662   5.469
 6444SOL    HW120231   0.017   2.609   5.447
 6444SOL    HW220232   0.178   2.601   5.469
 6445SOL     OW20233   3.205   3.608   3.319
 6445SOL    HW120234   3.202   3.516   3.279
 6445SOL    HW220235   3.241   3.672   3.251
 6446SOL     OW20236   1.653   1.710   6.499
 6446SOL    HW120237   1.554   1.724   6.493
 6446SOL    HW220238   1.695   1.790   6.542
 6447SOL     OW20239   6.574   4.325   1.036
 6447SOL    HW120240   6.500   4.292   0.977
 6447SOL    HW220241   6.607   4.250   1.093
 6448SOL     OW20242   4.605   5.773   2.276
 6448SOL    HW120243   4.570   5.770   2.369
 6448SOL    HW220244   4.698   5.736   2.274
 6449SOL     OW20245   2.897   5.581   1.770
 6449SOL    HW120246   2.880   5.547   1.677
 6449SOL    HW220247   2.923   5.678   1.765
 6450SOL     OW20248   0.972   4.205   1.503
 6450SOL    HW120249   0.873   4.205   1.519
 6450SOL    HW220250   1.019   4.166   1.582
 6451SOL     OW20251   3.477   2.197   0.336
 6451SOL    HW120252   3.474   2.102   0.306
 6451SOL    HW220253   3.572   2.223   0.356
 6452SOL     OW20254   5.612   3.661   3.519
 6452SOL    HW120255   5.698   3.638   3.474
 6452SOL    HW220256   5.546   3.586   3.508
 6453SOL     OW20257   3.593   0.158   1.485
 6453SOL    HW120258   3.538   0.237   1.457
 6453SOL    HW220259   3.672   0.190   1.538
 6454SOL     OW20260   6.658   2.240   2.481
 6454SOL    HW120261   6.614   2.276   2.399
 6454SOL    HW220262   6.598   2.255   2.560
 6455SOL     OW20263   6.702   4.303   3.049
 6455SOL    HW120264   6.761   4.222   3.055
 6455SOL    HW220265   6.703   4.350   3.137
 6456SOL     OW20266   0.601   1.206   2.820
 6456SOL    HW120267   0.686   1.256   2.835
 6456SOL    HW220268   0.540   1.219   2.898
 6457SOL     OW20269   5.020   6.795   1.327
 6457SOL    HW120270   4.931   6.825   1.364
 6457SOL    HW220271   5.075   6.758   1.401
 6458SOL     OW20272   0.954   5.183   3.918
 6458SOL    HW120273   0.987   5.218   3.830
 6458SOL    HW220274   1.000   5.232   3.992
 6459SOL     OW20275   6.295   2.456   2.996
 6459SOL    HW120276   6.354   2.511   2.937
 6459SOL    HW220277   6.331   2.363   3.002
 6460SOL     OW20278   6.922   6.001   5.414
 6460SOL    HW120279   6.859   5.926   5.390
 6460SOL    HW220280   6.928   6.008   5.513
 6461SOL     OW20281   3.292   4.625   0.602
 6461SOL    HW120282   3.387   4.652   0.583
 6461SOL    HW220283   3.271   4.645   0.697
 6462SOL     OW20284   1.780   3.930   5.118
 6462SOL    HW120285   1.854   3.865   5.136
 6462SOL    HW220286   1.721   3.894   5.047
 6463SOL     OW20287   4.654   1.233   1.078
 6463SOL    HW120288   4.590   1.156   1.088
 6463SOL    HW220289   4.613   1.303   1.020
 6464SOL     OW20290   0.848   6.151   4.306
 6464SOL    HW120291   0.893   6.062   4.311
 6464SOL    HW220292   0.752   6.142   4.331
 6465SOL     OW20293   5.298   3.061   2.272
 6465SOL    HW120294   5.310   3.160   2.283
 6465SOL    HW220295   5.352   3.013   2.340
 6466SOL     OW20296   6.898   3.721   6.703
 6466SOL    HW120297   6.847   3.650   6.655
 6466SOL    HW220298   6.937   3.684   6.787
 6467SOL     OW20299   3.374   0.740   0.774
 6467SOL    HW120300   3.354   0.838   0.768
 6467SOL    HW220301   3.358   0.697   0.685
 6468SOL     OW20302   3.656   6.984   0.234
 6468SOL    HW120303   3.662   6.932   0.319
 6468SOL    HW220304   3.744   0.003   0.214
 6469SOL     OW20305   3.261   1.842   3.693
 6469SOL    HW120306   3.237   1.935   3.666
 6469SOL    HW220307   3.185   1.781   3.671
 6470SOL     OW20308   6.883   2.378   0.009
 6470SOL    HW120309   6.977   2.345   0.015
 6470SOL    HW220310   6.881   2.468   6.990
 6471SOL     OW20311   0.178   6.157   4.643
 6471SOL    HW120312   0.275   6.135   4.630
 6471SOL    HW220313   0.122   6.078   4.620
 6472SOL     OW20314   0.010   6.280   2.100
 6472SOL    HW120315   6.954   6.267   2.041
 6472SOL    HW220316   0.093   6.254   2.051
 6473SOL     OW20317   1.859   1.523   4.022
 6473SOL    HW120318   1.782   1.468   3.993
 6473SOL    HW220319   1.929   1.523   3.950
 6474SOL     OW20320   3.797   5.193   5.013
 6474SOL    HW120321   3.719   5.175   5.073
 6474SOL    HW220322   3.880   5.155   5.056
 6475SOL     OW20323   5.479   5.391   3.838
 6475SOL    HW120324   5.486   5.432   3.747
 6475SOL    HW220325   5.558   5.332   3.855
 6476SOL     OW20326   3.417   1.998   6.708
 6476SOL    HW120327   3.458   1.922   6.658
 6476SOL    HW220328   3.487   2.044   6.763
 6477SOL     OW20329   0.120   6.088   1.142
 6477SOL    HW120330   0.207   6.087   1.192
 6477SOL    HW220331   0.139   6.096   1.044
 6478SOL     OW20332   2.891   5.865   1.783
 6478SOL    HW120333   2.977   5.908   1.810
 6478SOL    HW220334   2.823   5.936   1.763
 6479SOL     OW20335   3.160   5.783   4.204
 6479SOL    HW120336   3.211   5.759   4.287
 6479SOL    HW220337   3.074   5.731   4.203
 6480SOL     OW20338   2.692   0.879   6.808
 6480SOL    HW120339   2.711   0.830   6.723
 6480SOL    HW220340   2.627   0.953   6.790
 6481SOL     OW20341   2.930   2.388   1.667
 6481SOL    HW120342   2.925   2.383   1.767
 6481SOL    HW220343   2.874   2.464   1.634
 6482SOL     OW20344   6.914   3.011   5.507
 6482SOL    HW120345   6.973   2.954   5.563
 6482SOL    HW220346   6.920   3.106   5.537
 6483SOL     OW20347   1.380   5.254   4.629
 6483SOL    HW120348   1.468   5.209   4.642
 6483SOL    HW220349   1.365   5.271   4.531
 6484SOL     OW20350   2.857   1.110   3.614
 6484SOL    HW120351   2.957   1.110   3.609
 6484SOL    HW220352   2.822   1.021   3.585
 6485SOL     OW20353   2.190   6.481   4.623
 6485SOL    HW120354   2.229   6.395   4.656
 6485SOL    HW220355   2.262   6.550   4.620
 6486SOL     OW20356   1.452   5.048   3.255
 6486SOL    HW120357   1.551   5.059   3.247
 6486SOL    HW220358   1.407   5.123   3.207
 6487SOL     OW20359   0.683   5.093   4.419
 6487SOL    HW120360   0.780   5.105   4.441
 6487SOL    HW220361   0.630   5.094   4.504
 6488SOL     OW20362   5.249   5.239   4.557
 6488SOL    HW120363   5.280   5.306   4.490
 6488SOL    HW220364   5.149   5.239   4.560
 6489SOL     OW20365   4.014   3.227   6.679
 6489SOL    HW120366   4.002   3.133   6.712
 6489SOL    HW220367   4.071   3.225   6.597
 6490SOL     OW20368   1.608   1.482   6.679
 6490SOL    HW120369   1.508   1.480   6.688
 6490SOL    HW220370   1.638   1.576   6.661
 6491SOL     OW20371   1.872   0.432   1.154
 6491SOL    HW120372   1.865   0.430   1.253
 6491SOL    HW220373   1.822   0.355   1.115
 6492SOL     OW20374   3.023   3.910   4.687
 6492SOL    HW120375   3.082   3.962   4.625
 6492SOL    HW220376   3.019   3.957   4.775
 6493SOL     OW20377   1.682   4.498   5.876
 6493SOL    HW120378   1.691   4.399   5.889
 6493SOL    HW220379   1.773   4.538   5.863
 6494SOL     OW20380   6.025   6.542   1.770
 6494SOL    HW120381   5.930   6.545   1.737
 6494SOL    HW220382   6.030   6.485   1.852
 6495SOL     OW20383   6.764   6.974   3.910
 6495SOL    HW120384   6.754   0.010   3.990
 6495SOL    HW220385   6.840   6.911   3.925
 6496SOL     OW20386   4.628   6.640   2.565
 6496SOL    HW120387   4.554   6.687   2.613
 6496SOL    HW220388   4.590   6.583   2.492
 6497SOL     OW20389   0.738   1.448   0.747
 6497SOL    HW120390   0.652   1.442   0.797
 6497SOL    HW220391   0.752   1.542   0.715
 6498SOL     OW20392   0.662   4.621   4.426
 6498SOL    HW120393   0.599   4.629   4.348
 6498SOL    HW220394   0.697   4.528   4.431
 6499SOL     OW20395   5.928   4.192   4.017
 6499SOL    HW120396   5.895   4.209   3.925
 6499SOL    HW220397   5.853   4.156   4.073
 6500SOL     OW20398   0.962   3.731   2.303
 6500SOL    HW120399   1.028   3.714   2.230
 6500SOL    HW220400   0.945   3.645   2.352
 6501SOL     OW20401   6.807   2.041   0.884
 6501SOL    HW120402   6.738   2.069   0.817
 6501SOL    HW220403   6.856   2.121   0.917
 6502SOL     OW20404   6.047   4.051   1.247
 6502SOL    HW120405   5.981   4.055   1.322
 6502SOL    HW220406   6.077   3.957   1.234
 6503SOL     OW20407   6.381   2.827   5.806
 6503SOL    HW120408   6.479   2.807   5.808
 6503SOL    HW220409   6.361   2.888   5.729
 6504SOL     OW20410   4.676   6.455   6.897
 6504SOL    HW120411   4.653   6.385   6.965
 6504SOL    HW220412   4.665   6.546   6.937
 6505SOL     OW20413   5.700   6.258   0.254
 6505SOL    HW120414   5.724   6.298   0.343
 6505SOL    HW220415   5.645   6.323   0.202
 6506SOL     OW20416   0.146   3.186   3.730
 6506SOL    HW120417   0.145   3.204   3.828
 6506SOL    HW220418   0.164   3.089   3.714
 6507SOL     OW20419   3.237   5.702   6.653
 6507SOL    HW120420   3.331   5.732   6.666
 6507SOL    HW220421   3.191   5.764   6.589
 6508SOL     OW20422   1.182   6.753   1.616
 6508SOL    HW120423   1.244   6.814   1.566
 6508SOL    HW220424   1.230   6.714   1.694
 6509SOL     OW20425   3.549   1.229   5.639
 6509SOL    HW120426   3.626   1.256   5.698
 6509SOL    HW220427   3.466   1.275   5.668
 6510SOL     OW20428   4.522   5.994   5.796
 6510SOL    HW120429   4.507   6.018   5.892
 6510SOL    HW220430   4.614   5.957   5.785
 6511SOL     OW20431   4.213   1.443   6.393
 6511SOL    HW120432   4.136   1.445   6.457
 6511SOL    HW220433   4.190   1.493   6.310
 6512SOL     OW20434   2.834   0.720   1.865
 6512SOL    HW120435   2.858   0.696   1.771
 6512SOL    HW220436   2.889   0.797   1.895
 6513SOL     OW20437   2.651   5.547   5.039
 6513SOL    HW120438   2.651   5.596   4.952
 6513SOL    HW220439   2.644   5.449   5.022
 6514SOL     OW20440   5.783   0.382   5.214
 6514SOL    HW120441   5.700   0.358   5.163
 6514SOL    HW220442   5.840   0.441   5.157
 6515SOL     OW20443   2.298   4.916   2.241
 6515SOL    HW120444   2.231   4.916   2.167
 6515SOL    HW220445   2.259   4.871   2.321
 6516SOL     OW20446   0.179   3.272   1.772
 6516SOL    HW120447   0.275   3.274   1.746
 6516SOL    HW220448   0.166   3.204   1.845
 6517SOL     OW20449   6.722   2.382   6.725
 6517SOL    HW120450   6.633   2.426   6.728
 6517SOL    HW220451   6.718   2.294   6.772
 6518SOL     OW20452   0.207   0.669   2.510
 6518SOL    HW120453   0.153   0.677   2.594
 6518SOL    HW220454   0.153   0.699   2.432
 6519SOL     OW20455   0.747   1.299   3.198
 6519SOL    HW120456   0.673   1.265   3.141
 6519SOL    HW220457   0.744   1.254   3.287
 6520SOL     OW20458   6.728   5.652   6.898
 6520SOL    HW120459   6.740   5.554   6.909
 6520SOL    HW220460   6.632   5.675   6.915
 6521SOL     OW20461   1.568   3.230   3.861
 6521SOL    HW120462   1.492   3.204   3.920
 6521SOL    HW220463   1.534   3.279   3.781
 6522SOL     OW20464   2.990   4.149   5.746
 6522SOL    HW120465   2.919   4.218   5.753
 6522SOL    HW220466   3.023   4.144   5.651
 6523SOL     OW20467   6.004   0.955   0.434
 6523SOL    HW120468   6.090   0.994   0.401
 6523SOL    HW220469   5.946   0.932   0.355
 6524SOL     OW20470   2.914   2.106   1.888
 6524SOL    HW120471   2.893   2.196   1.928
 6524SOL    HW220472   2.975   2.118   1.810
 6525SOL     OW20473   1.674   5.204   4.052
 6525SOL    HW120474   1.690   5.127   4.115
 6525SOL    HW220475   1.584   5.192   4.009
 6526SOL     OW20476   6.962   0.236   1.154
 6526SOL    HW120477   6.918   0.298   1.218
 6526SOL    HW220478   6.935   0.142   1.173
 6527SOL     OW20479   0.377   2.850   0.610
 6527SOL    HW120480   0.362   2.768   0.666
 6527SOL    HW220481   0.322   2.844   0.527
 6528SOL     OW20482   6.391   1.087   5.930
 6528SOL    HW120483   6.385   1.074   6.029
 6528SOL    HW220484   6.442   1.011   5.890
 6529SOL     OW20485   0.407   1.392   2.363
 6529SOL    HW120486   0.443   1.400   2.456
 6529SOL    HW220487   0.383   1.297   2.344
 6530SOL     OW20488   0.782   2.817   2.310
 6530SOL    HW120489   0.845   2.747   2.277
 6530SOL    HW220490   0.720   2.776   2.377
 6531SOL     OW20491   4.148   3.106   6.075
 6531SOL    HW120492   4.131   3.203   6.094
 6531SOL    HW220493   4.208   3.098   5.996
 6532SOL     OW20494   1.734   0.665   1.032
 6532SOL    HW120495   1.745   0.639   0.936
 6532SOL    HW220496   1.780   0.599   1.091
 6533SOL     OW20497   4.505   4.723   6.945
 6533SOL    HW120498   4.591   4.762   6.911
 6533SOL    HW220499   4.520   4.626   6.967
 6534SOL     OW20500   5.778   4.434   2.043
 6534SOL    HW120501   5.780   4.401   2.138
 6534SOL    HW220502   5.715   4.511   2.035
 6535SOL     OW20503   5.554   3.903   4.654
 6535SOL    HW120504   5.505   3.818   4.670
 6535SOL    HW220505   5.650   3.883   4.635
 6536SOL     OW20506   0.363   2.096   5.667
 6536SOL    HW120507   0.416   2.180   5.671
 6536SOL    HW220508   0.389   2.043   5.586
 6537SOL     OW20509   5.966   4.569   5.108
 6537SOL    HW120510   5.886   4.519   5.141
 6537SOL    HW220511   6.010   4.518   5.035
 6538SOL     OW20512   2.219   3.742   5.275
 6538SOL    HW120513   2.143   3.709   5.219
 6538SOL    HW220514   2.260   3.822   5.231
 6539SOL     OW20515   5.642   0.933   6.825
 6539SOL    HW120516   5.596   0.878   6.755
 6539SOL    HW220517   5.587   1.015   6.843
 6540SOL     OW20518   3.309   2.519   5.549
 6540SOL    HW120519   3.347   2.587   5.611
 6540SOL    HW220520   3.295   2.560   5.459
 6541SOL     OW20521   5.722   2.316   5.494
 6541SOL    HW120522   5.802   2.329   5.436
 6541SOL    HW220523   5.649   2.273   5.440
 6542SOL     OW20524   1.462   3.724   4.977
 6542SOL    HW120525   1.501   3.811   4.947
 6542SOL    HW220526   1.435   3.670   4.897
 6543SOL     OW20527   3.425   2.124   5.077
 6543SOL    HW120528   3.485   2.191   5.121
 6543SOL    HW220529   3.330   2.152   5.087
 6544SOL     OW20530   0.296   6.885   2.246
 6544SOL    HW120531   0.357   6.806   2.255
 6544SOL    HW220532   0.345   6.967   2.274
 6545SOL     OW20533   4.464   6.598   1.125
 6545SOL    HW120534   4.510   6.590   1.213
 6545SOL    HW220535   4.367   6.573   1.136
 6546SOL     OW20536   4.802   4.520   6.490
 6546SOL    HW120537   4.882   4.576   6.469
 6546SOL    HW220538   4.724   4.553   6.436
 6547SOL     OW20539   5.298   6.591   6.509
 6547SOL    HW120540   5.206   6.619   6.535
 6547SOL    HW220541   5.316   6.499   6.543
 6548SOL     OW20542   0.855   2.504   6.315
 6548SOL    HW120543   0.780   2.544   6.367
 6548SOL    HW220544   0.883   2.418   6.358
 6549SOL     OW20545   4.785   0.063   1.616
 6549SOL    HW120546   4.828   0.062   1.706
 6549SOL    HW220547   4.794   6.996   1.573
 6550SOL     OW20548   6.604   0.204   3.218
 6550SOL    HW120549   6.673   0.133   3.228
 6550SOL    HW220550   6.628   0.282   3.275
 6551SOL     OW20551   2.883   3.503   1.565
 6551SOL    HW120552   2.858   3.483   1.471
 6551SOL    HW220553   2.981   3.521   1.571
 6552SOL     OW20554   1.570   6.486   0.074
 6552SOL    HW120555   1.560   6.392   0.108
 6552SOL    HW220556   1.653   6.526   0.111
 6553SOL     OW20557   0.346   1.737   2.925
 6553SOL    HW120558   0.374   1.833   2.921
 6553SOL    HW220559   0.281   1.718   2.852
 6554SOL     OW20560   3.019   1.182   4.741
 6554SOL    HW120561   3.089   1.188   4.670
 6554SOL    HW220562   3.061   1.155   4.827
 6555SOL     OW20563   6.931   1.882   4.484
 6555SOL    HW120564   6.982   1.960   4.519
 6555SOL    HW220565   6.857   1.915   4.425
 6556SOL     OW20566   5.910   3.233   2.987
 6556SOL    HW120567   5.923   3.162   3.056
 6556SOL    HW220568   5.920   3.193   2.896
 6557SOL     OW20569   1.534   0.063   2.571
 6557SOL    HW120570   1.574   0.154   2.563
 6557SOL    HW220571   1.513   0.028   2.480
 6558SOL     OW20572   5.621   5.253   0.120
 6558SOL    HW120573   5.708   5.300   0.133
 6558SOL    HW220574   5.597   5.256   0.023
 6559SOL     OW20575   0.056   3.651   6.900
 6559SOL    HW120576   0.119   3.690   6.832
 6559SOL    HW220577   0.098   3.570   6.941
 6560SOL     OW20578   3.923   4.548   0.407
 6560SOL    HW120579   3.955   4.464   0.364
 6560SOL    HW220580   3.886   4.610   0.338
 6561SOL     OW20581   3.982   4.622   0.040
 6561SOL    HW120582   3.919   4.554   0.077
 6561SOL    HW220583   3.957   4.712   0.075
 6562SOL     OW20584   5.729   2.695   0.695
 6562SOL    HW120585   5.657   2.693   0.625
 6562SOL    HW220586   5.699   2.642   0.775
 6563SOL     OW20587   5.149   0.646   5.694
 6563SOL    HW120588   5.230   0.593   5.670
 6563SOL    HW220589   5.068   0.604   5.653
 6564SOL     OW20590   6.499   4.075   2.185
 6564SOL    HW120591   6.488   4.048   2.280
 6564SOL    HW220592   6.569   4.146   2.178
 6565SOL     OW20593   5.852   6.704   2.365
 6565SOL    HW120594   5.752   6.706   2.371
 6565SOL    HW220595   5.890   6.763   2.436
 6566SOL     OW20596   3.663   5.415   2.216
 6566SOL    HW120597   3.663   5.452   2.309
 6566SOL    HW220598   3.627   5.322   2.218
 6567SOL     OW20599   4.329   0.757   1.494
 6567SOL    HW120600   4.330   0.704   1.409
 6567SOL    HW220601   4.269   0.713   1.560
 6568SOL     OW20602   4.162   1.088   2.074
 6568SOL    HW120603   4.232   1.118   2.010
 6568SOL    HW220604   4.097   1.163   2.089
 6569SOL     OW20605   0.641   2.861   6.137
 6569SOL    HW120606   0.696   2.939   6.105
 6569SOL    HW220607   0.635   2.863   6.237
 6570SOL     OW20608   4.140   0.510   2.653
 6570SOL    HW120609   4.138   0.418   2.612
 6570SOL    HW220610   4.206   0.567   2.603
 6571SOL     OW20611   2.315   5.164   3.379
 6571SOL    HW120612   2.385   5.147   3.309
 6571SOL    HW220613   2.357   5.211   3.457
 6572SOL     OW20614   0.458   4.173   4.201
 6572SOL    HW120615   0.478   4.214   4.290
 6572SOL    HW220616   0.530   4.199   4.136
 6573SOL     OW20617   1.686   0.725   3.126
 6573SOL    HW120618   1.590   0.699   3.133
 6573SOL    HW220619   1.720   0.749   3.217
 6574SOL     OW20620   2.566   6.338   3.458
 6574SOL    HW120621   2.662   6.367   3.460
 6574SOL    HW220622   2.527   6.358   3.369
 6575SOL     OW20623   0.102   6.977   2.650
 6575SOL    HW120624   0.098   7.008   2.745
 6575SOL    HW220625   0.113   0.033   2.590
 6576SOL     OW20626   3.463   4.962   0.210
 6576SOL    HW120627   3.366   4.988   0.206
 6576SOL    HW220628   3.473   4.866   0.185
 6577SOL     OW20629   1.944   2.649   3.505
 6577SOL    HW120630   1.854   2.670   3.544
 6577SOL    HW220631   1.997   2.733   3.497
 6578SOL     OW20632   1.218   5.621   1.410
 6578SOL    HW120633   1.150   5.548   1.417
 6578SOL    HW220634   1.309   5.584   1.430
 6579SOL     OW20635   0.508   1.825   4.464
 6579SOL    HW120636   0.432   1.889   4.454
 6579SOL    HW220637   0.556   1.843   4.550
 6580SOL     OW20638   0.887   0.293   0.478
 6580SOL    HW120639   0.949   0.362   0.439
 6580SOL    HW220640   0.874   0.219   0.413
 6581SOL     OW20641   1.427   0.819   0.800
 6581SOL    HW120642   1.419   0.911   0.763
 6581SOL    HW220643   1.523   0.790   0.799
 6582SOL     OW20644   6.994   0.567   3.026
 6582SOL    HW120645   6.900   0.539   3.044
 6582SOL    HW220646   7.003   0.666   3.044
 6583SOL     OW20647   4.589   6.857   5.914
 6583SOL    HW120648   4.672   6.866   5.859
 6583SOL    HW220649   4.558   6.948   5.942
 6584SOL     OW20650   3.690   2.421   0.958
 6584SOL    HW120651   3.679   2.322   0.950
 6584SOL    HW220652   3.630   2.467   0.893
 6585SOL     OW20653   6.594   0.070   0.668
 6585SOL    HW120654   6.675   0.026   0.629
 6585SOL    HW220655   6.614   0.101   0.761
 6586SOL     OW20656   6.630   1.851   6.163
 6586SOL    HW120657   6.561   1.841   6.235
 6586SOL    HW220658   6.639   1.765   6.113
 6587SOL     OW20659   1.752   4.243   5.921
 6587SOL    HW120660   1.838   4.200   5.892
 6587SOL    HW220661   1.678   4.177   5.915
 6588SOL     OW20662   0.437   3.178   0.489
 6588SOL    HW120663   0.529   3.142   0.502
 6588SOL    HW220664   0.381   3.157   0.569
 6589SOL     OW20665   5.658   0.997   1.591
 6589SOL    HW120666   5.586   0.950   1.642
 6589SOL    HW220667   5.629   1.010   1.497
 6590SOL     OW20668   0.819   0.429   4.405
 6590SOL    HW120669   0.817   0.341   4.357
 6590SOL    HW220670   0.763   0.495   4.355
 6591SOL     OW20671   5.088   5.513   4.299
 6591SOL    HW120672   5.127   5.595   4.259
 6591SOL    HW220673   5.148   5.435   4.281
 6592SOL     OW20674   5.085   0.294   3.193
 6592SOL    HW120675   5.065   0.202   3.227
 6592SOL    HW220676   5.009   0.355   3.217
 6593SOL     OW20677   2.926   2.221   2.380
 6593SOL    HW120678   2.881   2.303   2.416
 6593SOL    HW220679   2.945   2.233   2.282
 6594SOL     OW20680   3.522   1.807   6.210
 6594SOL    HW120681   3.568   1.742   6.149
 6594SOL    HW220682   3.440   1.842   6.166
 6595SOL     OW20683   1.703   2.501   4.630
 6595SOL    HW120684   1.703   2.401   4.641
 6595SOL    HW220685   1.628   2.528   4.569
 6596SOL     OW20686   4.488   5.844   3.395
 6596SOL    HW120687   4.531   5.918   3.343
 6596SOL    HW220688   4.450   5.881   3.480
 6597SOL     OW20689   1.129   5.192   1.874
 6597SOL    HW120690   1.099   5.119   1.813
 6597SOL    HW220691   1.066   5.270   1.867
 6598SOL     OW20692   1.799   4.456   3.708
 6598SOL    HW120693   1.802   4.531   3.774
 6598SOL    HW220694   1.891   4.421   3.693
 6599SOL     OW20695   5.749   5.705   6.861
 6599SOL    HW120696   5.831   5.722   6.916
 6599SOL    HW220697   5.722   5.609   6.871
 6600SOL     OW20698   4.536   0.121   4.986
 6600SOL    HW120699   4.573   0.213   4.973
 6600SOL    HW220700   4.485   0.094   4.904
 6601SOL     OW20701   0.759   2.899   3.064
 6601SOL    HW120702   0.690   2.876   2.996
 6601SOL    HW220703   0.755   2.835   3.140
 6602SOL     OW20704   2.648   0.307   1.196
 6602SOL    HW120705   2.617   0.275   1.285
 6602SOL    HW220706   2.694   0.233   1.148
 6603SOL     OW20707   0.596   3.165   3.833
 6603SOL    HW120708   0.599   3.067   3.811
 6603SOL    HW220709   0.560   3.216   3.755
 6604SOL     OW20710   2.290   0.418   1.831
 6604SOL    HW120711   2.361   0.466   1.882
 6604SOL    HW220712   2.229   0.485   1.789
 6605SOL     OW20713   6.028   5.511   1.929
 6605SOL    HW120714   6.064   5.439   1.870
 6605SOL    HW220715   6.016   5.475   2.022
 6606SOL     OW20716   0.991   3.876   2.886
 6606SOL    HW120717   1.006   3.854   2.983
 6606SOL    HW220718   1.017   3.971   2.869
 6607SOL     OW20719   6.275   4.787   3.886
 6607SOL    HW120720   6.235   4.744   3.805
 6607SOL    HW220721   6.353   4.842   3.859
 6608SOL     OW20722   6.617   0.211   0.208
 6608SOL    HW120723   6.577   0.207   0.116
 6608SOL    HW220724   6.713   0.240   0.201
 6609SOL     OW20725   4.466   1.485   6.451
 6609SOL    HW120726   4.378   1.452   6.417
 6609SOL    HW220727   4.525   1.509   6.374
 6610SOL     OW20728   2.078   6.061   0.198
 6610SOL    HW120729   2.066   6.104   0.109
 6610SOL    HW220730   2.110   6.129   0.264
 6611SOL     OW20731   5.422   2.431   3.942
 6611SOL    HW120732   5.468   2.387   3.865
 6611SOL    HW220733   5.417   2.368   4.019
 6612SOL     OW20734   6.451   1.869   6.394
 6612SOL    HW120735   6.436   1.964   6.420
 6612SOL    HW220736   6.479   1.815   6.474
 6613SOL     OW20737   5.786   0.484   6.244
 6613SOL    HW120738   5.751   0.560   6.297
 6613SOL    HW220739   5.826   0.518   6.158
 6614SOL     OW20740   4.720   6.259   1.359
 6614SOL    HW120741   4.788   6.332   1.362
 6614SOL    HW220742   4.753   6.181   1.412
 6615SOL     OW20743   2.591   5.416   0.410
 6615SOL    HW120744   2.596   5.481   0.334
 6615SOL    HW220745   2.601   5.464   0.497
 6616SOL     OW20746   4.055   6.969   6.547
 6616SOL    HW120747   4.006   0.014   6.494
 6616SOL    HW220748   4.096   7.012   6.628
 6617SOL     OW20749   4.164   6.803   3.588
 6617SOL    HW120750   4.179   6.706   3.607
 6617SOL    HW220751   4.069   6.826   3.610
 6618SOL     OW20752   1.024   1.251   3.041
 6618SOL    HW120753   0.963   1.222   3.115
 6618SOL    HW220754   0.974   1.248   2.954
 6619SOL     OW20755   4.466   6.701   4.208
 6619SOL    HW120756   4.400   6.753   4.154
 6619SOL    HW220757   4.530   6.764   4.252
 6620SOL     OW20758   1.651   3.829   3.368
 6620SOL    HW120759   1.589   3.905   3.387
 6620SOL    HW220760   1.745   3.861   3.377
 6621SOL     OW20761   3.656   3.200   4.910
 6621SOL    HW120762   3.747   3.203   4.869
 6621SOL    HW220763   3.587   3.192   4.838
 6622SOL     OW20764   6.155   5.470   1.383
 6622SOL    HW120765   6.172   5.372   1.383
 6622SOL    HW220766   6.182   5.509   1.471
 6623SOL     OW20767   3.581   4.169   4.921
 6623SOL    HW120768   3.632   4.106   4.863
 6623SOL    HW220769   3.644   4.216   4.983
 6624SOL     OW20770   0.976   3.030   4.771
 6624SOL    HW120771   1.062   3.045   4.723
 6624SOL    HW220772   0.902   3.073   4.720
 6625SOL     OW20773   6.423   2.480   5.492
 6625SOL    HW120774   6.448   2.438   5.580
 6625SOL    HW220775   6.358   2.554   5.507
 6626SOL     OW20776   3.371   0.057   4.774
 6626SOL    HW120777   3.385   0.030   4.679
 6626SOL    HW220778   3.312   0.138   4.777
 6627SOL     OW20779   1.809   6.009   4.393
 6627SOL    HW120780   1.835   5.936   4.456
 6627SOL    HW220781   1.854   5.996   4.305
 6628SOL     OW20782   5.587   5.828   4.200
 6628SOL    HW120783   5.538   5.873   4.125
 6628SOL    HW220784   5.591   5.890   4.279
 6629SOL     OW20785   4.892   5.364   6.815
 6629SOL    HW120786   4.909   5.378   6.913
 6629SOL    HW220787   4.925   5.444   6.764
 6630SOL     OW20788   3.652   1.540   1.718
 6630SOL    HW120789   3.699   1.530   1.631
 6630SOL    HW220790   3.635   1.637   1.736
 6631SOL     OW20791   1.780   5.463   5.263
 6631SOL    HW120792   1.832   5.547   5.249
 6631SOL    HW220793   1.844   5.386   5.270
 6632SOL     OW20794   1.089   0.891   1.332
 6632SOL    HW120795   1.001   0.890   1.285
 6632SOL    HW220796   1.116   0.986   1.349
 6633SOL     OW20797   3.178   4.941   6.272
 6633SOL    HW120798   3.269   4.920   6.236
 6633SOL    HW220799   3.108   4.913   6.206
 6634SOL     OW20800   5.156   2.307   5.412
 6634SOL    HW120801   5.116   2.215   5.421
 6634SOL    HW220802   5.088   2.370   5.375
 6635SOL     OW20803   4.623   4.291   2.495
 6635SOL    HW120804   4.557   4.252   2.558
 6635SOL    HW220805   4.710   4.242   2.502
 6636SOL     OW20806   3.068   0.652   2.304
 6636SOL    HW120807   2.971   0.672   2.288
 6636SOL    HW220808   3.099   0.700   2.385
 6637SOL     OW20809   2.142   0.418   0.546
 6637SOL    HW120810   2.183   0.491   0.601
 6637SOL    HW220811   2.099   0.351   0.606
 6638SOL     OW20812   3.046   3.369   3.444
 6638SOL    HW120813   2.984   3.351   3.367
 6638SOL    HW220814   3.011   3.446   3.498
 6639SOL     OW20815   3.966   3.293   0.075
 6639SOL    HW120816   3.923   3.384   0.066
 6639SOL    HW220817   4.048   3.290   0.018
 6640SOL     OW20818   0.150   2.278   5.576
 6640SOL    HW120819   0.214   2.202   5.588
 6640SOL    HW220820   0.202   2.361   5.554
 6641SOL     OW20821   3.595   1.808   1.299
 6641SOL    HW120822   3.512   1.810   1.243
 6641SOL    HW220823   3.647   1.725   1.280
 6642SOL     OW20824   1.786   5.247   0.018
 6642SOL    HW120825   1.829   5.297   6.966
 6642SOL    HW220826   1.848   5.174   0.048
 6643SOL     OW20827   5.976   6.568   0.515
 6643SOL    HW120828   5.987   6.645   0.452
 6643SOL    HW220829   5.957   6.602   0.607
 6644SOL     OW20830   1.922   6.437   2.746
 6644SOL    HW120831   1.926   6.510   2.814
 6644SOL    HW220832   1.830   6.434   2.707
 6645SOL     OW20833   5.730   2.722   1.028
 6645SOL    HW120834   5.755   2.725   1.125
 6645SOL    HW220835   5.648   2.778   1.013
 6646SOL     OW20836   4.072   0.767   6.443
 6646SOL    HW120837   4.081   0.751   6.344
 6646SOL    HW220838   3.980   0.742   6.472
 6647SOL     OW20839   4.444   5.691   1.373
 6647SOL    HW120840   4.468   5.685   1.276
 6647SOL    HW220841   4.439   5.787   1.399
 6648SOL     OW20842   3.937   5.939   4.794
 6648SOL    HW120843   4.003   5.916   4.866
 6648SOL    HW220844   3.932   5.864   4.728
 6649SOL     OW20845   5.786   2.957   6.421
 6649SOL    HW120846   5.813   3.047   6.390
 6649SOL    HW220847   5.734   2.911   6.350
 6650SOL     OW20848   3.904   0.887   4.705
 6650SOL    HW120849   3.855   0.813   4.659
 6650SOL    HW220850   3.892   0.972   4.654
 6651SOL     OW20851   1.583   1.742   6.878
 6651SOL    HW120852   1.517   1.751   6.953
 6651SOL    HW220853   1.653   1.676   6.903
 6652SOL     OW20854   0.993   4.497   6.970
 6652SOL    HW120855   0.983   4.554   6.889
 6652SOL    HW220856   0.915   4.512   0.007
 6653SOL     OW20857   5.155   2.846   0.395
 6653SOL    HW120858   5.169   2.843   0.296
 6653SOL    HW220859   5.098   2.925   0.417
 6654SOL     OW20860   0.264   4.986   2.730
 6654SOL    HW120861   0.184   4.932   2.703
 6654SOL    HW220862   0.247   5.029   2.818
 6655SOL     OW20863   0.188   6.113   1.980
 6655SOL    HW120864   0.145   6.023   1.978
 6655SOL    HW220865   0.238   6.129   1.895
 6656SOL     OW20866   4.778   2.049   2.955
 6656SOL    HW120867   4.692   2.017   2.916
 6656SOL    HW220868   4.812   2.127   2.903
 6657SOL     OW20869   5.436   2.259   4.950
 6657SOL    HW120870   5.488   2.335   4.988
 6657SOL    HW220871   5.339   2.269   4.975
 6658SOL     OW20872   6.656   0.540   5.536
 6658SOL    HW120873   6.698   0.622   5.574
 6658SOL    HW220874   6.568   0.563   5.496
 6659SOL     OW20875   1.221   4.694   1.392
 6659SOL    HW120876   1.204   4.756   1.315
 6659SOL    HW220877   1.142   4.634   1.403
 6660SOL     OW20878   1.581   5.119   2.136
 6660SOL    HW120879   1.562   5.162   2.047
 6660SOL    HW220880   1.672   5.145   2.167
 6661SOL     OW20881   2.538   0.281   4.667
 6661SOL    HW120882   2.513   0.278   4.764
 6661SOL    HW220883   2.632   0.249   4.656
 6662SOL     OW20884   2.056   0.463   1.523
 6662SOL    HW120885   2.121   0.530   1.488
 6662SOL    HW220886   1.965   0.484   1.488
 6663SOL     OW20887   1.081   6.148   5.271
 6663SOL    HW120888   1.177   6.173   5.283
 6663SOL    HW220889   1.068   6.111   5.179
 6664SOL     OW20890   2.510   0.584   1.595
 6664SOL    HW120891   2.535   0.673   1.631
 6664SOL    HW220892   2.511   0.516   1.669
 6665SOL     OW20893   2.040   6.313   5.798
 6665SOL    HW120894   2.043   6.215   5.779
 6665SOL    HW220895   2.121   6.339   5.851
 6666SOL     OW20896   6.798   5.754   5.084
 6666SOL    HW120897   6.789   5.680   5.017
 6666SOL    HW220898   6.707   5.783   5.113
 6667SOL     OW20899   6.789   6.438   6.059
 6667SOL    HW120900   6.802   6.414   5.962
 6667SOL    HW220901   6.767   6.535   6.066
 6668SOL     OW20902   6.736   6.338   1.198
 6668SOL    HW120903   6.730   6.338   1.298
 6668SOL    HW220904   6.828   6.369   1.171
 6669SOL     OW20905   3.610   1.810   1.727
 6669SOL    HW120906   3.661   1.839   1.646
 6669SOL    HW220907   3.640   1.862   1.806
 6670SOL     OW20908   3.019   1.414   6.868
 6670SOL    HW120909   2.990   1.350   6.797
 6670SOL    HW220910   2.996   1.507   6.840
 6671SOL     OW20911   4.812   6.699   0.905
 6671SOL    HW120912   4.714   6.682   0.913
 6671SOL    HW220913   4.849   6.647   0.828
 6672SOL     OW20914   1.749   2.391   0.397
 6672SOL    HW120915   1.693   2.372   0.478
 6672SOL    HW220916   1.719   2.476   0.355
 6673SOL     OW20917   5.082   3.904   4.206
 6673SOL    HW120918   4.989   3.940   4.217
 6673SOL    HW220919   5.111   3.861   4.291
 6674SOL     OW20920   0.378   2.972   6.542
 6674SOL    HW120921   0.351   2.883   6.505
 6674SOL    HW220922   0.309   3.004   6.607
 6675SOL     OW20923   4.538   2.260   7.011
 6675SOL    HW120924   4.470   2.190   0.010
 6675SOL    HW220925   4.624   2.216   6.984
 6676SOL     OW20926   1.576   4.334   2.769
 6676SOL    HW120927   1.511   4.275   2.722
 6676SOL    HW220928   1.548   4.343   2.865
 6677SOL     OW20929   0.785   0.634   6.787
 6677SOL    HW120930   0.811   0.650   6.882
 6677SOL    HW220931   0.706   0.690   6.765
 6678SOL     OW20932   1.560   3.847   0.712
 6678SOL    HW120933   1.643   3.802   0.679
 6678SOL    HW220934   1.487   3.836   0.645
 6679SOL     OW20935   3.462   0.836   3.935
 6679SOL    HW120936   3.443   0.934   3.927
 6679SOL    HW220937   3.439   0.806   4.027
 6680SOL     OW20938   4.600   6.355   0.191
 6680SOL    HW120939   4.612   6.262   0.154
 6680SOL    HW220940   4.518   6.358   0.247
 6681SOL     OW20941   4.827   5.512   2.071
 6681SOL    HW120942   4.870   5.602   2.082
 6681SOL    HW220943   4.790   5.504   1.979
 6682SOL     OW20944   2.630   4.876   6.750
 6682SOL    HW120945   2.542   4.828   6.751
 6682SOL    HW220946   2.672   4.866   6.660
 6683SOL     OW20947   6.176   3.337   5.799
 6683SOL    HW120948   6.104   3.271   5.818
 6683SOL    HW220949   6.177   3.407   5.870
 6684SOL     OW20950   3.443   6.612   2.338
 6684SOL    HW120951   3.496   6.687   2.299
 6684SOL    HW220952   3.475   6.526   2.300
 6685SOL     OW20953   4.655   2.896   6.152
 6685SOL    HW120954   4.738   2.916   6.204
 6685SOL    HW220955   4.590   2.971   6.164
 6686SOL     OW20956   6.124   5.791   3.331
 6686SOL    HW120957   6.058   5.717   3.322
 6686SOL    HW220958   6.137   5.836   3.242
 6687SOL     OW20959   0.424   2.371   1.356
 6687SOL    HW120960   0.394   2.314   1.432
 6687SOL    HW220961   0.498   2.432   1.387
 6688SOL     OW20962   4.022   4.019   0.594
 6688SOL    HW120963   4.073   4.086   0.647
 6688SOL    HW220964   4.052   3.927   0.619
 6689SOL     OW20965   4.298   4.055   5.881
 6689SOL    HW120966   4.379   4.074   5.937
 6689SOL    HW220967   4.259   4.142   5.850
 6690SOL     OW20968   1.400   6.682   6.553
 6690SOL    HW120969   1.379   6.584   6.549
 6690SOL    HW220970   1.494   6.697   6.521
 6691SOL     OW20971   1.330   0.429   2.492
 6691SOL    HW120972   1.382   0.498   2.544
 6691SOL    HW220973   1.390   0.385   2.426
 6692SOL     OW20974   4.075   3.832   1.844
 6692SOL    HW120975   4.084   3.733   1.851
 6692SOL    HW220976   4.157   3.876   1.882
 6693SOL     OW20977   4.559   1.689   4.513
 6693SOL    HW120978   4.464   1.720   4.511
 6693SOL    HW220979   4.600   1.703   4.423
 6694SOL     OW20980   3.771   5.590   1.357
 6694SOL    HW120981   3.795   5.496   1.382
 6694SOL    HW220982   3.705   5.589   1.282
 6695SOL     OW20983   2.526   1.878   7.013
 6695SOL    HW120984   2.432   1.868   6.981
 6695SOL    HW220985   2.578   1.795   6.989
 6696SOL     OW20986   3.935   3.950   4.173
 6696SOL    HW120987   3.910   3.854   4.184
 6696SOL    HW220988   3.876   4.006   4.231
 6697SOL     OW20989   5.172   2.790   2.611
 6697SOL    HW120990   5.201   2.881   2.640
 6697SOL    HW220991   5.223   2.762   2.530
 6698SOL     OW20992   2.934   3.359   1.315
 6698SOL    HW120993   2.965   3.440   1.266
 6698SOL    HW220994   2.926   3.282   1.251
 6699SOL     OW20995   1.772   5.775   5.782
 6699SOL    HW120996   1.745   5.740   5.693
 6699SOL    HW220997   1.823   5.705   5.832
 6700SOL     OW20998   5.960   0.917   0.919
 6700SOL    HW120999   5.916   0.862   0.990
 6700SOL    HW221000   5.968   0.862   0.835
 6701SOL     OW21001   5.739   6.849   1.728
 6701SOL    HW121002   5.824   6.874   1.776
 6701SOL    HW221003   5.757   6.846   1.630
 6702SOL     OW21004   2.186   2.181   1.889
 6702SOL    HW121005   2.195   2.082   1.876
 6702SOL    HW221006   2.231   2.228   1.813
 6703SOL     OW21007   1.053   1.042   6.587
 6703SOL    HW121008   1.130   1.085   6.541
 6703SOL    HW221009   1.084   0.957   6.631
 6704SOL     OW21010   3.845   1.207   4.295
 6704SOL    HW121011   3.807   1.298   4.279
 6704SOL    HW221012   3.907   1.184   4.220
 6705SOL     OW21013   5.726   3.008   0.827
 6705SOL    HW121014   5.816   2.967   0.811
 6705SOL    HW221015   5.658   2.936   0.841
 6706SOL     OW21016   1.145   5.841   0.605
 6706SOL    HW121017   1.124   5.936   0.582
 6706SOL    HW221018   1.203   5.802   0.534
 6707SOL     OW21019   5.098   0.089   2.446
 6707SOL    HW121020   5.082   0.133   2.358
 6707SOL    HW221021   5.077   7.015   2.440
 6708SOL     OW21022   6.054   5.034   1.730
 6708SOL    HW121023   5.973   5.000   1.776
 6708SOL    HW221024   6.047   5.016   1.632
 6709SOL     OW21025   0.901   4.314   2.578
 6709SOL    HW121026   0.950   4.234   2.545
 6709SOL    HW221027   0.909   4.320   2.677
 6710SOL     OW21028   4.623   1.295   1.800
 6710SOL    HW121029   4.571   1.362   1.747
 6710SOL    HW221030   4.561   1.243   1.859
 6711SOL     OW21031   4.711   6.399   5.958
 6711SOL    HW121032   4.663   6.420   5.873
 6711SOL    HW221033   4.810   6.405   5.943
 6712SOL     OW21034   6.104   3.609   0.746
 6712SOL    HW121035   6.167   3.680   0.779
 6712SOL    HW221036   6.015   3.650   0.729
 6713SOL     OW21037   1.281   1.613   3.601
 6713SOL    HW121038   1.319   1.597   3.510
 6713SOL    HW221039   1.190   1.572   3.607
 6714SOL     OW21040   5.655   1.321   0.937
 6714SOL    HW121041   5.718   1.261   0.986
 6714SOL    HW221042   5.582   1.266   0.896
 6715SOL     OW21043   1.657   1.348   1.545
 6715SOL    HW121044   1.636   1.413   1.618
 6715SOL    HW221045   1.702   1.267   1.583
 6716SOL     OW21046   6.441   6.106   2.416
 6716SOL    HW121047   6.522   6.124   2.359
 6716SOL    HW221048   6.423   6.008   2.417
 6717SOL     OW21049   2.779   2.145   6.271
 6717SOL    HW121050   2.825   2.075   6.216
 6717SOL    HW221051   2.822   2.234   6.255
 6718SOL     OW21052   4.308   1.305   0.837
 6718SOL    HW121053   4.312   1.395   0.793
 6718SOL    HW221054   4.363   1.306   0.921
 6719SOL     OW21055   1.780   6.664   0.193
 6719SOL    HW121056   1.723   6.733   0.238
 6719SOL    HW221057   1.871   6.665   0.234
 6720SOL     OW21058   2.915   0.865   4.826
 6720SOL    HW121059   2.870   0.874   4.915
 6720SOL    HW221060   3.012   0.885   4.835
 6721SOL     OW21061   6.958   0.228   0.835
 6721SOL    HW121062   6.945   0.130   0.826
 6721SOL    HW221063   6.931   0.257   0.927
 6722SOL     OW21064   0.316   2.543   0.448
 6722SOL    HW121065   0.258   2.568   0.371
 6722SOL    HW221066   0.412   2.547   0.420
 6723SOL     OW21067   1.899   0.161   6.938
 6723SOL    HW121068   1.924   0.211   6.855
 6723SOL    HW221069   1.942   0.205   7.017
 6724SOL     OW21070   2.517   2.690   6.408
 6724SOL    HW121071   2.492   2.593   6.404
 6724SOL    HW221072   2.440   2.742   6.446
 6725SOL     OW21073   5.902   3.115   2.737
 6725SOL    HW121074   5.873   3.019   2.730
 6725SOL    HW221075   5.992   3.125   2.693
 6726SOL     OW21076   0.473   2.122   4.769
 6726SOL    HW121077   0.422   2.206   4.748
 6726SOL    HW221078   0.424   2.043   4.732
 6727SOL     OW21079   0.895   4.020   5.784
 6727SOL    HW121080   0.919   4.023   5.881
 6727SOL    HW221081   0.795   4.025   5.775
 6728SOL     OW21082   3.858   1.621   3.392
 6728SOL    HW121083   3.812   1.567   3.322
 6728SOL    HW221084   3.791   1.676   3.442
 6729SOL     OW21085   6.744   2.148   6.915
 6729SOL    HW121086   6.769   2.233   6.961
 6729SOL    HW221087   6.664   2.107   6.960
 6730SOL     OW21088   1.821   0.492   1.412
 6730SOL    HW121089   1.815   0.576   1.466
 6730SOL    HW221090   1.728   0.458   1.395
 6731SOL     OW21091   1.362   6.394   1.041
 6731SOL    HW121092   1.457   6.424   1.028
 6731SOL    HW221093   1.353   6.299   1.009
 6732SOL     OW21094   5.440   4.395   4.354
 6732SOL    HW121095   5.435   4.352   4.445
 6732SOL    HW221096   5.366   4.359   4.297
 6733SOL     OW21097   3.881   5.445   6.594
 6733SOL    HW121098   3.822   5.400   6.661
 6733SOL    HW221099   3.955   5.383   6.567
 6734SOL     OW21100   5.441   2.178   5.739
 6734SOL    HW121101   5.401   2.209   5.825
 6734SOL    HW221102   5.434   2.251   5.671
 6735SOL     OW21103   6.022   3.900   4.122
 6735SOL    HW121104   5.952   3.970   4.133
 6735SOL    HW221105   6.111   3.945   4.108
 6736SOL     OW21106   3.278   4.141   6.842
 6736SOL    HW121107   3.243   4.212   6.781
 6736SOL    HW221108   3.208   4.071   6.857
 6737SOL     OW21109   0.705   2.770   1.256
 6737SOL    HW121110   0.745   2.861   1.250
 6737SOL    HW221111   0.611   2.777   1.289
 6738SOL     OW21112   1.670   5.773   3.814
 6738SOL    HW121113   1.748   5.836   3.801
 6738SOL    HW221114   1.632   5.785   3.905
 6739SOL     OW21115   6.549   6.027   3.916
 6739SOL    HW121116   6.485   5.971   3.966
 6739SOL    HW221117   6.621   6.060   3.978
 6740SOL     OW21118   6.386   6.941   4.688
 6740SOL    HW121119   6.341   0.003   4.714
 6740SOL    HW221120   6.474   6.962   4.645
 6741SOL     OW21121   3.870   2.226   5.969
 6741SOL    HW121122   3.781   2.180   5.974
 6741SOL    HW221123   3.925   2.184   5.897
 6742SOL     OW21124   5.965   5.369   4.053
 6742SOL    HW121125   5.979   5.452   4.108
 6742SOL    HW221126   5.910   5.304   4.105
 6743SOL     OW21127   3.963   4.073   6.678
 6743SOL    HW121128   3.967   3.980   6.715
 6743SOL    HW221129   3.963   4.139   6.753
 6744SOL     OW21130   0.056   6.542   6.106
 6744SOL    HW121131   0.055   6.623   6.165
 6744SOL    HW221132   7.016   6.474   6.141
 6745SOL     OW21133   6.970   6.143   3.661
 6745SOL    HW121134   6.952   6.045   3.654
 6745SOL    HW221135   0.033   6.165   3.616
 6746SOL     OW21136   1.726   0.913   2.656
 6746SOL    HW121137   1.684   0.924   2.746
 6746SOL    HW221138   1.825   0.918   2.665
 6747SOL     OW21139   6.124   6.938   6.538
 6747SOL    HW121140   6.048   6.994   6.505
 6747SOL    HW221141   6.146   6.964   6.632
 6748SOL     OW21142   2.733   2.094   3.682
 6748SOL    HW121143   2.771   2.012   3.638
 6748SOL    HW221144   2.799   2.169   3.675
 6749SOL     OW21145   3.773   4.329   0.978
 6749SOL    HW121146   3.867   4.307   1.004
 6749SOL    HW221147   3.755   4.425   0.997
 6750SOL     OW21148   3.064   1.984   4.078
 6750SOL    HW121149   3.115   2.051   4.024
 6750SOL    HW221150   2.998   2.031   4.136
 6751SOL     OW21151   4.843   0.388   3.256
 6751SOL    HW121152   4.816   0.484   3.252
 6751SOL    HW221153   4.771   0.331   3.218
 6752SOL     OW21154   1.781   0.309   3.869
 6752SOL    HW121155   1.819   0.216   3.874
 6752SOL    HW221156   1.706   0.310   3.803
 6753SOL     OW21157   3.355   1.623   5.747
 6753SOL    HW121158   3.310   1.534   5.749
 6753SOL    HW221159   3.288   1.694   5.725
 6754SOL     OW21160   6.233   1.109   1.637
 6754SOL    HW121161   6.249   1.165   1.719
 6754SOL    HW221162   6.315   1.111   1.579
 6755SOL     OW21163   3.543   4.148   1.418
 6755SOL    HW121164   3.619   4.196   1.459
 6755SOL    HW221165   3.508   4.200   1.341
 6756SOL     OW21166   3.551   0.604   5.415
 6756SOL    HW121167   3.620   0.533   5.430
 6756SOL    HW221168   3.597   0.691   5.399
 6757SOL     OW21169   3.906   1.643   1.559
 6757SOL    HW121170   3.958   1.604   1.635
 6757SOL    HW221171   3.937   1.736   1.542
 6758SOL     OW21172   6.090   3.311   1.715
 6758SOL    HW121173   6.171   3.267   1.677
 6758SOL    HW221174   6.026   3.335   1.642
 6759SOL     OW21175   6.864   3.091   3.001
 6759SOL    HW121176   6.896   3.081   2.906
 6759SOL    HW221177   6.896   3.013   3.055
 6760SOL     OW21178   6.086   3.786   2.190
 6760SOL    HW121179   5.992   3.754   2.201
 6760SOL    HW221180   6.095   3.834   2.102
 6761SOL     OW21181   5.371   2.926   4.851
 6761SOL    HW121182   5.437   2.980   4.799
 6761SOL    HW221183   5.331   2.983   4.923
 6762SOL     OW21184   0.135   4.750   4.383
 6762SOL    HW121185   0.055   4.761   4.442
 6762SOL    HW221186   0.217   4.783   4.431
 6763SOL     OW21187   4.924   5.198   4.597
 6763SOL    HW121188   4.857   5.198   4.671
 6763SOL    HW221189   4.948   5.103   4.574
 6764SOL     OW21190   1.913   5.494   2.198
 6764SOL    HW121191   1.971   5.536   2.268
 6764SOL    HW221192   1.884   5.563   2.132
 6765SOL     OW21193   6.305   4.551   2.836
 6765SOL    HW121194   6.316   4.497   2.920
 6765SOL    HW221195   6.208   4.563   2.817
 6766SOL     OW21196   4.912   6.479   5.734
 6766SOL    HW121197   4.964   6.412   5.787
 6766SOL    HW221198   4.862   6.432   5.661
 6767SOL     OW21199   3.219   0.284   1.366
 6767SOL    HW121200   3.167   0.347   1.308
 6767SOL    HW221201   3.296   0.333   1.408
 6768SOL     OW21202   2.088   0.388   5.618
 6768SOL    HW121203   2.019   0.382   5.546
 6768SOL    HW221204   2.163   0.446   5.588
 6769SOL     OW21205   3.123   1.677   1.157
 6769SOL    HW121206   3.113   1.758   1.100
 6769SOL    HW221207   3.173   1.701   1.240
 6770SOL     OW21208   6.850   0.859   1.929
 6770SOL    HW121209   6.815   0.937   1.980
 6770SOL    HW221210   6.840   0.876   1.831
 6771SOL     OW21211   4.799   2.794   3.720
 6771SOL    HW121212   4.845   2.871   3.676
 6771SOL    HW221213   4.792   2.811   3.818
 6772SOL     OW21214   3.419   1.055   3.649
 6772SOL    HW121215   3.396   0.960   3.629
 6772SOL    HW221216   3.373   1.084   3.733
 6773SOL     OW21217   6.921   5.401   1.893
 6773SOL    HW121218   6.854   5.326   1.886
 6773SOL    HW221219   7.011   5.368   1.864
 6774SOL     OW21220   0.400   2.343   5.903
 6774SOL    HW121221   0.353   2.432   5.900
 6774SOL    HW221222   0.455   2.332   5.821
 6775SOL     OW21223   2.602   3.027   1.734
 6775SOL    HW121224   2.702   3.026   1.724
 6775SOL    HW221225   2.573   3.117   1.767
 6776SOL     OW21226   4.291   4.700   6.770
 6776SOL    HW121227   4.376   4.708   6.822
 6776SOL    HW221228   4.258   4.791   6.747
 6777SOL     OW21229   4.259   4.212   6.784
 6777SOL    HW121230   4.183   4.249   6.732
 6777SOL    HW221231   4.344   4.260   6.759
 6778SOL     OW21232   6.223   4.624   2.344
 6778SOL    HW121233   6.231   4.637   2.245
 6778SOL    HW221234   6.300   4.571   2.377
 6779SOL     OW21235   6.519   5.039   5.914
 6779SOL    HW121236   6.597   5.037   5.976
 6779SOL    HW221237   6.472   4.951   5.917
 6780SOL     OW21238   1.285   2.186   2.307
 6780SOL    HW121239   1.216   2.243   2.262
 6780SOL    HW221240   1.345   2.146   2.238
 6781SOL     OW21241   5.758   0.129   4.957
 6781SOL    HW121242   5.808   0.212   4.932
 6781SOL    HW221243   5.741   0.129   5.056
 6782SOL     OW21244   0.401   0.105   3.509
 6782SOL    HW121245   0.466   0.139   3.577
 6782SOL    HW221246   0.308   0.128   3.538
 6783SOL     OW21247   6.360   0.748   6.537
 6783SOL    HW121248   6.364   0.756   6.636
 6783SOL    HW221249   6.372   0.653   6.510
 6784SOL     OW21250   3.203   3.135   0.551
 6784SOL    HW121251   3.116   3.086   0.550
 6784SOL    HW221252   3.197   3.215   0.611
 6785SOL     OW21253   5.486   4.860   2.778
 6785SOL    HW121254   5.433   4.782   2.743
 6785SOL    HW221255   5.572   4.867   2.728
 6786SOL     OW21256   1.480   2.198   0.458
 6786SOL    HW121257   1.431   2.235   0.379
 6786SOL    HW221258   1.459   2.101   0.468
 6787SOL     OW21259   1.488   3.058   0.875
 6787SOL    HW121260   1.579   3.099   0.863
 6787SOL    HW221261   1.431   3.118   0.931
 6788SOL     OW21262   2.482   3.313   1.738
 6788SOL    HW121263   2.574   3.351   1.738
 6788SOL    HW221264   2.425   3.362   1.804
 6789SOL     OW21265   6.701   6.226   3.038
 6789SOL    HW121266   6.635   6.152   3.032
 6789SOL    HW221267   6.660   6.304   3.086
 6790SOL     OW21268   1.341   3.754   1.063
 6790SOL    HW121269   1.434   3.787   1.047
 6790SOL    HW221270   1.327   3.670   1.011
 6791SOL     OW21271   4.492   2.589   1.427
 6791SOL    HW121272   4.573   2.615   1.375
 6791SOL    HW221273   4.507   2.608   1.524
 6792SOL     OW21274   6.636   6.195   6.141
 6792SOL    HW121275   6.715   6.229   6.192
 6792SOL    HW221276   6.558   6.257   6.154
 6793SOL     OW21277   1.273   1.801   0.312
 6793SOL    HW121278   1.200   1.737   0.287
 6793SOL    HW221279   1.235   1.872   0.371
 6794SOL     OW21280   5.125   1.635   5.894
 6794SOL    HW121281   5.224   1.635   5.902
 6794SOL    HW221282   5.087   1.553   5.936
 6795SOL     OW21283   2.707   6.272   0.899
 6795SOL    HW121284   2.733   6.360   0.860
 6795SOL    HW221285   2.647   6.223   0.835
 6796SOL     OW21286   6.131   0.768   2.336
 6796SOL    HW121287   6.069   0.842   2.363
 6796SOL    HW221288   6.225   0.791   2.364
 6797SOL     OW21289   5.690   3.847   1.585
 6797SOL    HW121290   5.624   3.776   1.559
 6797SOL    HW221291   5.700   3.848   1.685
 6798SOL     OW21292   5.329   6.392   2.537
 6798SOL    HW121293   5.348   6.447   2.618
 6798SOL    HW221294   5.410   6.337   2.515
 6799SOL     OW21295   6.419   6.230   0.159
 6799SOL    HW121296   6.437   6.322   0.193
 6799SOL    HW221297   6.404   6.233   0.060
 6800SOL     OW21298   2.261   3.975   1.139
 6800SOL    HW121299   2.294   3.988   1.045
 6800SOL    HW221300   2.327   3.919   1.189
 6801SOL     OW21301   0.879   0.476   3.033
 6801SOL    HW121302   0.814   0.495   2.959
 6801SOL    HW221303   0.917   0.384   3.021
 6802SOL     OW21304   3.145   5.708   0.281
 6802SOL    HW121305   3.103   5.738   0.196
 6802SOL    HW221306   3.208   5.632   0.263
 6803SOL     OW21307   5.071   2.646   6.364
 6803SOL    HW121308   5.141   2.574   6.363
 6803SOL    HW221309   5.041   2.661   6.458
 6804SOL     OW21310   2.815   5.127   3.212
 6804SOL    HW121311   2.737   5.100   3.156
 6804SOL    HW221312   2.865   5.046   3.242
 6805SOL     OW21313   5.801   5.611   5.482
 6805SOL    HW121314   5.709   5.621   5.520
 6805SOL    HW221315   5.868   5.646   5.546
 6806SOL     OW21316   6.030   0.744   3.247
 6806SOL    HW121317   6.009   0.727   3.344
 6806SOL    HW221318   5.963   0.807   3.209
 6807SOL     OW21319   3.196   2.715   0.474
 6807SOL    HW121320   3.134   2.730   0.397
 6807SOL    HW221321   3.207   2.616   0.488
 6808SOL     OW21322   0.279   1.947   5.378
 6808SOL    HW121323   0.190   1.927   5.419
 6808SOL    HW221324   0.273   2.030   5.322
 6809SOL     OW21325   1.251   3.143   1.628
 6809SOL    HW121326   1.292   3.129   1.718
 6809SOL    HW221327   1.193   3.064   1.606
 6810SOL     OW21328   1.974   0.408   1.991
 6810SOL    HW121329   2.006   0.391   2.085
 6810SOL    HW221330   2.018   0.490   1.955
 6811SOL     OW21331   4.938   3.986   0.379
 6811SOL    HW121332   4.883   4.048   0.435
 6811SOL    HW221333   4.973   3.911   0.436
 6812SOL     OW21334   3.618   3.186   3.478
 6812SOL    HW121335   3.650   3.092   3.484
 6812SOL    HW221336   3.519   3.189   3.494
 6813SOL     OW21337   4.674   2.325   2.327
 6813SOL    HW121338   4.653   2.232   2.298
 6813SOL    HW221339   4.615   2.390   2.279
 6814SOL     OW21340   3.238   1.885   0.332
 6814SOL    HW121341   3.176   1.809   0.312
 6814SOL    HW221342   3.322   1.874   0.278
 6815SOL     OW21343   2.898   0.161   1.396
 6815SOL    HW121344   2.930   0.197   1.309
 6815SOL    HW221345   2.918   0.063   1.402
 6816SOL     OW21346   0.446   6.975   6.745
 6816SOL    HW121347   0.496   6.896   6.708
 6816SOL    HW221348   0.436   6.965   6.844
 6817SOL     OW21349   1.032   2.025   4.767
 6817SOL    HW121350   1.111   2.025   4.828
 6817SOL    HW221351   1.056   2.067   4.680
 6818SOL     OW21352   2.888   5.083   1.762
 6818SOL    HW121353   2.848   4.992   1.770
 6818SOL    HW221354   2.824   5.145   1.718
 6819SOL     OW21355   4.910   1.038   4.371
 6819SOL    HW121356   4.911   1.091   4.456
 6819SOL    HW221357   4.900   0.941   4.392
 6820SOL     OW21358   0.769   5.640   2.879
 6820SOL    HW121359   0.863   5.674   2.881
 6820SOL    HW221360   0.758   5.569   2.949
 6821SOL     OW21361   3.083   0.796   5.137
 6821SOL    HW121362   3.110   0.715   5.085
 6821SOL    HW221363   3.158   0.863   5.134
 6822SOL     OW21364   6.081   2.176   6.059
 6822SOL    HW121365   6.011   2.125   6.109
 6822SOL    HW221366   6.163   2.184   6.115
 6823SOL     OW21367   3.555   3.427   4.326
 6823SOL    HW121368   3.618   3.405   4.401
 6823SOL    HW221369   3.594   3.500   4.270
 6824SOL     OW21370   1.009   3.014   6.151
 6824SOL    HW121371   1.036   3.073   6.227
 6824SOL    HW221372   1.014   2.918   6.179
 6825SOL     OW21373   5.058   6.572   2.120
 6825SOL    HW121374   5.003   6.646   2.161
 6825SOL    HW221375   5.053   6.491   2.178
 6826SOL     OW21376   2.244   4.222   2.679
 6826SOL    HW121377   2.212   4.269   2.597
 6826SOL    HW221378   2.212   4.127   2.678
 6827SOL     OW21379   4.262   5.475   0.054
 6827SOL    HW121380   4.274   5.574   0.066
 6827SOL    HW221381   4.200   5.457   7.001
 6828SOL     OW21382   2.865   1.755   1.693
 6828SOL    HW121383   2.955   1.757   1.649
 6828SOL    HW221384   2.876   1.729   1.789
 6829SOL     OW21385   4.883   6.702   4.223
 6829SOL    HW121386   4.857   6.763   4.147
 6829SOL    HW221387   4.982   6.703   4.234
 6830SOL     OW21388   5.413   1.487   3.927
 6830SOL    HW121389   5.477   1.543   3.876
 6830SOL    HW221390   5.464   1.419   3.980
 6831SOL     OW21391   1.164   0.404   6.445
 6831SOL    HW121392   1.174   0.364   6.354
 6831SOL    HW221393   1.187   0.501   6.441
 6832SOL     OW21394   2.923   3.888   0.993
 6832SOL    HW121395   2.851   3.824   1.019
 6832SOL    HW221396   2.900   3.980   1.027
 6833SOL     OW21397   4.423   4.656   6.514
 6833SOL    HW121398   4.329   4.690   6.509
 6833SOL    HW221399   4.470   4.700   6.590
 6834SOL     OW21400   5.357   6.769   1.247
 6834SOL    HW121401   5.265   6.755   1.210
 6834SOL    HW221402   5.371   6.866   1.268
 6835SOL     OW21403   3.677   0.314   4.970
 6835SOL    HW121404   3.712   0.359   4.888
 6835SOL    HW221405   3.752   0.299   5.034
 6836SOL     OW21406   2.909   5.550   0.335
 6836SOL    HW121407   2.987   5.610   0.318
 6836SOL    HW221408   2.827   5.590   0.293
 6837SOL     OW21409   1.610   1.860   1.893
 6837SOL    HW121410   1.613   1.959   1.888
 6837SOL    HW221411   1.650   1.829   1.979
 6838SOL     OW21412   2.750   5.943   0.944
 6838SOL    HW121413   2.750   5.856   0.895
 6838SOL    HW221414   2.680   6.003   0.906
 6839SOL     OW21415   5.097   0.686   6.647
 6839SOL    HW121416   5.129   0.633   6.568
 6839SOL    HW221417   5.015   0.737   6.621
 6840SOL     OW21418   3.181   1.925   4.852
 6840SOL    HW121419   3.228   1.999   4.802
 6840SOL    HW221420   3.242   1.888   4.921
 6841SOL     OW21421   5.373   4.245   5.823
 6841SOL    HW121422   5.415   4.189   5.752
 6841SOL    HW221423   5.399   4.208   5.913
 6842SOL     OW21424   2.884   4.192   0.866
 6842SOL    HW121425   2.877   4.178   0.964
 6842SOL    HW221426   2.970   4.154   0.833
 6843SOL     OW21427   5.230   6.454   0.450
 6843SOL    HW121428   5.266   6.387   0.514
 6843SOL    HW221429   5.246   6.547   0.485
 6844SOL     OW21430   5.643   1.037   4.206
 6844SOL    HW121431   5.668   1.036   4.109
 6844SOL    HW221432   5.555   0.990   4.218
 6845SOL     OW21433   6.240   3.383   3.311
 6845SOL    HW121434   6.256   3.399   3.408
 6845SOL    HW221435   6.307   3.433   3.257
 6846SOL     OW21436   3.907   3.816   0.115
 6846SOL    HW121437   3.903   3.916   0.124
 6846SOL    HW221438   3.919   3.774   0.205
 6847SOL     OW21439   0.246   3.811   5.267
 6847SOL    HW121440   0.308   3.732   5.274
 6847SOL    HW221441   0.153   3.778   5.252
 6848SOL     OW21442   5.210   4.402   3.400
 6848SOL    HW121443   5.123   4.431   3.361
 6848SOL    HW221444   5.280   4.469   3.378
 6849SOL     OW21445   4.330   3.937   5.604
 6849SOL    HW121446   4.278   3.851   5.601
 6849SOL    HW221447   4.307   3.986   5.688
 6850SOL     OW21448   5.361   3.039   2.892
 6850SOL    HW121449   5.460   3.044   2.881
 6850SOL    HW221450   5.316   3.096   2.824
 6851SOL     OW21451   1.073   2.187   2.725
 6851SOL    HW121452   1.128   2.128   2.785
 6851SOL    HW221453   1.087   2.283   2.750
 6852SOL     OW21454   2.993   4.697   0.960
 6852SOL    HW121455   2.913   4.637   0.951
 6852SOL    HW221456   2.998   4.732   1.054
 6853SOL     OW21457   5.570   4.383   6.344
 6853SOL    HW121458   5.526   4.294   6.335
 6853SOL    HW221459   5.641   4.378   6.414
 6854SOL     OW21460   5.524   0.137   5.981
 6854SOL    HW121461   5.451   0.079   5.945
 6854SOL    HW221462   5.595   0.080   6.021
 6855SOL     OW21463   4.032   5.426   3.666
 6855SOL    HW121464   3.943   5.385   3.686
 6855SOL    HW221465   4.036   5.453   3.570
 6856SOL     OW21466   0.609   2.216   5.163
 6856SOL    HW121467   0.708   2.208   5.149
 6856SOL    HW221468   0.562   2.149   5.106
 6857SOL     OW21469   0.910   3.271   6.678
 6857SOL    HW121470   0.904   3.251   6.775
 6857SOL    HW221471   1.000   3.309   6.657
 6858SOL     OW21472   3.596   4.162   1.984
 6858SOL    HW121473   3.662   4.236   1.990
 6858SOL    HW221474   3.559   4.156   1.891
 6859SOL     OW21475   0.496   0.668   1.373
 6859SOL    HW121476   0.404   0.628   1.372
 6859SOL    HW221477   0.564   0.596   1.366
 6860SOL     OW21478   6.915   4.633   1.262
 6860SOL    HW121479   6.866   4.683   1.333
 6860SOL    HW221480   6.996   4.683   1.235
 6861SOL     OW21481   5.166   4.031   6.171
 6861SOL    HW121482   5.140   4.094   6.244
 6861SOL    HW221483   5.127   4.062   6.085
 6862SOL     OW21484   6.885   5.121   5.564
 6862SOL    HW121485   6.923   5.172   5.642
 6862SOL    HW221486   6.890   5.177   5.482
 6863SOL     OW21487   6.302   5.944   5.797
 6863SOL    HW121488   6.344   5.879   5.860
 6863SOL    HW221489   6.294   6.033   5.843
 6864SOL     OW21490   2.075   4.680   4.990
 6864SOL    HW121491   2.046   4.761   5.039
 6864SOL    HW221492   2.174   4.669   4.997
 6865SOL     OW21493   0.986   0.078   5.290
 6865SOL    HW121494   1.040   0.007   5.245
 6865SOL    HW221495   0.945   0.137   5.221
 6866SOL     OW21496   5.804   4.597   2.640
 6866SOL    HW121497   5.812   4.564   2.546
 6866SOL    HW221498   5.784   4.695   2.640
 6867SOL     OW21499   1.955   3.662   1.338
 6867SOL    HW121500   2.006   3.748   1.332
 6867SOL    HW221501   2.004   3.598   1.397
 6868SOL     OW21502   2.282   6.718   5.179
 6868SOL    HW121503   2.303   6.803   5.132
 6868SOL    HW221504   2.341   6.708   5.259
 6869SOL     OW21505   4.866   1.182   5.786
 6869SOL    HW121506   4.917   1.246   5.844
 6869SOL    HW221507   4.768   1.192   5.803
 6870SOL     OW21508   0.312   4.014   1.288
 6870SOL    HW121509   0.381   4.060   1.233
 6870SOL    HW221510   0.324   4.039   1.384
 6871SOL     OW21511   6.473   3.918   2.429
 6871SOL    HW121512   6.456   3.962   2.517
 6871SOL    HW221513   6.549   3.854   2.438
 6872SOL     OW21514   0.593   2.901   2.075
 6872SOL    HW121515   0.581   2.987   2.025
 6872SOL    HW221516   0.654   2.841   2.023
 6873SOL     OW21517   0.997   3.914   4.023
 6873SOL    HW121518   0.915   3.862   3.997
 6873SOL    HW221519   1.062   3.854   4.068
 6874SOL     OW21520   6.579   5.632   3.712
 6874SOL    HW121521   6.606   5.726   3.691
 6874SOL    HW221522   6.489   5.632   3.754
 6875SOL     OW21523   2.476   1.764   2.066
 6875SOL    HW121524   2.481   1.670   2.034
 6875SOL    HW221525   2.561   1.812   2.042
 6876SOL     OW21526   3.362   6.879   3.660
 6876SOL    HW121527   3.417   6.850   3.582
 6876SOL    HW221528   3.421   6.918   3.730
 6877SOL     OW21529   3.248   4.096   1.895
 6877SOL    HW121530   3.202   4.183   1.876
 6877SOL    HW221531   3.212   4.057   1.980
 6878SOL     OW21532   2.486   2.066   3.567
 6878SOL    HW121533   2.579   2.078   3.602
 6878SOL    HW221534   2.483   1.986   3.508
 6879SOL     OW21535   2.301   2.654   0.262
 6879SOL    HW121536   2.234   2.720   0.296
 6879SOL    HW221537   2.256   2.591   0.199
 6880SOL     OW21538   0.793   6.298   5.632
 6880SOL    HW121539   0.723   6.362   5.602
 6880SOL    HW221540   0.883   6.330   5.601
 6881SOL     OW21541   1.622   3.076   1.574
 6881SOL    HW121542   1.566   3.011   1.626
 6881SOL    HW221543   1.718   3.067   1.601
 6882SOL     OW21544   2.722   1.074   0.656
 6882SOL    HW121545   2.788   1.127   0.709
 6882SOL    HW221546   2.765   0.988   0.627
 6883SOL     OW21547   4.912   1.294   6.204
 6883SOL    HW121548   4.990   1.306   6.265
 6883SOL    HW221549   4.842   1.361   6.226
 6884SOL     OW21550   1.470   4.468   3.348
 6884SOL    HW121551   1.504   4.374   3.337
 6884SOL    HW221552   1.464   4.512   3.259
 6885SOL     OW21553   4.539   4.944   3.927
 6885SOL    HW121554   4.601   4.876   3.965
 6885SOL    HW221555   4.531   4.931   3.828
 6886SOL     OW21556   0.117   1.429   4.901
 6886SOL    HW121557   0.131   1.463   4.808
 6886SOL    HW221558   0.021   1.436   4.925
 6887SOL     OW21559   4.443   5.677   0.227
 6887SOL    HW121560   4.503   5.729   0.287
 6887SOL    HW221561   4.467   5.580   0.230
 6888SOL     OW21562   5.368   4.485   6.156
 6888SOL    HW121563   5.341   4.424   6.081
 6888SOL    HW221564   5.448   4.447   6.202
 6889SOL     OW21565   1.847   2.522   5.740
 6889SOL    HW121566   1.903   2.544   5.660
 6889SOL    HW221567   1.751   2.542   5.720
 6890SOL     OW21568   3.730   5.745   3.085
 6890SOL    HW121569   3.678   5.829   3.101
 6890SOL    HW221570   3.678   5.683   3.026
 6891SOL     OW21571   2.040   3.034   1.307
 6891SOL    HW121572   1.980   3.024   1.228
 6891SOL    HW221573   1.991   3.008   1.390
 6892SOL     OW21574   3.062   1.311   3.641
 6892SOL    HW121575   3.148   1.299   3.690
 6892SOL    HW221576   3.082   1.326   3.544
 6893SOL     OW21577   5.676   3.564   0.442
 6893SOL    HW121578   5.771   3.535   0.442
 6893SOL    HW221579   5.658   3.622   0.522
 6894SOL     OW21580   5.986   4.958   1.230
 6894SOL    HW121581   6.062   4.960   1.165
 6894SOL    HW221582   5.914   5.019   1.198
 6895SOL     OW21583   2.126   5.319   1.231
 6895SOL    HW121584   2.121   5.233   1.181
 6895SOL    HW221585   2.125   5.301   1.329
 6896SOL     OW21586   2.634   1.908   3.880
 6896SOL    HW121587   2.642   1.980   3.811
 6896SOL    HW221588   2.722   1.863   3.893
 6897SOL     OW21589   5.097   3.644   5.069
 6897SOL    HW121590   5.005   3.639   5.031
 6897SOL    HW221591   5.157   3.689   5.002
 6898SOL     OW21592   3.570   1.317   1.486
 6898SOL    HW121593   3.544   1.223   1.464
 6898SOL    HW221594   3.540   1.378   1.413
 6899SOL     OW21595   4.729   6.328   2.445
 6899SOL    HW121596   4.750   6.230   2.442
 6899SOL    HW221597   4.807   6.378   2.483
 6900SOL     OW21598   6.891   4.326   5.449
 6900SOL    HW121599   6.882   4.246   5.389
 6900SOL    HW221600   6.987   4.339   5.474
 6901SOL     OW21601   5.353   5.916   6.131
 6901SOL    HW121602   5.343   6.015   6.129
 6901SOL    HW221603   5.436   5.891   6.182
 6902SOL     OW21604   6.451   5.929   5.324
 6902SOL    HW121605   6.439   5.988   5.404
 6902SOL    HW221606   6.498   5.980   5.252
 6903SOL     OW21607   3.197   4.881   4.930
 6903SOL    HW121608   3.266   4.816   4.899
 6903SOL    HW221609   3.231   4.929   5.011
 6904SOL     OW21610   6.413   7.006   6.133
 6904SOL    HW121611   6.382   0.042   6.058
 6904SOL    HW221612   6.340   6.943   6.158
 6905SOL     OW21613   4.957   5.114   6.641
 6905SOL    HW121614   5.045   5.071   6.620
 6905SOL    HW221615   4.971   5.190   6.705
 6906SOL     OW21616   3.377   1.209   3.426
 6906SOL    HW121617   3.466   1.253   3.426
 6906SOL    HW221618   3.369   1.149   3.506
 6907SOL     OW21619   6.402   2.572   1.882
 6907SOL    HW121620   6.479   2.591   1.943
 6907SOL    HW221621   6.395   2.644   1.813
 6908SOL     OW21622   2.170   4.762   6.697
 6908SOL    HW121623   2.266   4.736   6.703
 6908SOL    HW221624   2.161   4.861   6.707
 6909SOL     OW21625   5.187   4.903   1.373
 6909SOL    HW121626   5.242   4.820   1.381
 6909SOL    HW221627   5.105   4.883   1.319
 6910SOL     OW21628   1.365   2.517   2.964
 6910SOL    HW121629   1.340   2.567   3.047
 6910SOL    HW221630   1.282   2.484   2.919
 6911SOL     OW21631   4.491   0.032   4.307
 6911SOL    HW121632   4.558   6.982   4.321
 6911SOL    HW221633   4.418   0.024   4.375
 6912SOL     OW21634   2.572   3.365   6.534
 6912SOL    HW121635   2.617   3.433   6.592
 6912SOL    HW221636   2.519   3.302   6.591
 6913SOL     OW21637   5.168   6.632   5.006
 6913SOL    HW121638   5.105   6.577   5.060
 6913SOL    HW221639   5.252   6.580   4.989
 6914SOL     OW21640   6.051   3.880   3.317
 6914SOL    HW121641   6.034   3.784   3.293
 6914SOL    HW221642   6.048   3.936   3.235
 6915SOL     OW21643   0.827   2.163   2.803
 6915SOL    HW121644   0.917   2.175   2.763
 6915SOL    HW221645   0.777   2.250   2.799
 6916SOL     OW21646   5.490   1.063   6.270
 6916SOL    HW121647   5.545   0.982   6.250
 6916SOL    HW221648   5.394   1.044   6.247
 6917SOL     OW21649   3.968   6.056   2.143
 6917SOL    HW121650   3.988   5.975   2.197
 6917SOL    HW221651   4.015   6.049   2.055
 6918SOL     OW21652   6.945   2.857   4.008
 6918SOL    HW121653   6.884   2.896   3.940
 6918SOL    HW221654   6.958   2.760   3.989
 6919SOL     OW21655   6.319   5.709   3.566
 6919SOL    HW121656   6.266   5.662   3.638
 6919SOL    HW221657   6.320   5.807   3.584
 6920SOL     OW21658   4.842   0.312   5.459
 6920SOL    HW121659   4.758   0.360   5.434
 6920SOL    HW221660   4.875   0.261   5.380
 6921SOL     OW21661   4.529   6.856   3.898
 6921SOL    HW121662   4.522   6.864   3.798
 6921SOL    HW221663   4.515   6.945   3.940
 6922SOL     OW21664   1.756   6.419   5.182
 6922SOL    HW121665   1.722   6.473   5.105
 6922SOL    HW221666   1.802   6.479   5.247
 6923SOL     OW21667   5.880   6.463   2.503
 6923SOL    HW121668   5.812   6.502   2.441
 6923SOL    HW221669   5.970   6.500   2.482
 6924SOL     OW21670   2.829   4.881   0.361
 6924SOL    HW121671   2.839   4.965   0.306
 6924SOL    HW221672   2.917   4.833   0.364
 6925SOL     OW21673   4.414   5.490   4.962
 6925SOL    HW121674   4.340   5.516   5.025
 6925SOL    HW221675   4.474   5.568   4.947
 6926SOL     OW21676   2.171   1.843   0.899
 6926SOL    HW121677   2.185   1.745   0.905
 6926SOL    HW221678   2.131   1.877   0.984
 6927SOL     OW21679   3.408   1.556   6.812
 6927SOL    HW121680   3.469   1.599   6.878
 6927SOL    HW221681   3.417   1.602   6.724
 6928SOL     OW21682   5.116   6.233   0.781
 6928SOL    HW121683   5.095   6.137   0.766
 6928SOL    HW221684   5.058   6.289   0.722
 6929SOL     OW21685   5.055   5.846   1.796
 6929SOL    HW121686   5.131   5.783   1.780
 6929SOL    HW221687   5.011   5.824   1.883
 6930SOL     OW21688   0.636   0.446   1.294
 6930SOL    HW121689   0.602   0.352   1.297
 6930SOL    HW221690   0.735   0.446   1.304
 6931SOL     OW21691   1.718   1.791   1.650
 6931SOL    HW121692   1.638   1.751   1.605
 6931SOL    HW221693   1.693   1.819   1.743
 6932SOL     OW21694   4.602   6.160   1.134
 6932SOL    HW121695   4.642   6.220   1.204
 6932SOL    HW221696   4.639   6.183   1.044
 6933SOL     OW21697   3.480   0.091   5.535
 6933SOL    HW121698   3.516   0.020   5.474
 6933SOL    HW221699   3.401   0.055   5.585
 6934SOL     OW21700   4.765   3.235   6.020
 6934SOL    HW121701   4.827   3.310   5.999
 6934SOL    HW221702   4.683   3.270   6.065
 6935SOL     OW21703   4.022   5.758   2.931
 6935SOL    HW121704   3.948   5.814   2.966
 6935SOL    HW221705   4.109   5.791   2.967
 6936SOL     OW21706   0.056   2.493   4.351
 6936SOL    HW121707   0.135   2.537   4.309
 6936SOL    HW221708   7.020   2.562   4.391
 6937SOL     OW21709   5.697   6.228   0.845
 6937SOL    HW121710   5.670   6.294   0.775
 6937SOL    HW221711   5.617   6.176   0.876
 6938SOL     OW21712   0.743   2.302   4.189
 6938SOL    HW121713   0.835   2.323   4.223
 6938SOL    HW221714   0.711   2.217   4.231
 6939SOL     OW21715   0.038   5.225   2.779
 6939SOL    HW121716   0.042   5.189   2.872
 6939SOL    HW221717   6.971   5.264   2.762
 6940SOL     OW21718   4.088   6.718   0.313
 6940SOL    HW121719   4.117   6.813   0.326
 6940SOL    HW221720   4.020   6.714   0.239
 6941SOL     OW21721   2.903   3.743   2.250
 6941SOL    HW121722   2.895   3.648   2.220
 6941SOL    HW221723   2.814   3.788   2.239
 6942SOL     OW21724   5.778   0.139   2.073
 6942SOL    HW121725   5.727   0.224   2.063
 6942SOL    HW221726   5.858   0.141   2.014
 6943SOL     OW21727   3.648   4.832   0.469
 6943SOL    HW121728   3.690   4.788   0.549
 6943SOL    HW221729   3.714   4.894   0.428
 6944SOL     OW21730   0.878   5.218   6.472
 6944SOL    HW121731   0.843   5.312   6.468
 6944SOL    HW221732   0.917   5.193   6.384
 6945SOL     OW21733   6.660   2.572   1.368
 6945SOL    HW121734   6.745   2.615   1.339
 6945SOL    HW221735   6.680   2.496   1.430
 6946SOL     OW21736   3.986   6.561   1.550
 6946SOL    HW121737   4.086   6.567   1.553
 6946SOL    HW221738   3.948   6.653   1.541
 6947SOL     OW21739   4.526   5.049   6.357
 6947SOL    HW121740   4.431   5.062   6.385
 6947SOL    HW221741   4.585   5.055   6.437
 6948SOL     OW21742   0.291   5.669   1.014
 6948SOL    HW121743   0.261   5.605   1.085
 6948SOL    HW221744   0.217   5.682   0.948
 6949SOL     OW21745   2.312   2.087   3.374
 6949SOL    HW121746   2.370   2.104   3.454
 6949SOL    HW221747   2.338   2.150   3.301
 6950SOL     OW21748   1.601   0.372   4.450
 6950SOL    HW121749   1.551   0.337   4.371
 6950SOL    HW221750   1.542   0.369   4.531
 6951SOL     OW21751   6.872   6.074   6.880
 6951SOL    HW121752   6.877   6.095   6.978
 6951SOL    HW221753   6.964   6.062   6.844
 6952SOL     OW21754   1.877   5.374   2.984
 6952SOL    HW121755   1.889   5.275   2.986
 6952SOL    HW221756   1.946   5.418   3.042
 6953SOL     OW21757   5.508   0.275   6.924
 6953SOL    HW121758   5.503   0.204   6.854
 6953SOL    HW221759   5.420   0.280   6.971
 6954SOL     OW21760   0.392   4.034   1.561
 6954SOL    HW121761   0.439   3.946   1.575
 6954SOL    HW221762   0.386   4.083   1.647
 6955SOL     OW21763   4.714   0.943   2.734
 6955SOL    HW121764   4.798   0.996   2.736
 6955SOL    HW221765   4.730   0.856   2.687
 6956SOL     OW21766   5.173   5.539   3.164
 6956SOL    HW121767   5.108   5.537   3.240
 6956SOL    HW221768   5.137   5.486   3.087
 6957SOL     OW21769   6.033   5.928   0.433
 6957SOL    HW121770   6.116   5.966   0.391
 6957SOL    HW221771   5.953   5.962   0.382
 6958SOL     OW21772   3.919   3.200   4.788
 6958SOL    HW121773   3.995   3.241   4.736
 6958SOL    HW221774   3.888   3.117   4.742
 6959SOL     OW21775   1.705   4.210   3.292
 6959SOL    HW121776   1.715   4.239   3.197
 6959SOL    HW221777   1.755   4.125   3.307
 6960SOL     OW21778   2.388   4.013   0.891
 6960SOL    HW121779   2.444   4.080   0.940
 6960SOL    HW221780   2.442   3.933   0.869
 6961SOL     OW21781   5.527   1.258   4.561
 6961SOL    HW121782   5.589   1.230   4.635
 6961SOL    HW221783   5.434   1.233   4.585
 6962SOL     OW21784   4.246   5.769   1.033
 6962SOL    HW121785   4.241   5.839   1.103
 6962SOL    HW221786   4.181   5.696   1.054
 6963SOL     OW21787   5.256   4.894   0.511
 6963SOL    HW121788   5.191   4.949   0.562
 6963SOL    HW221789   5.224   4.799   0.506
 6964SOL     OW21790   3.546   0.311   5.873
 6964SOL    HW121791   3.505   0.220   5.870
 6964SOL    HW221792   3.591   0.330   5.786
 6965SOL     OW21793   1.726   1.304   6.964
 6965SOL    HW121794   1.718   1.302   6.865
 6965SOL    HW221795   1.820   1.284   6.991
 6966SOL     OW21796   0.711   0.598   2.630
 6966SOL    HW121797   0.752   0.523   2.577
 6966SOL    HW221798   0.780   0.638   2.690
 6967SOL     OW21799   3.309   1.266   6.088
 6967SOL    HW121800   3.302   1.193   6.019
 6967SOL    HW221801   3.253   1.343   6.060
 6968SOL     OW21802   2.243   1.305   3.483
 6968SOL    HW121803   2.177   1.246   3.529
 6968SOL    HW221804   2.304   1.249   3.427
 6969SOL     OW21805   3.243   2.039   1.372
 6969SOL    HW121806   3.250   1.940   1.361
 6969SOL    HW221807   3.288   2.067   1.457
 6970SOL     OW21808   4.198   3.674   5.611
 6970SOL    HW121809   4.256   3.604   5.653
 6970SOL    HW221810   4.128   3.631   5.554
 6971SOL     OW21811   5.758   5.448   1.173
 6971SOL    HW121812   5.702   5.531   1.168
 6971SOL    HW221813   5.795   5.438   1.265
 6972SOL     OW21814   5.510   3.807   1.984
 6972SOL    HW121815   5.596   3.778   1.942
 6972SOL    HW221816   5.511   3.906   1.997
 6973SOL     OW21817   0.890   2.558   3.459
 6973SOL    HW121818   0.909   2.633   3.395
 6973SOL    HW221819   0.886   2.471   3.409
 6974SOL     OW21820   2.990   3.579   2.748
 6974SOL    HW121821   3.037   3.653   2.795
 6974SOL    HW221822   2.987   3.598   2.650
 6975SOL     OW21823   1.958   6.605   4.667
 6975SOL    HW121824   1.897   6.555   4.728
 6975SOL    HW221825   2.040   6.551   4.650
 6976SOL     OW21826   6.589   3.864   5.875
 6976SOL    HW121827   6.656   3.929   5.841
 6976SOL    HW221828   6.505   3.913   5.901
 6977SOL     OW21829   3.636   3.439   1.190
 6977SOL    HW121830   3.677   3.508   1.131
 6977SOL    HW221831   3.547   3.413   1.154
 6978SOL     OW21832   5.364   2.733   1.277
 6978SOL    HW121833   5.406   2.821   1.256
 6978SOL    HW221834   5.264   2.743   1.276
 6979SOL     OW21835   1.082   3.335   0.816
 6979SOL    HW121836   1.029   3.292   0.889
 6979SOL    HW221837   1.020   3.371   0.747
 6980SOL     OW21838   1.961   1.466   3.572
 6980SOL    HW121839   2.017   1.457   3.490
 6980SOL    HW221840   2.016   1.443   3.652
 6981SOL     OW21841   3.812   3.113   6.031
 6981SOL    HW121842   3.857   3.043   5.976
 6981SOL    HW221843   3.880   3.159   6.089
 6982SOL     OW21844   1.042   1.023   3.978
 6982SOL    HW121845   1.091   0.953   3.927
 6982SOL    HW221846   1.105   1.070   4.039
 6983SOL     OW21847   5.134   1.086   4.790
 6983SOL    HW121848   5.081   1.046   4.864
 6983SOL    HW221849   5.219   1.035   4.778
 6984SOL     OW21850   1.352   1.310   2.534
 6984SOL    HW121851   1.439   1.353   2.558
 6984SOL    HW221852   1.284   1.332   2.604
 6985SOL     OW21853   6.913   5.267   0.382
 6985SOL    HW121854   7.010   5.242   0.382
 6985SOL    HW221855   6.857   5.184   0.381
 6986SOL     OW21856   3.482   6.968   6.479
 6986SOL    HW121857   3.513   6.878   6.448
 6986SOL    HW221858   3.550   7.008   6.540
 6987SOL     OW21859   6.998   1.185   6.176
 6987SOL    HW121860   6.908   1.195   6.219
 6987SOL    HW221861   6.990   1.199   6.077
 6988SOL     OW21862   1.872   6.653   6.239
 6988SOL    HW121863   1.789   6.651   6.295
 6988SOL    HW221864   1.891   6.561   6.203
 6989SOL     OW21865   6.784   4.677   3.139
 6989SOL    HW121866   6.868   4.731   3.138
 6989SOL    HW221867   6.778   4.623   3.055
 6990SOL     OW21868   4.072   2.458   1.380
 6990SOL    HW121869   4.023   2.456   1.293
 6990SOL    HW221870   4.088   2.364   1.411
 6991SOL     OW21871   5.424   4.509   3.010
 6991SOL    HW121872   5.510   4.513   2.960
 6991SOL    HW221873   5.429   4.437   3.079
 6992SOL     OW21874   6.335   6.079   0.359
 6992SOL    HW121875   6.355   5.984   0.335
 6992SOL    HW221876   6.353   6.137   0.279
 6993SOL     OW21877   6.534   0.529   1.187
 6993SOL    HW121878   6.574   0.570   1.268
 6993SOL    HW221879   6.437   0.512   1.202
 6994SOL     OW21880   1.426   1.100   4.562
 6994SOL    HW121881   1.346   1.054   4.525
 6994SOL    HW221882   1.478   1.142   4.487
 6995SOL     OW21883   0.010   3.977   0.267
 6995SOL    HW121884   7.022   3.990   0.366
 6995SOL    HW221885   0.107   3.978   0.244
 6996SOL     OW21886   1.231   0.171   0.459
 6996SOL    HW121887   1.304   0.192   0.395
 6996SOL    HW221888   1.150   0.226   0.436
 6997SOL     OW21889   6.944   4.806   5.031
 6997SOL    HW121890   6.934   4.707   5.019
 6997SOL    HW221891   6.880   4.854   4.971
 6998SOL     OW21892   0.774   1.443   1.824
 6998SOL    HW121893   0.676   1.453   1.839
 6998SOL    HW221894   0.807   1.522   1.771
 6999SOL     OW21895   1.669   2.351   6.742
 6999SOL    HW121896   1.590   2.412   6.739
 6999SOL    HW221897   1.642   2.262   6.777
 7000SOL     OW21898   5.739   0.618   2.157
 7000SOL    HW121899   5.748   0.545   2.225
 7000SOL    HW221900   5.675   0.687   2.192
 7001SOL     OW21901   0.834   2.079   5.133
 7001SOL    HW121902   0.803   2.012   5.066
 7001SOL    HW221903   0.845   2.034   5.222
 7002SOL     OW21904   1.735   4.964   4.207
 7002SOL    HW121905   1.769   4.881   4.163
 7002SOL    HW221906   1.744   4.955   4.307
 7003SOL     OW21907   4.752   5.538   1.806
 7003SOL    HW121908   4.810   5.591   1.743
 7003SOL    HW221909   4.656   5.559   1.787
 7004SOL     OW21910   0.829   5.842   0.403
 7004SOL    HW121911   0.830   5.800   0.313
 7004SOL    HW221912   0.869   5.780   0.470
 7005SOL     OW21913   1.023   0.248   0.709
 7005SOL    HW121914   0.995   0.156   0.739
 7005SOL    HW221915   0.980   0.268   0.621
 7006SOL     OW21916   5.887   6.501   3.213
 7006SOL    HW121917   5.901   6.593   3.250
 7006SOL    HW221918   5.898   6.503   3.114
 7007SOL     OW21919   4.290   0.529   4.651
 7007SOL    HW121920   4.322   0.543   4.745
 7007SOL    HW221921   4.337   0.450   4.611
 7008SOL     OW21922   0.213   4.507   3.958
 7008SOL    HW121923   0.245   4.551   4.042
 7008SOL    HW221924   0.287   4.507   3.891
 7009SOL     OW21925   4.598   6.644   1.860
 7009SOL    HW121926   4.640   6.579   1.923
 7009SOL    HW221927   4.597   6.735   1.901
 7010SOL     OW21928   5.872   4.679   3.307
 7010SOL    HW121929   5.950   4.622   3.331
 7010SOL    HW221930   5.797   4.661   3.370
 7011SOL     OW21931   4.181   6.798   0.866
 7011SOL    HW121932   4.225   6.875   0.821
 7011SOL    HW221933   4.191   6.716   0.810
 7012SOL     OW21934   0.791   2.291   1.437
 7012SOL    HW121935   0.863   2.224   1.457
 7012SOL    HW221936   0.801   2.323   1.343
 7013SOL     OW21937   1.927   0.086   6.496
 7013SOL    HW121938   1.912   0.106   6.399
 7013SOL    HW221939   1.838   0.070   6.540
 7014SOL     OW21940   5.322   3.587   0.739
 7014SOL    HW121941   5.300   3.556   0.832
 7014SOL    HW221942   5.270   3.533   0.673
 7015SOL     OW21943   5.785   4.375   2.291
 7015SOL    HW121944   5.869   4.392   2.342
 7015SOL    HW221945   5.706   4.388   2.351
 7016SOL     OW21946   4.058   5.103   1.289
 7016SOL    HW121947   3.991   5.172   1.262
 7016SOL    HW221948   4.029   5.014   1.254
 7017SOL     OW21949   2.466   5.367   2.732
 7017SOL    HW121950   2.554   5.367   2.685
 7017SOL    HW221951   2.400   5.314   2.679
 7018SOL     OW21952   5.104   4.178   4.255
 7018SOL    HW121953   5.126   4.086   4.223
 7018SOL    HW221954   5.025   4.173   4.317
 7019SOL     OW21955   4.090   5.299   2.368
 7019SOL    HW121956   4.148   5.262   2.295
 7019SOL    HW221957   4.021   5.359   2.328
 7020SOL     OW21958   0.898   3.876   6.561
 7020SOL    HW121959   0.801   3.890   6.540
 7020SOL    HW221960   0.911   3.787   6.603
 7021SOL     OW21961   2.062   3.313   4.160
 7021SOL    HW121962   1.979   3.284   4.208
 7021SOL    HW221963   2.138   3.254   4.187
 7022SOL     OW21964   4.645   0.427   0.103
 7022SOL    HW121965   4.693   0.513   0.083
 7022SOL    HW221966   4.697   0.350   0.064
 7023SOL     OW21967   0.644   2.521   1.446
 7023SOL    HW121968   0.687   2.563   1.367
 7023SOL    HW221969   0.688   2.433   1.466
 7024SOL     OW21970   3.607   3.682   3.913
 7024SOL    HW121971   3.700   3.682   3.875
 7024SOL    HW221972   3.546   3.731   3.852
 7025SOL     OW21973   3.327   0.181   0.434
 7025SOL    HW121974   3.244   0.213   0.387
 7025SOL    HW221975   3.387   0.259   0.452
 7026SOL     OW21976   3.894   2.112   2.200
 7026SOL    HW121977   3.902   2.013   2.186
 7026SOL    HW221978   3.829   2.150   2.134
 7027SOL     OW21979   2.567   6.409   3.897
 7027SOL    HW121980   2.564   6.473   3.974
 7027SOL    HW221981   2.476   6.403   3.855
 7028SOL     OW21982   2.977   0.211   4.290
 7028SOL    HW121983   3.023   0.277   4.349
 7028SOL    HW221984   2.946   0.133   4.345
 7029SOL     OW21985   3.964   4.089   5.672
 7029SOL    HW121986   3.960   3.993   5.646
 7029SOL    HW221987   3.884   4.111   5.728
 7030SOL     OW21988   0.582   1.865   4.721
 7030SOL    HW121989   0.504   1.869   4.783
 7030SOL    HW221990   0.659   1.913   4.762
 7031SOL     OW21991   3.516   6.252   0.233
 7031SOL    HW121992   3.435   6.194   0.221
 7031SOL    HW221993   3.521   6.284   0.327
 7032SOL     OW21994   4.305   1.069   3.164
 7032SOL    HW121995   4.257   1.010   3.230
 7032SOL    HW221996   4.329   1.015   3.083
 7033SOL     OW21997   1.700   2.597   4.099
 7033SOL    HW121998   1.746   2.591   4.188
 7033SOL    HW221999   1.742   2.670   4.045
 7034SOL     OW22000   6.582   2.970   2.920
 7034SOL    HW122001   6.551   2.999   3.011
 7034SOL    HW222002   6.650   2.898   2.930
 7035SOL     OW22003   2.202   0.152   1.160
 7035SOL    HW122004   2.126   0.184   1.218
 7035SOL    HW222005   2.271   0.109   1.218
 7036SOL     OW22006   6.821   2.448   2.467
 7036SOL    HW122007   6.911   2.435   2.425
 7036SOL    HW222008   6.781   2.359   2.488
 7037SOL     OW22009   0.586   1.231   5.868
 7037SOL    HW122010   0.680   1.251   5.838
 7037SOL    HW222011   0.587   1.207   5.965
 7038SOL     OW22012   2.243   4.338   5.310
 7038SOL    HW122013   2.222   4.420   5.363
 7038SOL    HW222014   2.171   4.270   5.322
 7039SOL     OW22015   0.381   6.064   3.832
 7039SOL    HW122016   0.299   6.006   3.827
 7039SOL    HW222017   0.419   6.076   3.740
 7040SOL     OW22018   5.310   1.966   4.950
 7040SOL    HW122019   5.244   2.003   5.015
 7040SOL    HW222020   5.305   2.018   4.864
 7041SOL     OW22021   0.491   1.885   3.796
 7041SOL    HW122022   0.458   1.843   3.712
 7041SOL    HW222023   0.482   1.820   3.872
 7042SOL     OW22024   4.524   5.771   4.931
 7042SOL    HW122025   4.432   5.763   4.893
 7042SOL    HW222026   4.588   5.795   4.858
 7043SOL     OW22027   2.957   4.880   3.270
 7043SOL    HW122028   3.023   4.907   3.200
 7043SOL    HW222029   2.888   4.821   3.230
 7044SOL     OW22030   4.814   0.104   4.584
 7044SOL    HW122031   4.890   0.166   4.606
 7044SOL    HW222032   4.751   0.150   4.521
 7045SOL     OW22033   5.712   5.635   1.936
 7045SOL    HW122034   5.659   5.560   1.897
 7045SOL    HW222035   5.809   5.621   1.919
 7046SOL     OW22036   2.806   2.038   4.197
 7046SOL    HW122037   2.743   1.972   4.240
 7046SOL    HW222038   2.779   2.052   4.102
 7047SOL     OW22039   0.131   1.155   1.540
 7047SOL    HW122040   0.132   1.145   1.640
 7047SOL    HW222041   0.066   1.090   1.501
 7048SOL     OW22042   5.985   6.176   5.121
 7048SOL    HW122043   5.997   6.159   5.023
 7048SOL    HW222044   5.915   6.115   5.157
 7049SOL     OW22045   3.616   1.219   2.248
 7049SOL    HW122046   3.650   1.192   2.157
 7049SOL    HW222047   3.517   1.207   2.251
 7050SOL     OW22048   4.131   4.188   0.778
 7050SOL    HW122049   4.081   4.244   0.844
 7050SOL    HW222050   4.223   4.170   0.814
 7051SOL     OW22051   6.418   6.340   0.954
 7051SOL    HW122052   6.462   6.383   0.874
 7051SOL    HW222053   6.440   6.392   1.036
 7052SOL     OW22054   5.616   0.386   3.625
 7052SOL    HW122055   5.566   0.465   3.662
 7052SOL    HW222056   5.705   0.416   3.591
 7053SOL     OW22057   2.173   3.965   3.771
 7053SOL    HW122058   2.084   3.999   3.742
 7053SOL    HW222059   2.194   4.000   3.862
 7054SOL     OW22060   6.985   6.857   1.450
 7054SOL    HW122061   6.919   6.829   1.519
 7054SOL    HW222062   0.040   6.902   1.495
 7055SOL     OW22063   3.047   0.510   0.527
 7055SOL    HW122064   2.954   0.548   0.522
 7055SOL    HW222065   3.052   0.427   0.471
 7056SOL     OW22066   6.856   5.938   0.957
 7056SOL    HW122067   6.810   5.893   0.879
 7056SOL    HW222068   6.848   6.037   0.947
 7057SOL     OW22069   3.077   5.950   4.479
 7057SOL    HW122070   3.170   5.929   4.450
 7057SOL    HW222071   3.047   6.035   4.436
 7058SOL     OW22072   5.380   1.693   5.921
 7058SOL    HW122073   5.351   1.765   5.858
 7058SOL    HW222074   5.479   1.682   5.916
 7059SOL     OW22075   1.502   0.957   4.965
 7059SOL    HW122076   1.410   0.927   4.938
 7059SOL    HW222077   1.562   0.956   4.885
 7060SOL     OW22078   3.815   6.361   1.581
 7060SOL    HW122079   3.873   6.442   1.593
 7060SOL    HW222080   3.734   6.386   1.529
 7061SOL     OW22081   0.657   2.364   2.788
 7061SOL    HW122082   0.688   2.456   2.812
 7061SOL    HW222083   0.561   2.366   2.759
 7062SOL     OW22084   4.244   2.297   4.410
 7062SOL    HW122085   4.303   2.265   4.336
 7062SOL    HW222086   4.293   2.290   4.497
 7063SOL     OW22087   0.361   6.461   1.984
 7063SOL    HW122088   0.278   6.516   1.982
 7063SOL    HW222089   0.352   6.384   1.920
 7064SOL     OW22090   4.521   2.061   6.459
 7064SOL    HW122091   4.538   1.995   6.386
 7064SOL    HW222092   4.599   2.061   6.522
 7065SOL     OW22093   3.406   4.389   5.369
 7065SOL    HW122094   3.400   4.307   5.313
 7065SOL    HW222095   3.315   4.416   5.399
 7066SOL     OW22096   4.475   1.015   6.279
 7066SOL    HW122097   4.461   0.955   6.358
 7066SOL    HW222098   4.398   1.079   6.273
 7067SOL     OW22099   1.396   3.565   6.615
 7067SOL    HW122100   1.485   3.539   6.576
 7067SOL    HW222101   1.354   3.635   6.557
 7068SOL     OW22102   6.269   4.011   4.106
 7068SOL    HW122103   6.241   4.106   4.124
 7068SOL    HW222104   6.355   3.992   4.153
 7069SOL     OW22105   5.913   1.930   5.564
 7069SOL    HW122106   6.003   1.950   5.524
 7069SOL    HW222107   5.854   1.889   5.495
 7070SOL     OW22108   1.286   6.557   4.725
 7070SOL    HW122109   1.198   6.569   4.772
 7070SOL    HW222110   1.290   6.620   4.647
 7071SOL     OW22111   4.971   6.406   6.819
 7071SOL    HW122112   4.873   6.417   6.837
 7071SOL    HW222113   5.021   6.483   6.859
 7072SOL     OW22114   1.910   4.785   7.008
 7072SOL    HW122115   1.812   4.780   0.000
 7072SOL    HW222116   1.932   4.748   6.918
 7073SOL     OW22117   3.708   6.966   3.156
 7073SOL    HW122118   3.707   6.888   3.218
 7073SOL    HW222119   3.774   0.010   3.189
 7074SOL     OW22120   6.584   3.442   3.676
 7074SOL    HW122121   6.595   3.433   3.577
 7074SOL    HW222122   6.611   3.534   3.705
 7075SOL     OW22123   2.935   4.846   4.919
 7075SOL    HW122124   3.035   4.838   4.911
 7075SOL    HW222125   2.900   4.770   4.973
 7076SOL     OW22126   5.921   3.137   1.211
 7076SOL    HW122127   5.917   3.232   1.242
 7076SOL    HW222128   5.849   3.121   1.143
 7077SOL     OW22129   2.294   4.751   2.462
 7077SOL    HW122130   2.333   4.667   2.498
 7077SOL    HW222131   2.341   4.830   2.502
 7078SOL     OW22132   5.344   6.281   0.637
 7078SOL    HW122133   5.252   6.277   0.675
 7078SOL    HW222134   5.372   6.191   0.604
 7079SOL     OW22135   0.986   6.706   4.426
 7079SOL    HW122136   0.988   6.676   4.330
 7079SOL    HW222137   0.960   6.628   4.484
 7080SOL     OW22138   3.933   2.205   3.899
 7080SOL    HW122139   3.975   2.215   3.989
 7080SOL    HW222140   3.981   2.262   3.833
 7081SOL     OW22141   1.740   6.064   6.975
 7081SOL    HW122142   1.737   6.162   6.953
 7081SOL    HW222143   1.648   6.030   6.991
 7082SOL     OW22144   6.932   3.854   1.535
 7082SOL    HW122145   6.967   3.762   1.517
 7082SOL    HW222146   7.001   3.907   1.584
 7083SOL     OW22147   6.956   1.839   2.627
 7083SOL    HW122148   6.892   1.914   2.612
 7083SOL    HW222149   6.947   1.772   2.553
 7084SOL     OW22150   0.347   5.966   5.454
 7084SOL    HW122151   0.421   5.899   5.443
 7084SOL    HW222152   0.382   6.058   5.437
 7085SOL     OW22153   6.526   2.325   2.764
 7085SOL    HW122154   6.541   2.423   2.777
 7085SOL    HW222155   6.428   2.308   2.755
 7086SOL     OW22156   5.936   0.488   6.901
 7086SOL    HW122157   5.910   0.399   6.937
 7086SOL    HW222158   6.007   0.528   6.958
 7087SOL     OW22159   5.216   3.610   2.275
 7087SOL    HW122160   5.152   3.628   2.349
 7087SOL    HW222161   5.175   3.637   2.188
 7088SOL     OW22162   5.499   2.182   5.358
 7088SOL    HW122163   5.503   2.086   5.386
 7088SOL    HW222164   5.408   2.202   5.322
 7089SOL     OW22165   2.755   4.804   2.397
 7089SOL    HW122166   2.753   4.794   2.298
 7089SOL    HW222167   2.834   4.858   2.423
 7090SOL     OW22168   2.390   1.447   1.088
 7090SOL    HW122169   2.384   1.415   0.994
 7090SOL    HW222170   2.439   1.380   1.143
 7091SOL     OW22171   0.846   0.874   1.545
 7091SOL    HW122172   0.912   0.886   1.471
 7091SOL    HW222173   0.841   0.958   1.599
 7092SOL     OW22174   3.747   2.843   6.233
 7092SOL    HW122175   3.675   2.906   6.203
 7092SOL    HW222176   3.714   2.749   6.226
 7093SOL     OW22177   3.283   3.489   1.209
 7093SOL    HW122178   3.243   3.399   1.194
 7093SOL    HW222179   3.344   3.512   1.133
 7094SOL     OW22180   1.471   6.636   5.481
 7094SOL    HW122181   1.484   6.606   5.576
 7094SOL    HW222182   1.488   6.560   5.419
 7095SOL     OW22183   3.629   4.991   5.965
 7095SOL    HW122184   3.659   4.968   5.872
 7095SOL    HW222185   3.550   5.051   5.960
 7096SOL     OW22186   6.676   0.626   1.856
 7096SOL    HW122187   6.700   0.529   1.855
 7096SOL    HW222188   6.758   0.681   1.872
 7097SOL     OW22189   4.950   1.021   2.113
 7097SOL    HW122190   5.026   1.033   2.177
 7097SOL    HW222191   4.889   0.950   2.146
 7098SOL     OW22192   1.742   6.123   5.558
 7098SOL    HW122193   1.715   6.093   5.467
 7098SOL    HW222194   1.668   6.177   5.599
 7099SOL     OW22195   3.736   2.075   4.101
 7099SOL    HW122196   3.785   2.145   4.049
 7099SOL    HW222197   3.732   2.101   4.197
 7100SOL     OW22198   0.291   3.828   0.504
 7100SOL    HW122199   0.256   3.765   0.573
 7100SOL    HW222200   0.389   3.843   0.519
 7101SOL     OW22201   2.343   7.015   5.494
 7101SOL    HW122202   2.315   6.982   5.404
 7101SOL    HW222203   2.268   0.043   5.535
 7102SOL     OW22204   5.294   0.813   1.308
 7102SOL    HW122205   5.353   0.811   1.389
 7102SOL    HW222206   5.200   0.793   1.335
 7103SOL     OW22207   5.263   5.477   1.970
 7103SOL    HW122208   5.185   5.418   1.949
 7103SOL    HW222209   5.346   5.422   1.978
 7104SOL     OW22210   5.374   3.474   2.463
 7104SOL    HW122211   5.473   3.473   2.452
 7104SOL    HW222212   5.333   3.521   2.384
 7105SOL     OW22213   3.651   4.146   4.554
 7105SOL    HW122214   3.640   4.093   4.639
 7105SOL    HW222215   3.639   4.243   4.574
 7106SOL     OW22216   2.952   2.644   1.173
 7106SOL    HW122217   2.907   2.687   1.096
 7106SOL    HW222218   3.019   2.577   1.140
 7107SOL     OW22219   3.874   0.287   0.155
 7107SOL    HW122220   3.812   0.240   0.091
 7107SOL    HW222221   3.933   0.349   0.103
 7108SOL     OW22222   2.751   6.689   2.239
 7108SOL    HW122223   2.693   6.696   2.320
 7108SOL    HW222224   2.847   6.690   2.266
 7109SOL     OW22225   1.403   0.903   6.970
 7109SOL    HW122226   1.472   0.938   6.907
 7109SOL    HW222227   1.314   0.899   6.924
 7110SOL     OW22228   3.302   6.434   4.197
 7110SOL    HW122229   3.392   6.474   4.182
 7110SOL    HW222230   3.256   6.424   4.109
 7111SOL     OW22231   1.310   1.463   3.838
 7111SOL    HW122232   1.405   1.430   3.837
 7111SOL    HW222233   1.286   1.497   3.747
 7112SOL     OW22234   2.213   4.370   5.012
 7112SOL    HW122235   2.205   4.382   5.111
 7112SOL    HW222236   2.231   4.273   4.992
 7113SOL     OW22237   3.287   5.335   5.159
 7113SOL    HW122238   3.276   5.239   5.133
 7113SOL    HW222239   3.370   5.372   5.117
 7114SOL     OW22240   4.338   5.317   1.861
 7114SOL    HW122241   4.255   5.298   1.808
 7114SOL    HW222242   4.373   5.231   1.900
 7115SOL     OW22243   5.470   4.604   6.563
 7115SOL    HW122244   5.430   4.525   6.517
 7115SOL    HW222245   5.422   4.687   6.532
 7116SOL     OW22246   5.580   4.378   3.214
 7116SOL    HW122247   5.554   4.288   3.250
 7116SOL    HW222248   5.663   4.370   3.160
 7117SOL     OW22249   6.162   0.076   3.763
 7117SOL    HW122250   6.261   0.085   3.765
 7117SOL    HW222251   6.120   0.162   3.794
 7118SOL     OW22252   3.980   4.480   5.297
 7118SOL    HW122253   3.887   4.448   5.315
 7118SOL    HW222254   4.041   4.402   5.291
 7119SOL     OW22255   5.117   0.753   4.774
 7119SOL    HW122256   5.145   0.687   4.843
 7119SOL    HW222257   5.185   0.827   4.769
 7120SOL     OW22258   5.864   1.593   1.260
 7120SOL    HW122259   5.845   1.559   1.352
 7120SOL    HW222260   5.888   1.691   1.264
 7121SOL     OW22261   0.698   6.313   3.114
 7121SOL    HW122262   0.708   6.244   3.186
 7121SOL    HW222263   0.767   6.385   3.126
 7122SOL     OW22264   2.237   7.020   5.901
 7122SOL    HW122265   2.172   6.984   5.968
 7122SOL    HW222266   2.290   0.070   5.942
 7123SOL     OW22267   6.209   4.756   4.364
 7123SOL    HW122268   6.112   4.765   4.338
 7123SOL    HW222269   6.247   4.847   4.381
 7124SOL     OW22270   1.154   2.155   1.692
 7124SOL    HW122271   1.237   2.203   1.664
 7124SOL    HW222272   1.169   2.113   1.781
 7125SOL     OW22273   1.277   0.486   1.895
 7125SOL    HW122274   1.230   0.419   1.839
 7125SOL    HW222275   1.272   0.576   1.852
 7126SOL     OW22276   4.041   6.313   0.758
 7126SOL    HW122277   4.037   6.219   0.790
 7126SOL    HW222278   4.049   6.315   0.659
 7127SOL     OW22279   2.964   6.222   5.861
 7127SOL    HW122280   3.038   6.165   5.897
 7127SOL    HW222281   2.987   6.251   5.768
 7128SOL     OW22282   4.086   4.161   0.054
 7128SOL    HW122283   4.026   4.199   7.007
 7128SOL    HW222284   4.142   4.088   0.016
 7129SOL     OW22285   0.472   1.379   0.819
 7129SOL    HW122286   0.403   1.429   0.872
 7129SOL    HW222287   0.517   1.313   0.878
 7130SOL     OW22288   4.101   0.127   4.620
 7130SOL    HW122289   4.080   0.218   4.584
 7130SOL    HW222290   4.147   0.073   4.550
 7131SOL     OW22291   3.437   0.740   2.371
 7131SOL    HW122292   3.351   0.789   2.387
 7131SOL    HW222293   3.427   0.682   2.291
 7132SOL     OW22294   4.889   4.080   6.934
 7132SOL    HW122295   4.832   4.063   6.853
 7132SOL    HW222296   4.852   4.028   7.011
 7133SOL     OW22297   4.213   5.283   3.794
 7133SOL    HW122298   4.151   5.277   3.872
 7133SOL    HW222299   4.187   5.359   3.735
 7134SOL     OW22300   5.235   6.095   1.770
 7134SOL    HW122301   5.187   6.008   1.778
 7134SOL    HW222302   5.334   6.080   1.776
 7135SOL     OW22303   2.107   2.961   1.983
 7135SOL    HW122304   2.149   2.992   1.898
 7135SOL    HW222305   2.034   3.024   2.010
 7136SOL     OW22306   2.235   1.714   1.247
 7136SOL    HW122307   2.245   1.758   1.336
 7136SOL    HW222308   2.318   1.726   1.194
 7137SOL     OW22309   2.969   1.332   0.746
 7137SOL    HW122310   2.956   1.373   0.836
 7137SOL    HW222311   2.917   1.383   0.678
 7138SOL     OW22312   2.622   1.047   1.602
 7138SOL    HW122313   2.529   1.083   1.603
 7138SOL    HW222314   2.655   1.043   1.508
 7139SOL     OW22315   4.961   5.359   1.701
 7139SOL    HW122316   4.983   5.325   1.792
 7139SOL    HW222317   5.045   5.372   1.648
 7140SOL     OW22318   6.087   4.292   0.856
 7140SOL    HW122319   6.141   4.335   0.784
 7140SOL    HW222320   5.991   4.317   0.844
 7141SOL     OW22321   4.194   6.522   1.160
 7141SOL    HW122322   4.095   6.525   1.153
 7141SOL    HW222323   4.228   6.436   1.121
 7142SOL     OW22324   3.272   0.436   4.282
 7142SOL    HW122325   3.244   0.446   4.186
 7142SOL    HW222326   3.192   0.448   4.341
 7143SOL     OW22327   1.992   4.295   6.722
 7143SOL    HW122328   1.917   4.229   6.715
 7143SOL    HW222329   1.956   4.386   6.741
 7144SOL     OW22330   0.423   1.154   4.303
 7144SOL    HW122331   0.504   1.103   4.274
 7144SOL    HW222332   0.409   1.233   4.243
 7145SOL     OW22333   4.285   1.500   6.993
 7145SOL    HW122334   4.236   1.427   6.944
 7145SOL    HW222335   4.272   1.487   0.068
 7146SOL     OW22336   2.143   1.294   4.885
 7146SOL    HW122337   2.112   1.212   4.933
 7146SOL    HW222338   2.158   1.368   4.950
 7147SOL     OW22339   5.895   5.627   3.236
 7147SOL    HW122340   5.839   5.708   3.217
 7147SOL    HW222341   5.930   5.590   3.150
 7148SOL     OW22342   6.233   6.212   0.731
 7148SOL    HW122343   6.144   6.215   0.777
 7148SOL    HW222344   6.299   6.266   0.782
 7149SOL     OW22345   6.628   4.901   3.339
 7149SOL    HW122346   6.684   4.835   3.288
 7149SOL    HW222347   6.623   4.874   3.435
 7150SOL     OW22348   4.673   3.237   0.120
 7150SOL    HW122349   4.737   3.314   0.121
 7150SOL    HW222350   4.600   3.253   0.185
 7151SOL     OW22351   3.341   6.724   1.019
 7151SOL    HW122352   3.435   6.705   0.991
 7151SOL    HW222353   3.316   6.817   0.991
 7152SOL     OW22354   6.339   1.032   6.591
 7152SOL    HW122355   6.277   0.954   6.598
 7152SOL    HW222356   6.403   1.031   6.668
 7153SOL     OW22357   4.165   5.316   1.617
 7153SOL    HW122358   4.153   5.220   1.591
 7153SOL    HW222359   4.079   5.350   1.656
 7154SOL     OW22360   3.913   1.146   2.968
 7154SOL    HW122361   3.960   1.231   2.995
 7154SOL    HW222362   3.972   1.068   2.988
 7155SOL     OW22363   2.993   2.135   1.237
 7155SOL    HW122364   3.059   2.075   1.282
 7155SOL    HW222365   2.923   2.080   1.192
 7156SOL     OW22366   5.189   3.718   2.019
 7156SOL    HW122367   5.269   3.729   1.960
 7156SOL    HW222368   5.110   3.690   1.965
 7157SOL     OW22369   5.892   3.959   0.634
 7157SOL    HW122370   5.864   4.054   0.615
 7157SOL    HW222371   5.988   3.958   0.662
 7158SOL     OW22372   6.045   0.556   3.741
 7158SOL    HW122373   6.122   0.585   3.798
 7158SOL    HW222374   6.016   0.464   3.768
 7159SOL     OW22375   0.275   4.667   4.165
 7159SOL    HW122376   0.224   4.696   4.245
 7159SOL    HW222377   0.371   4.655   4.189
 7160SOL     OW22378   5.835   6.616   2.740
 7160SOL    HW122379   5.915   6.674   2.760
 7160SOL    HW222380   5.865   6.532   2.695
 7161SOL     OW22381   3.566   3.598   3.254
 7161SOL    HW122382   3.505   3.540   3.200
 7161SOL    HW222383   3.631   3.542   3.304
 7162SOL     OW22384   0.079   4.576   0.892
 7162SOL    HW122385   0.055   4.483   0.919
 7162SOL    HW222386   7.023   4.636   0.902
 7163SOL     OW22387   1.584   1.679   2.930
 7163SOL    HW122388   1.566   1.619   2.851
 7163SOL    HW222389   1.681   1.677   2.951
 7164SOL     OW22390   1.863   1.044   5.786
 7164SOL    HW122391   1.797   1.109   5.749
 7164SOL    HW222392   1.941   1.094   5.824
 7165SOL     OW22393   5.385   6.802   0.876
 7165SOL    HW122394   5.438   6.828   0.795
 7165SOL    HW222395   5.313   6.738   0.849
 7166SOL     OW22396   5.209   0.765   5.992
 7166SOL    HW122397   5.197   0.769   5.893
 7166SOL    HW222398   5.121   0.774   6.037
 7167SOL     OW22399   5.958   2.287   5.834
 7167SOL    HW122400   5.859   2.273   5.826
 7167SOL    HW222401   5.989   2.250   5.922
 7168SOL     OW22402   3.113   0.748   3.192
 7168SOL    HW122403   3.065   0.828   3.155
 7168SOL    HW222404   3.196   0.732   3.139
 7169SOL     OW22405   1.683   3.990   5.379
 7169SOL    HW122406   1.695   3.914   5.443
 7169SOL    HW222407   1.748   3.982   5.303
 7170SOL     OW22408   4.491   0.093   2.173
 7170SOL    HW122409   4.401   0.051   2.158
 7170SOL    HW222410   4.556   0.056   2.107
 7171SOL     OW22411   6.149   5.085   0.976
 7171SOL    HW122412   6.205   5.069   0.894
 7171SOL    HW222413   6.056   5.108   0.949
 7172SOL     OW22414   1.702   1.299   4.934
 7172SOL    HW122415   1.737   1.363   5.003
 7172SOL    HW222416   1.607   1.277   4.955
 7173SOL     OW22417   5.739   5.843   6.606
 7173SOL    HW122418   5.816   5.809   6.551
 7173SOL    HW222419   5.737   5.794   6.694
 7174SOL     OW22420   6.425   4.595   1.299
 7174SOL    HW122421   6.485   4.559   1.370
 7174SOL    HW222422   6.404   4.691   1.318
 7175SOL     OW22423   6.486   3.980   5.078
 7175SOL    HW122424   6.448   4.019   5.162
 7175SOL    HW222425   6.456   3.885   5.070
 7176SOL     OW22426   0.788   1.099   3.850
 7176SOL    HW122427   0.801   1.054   3.762
 7176SOL    HW222428   0.858   1.068   3.915
 7177SOL     OW22429   2.025   5.582   5.750
 7177SOL    HW122430   2.085   5.518   5.799
 7177SOL    HW222431   2.059   5.594   5.656
 7178SOL     OW22432   0.393   0.531   5.404
 7178SOL    HW122433   0.469   0.467   5.394
 7178SOL    HW222434   0.395   0.572   5.495
 7179SOL     OW22435   2.197   4.550   5.463
 7179SOL    HW122436   2.235   4.620   5.403
 7179SOL    HW222437   2.123   4.590   5.518
 7180SOL     OW22438   2.486   4.420   0.589
 7180SOL    HW122439   2.499   4.322   0.601
 7180SOL    HW222440   2.462   4.462   0.676
 7181SOL     OW22441   2.238   0.931   6.367
 7181SOL    HW122442   2.329   0.914   6.329
 7181SOL    HW222443   2.221   0.869   6.444
 7182SOL     OW22444   0.810   3.541   4.098
 7182SOL    HW122445   0.790   3.548   4.196
 7182SOL    HW222446   0.802   3.632   4.056
 7183SOL     OW22447   1.723   6.217   1.623
 7183SOL    HW122448   1.730   6.316   1.630
 7183SOL    HW222449   1.756   6.187   1.533
 7184SOL     OW22450   5.521   1.449   3.130
 7184SOL    HW122451   5.620   1.449   3.116
 7184SOL    HW222452   5.484   1.539   3.107
 7185SOL     OW22453   5.279   1.193   5.197
 7185SOL    HW122454   5.224   1.141   5.263
 7185SOL    HW222455   5.339   1.130   5.147
 7186SOL     OW22456   0.194   0.484   0.737
 7186SOL    HW122457   0.169   0.478   0.640
 7186SOL    HW222458   0.212   0.391   0.772
 7187SOL     OW22459   2.889   3.641   4.902
 7187SOL    HW122460   2.830   3.716   4.873
 7187SOL    HW222461   2.899   3.642   5.001
 7188SOL     OW22462   4.773   3.960   6.683
 7188SOL    HW122463   4.678   3.978   6.658
 7188SOL    HW222464   4.824   3.928   6.604
 7189SOL     OW22465   6.085   3.306   5.353
 7189SOL    HW122466   6.183   3.303   5.334
 7189SOL    HW222467   6.067   3.371   5.426
 7190SOL     OW22468   5.987   5.336   1.055
 7190SOL    HW122469   5.954   5.290   0.973
 7190SOL    HW222470   5.920   5.405   1.083
 7191SOL     OW22471   1.042   4.192   3.188
 7191SOL    HW122472   0.960   4.138   3.207
 7191SOL    HW222473   1.033   4.282   3.230
 7192SOL     OW22474   2.104   3.528   6.021
 7192SOL    HW122475   2.110   3.579   5.935
 7192SOL    HW222476   2.025   3.467   6.018
 7193SOL     OW22477   2.536   2.057   2.913
 7193SOL    HW122478   2.552   2.064   3.011
 7193SOL    HW222479   2.624   2.045   2.866
 7194SOL     OW22480   2.159   1.891   0.096
 7194SOL    HW122481   2.179   1.845   0.009
 7194SOL    HW222482   2.116   1.826   0.158
 7195SOL     OW22483   6.657   3.893   6.635
 7195SOL    HW122484   6.739   3.839   6.653
 7195SOL    HW222485   6.598   3.892   6.715
 7196SOL     OW22486   3.304   3.723   2.695
 7196SOL    HW122487   3.329   3.726   2.598
 7196SOL    HW222488   3.255   3.807   2.719
 7197SOL     OW22489   0.937   3.938   5.520
 7197SOL    HW122490   0.911   3.984   5.605
 7197SOL    HW222491   1.001   3.864   5.540
 7198SOL     OW22492   0.446   0.874   0.430
 7198SOL    HW122493   0.393   0.948   0.387
 7198SOL    HW222494   0.543   0.900   0.432
 7199SOL     OW22495   0.811   0.135   2.434
 7199SOL    HW122496   0.830   0.226   2.471
 7199SOL    HW222497   0.850   0.128   2.343
 7200SOL     OW22498   1.859   2.823   0.758
 7200SOL    HW122499   1.833   2.748   0.818
 7200SOL    HW222500   1.870   2.788   0.665
 7201SOL     OW22501   0.274   5.401   4.328
 7201SOL    HW122502   0.251   5.485   4.378
 7201SOL    HW222503   0.190   5.355   4.301
 7202SOL     OW22504   4.753   0.142   5.962
 7202SOL    HW122505   4.803   0.150   5.875
 7202SOL    HW222506   4.655   0.151   5.944
 7203SOL     OW22507   0.490   0.717   1.758
 7203SOL    HW122508   0.554   0.704   1.835
 7203SOL    HW222509   0.496   0.811   1.726
 7204SOL     OW22510   6.459   1.889   0.594
 7204SOL    HW122511   6.420   1.831   0.666
 7204SOL    HW222512   6.524   1.954   0.633
 7205SOL     OW22513   1.217   3.041   4.639
 7205SOL    HW122514   1.254   3.100   4.567
 7205SOL    HW222515   1.186   2.955   4.598
 7206SOL     OW22516   1.348   1.591   1.226
 7206SOL    HW122517   1.264   1.543   1.199
 7206SOL    HW222518   1.418   1.525   1.252
 7207SOL     OW22519   2.494   1.306   4.008
 7207SOL    HW122520   2.549   1.365   3.949
 7207SOL    HW222521   2.551   1.270   4.082
 7208SOL     OW22522   4.352   0.377   3.898
 7208SOL    HW122523   4.443   0.338   3.906
 7208SOL    HW222524   4.286   0.316   3.943
 7209SOL     OW22525   2.227   2.313   2.491
 7209SOL    HW122526   2.152   2.248   2.502
 7209SOL    HW222527   2.229   2.346   2.397
 7210SOL     OW22528   3.424   1.822   3.069
 7210SOL    HW122529   3.394   1.837   2.975
 7210SOL    HW222530   3.523   1.833   3.075
 7211SOL     OW22531   3.026   6.288   5.620
 7211SOL    HW122532   2.956   6.344   5.576
 7211SOL    HW222533   3.109   6.287   5.564
 7212SOL     OW22534   5.979   6.571   6.754
 7212SOL    HW122535   5.964   6.474   6.775
 7212SOL    HW222536   5.937   6.592   6.666
 7213SOL     OW22537   3.512   6.443   6.628
 7213SOL    HW122538   3.569   6.378   6.579
 7213SOL    HW222539   3.570   6.515   6.667
 7214SOL     OW22540   0.208   0.401   6.013
 7214SOL    HW122541   0.228   0.432   6.106
 7214SOL    HW222542   0.266   0.323   5.991
 7215SOL     OW22543   6.291   2.565   3.924
 7215SOL    HW122544   6.266   2.480   3.878
 7215SOL    HW222545   6.212   2.601   3.974
 7216SOL     OW22546   3.204   6.267   1.991
 7216SOL    HW122547   3.222   6.362   1.968
 7216SOL    HW222548   3.108   6.256   2.015
 7217SOL     OW22549   1.915   4.090   3.726
 7217SOL    HW122550   1.871   4.054   3.809
 7217SOL    HW222551   1.954   4.180   3.745
 7218SOL     OW22552   6.913   3.636   3.634
 7218SOL    HW122553   7.006   3.655   3.665
 7218SOL    HW222554   6.915   3.603   3.539
 7219SOL     OW22555   3.109   6.936   1.323
 7219SOL    HW122556   3.091   6.982   1.236
 7219SOL    HW222557   3.207   6.937   1.342
 7220SOL     OW22558   6.770   4.333   4.237
 7220SOL    HW122559   6.830   4.353   4.315
 7220SOL    HW222560   6.751   4.235   4.235
 7221SOL     OW22561   3.433   6.019   4.813
 7221SOL    HW122562   3.335   6.003   4.819
 7221SOL    HW222563   3.452   6.116   4.831
 7222SOL     OW22564   5.443   6.981   3.168
 7222SOL    HW122565   5.515   6.957   3.233
 7222SOL    HW222566   5.367   6.918   3.177
 7223SOL     OW22567   2.854   1.428   0.503
 7223SOL    HW122568   2.832   1.338   0.466
 7223SOL    HW222569   2.783   1.493   0.475
 7224SOL     OW22570   4.724   2.756   4.534
 7224SOL    HW122571   4.633   2.751   4.494
 7224SOL    HW222572   4.730   2.694   4.612
 7225SOL     OW22573   1.474   6.141   0.926
 7225SOL    HW122574   1.475   6.220   0.865
 7225SOL    HW222575   1.408   6.073   0.892
 7226SOL     OW22576   6.224   0.896   1.010
 7226SOL    HW122577   6.129   0.912   0.986
 7226SOL    HW222578   6.229   0.854   1.101
 7227SOL     OW22579   3.017   1.209   1.927
 7227SOL    HW122580   2.957   1.235   1.851
 7227SOL    HW222581   3.029   1.288   1.988
 7228SOL     OW22582   0.766   1.659   3.174
 7228SOL    HW122583   0.850   1.606   3.174
 7228SOL    HW222584   0.701   1.619   3.109
 7229SOL     OW22585   0.046   6.684   4.496
 7229SOL    HW122586   0.103   6.753   4.450
 7229SOL    HW222587   6.990   6.663   4.439
 7230SOL     OW22588   2.598   5.185   3.459
 7230SOL    HW122589   2.600   5.193   3.558
 7230SOL    HW222590   2.653   5.258   3.419
 7231SOL     OW22591   3.825   0.256   1.102
 7231SOL    HW122592   3.850   0.170   1.057
 7231SOL    HW222593   3.800   0.324   1.033
 7232SOL     OW22594   4.915   6.740   2.550
 7232SOL    HW122595   4.998   6.746   2.606
 7232SOL    HW222596   4.842   6.792   2.593
 7233SOL     OW22597   0.669   1.269   5.261
 7233SOL    HW122598   0.751   1.261   5.203
 7233SOL    HW222599   0.605   1.333   5.219
 7234SOL     OW22600   5.252   3.662   2.844
 7234SOL    HW122601   5.184   3.595   2.813
 7234SOL    HW222602   5.301   3.698   2.765
 7235SOL     OW22603   6.528   5.041   1.565
 7235SOL    HW122604   6.539   5.097   1.482
 7235SOL    HW222605   6.615   5.031   1.611
 7236SOL     OW22606   1.842   2.331   2.688
 7236SOL    HW122607   1.875   2.419   2.721
 7236SOL    HW222608   1.785   2.288   2.759
 7237SOL     OW22609   4.546   6.799   6.741
 7237SOL    HW122610   4.632   6.810   6.790
 7237SOL    HW222611   4.515   6.887   6.706
 7238SOL     OW22612   4.702   2.679   6.556
 7238SOL    HW122613   4.699   2.741   6.635
 7238SOL    HW222614   4.724   2.731   6.474
 7239SOL     OW22615   0.729   3.120   2.719
 7239SOL    HW122616   0.788   3.169   2.783
 7239SOL    HW222617   0.642   3.097   2.764
 7240SOL     OW22618   6.638   1.588   0.382
 7240SOL    HW122619   6.631   1.682   0.348
 7240SOL    HW222620   6.593   1.526   0.318
 7241SOL     OW22621   2.020   6.740   0.287
 7241SOL    HW122622   2.012   6.809   0.359
 7241SOL    HW222623   2.111   6.698   0.290
 7242SOL     OW22624   0.015   5.690   5.235
 7242SOL    HW122625   6.949   5.705   5.193
 7242SOL    HW222626   0.069   5.775   5.229
 7243SOL     OW22627   6.849   4.177   6.641
 7243SOL    HW122628   6.930   4.175   6.699
 7243SOL    HW222629   6.863   4.118   6.561
 7244SOL     OW22630   0.252   0.188   0.755
 7244SOL    HW122631   0.217   0.188   0.849
 7244SOL    HW222632   0.188   0.139   0.695
 7245SOL     OW22633   1.773   2.176   5.527
 7245SOL    HW122634   1.873   2.187   5.533
 7245SOL    HW222635   1.730   2.225   5.602
 7246SOL     OW22636   1.919   0.904   4.112
 7246SOL    HW122637   1.840   0.954   4.078
 7246SOL    HW222638   1.897   0.806   4.115
 7247SOL     OW22639   3.176   2.106   5.759
 7247SOL    HW122640   3.077   2.112   5.774
 7247SOL    HW222641   3.218   2.195   5.773
 7248SOL     OW22642   3.383   0.301   3.684
 7248SOL    HW122643   3.384   0.401   3.685
 7248SOL    HW222644   3.293   0.269   3.712
 7249SOL     OW22645   4.765   4.974   1.833
 7249SOL    HW122646   4.863   4.991   1.823
 7249SOL    HW222647   4.736   4.906   1.765
 7250SOL     OW22648   5.076   5.146   5.522
 7250SOL    HW122649   5.121   5.166   5.434
 7250SOL    HW222650   5.069   5.231   5.575
 7251SOL     OW22651   0.801   0.552   5.499
 7251SOL    HW122652   0.783   0.647   5.473
 7251SOL    HW222653   0.735   0.492   5.454
 7252SOL     OW22654   2.769   3.729   1.688
 7252SOL    HW122655   2.672   3.723   1.709
 7252SOL    HW222656   2.809   3.638   1.686
 7253SOL     OW22657   1.578   5.944   6.358
 7253SOL    HW122658   1.592   6.009   6.283
 7253SOL    HW222659   1.492   5.965   6.405
 7254SOL     OW22660   5.789   5.199   4.235
 7254SOL    HW122661   5.851   5.258   4.287
 7254SOL    HW222662   5.699   5.242   4.228
 7255SOL     OW22663   4.638   3.748   6.803
 7255SOL    HW122664   4.665   3.719   6.895
 7255SOL    HW222665   4.685   3.833   6.779
 7256SOL     OW22666   4.079   6.390   5.700
 7256SOL    HW122667   4.061   6.481   5.738
 7256SOL    HW222668   4.125   6.334   5.769
 7257SOL     OW22669   0.605   2.074   4.258
 7257SOL    HW122670   0.512   2.072   4.294
 7257SOL    HW222671   0.653   1.991   4.284
 7258SOL     OW22672   5.947   1.785   2.868
 7258SOL    HW122673   5.902   1.696   2.866
 7258SOL    HW222674   5.927   1.834   2.783
 7259SOL     OW22675   0.910   3.132   2.467
 7259SOL    HW122676   0.842   3.121   2.540
 7259SOL    HW222677   0.876   3.090   2.383
 7260SOL     OW22678   5.207   1.970   1.429
 7260SOL    HW122679   5.304   1.971   1.405
 7260SOL    HW222680   5.195   2.005   1.522
 7261SOL     OW22681   0.623   4.695   1.202
 7261SOL    HW122682   0.560   4.771   1.218
 7261SOL    HW222683   0.571   4.616   1.169
 7262SOL     OW22684   5.568   1.476   6.811
 7262SOL    HW122685   5.650   1.443   6.764
 7262SOL    HW222686   5.497   1.495   6.743
 7263SOL     OW22687   0.312   6.310   6.998
 7263SOL    HW122688   0.219   6.283   0.002
 7263SOL    HW222689   0.323   6.408   7.010
 7264SOL     OW22690   5.376   1.010   1.092
 7264SOL    HW122691   5.429   0.951   1.031
 7264SOL    HW222692   5.293   0.962   1.121
 7265SOL     OW22693   5.860   4.998   5.196
 7265SOL    HW122694   5.789   5.065   5.172
 7265SOL    HW222695   5.949   5.044   5.199
 7266SOL     OW22696   6.454   1.252   3.554
 7266SOL    HW122697   6.525   1.265   3.485
 7266SOL    HW222698   6.393   1.178   3.524
 7267SOL     OW22699   6.578   6.713   4.390
 7267SOL    HW122700   6.544   6.770   4.315
 7267SOL    HW222701   6.636   6.768   4.451
 7268SOL     OW22702   6.997   6.052   4.303
 7268SOL    HW122703   0.009   6.145   4.311
 7268SOL    HW222704   6.899   6.052   4.324
 7269SOL     OW22705   1.677   6.000   5.865
 7269SOL    HW122706   1.711   6.024   5.956
 7269SOL    HW222707   1.726   5.921   5.830
 7270SOL     OW22708   0.347   2.634   4.610
 7270SOL    HW122709   0.372   2.699   4.539
 7270SOL    HW222710   0.268   2.668   4.661
 7271SOL     OW22711   0.927   4.674   4.809
 7271SOL    HW122712   0.998   4.701   4.744
 7271SOL    HW222713   0.871   4.601   4.769
 7272SOL     OW22714   6.293   5.652   1.996
 7272SOL    HW122715   6.265   5.748   1.986
 7272SOL    HW222716   6.212   5.596   2.011
 7273SOL     OW22717   5.391   3.910   0.411
 7273SOL    HW122718   5.306   3.858   0.408
 7273SOL    HW222719   5.418   3.925   0.506
 7274SOL     OW22720   0.355   4.813   6.913
 7274SOL    HW122721   0.272   4.811   6.859
 7274SOL    HW222722   0.434   4.799   6.853
 7275SOL     OW22723   0.340   6.059   2.477
 7275SOL    HW122724   0.362   6.057   2.380
 7275SOL    HW222725   0.264   6.121   2.494
 7276SOL     OW22726   5.430   0.724   3.356
 7276SOL    HW122727   5.418   0.628   3.332
 7276SOL    HW222728   5.517   0.736   3.404
 7277SOL     OW22729   5.084   0.463   4.366
 7277SOL    HW122730   5.151   0.407   4.415
 7277SOL    HW222731   5.083   0.437   4.269
 7278SOL     OW22732   3.625   3.312   1.472
 7278SOL    HW122733   3.573   3.227   1.482
 7278SOL    HW222734   3.613   3.347   1.379
 7279SOL     OW22735   4.513   5.484   6.459
 7279SOL    HW122736   4.501   5.434   6.545
 7279SOL    HW222737   4.587   5.442   6.406
 7280SOL     OW22738   0.419   0.868   3.559
 7280SOL    HW122739   0.452   0.859   3.465
 7280SOL    HW222740   0.358   0.947   3.566
 7281SOL     OW22741   2.827   1.629   0.135
 7281SOL    HW122742   2.735   1.594   0.147
 7281SOL    HW222743   2.824   1.719   0.090
 7282SOL     OW22744   5.738   5.166   2.460
 7282SOL    HW122745   5.738   5.201   2.553
 7282SOL    HW222746   5.783   5.077   2.458
 7283SOL     OW22747   3.495   1.474   3.315
 7283SOL    HW122748   3.451   1.482   3.226
 7283SOL    HW222749   3.453   1.538   3.379
 7284SOL     OW22750   0.743   3.465   6.566
 7284SOL    HW122751   0.783   3.504   6.483
 7284SOL    HW222752   0.798   3.388   6.597
 7285SOL     OW22753   4.834   3.937   2.314
 7285SOL    HW122754   4.850   3.864   2.248
 7285SOL    HW222755   4.830   4.025   2.267
 7286SOL     OW22756   2.501   1.053   0.490
 7286SOL    HW122757   2.566   1.012   0.425
 7286SOL    HW222758   2.545   1.063   0.579
 7287SOL     OW22759   6.689   2.114   6.435
 7287SOL    HW122760   6.601   2.160   6.451
 7287SOL    HW222761   6.715   2.124   6.339
 7288SOL     OW22762   2.612   0.810   0.394
 7288SOL    HW122763   2.517   0.824   0.366
 7288SOL    HW222764   2.616   0.800   0.494
 7289SOL     OW22765   5.457   1.665   4.376
 7289SOL    HW122766   5.523   1.700   4.309
 7289SOL    HW222767   5.428   1.573   4.348
 7290SOL     OW22768   3.401   0.338   5.416
 7290SOL    HW122769   3.439   0.248   5.437
 7290SOL    HW222770   3.476   0.404   5.405
 7291SOL     OW22771   1.338   6.764   0.696
 7291SOL    HW122772   1.356   6.839   0.633
 7291SOL    HW222773   1.302   6.800   0.782
 7292SOL     OW22774   2.735   1.365   3.620
 7292SOL    HW122775   2.822   1.318   3.602
 7292SOL    HW222776   2.661   1.316   3.575
 7293SOL     OW22777   1.595   1.917   5.519
 7293SOL    HW122778   1.647   1.835   5.541
 7293SOL    HW222779   1.649   1.998   5.541
 7294SOL     OW22780   2.193   5.146   6.984
 7294SOL    HW122781   2.236   5.235   6.970
 7294SOL    HW222782   2.155   5.141   0.052
 7295SOL     OW22783   0.854   2.091   0.729
 7295SOL    HW122784   0.860   2.072   0.827
 7295SOL    HW222785   0.758   2.097   0.702
 7296SOL     OW22786   2.681   4.957   1.125
 7296SOL    HW122787   2.724   5.012   1.198
 7296SOL    HW222788   2.601   5.005   1.089
 7297SOL     OW22789   3.696   6.197   0.767
 7297SOL    HW122790   3.675   6.280   0.818
 7297SOL    HW222791   3.732   6.127   0.829
 7298SOL     OW22792   4.764   4.130   5.498
 7298SOL    HW122793   4.746   4.206   5.435
 7298SOL    HW222794   4.742   4.043   5.454
 7299SOL     OW22795   0.601   1.595   0.255
 7299SOL    HW122796   0.600   1.591   0.155
 7299SOL    HW222797   0.693   1.573   0.288
 7300SOL     OW22798   6.250   6.098   2.174
 7300SOL    HW122799   6.164   6.131   2.212
 7300SOL    HW222800   6.315   6.080   2.248
 7301SOL     OW22801   6.534   1.339   4.850
 7301SOL    HW122802   6.476   1.418   4.869
 7301SOL    HW222803   6.581   1.351   4.762
 7302SOL     OW22804   0.966   2.522   6.051
 7302SOL    HW122805   0.928   2.540   6.142
 7302SOL    HW222806   1.035   2.450   6.058
 7303SOL     OW22807   4.833   0.229   6.735
 7303SOL    HW122808   4.888   0.177   6.671
 7303SOL    HW222809   4.876   0.317   6.755
 7304SOL     OW22810   4.222   5.188   6.790
 7304SOL    HW122811   4.291   5.161   6.857
 7304SOL    HW222812   4.196   5.283   6.805
 7305SOL     OW22813   4.727   1.585   6.816
 7305SOL    HW122814   4.780   1.601   6.899
 7305SOL    HW222815   4.647   1.644   6.815
 7306SOL     OW22816   5.232   2.690   1.584
 7306SOL    HW122817   5.153   2.712   1.641
 7306SOL    HW222818   5.212   2.712   1.489
 7307SOL     OW22819   2.153   0.019   2.695
 7307SOL    HW122820   2.185   6.964   2.748
 7307SOL    HW222821   2.231   0.062   2.650
 7308SOL     OW22822   6.540   4.154   5.627
 7308SOL    HW122823   6.579   4.236   5.583
 7308SOL    HW222824   6.542   4.167   5.726
 7309SOL     OW22825   4.738   5.690   0.809
 7309SOL    HW122826   4.727   5.646   0.898
 7309SOL    HW222827   4.662   5.663   0.749
 7310SOL     OW22828   2.317   3.687   1.429
 7310SOL    HW122829   2.311   3.786   1.442
 7310SOL    HW222830   2.303   3.641   1.516
 7311SOL     OW22831   3.701   1.966   1.941
 7311SOL    HW122832   3.684   2.064   1.932
 7311SOL    HW222833   3.772   1.951   2.010
 7312SOL     OW22834   0.215   3.414   6.017
 7312SOL    HW122835   0.160   3.487   5.977
 7312SOL    HW222836   0.170   3.326   6.002
 7313SOL     OW22837   3.142   1.969   6.396
 7313SOL    HW122838   3.172   1.973   6.491
 7313SOL    HW222839   3.050   1.930   6.391
 7314SOL     OW22840   6.809   4.373   5.128
 7314SOL    HW122841   6.798   4.341   5.222
 7314SOL    HW222842   6.719   4.375   5.083
 7315SOL     OW22843   6.705   0.511   3.055
 7315SOL    HW122844   6.618   0.519   3.007
 7315SOL    HW222845   6.711   0.582   3.125
 7316SOL     OW22846   3.328   4.276   6.375
 7316SOL    HW122847   3.402   4.209   6.383
 7316SOL    HW222848   3.364   4.368   6.392
 7317SOL     OW22849   4.311   1.297   2.704
 7317SOL    HW122850   4.314   1.354   2.622
 7317SOL    HW222851   4.405   1.274   2.732
 7318SOL     OW22852   1.383   0.799   1.101
 7318SOL    HW122853   1.291   0.811   1.140
 7318SOL    HW222854   1.376   0.789   1.002
 7319SOL     OW22855   6.586   4.030   6.385
 7319SOL    HW122856   6.672   4.055   6.339
 7319SOL    HW222857   6.607   3.985   6.472
 7320SOL     OW22858   6.769   3.844   1.766
 7320SOL    HW122859   6.767   3.745   1.781
 7320SOL    HW222860   6.791   3.862   1.670
 7321SOL     OW22861   2.504   6.647   5.357
 7321SOL    HW122862   2.574   6.690   5.414
 7321SOL    HW222863   2.546   6.616   5.271
 7322SOL     OW22864   6.082   2.288   3.575
 7322SOL    HW122865   6.077   2.379   3.535
 7322SOL    HW222866   6.159   2.238   3.535
 7323SOL     OW22867   2.167   1.904   1.823
 7323SOL    HW122868   2.196   1.879   1.915
 7323SOL    HW222869   2.074   1.940   1.826
 7324SOL     OW22870   4.896   5.781   2.002
 7324SOL    HW122871   4.934   5.850   2.065
 7324SOL    HW222872   4.807   5.812   1.968
 7325SOL     OW22873   3.446   6.594   0.697
 7325SOL    HW122874   3.349   6.585   0.718
 7325SOL    HW222875   3.471   6.533   0.622
 7326SOL     OW22876   3.226   6.544   5.754
 7326SOL    HW122877   3.300   6.599   5.795
 7326SOL    HW222878   3.265   6.479   5.689
 7327SOL     OW22879   6.345   2.646   6.287
 7327SOL    HW122880   6.351   2.675   6.382
 7327SOL    HW222881   6.248   2.638   6.261
 7328SOL     OW22882   3.478   0.450   6.100
 7328SOL    HW122883   3.485   0.398   6.015
 7328SOL    HW222884   3.470   0.547   6.079
 7329SOL     OW22885   5.315   4.667   1.401
 7329SOL    HW122886   5.309   4.659   1.500
 7329SOL    HW222887   5.407   4.640   1.371
 7330SOL     OW22888   2.294   2.120   0.185
 7330SOL    HW122889   2.249   2.031   0.178
 7330SOL    HW222890   2.353   2.133   0.106
 7331SOL     OW22891   5.887   6.914   2.144
 7331SOL    HW122892   5.921   6.934   2.237
 7331SOL    HW222893   5.849   6.998   2.104
 7332SOL     OW22894   2.167   5.809   0.496
 7332SOL    HW122895   2.171   5.714   0.526
 7332SOL    HW222896   2.076   5.829   0.461
 7333SOL     OW22897   0.207   3.253   2.830
 7333SOL    HW122898   0.288   3.292   2.873
 7333SOL    HW222899   0.186   3.164   2.871
 7334SOL     OW22900   3.308   6.070   6.941
 7334SOL    HW122901   3.317   6.048   6.844
 7334SOL    HW222902   3.356   6.000   6.995
 7335SOL     OW22903   1.609   2.474   2.567
 7335SOL    HW122904   1.665   2.527   2.503
 7335SOL    HW222905   1.607   2.519   2.656
 7336SOL     OW22906   1.661   6.480   3.412
 7336SOL    HW122907   1.704   6.520   3.331
 7336SOL    HW222908   1.572   6.522   3.427
 7337SOL     OW22909   0.178   3.548   1.759
 7337SOL    HW122910   0.136   3.457   1.766
 7337SOL    HW222911   0.127   3.613   1.814
 7338SOL     OW22912   6.413   2.637   1.328
 7338SOL    HW122913   6.387   2.556   1.276
 7338SOL    HW222914   6.509   2.629   1.356
 7339SOL     OW22915   5.151   5.990   3.742
 7339SOL    HW122916   5.114   5.916   3.686
 7339SOL    HW222917   5.077   6.053   3.766
 7340SOL     OW22918   2.049   0.886   1.173
 7340SOL    HW122919   1.995   0.969   1.185
 7340SOL    HW222920   2.108   0.873   1.253
 7341SOL     OW22921   6.482   3.080   0.011
 7341SOL    HW122922   6.443   3.150   0.071
 7341SOL    HW222923   6.572   3.053   0.046
 7342SOL     OW22924   6.891   1.228   1.820
 7342SOL    HW122925   6.972   1.182   1.855
 7342SOL    HW222926   6.918   1.310   1.770
 7343SOL     OW22927   5.271   3.455   6.963
 7343SOL    HW122928   5.238   3.367   6.997
 7343SOL    HW222929   5.371   3.457   6.971
 7344SOL     OW22930   0.581   0.756   6.634
 7344SOL    HW122931   0.627   0.765   6.546
 7344SOL    HW222932   0.493   0.805   6.631
 7345SOL     OW22933   4.637   3.444   5.602
 7345SOL    HW122934   4.716   3.504   5.614
 7345SOL    HW222935   4.607   3.448   5.506
 7346SOL     OW22936   3.885   6.006   2.612
 7346SOL    HW122937   3.972   6.040   2.647
 7346SOL    HW222938   3.870   6.040   2.519
 7347SOL     OW22939   0.868   1.964   1.198
 7347SOL    HW122940   0.926   1.887   1.171
 7347SOL    HW222941   0.875   2.037   1.130
 7348SOL     OW22942   1.204   4.041   3.824
 7348SOL    HW122943   1.127   4.021   3.884
 7348SOL    HW222944   1.268   4.103   3.870
 7349SOL     OW22945   4.433   0.351   2.058
 7349SOL    HW122946   4.447   0.282   2.129
 7349SOL    HW222947   4.335   0.362   2.042
 7350SOL     OW22948   2.839   1.973   5.427
 7350SOL    HW122949   2.741   1.950   5.427
 7350SOL    HW222950   2.852   2.061   5.473
 7351SOL     OW22951   5.683   5.655   3.659
 7351SOL    HW122952   5.653   5.583   3.597
 7351SOL    HW222953   5.643   5.641   3.749
 7352SOL     OW22954   0.962   1.629   2.453
 7352SOL    HW122955   0.941   1.725   2.471
 7352SOL    HW222956   0.878   1.579   2.432
 7353SOL     OW22957   6.907   0.288   6.574
 7353SOL    HW122958   6.961   0.357   6.525
 7353SOL    HW222959   6.950   0.270   6.663
 7354SOL     OW22960   1.281   1.600   5.416
 7354SOL    HW122961   1.308   1.684   5.463
 7354SOL    HW222962   1.322   1.522   5.463
 7355SOL     OW22963   1.130   1.350   0.144
 7355SOL    HW122964   1.099   1.441   0.118
 7355SOL    HW222965   1.229   1.351   0.159
 7356SOL     OW22966   3.491   3.676   6.449
 7356SOL    HW122967   3.468   3.588   6.492
 7356SOL    HW222968   3.536   3.735   6.516
 7357SOL     OW22969   2.878   5.845   2.110
 7357SOL    HW122970   2.785   5.838   2.146
 7357SOL    HW222971   2.884   5.793   2.024
 7358SOL     OW22972   6.221   3.594   2.340
 7358SOL    HW122973   6.200   3.680   2.294
 7358SOL    HW222974   6.139   3.559   2.385
 7359SOL     OW22975   4.250   2.304   5.485
 7359SOL    HW122976   4.297   2.224   5.522
 7359SOL    HW222977   4.154   2.303   5.515
 7360SOL     OW22978   2.410   3.121   5.462
 7360SOL    HW122979   2.455   3.208   5.444
 7360SOL    HW222980   2.436   3.054   5.392
 7361SOL     OW22981   5.587   0.496   2.436
 7361SOL    HW122982   5.526   0.431   2.391
 7361SOL    HW222983   5.682   0.465   2.427
 7362SOL     OW22984   2.037   6.024   6.262
 7362SOL    HW122985   2.113   5.958   6.259
 7362SOL    HW222986   2.073   6.116   6.249
 7363SOL     OW22987   4.670   1.413   1.327
 7363SOL    HW122988   4.596   1.363   1.282
 7363SOL    HW222989   4.753   1.357   1.326
 7364SOL     OW22990   3.914   0.638   2.150
 7364SOL    HW122991   3.965   0.559   2.115
 7364SOL    HW222992   3.956   0.671   2.234
 7365SOL     OW22993   0.697   6.005   2.238
 7365SOL    HW122994   0.716   5.964   2.149
 7365SOL    HW222995   0.601   6.032   2.243
 7366SOL     OW22996   2.310   6.529   5.517
 7366SOL    HW122997   2.377   6.566   5.453
 7366SOL    HW222998   2.264   6.450   5.476
 7367SOL     OW22999   4.083   2.365   0.305
 7367SOL    HW123000   4.178   2.393   0.322
 7367SOL    HW223001   4.022   2.437   0.337
 7368SOL     OW23002   3.563   2.890   2.223
 7368SOL    HW123003   3.642   2.881   2.162
 7368SOL    HW223004   3.592   2.877   2.318
 7369SOL     OW23005   3.291   2.427   0.993
 7369SOL    HW123006   3.347   2.456   1.071
 7369SOL    HW223007   3.196   2.414   1.023
 7370SOL     OW23008   2.822   1.647   6.162
 7370SOL    HW123009   2.766   1.588   6.221
 7370SOL    HW223010   2.823   1.740   6.199
 7371SOL     OW23011   3.247   6.186   3.922
 7371SOL    HW123012   3.248   6.099   3.971
 7371SOL    HW223013   3.338   6.227   3.924
 7372SOL     OW23014   4.627   6.912   4.659
 7372SOL    HW123015   4.542   6.963   4.673
 7372SOL    HW223016   4.704   6.975   4.653
 7373SOL     OW23017   5.989   2.052   5.305
 7373SOL    HW123018   5.893   2.030   5.286
 7373SOL    HW223019   6.028   2.101   5.226
 7374SOL     OW23020   2.315   2.150   4.627
 7374SOL    HW123021   2.250   2.224   4.607
 7374SOL    HW223022   2.276   2.089   4.695
 7375SOL     OW23023   2.415   2.495   2.229
 7375SOL    HW123024   2.433   2.511   2.132
 7375SOL    HW223025   2.342   2.556   2.260
 7376SOL     OW23026   1.347   2.595   1.540
 7376SOL    HW123027   1.372   2.626   1.632
 7376SOL    HW223028   1.251   2.566   1.539
 7377SOL     OW23029   4.704   4.865   0.266
 7377SOL    HW123030   4.720   4.801   0.191
 7377SOL    HW223031   4.789   4.913   0.287
 7378SOL     OW23032   1.861   0.354   4.597
 7378SOL    HW123033   1.897   0.286   4.661
 7378SOL    HW223034   1.797   0.414   4.645
 7379SOL     OW23035   2.915   0.917   2.239
 7379SOL    HW123036   2.961   0.913   2.151
 7379SOL    HW223037   2.816   0.909   2.226
 7380SOL     OW23038   6.911   4.263   3.855
 7380SOL    HW123039   6.897   4.243   3.758
 7380SOL    HW223040   7.001   4.229   3.884
 7381SOL     OW23041   3.886   3.080   0.845
 7381SOL    HW123042   3.887   3.149   0.917
 7381SOL    HW223043   3.792   3.068   0.812
 7382SOL     OW23044   6.968   1.449   5.634
 7382SOL    HW123045   0.034   1.478   5.600
 7382SOL    HW223046   6.911   1.420   5.558
 7383SOL     OW23047   2.449   5.546   1.329
 7383SOL    HW123048   2.491   5.543   1.238
 7383SOL    HW223049   2.401   5.633   1.340
 7384SOL     OW23050   6.412   0.041   1.961
 7384SOL    HW123051   6.364   7.010   2.029
 7384SOL    HW223052   6.511   0.032   1.976
 7385SOL     OW23053   2.450   5.651   2.416
 7385SOL    HW123054   2.424   5.621   2.508
 7385SOL    HW223055   2.397   5.598   2.349
 7386SOL     OW23056   6.900   2.923   6.686
 7386SOL    HW123057   6.807   2.888   6.678
 7386SOL    HW223058   6.934   2.949   6.595
 7387SOL     OW23059   6.752   5.170   4.641
 7387SOL    HW123060   6.746   5.269   4.630
 7387SOL    HW223061   6.683   5.126   4.583
 7388SOL     OW23062   1.119   5.039   2.209
 7388SOL    HW123063   1.160   5.021   2.298
 7388SOL    HW223064   1.183   5.093   2.154
 7389SOL     OW23065   6.747   3.338   0.021
 7389SOL    HW123066   6.796   3.334   6.957
 7389SOL    HW223067   6.712   3.247   0.045
 7390SOL     OW23068   2.722   2.050   2.468
 7390SOL    HW123069   2.722   2.037   2.567
 7390SOL    HW223070   2.790   2.119   2.444
 7391SOL     OW23071   3.534   2.841   2.956
 7391SOL    HW123072   3.600   2.811   2.887
 7391SOL    HW223073   3.453   2.878   2.910
 7392SOL     OW23074   3.496   5.320   6.773
 7392SOL    HW123075   3.464   5.254   6.841
 7392SOL    HW223076   3.425   5.388   6.756
 7393SOL     OW23077   6.390   4.582   3.302
 7393SOL    HW123078   6.403   4.627   3.391
 7393SOL    HW223079   6.370   4.651   3.233
 7394SOL     OW23080   1.836   2.941   5.987
 7394SOL    HW123081   1.761   2.877   6.005
 7394SOL    HW223082   1.877   2.919   5.898
 7395SOL     OW23083   2.041   3.147   0.948
 7395SOL    HW123084   2.072   3.069   0.894
 7395SOL    HW223085   1.969   3.118   1.011
 7396SOL     OW23086   2.020   6.407   0.813
 7396SOL    HW123087   2.039   6.333   0.879
 7396SOL    HW223088   2.097   6.471   0.813
 7397SOL     OW23089   5.643   4.391   4.139
 7397SOL    HW123090   5.583   4.368   4.216
 7397SOL    HW223091   5.596   4.369   4.053
 7398SOL     OW23092   0.872   5.916   2.977
 7398SOL    HW123093   0.795   5.872   3.024
 7398SOL    HW223094   0.840   5.957   2.892
 7399SOL     OW23095   6.891   3.018   4.820
 7399SOL    HW123096   6.929   3.042   4.909
 7399SOL    HW223097   6.802   3.062   4.810
 7400SOL     OW23098   4.415   2.592   5.834
 7400SOL    HW123099   4.398   2.515   5.896
 7400SOL    HW223100   4.437   2.556   5.743
 7401SOL     OW23101   1.549   2.809   3.076
 7401SOL    HW123102   1.477   2.856   3.025
 7401SOL    HW223103   1.507   2.740   3.136
 7402SOL     OW23104   3.156   4.450   6.197
 7402SOL    HW123105   3.124   4.486   6.110
 7402SOL    HW223106   3.148   4.350   6.197
 7403SOL     OW23107   1.425   2.905   2.653
 7403SOL    HW123108   1.506   2.849   2.636
 7403SOL    HW223109   1.411   2.914   2.752
 7404SOL     OW23110   2.709   4.265   1.689
 7404SOL    HW123111   2.739   4.326   1.763
 7404SOL    HW223112   2.752   4.293   1.603
 7405SOL     OW23113   3.066   5.172   4.383
 7405SOL    HW123114   2.975   5.169   4.342
 7405SOL    HW223115   3.107   5.081   4.380
 7406SOL     OW23116   1.069   1.283   4.699
 7406SOL    HW123117   1.060   1.239   4.789
 7406SOL    HW223118   1.156   1.330   4.694
 7407SOL     OW23119   1.179   5.879   5.332
 7407SOL    HW123120   1.140   5.815   5.266
 7407SOL    HW223121   1.111   5.901   5.402
 7408SOL     OW23122   3.868   4.179   5.427
 7408SOL    HW123123   3.917   4.183   5.514
 7408SOL    HW223124   3.888   4.093   5.381
 7409SOL     OW23125   5.086   4.365   0.745
 7409SOL    HW123126   5.182   4.380   0.724
 7409SOL    HW223127   5.077   4.287   0.808
 7410SOL     OW23128   0.730   0.917   0.885
 7410SOL    HW123129   0.660   0.979   0.848
 7410SOL    HW223130   0.685   0.836   0.922
 7411SOL     OW23131   1.622   0.237   6.790
 7411SOL    HW123132   1.703   0.252   6.846
 7411SOL    HW223133   1.546   0.292   6.824
 7412SOL     OW23134   3.921   6.600   1.143
 7412SOL    HW123135   3.925   6.582   1.045
 7412SOL    HW223136   3.844   6.661   1.162
 7413SOL     OW23137   4.707   4.735   3.996
 7413SOL    HW123138   4.699   4.715   4.094
 7413SOL    HW223139   4.686   4.653   3.943
 7414SOL     OW23140   2.133   1.504   3.363
 7414SOL    HW123141   2.218   1.473   3.406
 7414SOL    HW223142   2.120   1.601   3.382
 7415SOL     OW23143   2.411   4.968   5.178
 7415SOL    HW123144   2.476   5.036   5.211
 7415SOL    HW223145   2.323   4.980   5.225
 7416SOL     OW23146   1.988   0.932   2.697
 7416SOL    HW123147   2.003   0.937   2.796
 7416SOL    HW223148   2.072   0.906   2.651
 7417SOL     OW23149   1.786   1.837   2.095
 7417SOL    HW123150   1.864   1.804   2.148
 7417SOL    HW223151   1.818   1.901   2.024
 7418SOL     OW23152   1.832   5.036   6.694
 7418SOL    HW123153   1.816   5.013   6.598
 7418SOL    HW223154   1.920   5.000   6.724
 7419SOL     OW23155   6.528   4.174   3.730
 7419SOL    HW123156   6.569   4.114   3.799
 7419SOL    HW223157   6.430   4.184   3.749
 7420SOL     OW23158   0.145   6.401   1.495
 7420SOL    HW123159   0.074   6.437   1.557
 7420SOL    HW223160   0.200   6.477   1.460
 7421SOL     OW23161   3.906   3.671   1.453
 7421SOL    HW123162   3.870   3.680   1.546
 7421SOL    HW223163   3.912   3.575   1.429
 7422SOL     OW23164   6.730   3.836   2.372
 7422SOL    HW123165   6.705   3.739   2.372
 7422SOL    HW223166   6.754   3.864   2.279
 7423SOL     OW23167   6.068   2.984   5.569
 7423SOL    HW123168   6.047   3.070   5.615
 7423SOL    HW223169   6.022   2.909   5.616
 7424SOL     OW23170   0.161   1.507   5.215
 7424SOL    HW123171   0.164   1.414   5.252
 7424SOL    HW223172   0.244   1.524   5.160
 7425SOL     OW23173   5.364   0.054   0.244
 7425SOL    HW123174   5.456   0.059   0.205
 7425SOL    HW223175   5.346   0.135   0.300
 7426SOL     OW23176   3.374   2.030   5.480
 7426SOL    HW123177   3.278   2.000   5.476
 7426SOL    HW223178   3.382   2.122   5.441
 7427SOL     OW23179   4.367   1.071   3.808
 7427SOL    HW123180   4.321   0.991   3.769
 7427SOL    HW223181   4.342   1.079   3.905
 7428SOL     OW23182   3.931   0.333   5.271
 7428SOL    HW123183   3.946   0.262   5.201
 7428SOL    HW223184   3.984   0.414   5.247
 7429SOL     OW23185   0.956   6.150   3.342
 7429SOL    HW123186   1.029   6.211   3.312
 7429SOL    HW223187   0.994   6.059   3.358
 7430SOL     OW23188   6.665   3.734   1.273
 7430SOL    HW123189   6.685   3.691   1.185
 7430SOL    HW223190   6.739   3.797   1.298
 7431SOL     OW23191   1.287   2.146   3.716
 7431SOL    HW123192   1.269   2.049   3.731
 7431SOL    HW223193   1.300   2.192   3.804
 7432SOL     OW23194   2.179   0.901   3.140
 7432SOL    HW123195   2.194   0.914   3.238
 7432SOL    HW223196   2.266   0.888   3.094
 7433SOL     OW23197   3.907   6.338   6.788
 7433SOL    HW123198   3.973   6.365   6.858
 7433SOL    HW223199   3.896   6.238   6.790
 7434SOL     OW23200   5.235   5.848   5.489
 7434SOL    HW123201   5.182   5.928   5.516
 7434SOL    HW223202   5.333   5.870   5.490
 7435SOL     OW23203   4.491   6.151   1.574
 7435SOL    HW123204   4.471   6.238   1.528
 7435SOL    HW223205   4.574   6.161   1.629
 7436SOL     OW23206   4.621   4.652   6.307
 7436SOL    HW123207   4.543   4.631   6.365
 7436SOL    HW223208   4.606   4.740   6.261
 7437SOL     OW23209   3.138   5.485   1.019
 7437SOL    HW123210   3.085   5.556   1.065
 7437SOL    HW223211   3.231   5.518   1.003
 7438SOL     OW23212   1.826   6.961   0.149
 7438SOL    HW123213   1.848   6.888   0.084
 7438SOL    HW223214   1.905   6.977   0.209
 7439SOL     OW23215   1.546   6.179   5.143
 7439SOL    HW123216   1.594   6.265   5.126
 7439SOL    HW223217   1.609   6.102   5.129
 7440SOL     OW23218   6.069   3.108   4.125
 7440SOL    HW123219   6.035   3.061   4.206
 7440SOL    HW223220   6.163   3.078   4.106
 7441SOL     OW23221   5.964   7.003   3.599
 7441SOL    HW123222   5.973   6.909   3.631
 7441SOL    HW223223   6.010   0.042   3.662
 7442SOL     OW23224   5.537   1.195   6.897
 7442SOL    HW123225   5.581   1.197   6.986
 7442SOL    HW223226   5.583   1.260   6.836
 7443SOL     OW23227   6.943   5.662   1.958
 7443SOL    HW123228   6.912   5.679   2.052
 7443SOL    HW223229   6.913   5.571   1.929
 7444SOL     OW23230   6.439   1.064   6.209
 7444SOL    HW123231   6.519   1.004   6.198
 7444SOL    HW223232   6.464   1.142   6.266
 7445SOL     OW23233   3.461   0.408   1.417
 7445SOL    HW123234   3.489   0.374   1.328
 7445SOL    HW223235   3.510   0.493   1.437
 7446SOL     OW23236   4.917   2.179   0.322
 7446SOL    HW123237   4.875   2.156   0.410
 7446SOL    HW223238   5.016   2.164   0.328
 7447SOL     OW23239   6.537   4.716   5.952
 7447SOL    HW123240   6.553   4.691   6.048
 7447SOL    HW223241   6.550   4.637   5.894
 7448SOL     OW23242   5.483   7.002   4.979
 7448SOL    HW123243   5.395   7.010   4.933
 7448SOL    HW223244   5.555   0.018   4.921
 7449SOL     OW23245   0.723   5.612   0.232
 7449SOL    HW123246   0.734   5.529   0.286
 7449SOL    HW223247   0.642   5.604   0.174
 7450SOL     OW23248   5.034   2.614   5.498
 7450SOL    HW123249   5.100   2.685   5.473
 7450SOL    HW223250   5.000   2.570   5.415
 7451SOL     OW23251   5.546   5.592   2.282
 7451SOL    HW123252   5.586   5.500   2.277
 7451SOL    HW223253   5.514   5.610   2.375
 7452SOL     OW23254   6.476   5.801   4.409
 7452SOL    HW123255   6.380   5.818   4.389
 7452SOL    HW223256   6.524   5.775   4.325
 7453SOL     OW23257   4.482   4.965   5.490
 7453SOL    HW123258   4.506   4.884   5.543
 7453SOL    HW223259   4.384   4.981   5.495
 7454SOL     OW23260   2.655   1.106   0.966
 7454SOL    HW123261   2.570   1.073   0.924
 7454SOL    HW223262   2.731   1.047   0.939
 7455SOL     OW23263   6.758   3.423   2.093
 7455SOL    HW123264   6.828   3.472   2.144
 7455SOL    HW223265   6.670   3.433   2.139
 7456SOL     OW23266   2.828   1.438   5.092
 7456SOL    HW123267   2.854   1.343   5.112
 7456SOL    HW223268   2.857   1.497   5.167
 7457SOL     OW23269   3.204   6.945   4.278
 7457SOL    HW123270   3.178   6.864   4.330
 7457SOL    HW223271   3.210   6.922   4.181
 7458SOL     OW23272   1.447   0.392   6.035
 7458SOL    HW123273   1.513   0.376   5.962
 7458SOL    HW223274   1.364   0.432   5.996
 7459SOL     OW23275   6.328   1.131   2.266
 7459SOL    HW123276   6.253   1.085   2.314
 7459SOL    HW223277   6.377   1.064   2.210
 7460SOL     OW23278   1.114   6.057   6.635
 7460SOL    HW123279   1.127   6.152   6.608
 7460SOL    HW223280   1.188   6.029   6.697
 7461SOL     OW23281   6.230   6.223   5.909
 7461SOL    HW123282   6.174   6.288   5.857
 7461SOL    HW223283   6.171   6.173   5.973
 7462SOL     OW23284   2.150   4.653   1.940
 7462SOL    HW123285   2.124   4.691   1.852
 7462SOL    HW223286   2.241   4.613   1.934
 7463SOL     OW23287   3.509   3.937   0.471
 7463SOL    HW123288   3.455   4.006   0.520
 7463SOL    HW223289   3.606   3.960   0.478
 7464SOL     OW23290   6.625   6.787   5.455
 7464SOL    HW123291   6.693   6.740   5.399
 7464SOL    HW223292   6.542   6.732   5.460
 7465SOL     OW23293   2.588   5.306   6.886
 7465SOL    HW123294   2.498   5.348   6.895
 7465SOL    HW223295   2.585   5.214   6.925
 7466SOL     OW23296   0.458   0.654   6.361
 7466SOL    HW123297   0.495   0.573   6.315
 7466SOL    HW223298   0.532   0.720   6.376
 7467SOL     OW23299   0.421   2.713   6.038
 7467SOL    HW123300   0.391   2.783   5.974
 7467SOL    HW223301   0.511   2.737   6.074
 7468SOL     OW23302   5.032   2.944   4.568
 7468SOL    HW123303   4.996   3.036   4.557
 7468SOL    HW223304   4.980   2.895   4.638
 7469SOL     OW23305   6.802   1.585   0.628
 7469SOL    HW123306   6.900   1.570   0.614
 7469SOL    HW223307   6.754   1.580   0.540
 7470SOL     OW23308   5.398   4.162   3.582
 7470SOL    HW123309   5.491   4.163   3.544
 7470SOL    HW223310   5.376   4.253   3.618
 7471SOL     OW23311   5.299   6.219   5.919
 7471SOL    HW123312   5.373   6.277   5.886
 7471SOL    HW223313   5.312   6.201   6.017
 7472SOL     OW23314   6.138   0.861   5.394
 7472SOL    HW123315   6.185   0.779   5.428
 7472SOL    HW223316   6.081   0.899   5.467
 7473SOL     OW23317   5.582   6.306   3.660
 7473SOL    HW123318   5.679   6.282   3.661
 7473SOL    HW223319   5.530   6.237   3.709
 7474SOL     OW23320   6.416   2.751   6.558
 7474SOL    HW123321   6.403   2.837   6.509
 7474SOL    HW223322   6.330   2.724   6.601
 7475SOL     OW23323   4.589   2.388   1.964
 7475SOL    HW123324   4.564   2.399   2.060
 7475SOL    HW223325   4.641   2.303   1.954
 7476SOL     OW23326   2.123   2.233   2.902
 7476SOL    HW123327   2.073   2.146   2.895
 7476SOL    HW223328   2.058   2.308   2.914
 7477SOL     OW23329   0.278   3.122   5.307
 7477SOL    HW123330   0.362   3.123   5.252
 7477SOL    HW223331   0.227   3.038   5.289
 7478SOL     OW23332   5.643   3.519   5.274
 7478SOL    HW123333   5.698   3.437   5.294
 7478SOL    HW223334   5.557   3.492   5.232
 7479SOL     OW23335   5.371   2.745   0.530
 7479SOL    HW123336   5.290   2.760   0.475
 7479SOL    HW223337   5.451   2.737   0.471
 7480SOL     OW23338   1.940   4.935   2.362
 7480SOL    HW123339   1.973   4.874   2.291
 7480SOL    HW223340   1.917   4.881   2.444
 7481SOL     OW23341   6.528   4.738   6.958
 7481SOL    HW123342   6.530   4.806   0.008
 7481SOL    HW223343   6.457   4.762   6.892
 7482SOL     OW23344   4.324   2.273   2.554
 7482SOL    HW123345   4.281   2.257   2.643
 7482SOL    HW223346   4.369   2.362   2.554
 7483SOL     OW23347   4.965   2.515   4.820
 7483SOL    HW123348   4.881   2.534   4.769
 7483SOL    HW223349   5.028   2.591   4.809
 7484SOL     OW23350   1.864   5.312   4.530
 7484SOL    HW123351   1.921   5.234   4.501
 7484SOL    HW223352   1.777   5.311   4.481
 7485SOL     OW23353   2.670   0.242   3.854
 7485SOL    HW123354   2.708   0.251   3.762
 7485SOL    HW223355   2.743   0.216   3.917
 7486SOL     OW23356   0.713   6.318   0.236
 7486SOL    HW123357   0.694   6.305   0.334
 7486SOL    HW223358   0.734   6.229   0.195
 7487SOL     OW23359   3.707   0.770   3.844
 7487SOL    HW123360   3.618   0.775   3.889
 7487SOL    HW223361   3.707   0.694   3.779
 7488SOL     OW23362   2.087   6.078   4.637
 7488SOL    HW123363   2.099   6.031   4.549
 7488SOL    HW223364   2.136   6.028   4.708
 7489SOL     OW23365   6.365   3.265   0.160
 7489SOL    HW123366   6.323   3.310   0.081
 7489SOL    HW223367   6.385   3.333   0.231
 7490SOL     OW23368   1.639   1.292   2.366
 7490SOL    HW123369   1.739   1.293   2.357
 7490SOL    HW223370   1.611   1.358   2.436
 7491SOL     OW23371   4.937   2.904   6.967
 7491SOL    HW123372   4.849   2.948   6.987
 7491SOL    HW223373   4.956   2.833   0.012
 7492SOL     OW23374   2.260   1.292   4.183
 7492SOL    HW123375   2.174   1.343   4.175
 7492SOL    HW223376   2.334   1.356   4.202
 7493SOL     OW23377   6.853   2.907   5.884
 7493SOL    HW123378   6.923   2.903   5.813
 7493SOL    HW223379   6.860   2.995   5.932
 7494SOL     OW23380   6.266   1.339   4.209
 7494SOL    HW123381   6.247   1.244   4.182
 7494SOL    HW223382   6.332   1.379   4.146
 7495SOL     OW23383   1.535   2.974   5.052
 7495SOL    HW123384   1.458   2.943   5.108
 7495SOL    HW223385   1.512   2.965   4.955
 7496SOL     OW23386   5.443   3.536   4.260
 7496SOL    HW123387   5.517   3.470   4.272
 7496SOL    HW223388   5.397   3.519   4.172
 7497SOL     OW23389   1.727   5.769   1.444
 7497SOL    HW123390   1.753   5.685   1.397
 7497SOL    HW223391   1.767   5.771   1.535
 7498SOL     OW23392   2.521   0.815   4.063
 7498SOL    HW123393   2.480   0.906   4.077
 7498SOL    HW223394   2.486   0.752   4.132
 7499SOL     OW23395   4.590   2.122   3.383
 7499SOL    HW123396   4.558   2.206   3.427
 7499SOL    HW223397   4.661   2.079   3.440
 7500SOL     OW23398   3.228   5.623   3.161
 7500SOL    HW123399   3.230   5.524   3.149
 7500SOL    HW223400   3.317   5.662   3.137
 7501SOL     OW23401   5.514   3.987   3.909
 7501SOL    HW123402   5.563   3.942   3.834
 7501SOL    HW223403   5.415   3.976   3.895
 7502SOL     OW23404   3.630   6.562   4.403
 7502SOL    HW123405   3.628   6.547   4.304
 7502SOL    HW223406   3.654   6.657   4.422
 7503SOL     OW23407   2.259   6.006   0.665
 7503SOL    HW123408   2.245   5.929   0.604
 7503SOL    HW223409   2.184   6.072   0.653
 7504SOL     OW23410   0.548   6.440   2.357
 7504SOL    HW123411   0.517   6.535   2.364
 7504SOL    HW223412   0.546   6.412   2.261
 7505SOL     OW23413   1.212   1.869   6.599
 7505SOL    HW123414   1.160   1.816   6.532
 7505SOL    HW223415   1.305   1.833   6.604
 7506SOL     OW23416   4.517   2.416   3.475
 7506SOL    HW123417   4.518   2.473   3.393
 7506SOL    HW223418   4.564   2.465   3.549
 7507SOL     OW23419   6.449   3.027   3.826
 7507SOL    HW123420   6.455   3.062   3.733
 7507SOL    HW223421   6.397   2.941   3.826
 7508SOL     OW23422   1.969   5.085   0.578
 7508SOL    HW123423   2.049   5.033   0.547
 7508SOL    HW223424   1.886   5.036   0.552
 7509SOL     OW23425   5.921   3.435   0.421
 7509SOL    HW123426   5.936   3.449   0.519
 7509SOL    HW223427   5.937   3.339   0.398
 7510SOL     OW23428   3.989   3.871   4.719
 7510SOL    HW123429   4.024   3.850   4.628
 7510SOL    HW223430   3.890   3.881   4.715
 7511SOL     OW23431   3.129   6.287   3.511
 7511SOL    HW123432   3.093   6.200   3.546
 7511SOL    HW223433   3.083   6.363   3.557
 7512SOL     OW23434   2.681   0.720   0.022
 7512SOL    HW123435   2.669   0.794   6.978
 7512SOL    HW223436   2.691   0.633   6.998
 7513SOL     OW23437   2.329   2.511   3.304
 7513SOL    HW123438   2.273   2.500   3.385
 7513SOL    HW223439   2.319   2.431   3.245
 7514SOL     OW23440   1.923   5.367   3.716
 7514SOL    HW123441   1.906   5.326   3.626
 7514SOL    HW223442   1.839   5.411   3.748
 7515SOL     OW23443   6.960   4.359   4.793
 7515SOL    HW123444   7.004   4.269   4.790
 7515SOL    HW223445   6.942   4.384   4.888
 7516SOL     OW23446   0.744   5.030   6.155
 7516SOL    HW123447   0.707   5.061   6.067
 7516SOL    HW223448   0.669   4.999   6.214
 7517SOL     OW23449   1.525   2.386   0.066
 7517SOL    HW123450   1.536   2.331   7.007
 7517SOL    HW223451   1.483   2.331   0.138
 7518SOL     OW23452   5.051   3.459   3.210
 7518SOL    HW123453   5.060   3.414   3.298
 7518SOL    HW223454   5.038   3.557   3.223
 7519SOL     OW23455   5.878   6.907   4.166
 7519SOL    HW123456   5.911   6.900   4.072
 7519SOL    HW223457   5.956   6.902   4.229
 7520SOL     OW23458   1.299   1.042   2.548
 7520SOL    HW123459   1.376   0.992   2.509
 7520SOL    HW223460   1.307   1.139   2.524
 7521SOL     OW23461   5.032   2.068   4.716
 7521SOL    HW123462   4.994   2.123   4.791
 7521SOL    HW223463   5.130   2.056   4.731
 7522SOL     OW23464   1.324   0.327   5.256
 7522SOL    HW123465   1.266   0.401   5.290
 7522SOL    HW223466   1.342   0.340   5.159
 7523SOL     OW23467   4.960   0.808   6.104
 7523SOL    HW123468   4.878   0.755   6.127
 7523SOL    HW223469   4.947   0.903   6.134
 7524SOL     OW23470   0.263   3.245   4.940
 7524SOL    HW123471   0.316   3.316   4.894
 7524SOL    HW223472   0.173   3.282   4.964
 7525SOL     OW23473   4.016   6.742   6.729
 7525SOL    HW123474   4.083   6.776   6.662
 7525SOL    HW223475   4.065   6.700   6.806
 7526SOL     OW23476   2.451   2.524   1.466
 7526SOL    HW123477   2.505   2.569   1.395
 7526SOL    HW223478   2.475   2.561   1.555
 7527SOL     OW23479   3.300   5.705   3.623
 7527SOL    HW123480   3.315   5.609   3.601
 7527SOL    HW223481   3.291   5.757   3.538
 7528SOL     OW23482   5.439   2.168   6.760
 7528SOL    HW123483   5.526   2.161   6.809
 7528SOL    HW223484   5.433   2.258   6.717
 7529SOL     OW23485   5.062   1.972   4.167
 7529SOL    HW123486   5.121   2.031   4.223
 7529SOL    HW223487   5.021   1.901   4.224
 7530SOL     OW23488   6.134   1.866   2.470
 7530SOL    HW123489   6.170   1.775   2.449
 7530SOL    HW223490   6.155   1.929   2.395
 7531SOL     OW23491   4.971   2.820   2.910
 7531SOL    HW123492   5.070   2.808   2.920
 7531SOL    HW223493   4.951   2.871   2.826
 7532SOL     OW23494   5.292   6.358   6.660
 7532SOL    HW123495   5.316   6.296   6.585
 7532SOL    HW223496   5.258   6.306   6.737
 7533SOL     OW23497   4.415   2.320   1.629
 7533SOL    HW123498   4.483   2.393   1.637
 7533SOL    HW223499   4.349   2.328   1.704
 7534SOL     OW23500   4.695   5.634   4.197
 7534SOL    HW123501   4.762   5.572   4.236
 7534SOL    HW223502   4.735   5.725   4.187
 7535SOL     OW23503   1.628   6.284   4.557
 7535SOL    HW123504   1.594   6.210   4.616
 7535SOL    HW223505   1.728   6.290   4.566
 7536SOL     OW23506   5.679   6.100   4.080
 7536SOL    HW123507   5.718   6.132   4.165
 7536SOL    HW223508   5.581   6.084   4.092
 7537SOL     OW23509   2.016   4.728   2.185
 7537SOL    HW123510   2.077   4.744   2.107
 7537SOL    HW223511   1.929   4.690   2.152
 7538SOL     OW23512   1.521   2.765   2.031
 7538SOL    HW123513   1.448   2.831   2.049
 7538SOL    HW223514   1.607   2.815   2.017
 7539SOL     OW23515   1.122   4.763   3.386
 7539SOL    HW123516   1.118   4.730   3.292
 7539SOL    HW223517   1.113   4.686   3.450
 7540SOL     OW23518   4.622   6.251   4.356
 7540SOL    HW123519   4.658   6.338   4.387
 7540SOL    HW223520   4.522   6.254   4.354
 7541SOL     OW23521   0.805   4.308   6.098
 7541SOL    HW123522   0.814   4.386   6.161
 7541SOL    HW223523   0.779   4.341   6.007
 7542SOL     OW23524   6.680   5.941   6.270
 7542SOL    HW123525   6.776   5.921   6.291
 7542SOL    HW223526   6.673   6.031   6.227
 7543SOL     OW23527   2.849   0.596   4.759
 7543SOL    HW123528   2.761   0.567   4.796
 7543SOL    HW223529   2.874   0.686   4.797
 7544SOL     OW23530   0.485   2.847   4.459
 7544SOL    HW123531   0.460   2.904   4.381
 7544SOL    HW223532   0.527   2.904   4.530
 7545SOL     OW23533   0.332   6.512   6.157
 7545SOL    HW123534   0.235   6.491   6.151
 7545SOL    HW223535   0.379   6.438   6.205
 7546SOL     OW23536   5.008   2.437   1.491
 7546SOL    HW123537   5.075   2.430   1.565
 7546SOL    HW223538   4.923   2.393   1.519
 7547SOL     OW23539   4.568   0.989   0.822
 7547SOL    HW123540   4.537   0.932   0.746
 7547SOL    HW223541   4.550   0.941   0.908
 7548SOL     OW23542   4.658   2.483   6.881
 7548SOL    HW123543   4.617   2.408   6.933
 7548SOL    HW223544   4.609   2.494   6.794
 7549SOL     OW23545   3.306   2.503   6.848
 7549SOL    HW123546   3.318   2.445   6.929
 7549SOL    HW223547   3.385   2.493   6.788
 7550SOL     OW23548   2.024   4.619   3.541
 7550SOL    HW123549   1.975   4.697   3.579
 7550SOL    HW223550   2.121   4.624   3.565
 7551SOL     OW23551   5.300   2.906   5.157
 7551SOL    HW123552   5.397   2.914   5.180
 7551SOL    HW223553   5.263   2.997   5.135
 7552SOL     OW23554   1.336   6.135   4.254
 7552SOL    HW123555   1.424   6.091   4.275
 7552SOL    HW223556   1.308   6.191   4.332
 7553SOL     OW23557   5.876   6.612   6.032
 7553SOL    HW123558   5.854   6.666   5.950
 7553SOL    HW223559   5.826   6.525   6.029
 7554SOL     OW23560   4.787   0.735   0.329
 7554SOL    HW123561   4.784   0.834   0.322
 7554SOL    HW223562   4.872   0.701   0.289
 7555SOL     OW23563   3.657   5.793   6.266
 7555SOL    HW123564   3.659   5.706   6.315
 7555SOL    HW223565   3.672   5.868   6.330
 7556SOL     OW23566   1.666   1.434   0.432
 7556SOL    HW123567   1.749   1.456   0.484
 7556SOL    HW223568   1.586   1.463   0.485
 7557SOL     OW23569   4.823   0.211   0.033
 7557SOL    HW123570   4.821   0.136   6.990
 7557SOL    HW223571   4.914   0.218   0.073
 7558SOL     OW23572   1.847   3.233   3.549
 7558SOL    HW123573   1.920   3.300   3.559
 7558SOL    HW223574   1.811   3.237   3.456
 7559SOL     OW23575   3.850   2.275   5.388
 7559SOL    HW123576   3.801   2.249   5.472
 7559SOL    HW223577   3.904   2.358   5.405
 7560SOL     OW23578   6.572   0.459   6.933
 7560SOL    HW123579   6.642   0.448   7.004
 7560SOL    HW223580   6.615   0.490   6.849
 7561SOL     OW23581   5.788   3.243   5.606
 7561SOL    HW123582   5.815   3.190   5.687
 7561SOL    HW223583   5.803   3.340   5.624
 7562SOL     OW23584   0.476   4.600   4.893
 7562SOL    HW123585   0.554   4.605   4.956
 7562SOL    HW223586   0.496   4.656   4.812
 7563SOL     OW23587   2.592   6.368   2.356
 7563SOL    HW123588   2.537   6.369   2.439
 7563SOL    HW223589   2.689   6.366   2.380
 7564SOL     OW23590   4.071   0.315   4.940
 7564SOL    HW123591   4.113   0.402   4.966
 7564SOL    HW223592   4.054   0.315   4.841
 7565SOL     OW23593   5.827   4.474   5.645
 7565SOL    HW123594   5.829   4.560   5.697
 7565SOL    HW223595   5.918   4.457   5.606
 7566SOL     OW23596   5.465   5.104   2.411
 7566SOL    HW123597   5.475   5.097   2.311
 7566SOL    HW223598   5.555   5.109   2.453
 7567SOL     OW23599   1.044   0.750   4.632
 7567SOL    HW123600   0.956   0.790   4.658
 7567SOL    HW223601   1.030   0.690   4.553
 7568SOL     OW23602   5.683   5.112   1.733
 7568SOL    HW123603   5.722   5.143   1.646
 7568SOL    HW223604   5.601   5.165   1.753
 7569SOL     OW23605   4.355   4.107   6.413
 7569SOL    HW123606   4.325   4.068   6.326
 7569SOL    HW223607   4.286   4.173   6.445
 7570SOL     OW23608   6.976   3.111   4.483
 7570SOL    HW123609   6.953   3.065   4.568
 7570SOL    HW223610   6.897   3.109   4.421
 7571SOL     OW23611   5.400   3.707   3.259
 7571SOL    HW123612   5.426   3.633   3.321
 7571SOL    HW223613   5.439   3.690   3.169
 7572SOL     OW23614   4.989   6.736   2.989
 7572SOL    HW123615   4.976   6.761   3.085
 7572SOL    HW223616   5.025   6.644   2.983
 7573SOL     OW23617   6.283   0.668   5.858
 7573SOL    HW123618   6.253   0.702   5.947
 7573SOL    HW223619   6.235   0.582   5.837
 7574SOL     OW23620   5.980   1.359   4.532
 7574SOL    HW123621   5.920   1.346   4.453
 7574SOL    HW223622   5.980   1.456   4.558
 7575SOL     OW23623   6.112   6.250   0.452
 7575SOL    HW123624   6.171   6.180   0.413
 7575SOL    HW223625   6.159   6.293   0.530
 7576SOL     OW23626   5.299   2.126   0.036
 7576SOL    HW123627   5.282   2.125   6.961
 7576SOL    HW223628   5.286   2.034   0.073
 7577SOL     OW23629   6.944   6.571   0.323
 7577SOL    HW123630   6.958   6.670   0.323
 7577SOL    HW223631   6.906   6.543   0.410
 7578SOL     OW23632   1.460   5.320   2.372
 7578SOL    HW123633   1.402   5.292   2.295
 7578SOL    HW223634   1.556   5.320   2.343
 7579SOL     OW23635   6.623   1.713   1.236
 7579SOL    HW123636   6.709   1.723   1.186
 7579SOL    HW223637   6.576   1.629   1.206
 7580SOL     OW23638   1.296   4.970   3.465
 7580SOL    HW123639   1.252   4.889   3.424
 7580SOL    HW223640   1.350   5.017   3.395
 7581SOL     OW23641   0.473   1.222   1.338
 7581SOL    HW123642   0.477   1.259   1.431
 7581SOL    HW223643   0.476   1.123   1.342
 7582SOL     OW23644   4.277   1.568   3.529
 7582SOL    HW123645   4.206   1.627   3.491
 7582SOL    HW223646   4.307   1.503   3.460
 7583SOL     OW23647   5.520   3.664   3.004
 7583SOL    HW123648   5.590   3.597   3.030
 7583SOL    HW223649   5.460   3.624   2.934
 7584SOL     OW23650   1.367   6.559   2.512
 7584SOL    HW123651   1.394   6.579   2.606
 7584SOL    HW223652   1.303   6.482   2.513
 7585SOL     OW23653   0.972   2.090   7.004
 7585SOL    HW123654   0.886   2.130   6.973
 7585SOL    HW223655   1.033   2.078   6.926
 7586SOL     OW23656   1.872   6.977   2.641
 7586SOL    HW123657   1.967   6.967   2.671
 7586SOL    HW223658   1.868   0.014   2.562
 7587SOL     OW23659   2.449   1.311   0.278
 7587SOL    HW123660   2.423   1.328   0.373
 7587SOL    HW223661   2.366   1.296   0.224
 7588SOL     OW23662   1.572   2.897   3.845
 7588SOL    HW123663   1.670   2.913   3.846
 7588SOL    HW223664   1.531   2.941   3.926
 7589SOL     OW23665   0.023   1.334   3.130
 7589SOL    HW123666   7.005   1.263   3.188
 7589SOL    HW223667   0.039   1.416   3.185
 7590SOL     OW23668   6.213   1.262   6.906
 7590SOL    HW123669   6.143   1.252   6.835
 7590SOL    HW223670   6.296   1.302   6.865
 7591SOL     OW23671   4.799   3.296   6.329
 7591SOL    HW123672   4.858   3.375   6.312
 7591SOL    HW223673   4.810   3.229   6.255
 7592SOL     OW23674   6.536   4.515   4.572
 7592SOL    HW123675   6.468   4.537   4.503
 7592SOL    HW223676   6.627   4.519   4.531
 7593SOL     OW23677   0.254   2.560   6.191
 7593SOL    HW123678   0.284   2.644   6.145
 7593SOL    HW223679   0.163   2.536   6.158
 7594SOL     OW23680   0.843   4.482   1.835
 7594SOL    HW123681   0.762   4.540   1.829
 7594SOL    HW223682   0.894   4.504   1.918
 7595SOL     OW23683   6.493   3.592   6.297
 7595SOL    HW123684   6.426   3.550   6.235
 7595SOL    HW223685   6.513   3.685   6.266
 7596SOL     OW23686   3.313   6.464   5.108
 7596SOL    HW123687   3.254   6.522   5.164
 7596SOL    HW223688   3.377   6.415   5.168
 7597SOL     OW23689   1.907   6.629   2.959
 7597SOL    HW123690   1.997   6.587   2.976
 7597SOL    HW223691   1.919   6.727   2.945
 7598SOL     OW23692   6.046   0.596   3.010
 7598SOL    HW123693   6.040   0.676   3.070
 7598SOL    HW223694   6.128   0.603   2.954
 7599SOL     OW23695   5.427   3.132   0.664
 7599SOL    HW123696   5.525   3.134   0.686
 7599SOL    HW223697   5.390   3.041   0.683
 7600SOL     OW23698   1.441   1.012   3.516
 7600SOL    HW123699   1.359   0.964   3.547
 7600SOL    HW223700   1.488   1.051   3.595
 7601SOL     OW23701   2.886   5.065   2.418
 7601SOL    HW123702   2.824   5.143   2.407
 7601SOL    HW223703   2.965   5.076   2.357
 7602SOL     OW23704   0.734   2.744   0.405
 7602SOL    HW123705   0.790   2.788   0.335
 7602SOL    HW223706   0.684   2.667   0.365
 7603SOL     OW23707   1.795   6.484   5.809
 7603SOL    HW123708   1.878   6.436   5.784
 7603SOL    HW223709   1.816   6.556   5.875
 7604SOL     OW23710   1.507   1.855   5.268
 7604SOL    HW123711   1.517   1.872   5.366
 7604SOL    HW223712   1.476   1.761   5.254
 7605SOL     OW23713   1.314   0.566   0.689
 7605SOL    HW123714   1.343   0.661   0.705
 7605SOL    HW223715   1.216   0.564   0.671
 7606SOL     OW23716   5.644   2.937   5.216
 7606SOL    HW123717   5.703   2.892   5.149
 7606SOL    HW223718   5.663   2.899   5.307
 7607SOL     OW23719   3.621   5.293   0.815
 7607SOL    HW123720   3.702   5.339   0.778
 7607SOL    HW223721   3.546   5.300   0.749
 7608SOL     OW23722   4.887   2.282   6.423
 7608SOL    HW123723   4.841   2.324   6.501
 7608SOL    HW223724   4.849   2.318   6.338
 7609SOL     OW23725   0.541   3.830   3.772
 7609SOL    HW123726   0.442   3.847   3.777
 7609SOL    HW223727   0.557   3.731   3.770
 7610SOL     OW23728   4.331   4.927   5.911
 7610SOL    HW123729   4.391   5.006   5.921
 7610SOL    HW223730   4.258   4.932   5.979
 7611SOL     OW23731   5.265   3.755   1.349
 7611SOL    HW123732   5.323   3.827   1.310
 7611SOL    HW223733   5.315   3.669   1.350
 7612SOL     OW23734   4.179   2.332   3.197
 7612SOL    HW123735   4.160   2.310   3.102
 7612SOL    HW223736   4.241   2.410   3.202
 7613SOL     OW23737   0.635   1.815   1.924
 7613SOL    HW123738   0.663   1.911   1.925
 7613SOL    HW223739   0.666   1.772   2.009
 7614SOL     OW23740   5.544   3.600   1.083
 7614SOL    HW123741   5.550   3.693   1.116
 7614SOL    HW223742   5.634   3.567   1.055
 7615SOL     OW23743   5.094   4.292   5.530
 7615SOL    HW123744   5.090   4.231   5.609
 7615SOL    HW223745   5.174   4.269   5.475
 7616SOL     OW23746   6.630   0.363   3.661
 7616SOL    HW123747   6.542   0.380   3.705
 7616SOL    HW223748   6.656   0.267   3.673
 7617SOL     OW23749   5.442   5.360   3.156
 7617SOL    HW123750   5.526   5.348   3.104
 7617SOL    HW223751   5.380   5.421   3.106
 7618SOL     OW23752   1.324   2.269   0.242
 7618SOL    HW123753   1.316   2.362   0.278
 7618SOL    HW223754   1.232   2.234   0.222
 7619SOL     OW23755   6.901   2.681   4.459
 7619SOL    HW123756   6.887   2.765   4.408
 7619SOL    HW223757   6.902   2.701   4.557
 7620SOL     OW23758   3.745   4.742   0.714
 7620SOL    HW123759   3.686   4.697   0.781
 7620SOL    HW223760   3.758   4.838   0.740
 7621SOL     OW23761   0.538   6.924   0.959
 7621SOL    HW123762   0.545   6.836   0.912
 7621SOL    HW223763   0.613   6.984   0.931
 7622SOL     OW23764   4.233   4.939   6.684
 7622SOL    HW123765   4.227   4.930   6.584
 7622SOL    HW223766   4.253   5.034   6.708
 7623SOL     OW23767   4.160   4.705   0.435
 7623SOL    HW123768   4.191   4.666   0.349
 7623SOL    HW223769   4.068   4.673   0.456
 7624SOL     OW23770   0.069   2.630   3.555
 7624SOL    HW123771   0.107   2.538   3.547
 7624SOL    HW223772   0.140   2.697   3.535
 7625SOL     OW23773   5.766   2.571   6.673
 7625SOL    HW123774   5.699   2.643   6.689
 7625SOL    HW223775   5.751   2.497   6.739
 7626SOL     OW23776   6.646   0.847   6.089
 7626SOL    HW123777   6.742   0.825   6.074
 7626SOL    HW223778   6.600   0.860   6.001
 7627SOL     OW23779   2.847   1.786   0.620
 7627SOL    HW123780   2.769   1.743   0.573
 7627SOL    HW223781   2.931   1.766   0.569
 7628SOL     OW23782   4.051   2.875   1.465
 7628SOL    HW123783   3.961   2.847   1.496
 7628SOL    HW223784   4.115   2.798   1.473
 7629SOL     OW23785   6.738   4.261   3.600
 7629SOL    HW123786   6.663   4.228   3.656
 7629SOL    HW223787   6.747   4.360   3.611
 7630SOL     OW23788   1.138   0.465   6.024
 7630SOL    HW123789   1.058   0.521   6.047
 7630SOL    HW223790   1.146   0.390   6.089
 7631SOL     OW23791   1.437   1.015   5.757
 7631SOL    HW123792   1.352   0.980   5.796
 7631SOL    HW223793   1.459   0.966   5.673
 7632SOL     OW23794   4.022   4.850   1.203
 7632SOL    HW123795   4.042   4.805   1.116
 7632SOL    HW223796   4.037   4.785   1.278
 7633SOL     OW23797   5.465   0.856   1.726
 7633SOL    HW123798   5.451   0.843   1.824
 7633SOL    HW223799   5.508   0.774   1.687
 7634SOL     OW23800   1.144   1.181   1.708
 7634SOL    HW123801   1.159   1.273   1.745
 7634SOL    HW223802   1.054   1.177   1.665
 7635SOL     OW23803   2.722   5.134   4.669
 7635SOL    HW123804   2.623   5.147   4.660
 7635SOL    HW223805   2.764   5.220   4.700
 7636SOL     OW23806   0.763   3.778   3.923
 7636SOL    HW123807   0.684   3.814   3.973
 7636SOL    HW223808   0.766   3.819   3.832
 7637SOL     OW23809   0.976   6.337   2.911
 7637SOL    HW123810   0.924   6.418   2.936
 7637SOL    HW223811   0.914   6.264   2.883
 7638SOL     OW23812   1.072   5.535   1.803
 7638SOL    HW123813   0.985   5.553   1.757
 7638SOL    HW223814   1.136   5.493   1.738
 7639SOL     OW23815   0.129   0.828   0.501
 7639SOL    HW123816   0.113   0.923   0.475
 7639SOL    HW223817   0.099   0.814   0.595
 7640SOL     OW23818   2.959   2.405   0.053
 7640SOL    HW123819   2.961   2.491   0.002
 7640SOL    HW223820   2.867   2.387   0.086
 7641SOL     OW23821   0.108   4.384   2.770
 7641SOL    HW123822   0.080   4.318   2.839
 7641SOL    HW223823   0.173   4.341   2.707
 7642SOL     OW23824   5.887   1.058   2.968
 7642SOL    HW123825   5.972   1.016   2.937
 7642SOL    HW223826   5.849   1.114   2.894
 7643SOL     OW23827   5.243   1.787   2.498
 7643SOL    HW123828   5.320   1.726   2.483
 7643SOL    HW223829   5.238   1.812   2.595
 7644SOL     OW23830   4.740   2.824   2.221
 7644SOL    HW123831   4.768   2.738   2.180
 7644SOL    HW223832   4.711   2.887   2.149
 7645SOL     OW23833   4.165   3.275   5.594
 7645SOL    HW123834   4.074   3.258   5.555
 7645SOL    HW223835   4.227   3.306   5.522
 7646SOL     OW23836   0.473   3.003   3.235
 7646SOL    HW123837   0.534   3.066   3.186
 7646SOL    HW223838   0.414   2.956   3.170
 7647SOL     OW23839   0.803   2.754   4.517
 7647SOL    HW123840   0.814   2.852   4.499
 7647SOL    HW223841   0.887   2.706   4.492
 7648SOL     OW23842   2.409   1.425   2.190
 7648SOL    HW123843   2.470   1.346   2.195
 7648SOL    HW223844   2.421   1.471   2.103
 7649SOL     OW23845   1.341   1.310   4.710
 7649SOL    HW123846   1.369   1.217   4.687
 7649SOL    HW223847   1.390   1.375   4.652
 7650SOL     OW23848   5.272   1.163   1.488
 7650SOL    HW123849   5.247   1.095   1.557
 7650SOL    HW223850   5.349   1.129   1.434
 7651SOL     OW23851   2.465   5.354   4.432
 7651SOL    HW123852   2.463   5.285   4.504
 7651SOL    HW223853   2.376   5.400   4.427
 7652SOL     OW23854   5.933   2.832   5.145
 7652SOL    HW123855   5.887   2.770   5.209
 7652SOL    HW223856   5.985   2.900   5.195
 7653SOL     OW23857   1.391   1.331   0.177
 7653SOL    HW123858   1.460   1.259   0.167
 7653SOL    HW223859   1.428   1.418   0.146
 7654SOL     OW23860   5.443   3.338   5.080
 7654SOL    HW123861   5.487   3.392   5.008
 7654SOL    HW223862   5.344   3.352   5.076
 7655SOL     OW23863   3.565   0.091   3.749
 7655SOL    HW123864   3.640   0.150   3.719
 7655SOL    HW223865   3.481   0.145   3.757
 7656SOL     OW23866   5.739   2.957   5.952
 7656SOL    HW123867   5.772   2.883   6.011
 7656SOL    HW223868   5.707   2.918   5.865
 7657SOL     OW23869   1.846   3.220   3.827
 7657SOL    HW123870   1.846   3.201   3.729
 7657SOL    HW223871   1.752   3.231   3.859
 7658SOL     OW23872   3.085   0.454   1.244
 7658SOL    HW123873   3.150   0.487   1.176
 7658SOL    HW223874   2.992   0.466   1.209
 7659SOL     OW23875   4.936   4.315   6.574
 7659SOL    HW123876   4.929   4.323   6.673
 7659SOL    HW223877   4.873   4.379   6.531
 7660SOL     OW23878   6.305   5.382   4.679
 7660SOL    HW123879   6.390   5.396   4.729
 7660SOL    HW223880   6.239   5.452   4.703
 7661SOL     OW23881   4.151   2.249   5.890
 7661SOL    HW123882   4.097   2.276   5.969
 7661SOL    HW223883   4.096   2.259   5.807
 7662SOL     OW23884   0.773   2.309   3.308
 7662SOL    HW123885   0.802   2.230   3.361
 7662SOL    HW223886   0.749   2.279   3.215
 7663SOL     OW23887   4.844   5.704   6.570
 7663SOL    HW123888   4.826   5.706   6.472
 7663SOL    HW223889   4.782   5.638   6.613
 7664SOL     OW23890   3.706   1.298   3.345
 7664SOL    HW123891   3.622   1.351   3.337
 7664SOL    HW223892   3.716   1.264   3.438
 7665SOL     OW23893   5.615   1.840   4.203
 7665SOL    HW123894   5.678   1.812   4.131
 7665SOL    HW223895   5.553   1.911   4.168
 7666SOL     OW23896   6.670   5.749   4.225
 7666SOL    HW123897   6.761   5.718   4.253
 7666SOL    HW223898   6.644   5.702   4.141
 7667SOL     OW23899   4.458   0.317   2.661
 7667SOL    HW123900   4.452   0.266   2.575
 7667SOL    HW223901   4.524   0.392   2.650
 7668SOL     OW23902   2.869   4.682   0.580
 7668SOL    HW123903   2.969   4.690   0.576
 7668SOL    HW223904   2.830   4.770   0.608
 7669SOL     OW23905   4.192   0.921   6.013
 7669SOL    HW123906   4.167   0.866   5.933
 7669SOL    HW223907   4.291   0.931   6.018
 7670SOL     OW23908   0.734   6.565   0.941
 7670SOL    HW123909   0.683   6.556   1.026
 7670SOL    HW223910   0.695   6.504   0.872
 7671SOL     OW23911   5.256   6.648   2.420
 7671SOL    HW123912   5.309   6.564   2.436
 7671SOL    HW223913   5.228   6.687   2.508
 7672SOL     OW23914   6.954   5.010   3.185
 7672SOL    HW123915   0.012   4.965   3.222
 7672SOL    HW223916   6.890   5.031   3.259
 7673SOL     OW23917   1.610   5.860   2.404
 7673SOL    HW123918   1.528   5.907   2.370
 7673SOL    HW223919   1.685   5.872   2.340
 7674SOL     OW23920   4.431   0.656   3.978
 7674SOL    HW123921   4.381   0.712   4.045
 7674SOL    HW223922   4.373   0.580   3.948
 7675SOL     OW23923   3.779   6.736   3.378
 7675SOL    HW123924   3.751   6.813   3.434
 7675SOL    HW223925   3.799   6.657   3.436
 7676SOL     OW23926   2.902   2.130   5.839
 7676SOL    HW123927   2.907   2.171   5.748
 7676SOL    HW223928   2.905   2.202   5.908
 7677SOL     OW23929   0.558   4.454   1.060
 7677SOL    HW123930   0.648   4.411   1.060
 7677SOL    HW223931   0.523   4.458   0.967
 7678SOL     OW23932   1.936   2.491   5.320
 7678SOL    HW123933   1.893   2.421   5.262
 7678SOL    HW223934   1.999   2.545   5.265
 7679SOL     OW23935   2.125   5.501   5.103
 7679SOL    HW123936   2.218   5.532   5.121
 7679SOL    HW223937   2.073   5.573   5.058
 7680SOL     OW23938   1.756   0.113   5.899
 7680SOL    HW123939   1.826   0.063   5.848
 7680SOL    HW223940   1.797   0.192   5.944
 7681SOL     OW23941   2.452   1.711   6.675
 7681SOL    HW123942   2.506   1.731   6.593
 7681SOL    HW223943   2.507   1.655   6.738
 7682SOL     OW23944   4.091   1.767   2.527
 7682SOL    HW123945   4.012   1.760   2.588
 7682SOL    HW223946   4.062   1.802   2.438
 7683SOL     OW23947   1.184   1.532   4.823
 7683SOL    HW123948   1.243   1.598   4.869
 7683SOL    HW223949   1.237   1.449   4.802
 7684SOL     OW23950   4.295   2.376   1.860
 7684SOL    HW123951   4.223   2.336   1.917
 7684SOL    HW223952   4.362   2.422   1.919
 7685SOL     OW23953   3.564   1.662   7.005
 7685SOL    HW123954   3.529   1.577   0.021
 7685SOL    HW223955   3.661   1.672   0.004
 7686SOL     OW23956   5.633   0.041   4.267
 7686SOL    HW123957   5.600   6.990   4.325
 7686SOL    HW223958   5.727   0.021   4.239
 7687SOL     OW23959   4.924   5.407   5.182
 7687SOL    HW123960   5.007   5.417   5.236
 7687SOL    HW223961   4.892   5.312   5.187
 7688SOL     OW23962   6.888   5.835   5.918
 7688SOL    HW123963   6.830   5.754   5.912
 7688SOL    HW223964   6.983   5.810   5.898
 7689SOL     OW23965   4.878   0.312   2.057
 7689SOL    HW123966   4.951   0.375   2.082
 7689SOL    HW223967   4.801   0.363   2.018
 7690SOL     OW23968   5.537   4.920   0.409
 7690SOL    HW123969   5.449   4.887   0.444
 7690SOL    HW223970   5.525   5.013   0.374
 7691SOL     OW23971   4.583   4.671   2.148
 7691SOL    HW123972   4.545   4.594   2.198
 7691SOL    HW223973   4.658   4.641   2.090
 7692SOL     OW23974   0.617   6.216   1.795
 7692SOL    HW123975   0.699   6.222   1.853
 7692SOL    HW223976   0.630   6.271   1.713
 7693SOL     OW23977   3.147   0.113   1.586
 7693SOL    HW123978   3.189   0.149   1.502
 7693SOL    HW223979   3.049   0.099   1.572
 7694SOL     OW23980   5.693   2.373   4.643
 7694SOL    HW123981   5.639   2.433   4.584
 7694SOL    HW223982   5.636   2.296   4.673
 7695SOL     OW23983   5.589   1.060   2.060
 7695SOL    HW123984   5.567   1.055   2.157
 7695SOL    HW223985   5.506   1.053   2.006
 7696SOL     OW23986   0.658   1.545   6.048
 7696SOL    HW123987   0.665   1.635   6.006
 7696SOL    HW223988   0.565   1.510   6.038
 7697SOL     OW23989   3.148   0.568   2.788
 7697SOL    HW123990   3.247   0.567   2.801
 7697SOL    HW223991   3.116   0.662   2.779
 7698SOL     OW23992   6.614   2.185   5.851
 7698SOL    HW123993   6.636   2.121   5.777
 7698SOL    HW223994   6.566   2.264   5.813
 7699SOL     OW23995   2.327   5.394   6.908
 7699SOL    HW123996   2.350   5.370   6.814
 7699SOL    HW223997   2.279   5.482   6.909
 7700SOL     OW23998   4.380   6.410   2.985
 7700SOL    HW123999   4.356   6.405   2.888
 7700SOL    HW224000   4.337   6.491   3.026
 7701SOL     OW24001   6.881   1.764   5.965
 7701SOL    HW124002   6.850   1.855   5.936
 7701SOL    HW224003   6.933   1.773   6.050
 7702SOL     OW24004   4.201   6.363   5.447
 7702SOL    HW124005   4.139   6.343   5.523
 7702SOL    HW224006   4.294   6.377   5.482
 7703SOL     OW24007   6.427   0.021   5.184
 7703SOL    HW124008   6.362   7.012   5.252
 7703SOL    HW224009   6.475   6.966   5.144
 7704SOL     OW24010   6.381   1.957   3.963
 7704SOL    HW124011   6.397   1.883   4.028
 7704SOL    HW224012   6.326   2.028   4.007
 7705SOL     OW24013   2.669   5.120   0.626
 7705SOL    HW124014   2.589   5.097   0.570
 7705SOL    HW224015   2.721   5.192   0.581
 7706SOL     OW24016   3.367   2.984   3.145
 7706SOL    HW124017   3.438   3.054   3.136
 7706SOL    HW224018   3.399   2.899   3.104
 7707SOL     OW24019   0.186   4.888   6.449
 7707SOL    HW124020   0.216   4.977   6.415
 7707SOL    HW224021   0.096   4.898   6.492
 7708SOL     OW24022   1.299   6.672   3.968
 7708SOL    HW124023   1.330   6.596   3.911
 7708SOL    HW224024   1.296   6.643   4.064
 7709SOL     OW24025   6.539   5.143   1.293
 7709SOL    HW124026   6.587   5.231   1.288
 7709SOL    HW224027   6.475   5.136   1.216
 7710SOL     OW24028   2.228   2.255   0.800
 7710SOL    HW124029   2.144   2.263   0.853
 7710SOL    HW224030   2.215   2.295   0.709
 7711SOL     OW24031   6.684   6.021   5.920
 7711SOL    HW124032   6.755   5.951   5.934
 7711SOL    HW224033   6.687   6.087   5.994
 7712SOL     OW24034   6.325   4.844   6.842
 7712SOL    HW124035   6.301   4.941   6.841
 7712SOL    HW224036   6.255   4.791   6.793
 7713SOL     OW24037   1.891   4.032   0.775
 7713SOL    HW124038   1.820   4.016   0.706
 7713SOL    HW224039   1.977   4.055   0.730
 7714SOL     OW24040   0.308   6.902   5.214
 7714SOL    HW124041   0.365   6.941   5.142
 7714SOL    HW224042   0.241   6.970   5.243
 7715SOL     OW24043   2.584   1.769   6.406
 7715SOL    HW124044   2.553   1.861   6.380
 7715SOL    HW224045   2.540   1.701   6.347
 7716SOL     OW24046   6.667   4.962   6.312
 7716SOL    HW124047   6.567   4.972   6.311
 7716SOL    HW224048   6.697   4.947   6.407
 7717SOL     OW24049   1.532   1.559   5.192
 7717SOL    HW124050   1.619   1.575   5.238
 7717SOL    HW224051   1.481   1.488   5.242
 7718SOL     OW24052   0.067   4.211   3.024
 7718SOL    HW124053   7.007   4.156   3.015
 7718SOL    HW224054   0.047   4.293   3.077
 7719SOL     OW24055   1.308   4.092   4.597
 7719SOL    HW124056   1.286   4.111   4.693
 7719SOL    HW224057   1.404   4.067   4.589
 7720SOL     OW24058   6.397   2.165   6.075
 7720SOL    HW124059   6.488   2.178   6.035
 7720SOL    HW224060   6.406   2.145   6.172
 7721SOL     OW24061   1.070   0.459   2.428
 7721SOL    HW124062   1.167   0.452   2.452
 7721SOL    HW224063   1.056   0.427   2.334
 7722SOL     OW24064   1.979   5.412   4.064
 7722SOL    HW124065   1.901   5.438   4.007
 7722SOL    HW224066   1.968   5.317   4.094
 7723SOL     OW24067   5.034   3.450   6.359
 7723SOL    HW124068   4.998   3.478   6.448
 7723SOL    HW224069   5.128   3.482   6.350
 7724SOL     OW24070   3.368   4.157   0.635
 7724SOL    HW124071   3.271   4.151   0.608
 7724SOL    HW224072   3.376   4.217   0.715
 7725SOL     OW24073   5.840   2.782   2.422
 7725SOL    HW124074   5.792   2.788   2.334
 7725SOL    HW224075   5.935   2.755   2.406
 7726SOL     OW24076   0.923   2.960   5.877
 7726SOL    HW124077   0.972   2.975   5.963
 7726SOL    HW224078   0.954   3.027   5.809
 7727SOL     OW24079   6.362   2.795   1.747
 7727SOL    HW124080   6.299   2.806   1.823
 7727SOL    HW224081   6.310   2.770   1.664
 7728SOL     OW24082   2.085   2.741   5.292
 7728SOL    HW124083   2.118   2.702   5.206
 7728SOL    HW224084   2.112   2.837   5.298
 7729SOL     OW24085   6.408   1.844   1.808
 7729SOL    HW124086   6.328   1.784   1.818
 7729SOL    HW224087   6.490   1.787   1.801
 7730SOL     OW24088   5.948   4.800   4.910
 7730SOL    HW124089   5.958   4.766   4.817
 7730SOL    HW224090   5.964   4.725   4.975
 7731SOL     OW24091   6.130   0.197   0.569
 7731SOL    HW124092   6.152   0.219   0.664
 7731SOL    HW224093   6.142   0.279   0.513
 7732SOL     OW24094   4.111   0.540   0.200
 7732SOL    HW124095   4.152   0.624   0.236
 7732SOL    HW224096   4.106   0.545   0.100
 7733SOL     OW24097   6.074   5.830   2.475
 7733SOL    HW124098   6.094   5.820   2.572
 7733SOL    HW224099   5.980   5.799   2.457
 7734SOL     OW24100   2.337   4.682   4.964
 7734SOL    HW124101   2.376   4.761   4.916
 7734SOL    HW224102   2.411   4.628   5.004
 7735SOL     OW24103   6.250   5.916   0.099
 7735SOL    HW124104   6.246   6.016   0.100
 7735SOL    HW224105   6.163   5.879   0.068
 7736SOL     OW24106   2.660   3.144   0.310
 7736SOL    HW124107   2.601   3.212   0.355
 7736SOL    HW224108   2.738   3.123   0.369
 7737SOL     OW24109   3.357   5.048   1.855
 7737SOL    HW124110   3.416   5.007   1.785
 7737SOL    HW224111   3.261   5.035   1.831
 7738SOL     OW24112   1.884   5.863   6.430
 7738SOL    HW124113   1.923   5.921   6.358
 7738SOL    HW224114   1.790   5.891   6.450
 7739SOL     OW24115   1.404   2.105   2.066
 7739SOL    HW124116   1.463   2.128   1.988
 7739SOL    HW224117   1.441   2.025   2.113
 7740SOL     OW24118   1.882   1.082   2.410
 7740SOL    HW124119   1.914   1.177   2.402
 7740SOL    HW224120   1.887   1.053   2.505
 7741SOL     OW24121   1.503   4.156   4.989
 7741SOL    HW124122   1.479   4.115   5.077
 7741SOL    HW224123   1.556   4.239   5.004
 7742SOL     OW24124   3.573   1.461   3.902
 7742SOL    HW124125   3.513   1.539   3.918
 7742SOL    HW224126   3.658   1.472   3.953
 7743SOL     OW24127   4.785   0.854   6.884
 7743SOL    HW124128   4.814   0.942   6.921
 7743SOL    HW224129   4.807   0.849   6.787
 7744SOL     OW24130   0.509   6.235   3.621
 7744SOL    HW124131   0.510   6.315   3.562
 7744SOL    HW224132   0.576   6.247   3.694
 7745SOL     OW24133   2.102   6.305   0.336
 7745SOL    HW124134   2.010   6.342   0.352
 7745SOL    HW224135   2.165   6.380   0.316
 7746SOL     OW24136   1.132   6.549   0.694
 7746SOL    HW124137   1.213   6.603   0.671
 7746SOL    HW224138   1.091   6.513   0.611
 7747SOL     OW24139   0.257   6.406   0.847
 7747SOL    HW124140   0.347   6.401   0.804
 7747SOL    HW224141   0.219   6.314   0.857
 7748SOL     OW24142   3.332   3.239   5.158
 7748SOL    HW124143   3.401   3.311   5.159
 7748SOL    HW224144   3.376   3.151   5.141
 7749SOL     OW24145   3.201   3.953   3.254
 7749SOL    HW124146   3.113   3.915   3.226
 7749SOL    HW224147   3.224   4.031   3.196
 7750SOL     OW24148   5.360   5.549   5.499
 7750SOL    HW124149   5.366   5.639   5.455
 7750SOL    HW224150   5.394   5.555   5.592
 7751SOL     OW24151   0.518   1.199   3.750
 7751SOL    HW124152   0.535   1.285   3.701
 7751SOL    HW224153   0.605   1.154   3.770
 7752SOL     OW24154   5.460   5.585   5.918
 7752SOL    HW124155   5.361   5.586   5.903
 7752SOL    HW224156   5.483   5.645   5.995
 7753SOL     OW24157   2.209   0.922   4.666
 7753SOL    HW124158   2.233   0.983   4.591
 7753SOL    HW224159   2.267   0.840   4.663
 7754SOL     OW24160   5.431   0.607   1.447
 7754SOL    HW124161   5.352   0.661   1.477
 7754SOL    HW224162   5.468   0.558   1.526
 7755SOL     OW24163   0.462   0.188   5.511
 7755SOL    HW124164   0.540   0.142   5.468
 7755SOL    HW224165   0.496   0.253   5.579
 7756SOL     OW24166   2.494   5.891   2.326
 7756SOL    HW124167   2.563   5.920   2.392
 7756SOL    HW224168   2.461   5.800   2.351
 7757SOL     OW24169   4.943   6.278   4.883
 7757SOL    HW124170   4.892   6.356   4.848
 7757SOL    HW224171   4.880   6.212   4.925
 7758SOL     OW24172   1.922   2.198   6.711
 7758SOL    HW124173   1.934   2.117   6.768
 7758SOL    HW224174   1.837   2.245   6.736
 7759SOL     OW24175   2.053   1.010   4.905
 7759SOL    HW124176   1.986   0.947   4.944
 7759SOL    HW224177   2.092   0.972   4.822
 7760SOL     OW24178   5.641   3.464   2.343
 7760SOL    HW124179   5.741   3.468   2.351
 7760SOL    HW224180   5.612   3.498   2.254
 7761SOL     OW24181   2.939   6.942   5.872
 7761SOL    HW124182   2.992   6.892   5.804
 7761SOL    HW224183   2.875   7.004   5.827
 7762SOL     OW24184   3.722   0.835   5.430
 7762SOL    HW124185   3.709   0.888   5.513
 7762SOL    HW224186   3.819   0.814   5.418
 7763SOL     OW24187   1.141   2.236   1.362
 7763SOL    HW124188   1.083   2.185   1.299
 7763SOL    HW224189   1.206   2.174   1.406
 7764SOL     OW24190   3.733   2.979   2.468
 7764SOL    HW124191   3.817   3.021   2.503
 7764SOL    HW224192   3.654   3.030   2.503
 7765SOL     OW24193   6.456   3.423   4.340
 7765SOL    HW124194   6.522   3.496   4.358
 7765SOL    HW224195   6.365   3.451   4.372
 7766SOL     OW24196   5.265   1.999   6.630
 7766SOL    HW124197   5.190   2.049   6.588
 7766SOL    HW224198   5.323   2.062   6.681
 7767SOL     OW24199   4.027   6.406   3.893
 7767SOL    HW124200   4.010   6.350   3.975
 7767SOL    HW224201   3.965   6.377   3.820
 7768SOL     OW24202   4.224   4.992   2.889
 7768SOL    HW124203   4.226   4.951   2.798
 7768SOL    HW224204   4.311   4.975   2.936
 7769SOL     OW24205   5.133   1.558   1.837
 7769SOL    HW124206   5.099   1.466   1.816
 7769SOL    HW224207   5.075   1.599   1.909
 7770SOL     OW24208   2.299   4.108   2.303
 7770SOL    HW124209   2.373   4.117   2.370
 7770SOL    HW224210   2.320   4.165   2.224
 7771SOL     OW24211   2.724   2.494   5.227
 7771SOL    HW124212   2.784   2.573   5.242
 7771SOL    HW224213   2.629   2.525   5.231
 7772SOL     OW24214   5.185   1.256   3.646
 7772SOL    HW124215   5.119   1.317   3.690
 7772SOL    HW224216   5.139   1.204   3.573
 7773SOL     OW24217   2.864   4.847   5.598
 7773SOL    HW124218   2.789   4.897   5.555
 7773SOL    HW224219   2.843   4.749   5.597
 7774SOL     OW24220   5.642   1.724   5.876
 7774SOL    HW124221   5.661   1.786   5.800
 7774SOL    HW224222   5.726   1.679   5.905
 7775SOL     OW24223   3.650   6.931   2.837
 7775SOL    HW124224   3.552   6.949   2.846
 7775SOL    HW224225   3.693   6.929   2.927
 7776SOL     OW24226   3.175   2.736   6.317
 7776SOL    HW124227   3.183   2.641   6.285
 7776SOL    HW224228   3.251   2.790   6.281
 7777SOL     OW24229   2.597   1.705   5.535
 7777SOL    HW124230   2.553   1.640   5.597
 7777SOL    HW224231   2.602   1.664   5.443
 7778SOL     OW24232   4.949   6.946   6.908
 7778SOL    HW124233   5.001   6.929   6.991
 7778SOL    HW224234   5.009   6.989   6.840
 7779SOL     OW24235   3.709   2.881   0.472
 7779SOL    HW124236   3.707   2.840   0.563
 7779SOL    HW224237   3.618   2.917   0.450
 7780SOL     OW24238   1.868   5.378   4.797
 7780SOL    HW124239   1.845   5.328   4.714
 7780SOL    HW224240   1.934   5.450   4.775
 7781SOL     OW24241   1.237   3.759   6.240
 7781SOL    HW124242   1.280   3.839   6.284
 7781SOL    HW224243   1.289   3.677   6.264
 7782SOL     OW24244   1.603   3.424   5.511
 7782SOL    HW124245   1.653   3.362   5.451
 7782SOL    HW224246   1.648   3.513   5.514
 7783SOL     OW24247   3.109   6.733   6.114
 7783SOL    HW124248   3.040   6.666   6.086
 7783SOL    HW224249   3.067   6.823   6.121
 7784SOL     OW24250   2.010   2.535   0.307
 7784SOL    HW124251   1.924   2.489   0.329
 7784SOL    HW224252   2.018   2.619   0.360
 7785SOL     OW24253   1.520   6.654   3.776
 7785SOL    HW124254   1.490   6.749   3.783
 7785SOL    HW224255   1.619   6.651   3.768
 7786SOL     OW24256   3.338   5.098   5.995
 7786SOL    HW124257   3.256   5.106   6.051
 7786SOL    HW224258   3.338   5.170   5.926
 7787SOL     OW24259   2.260   2.455   5.636
 7787SOL    HW124260   2.178   2.498   5.599
 7787SOL    HW224261   2.286   2.378   5.578
 7788SOL     OW24262   1.219   0.708   1.763
 7788SOL    HW124263   1.171   0.702   1.676
 7788SOL    HW224264   1.239   0.804   1.784
 7789SOL     OW24265   2.846   0.273   0.773
 7789SOL    HW124266   2.824   0.236   0.683
 7789SOL    HW224267   2.874   0.199   0.834
 7790SOL     OW24268   6.109   4.815   2.486
 7790SOL    HW124269   6.170   4.746   2.446
 7790SOL    HW224270   6.164   4.887   2.530
 7791SOL     OW24271   2.811   6.698   4.050
 7791SOL    HW124272   2.737   6.664   4.108
 7791SOL    HW224273   2.809   6.651   3.962
 7792SOL     OW24274   1.163   5.202   5.951
 7792SOL    HW124275   1.096   5.274   5.938
 7792SOL    HW224276   1.249   5.227   5.906
 7793SOL     OW24277   1.971   1.019   6.101
 7793SOL    HW124278   2.064   1.042   6.073
 7793SOL    HW224279   1.955   0.921   6.086
 7794SOL     OW24280   5.267   5.321   4.265
 7794SOL    HW124281   5.246   5.224   4.257
 7794SOL    HW224282   5.284   5.359   4.174
 7795SOL     OW24283   2.146   4.047   5.229
 7795SOL    HW124284   2.186   4.009   5.312
 7795SOL    HW224285   2.218   4.059   5.160
 7796SOL     OW24286   3.201   4.056   4.121
 7796SOL    HW124287   3.173   4.015   4.207
 7796SOL    HW224288   3.143   4.135   4.102
 7797SOL     OW24289   0.847   5.546   2.633
 7797SOL    HW124290   0.817   5.579   2.722
 7797SOL    HW224291   0.887   5.621   2.581
 7798SOL     OW24292   1.475   4.553   6.514
 7798SOL    HW124293   1.377   4.531   6.510
 7798SOL    HW224294   1.510   4.568   6.422
 7799SOL     OW24295   6.971   6.070   1.748
 7799SOL    HW124296   0.034   6.106   1.713
 7799SOL    HW224297   6.916   6.036   1.672
 7800SOL     OW24298   1.371   4.605   1.148
 7800SOL    HW124299   1.302   4.649   1.205
 7800SOL    HW224300   1.343   4.511   1.129
 7801SOL     OW24301   2.594   1.687   1.686
 7801SOL    HW124302   2.691   1.709   1.696
 7801SOL    HW224303   2.540   1.770   1.698
 7802SOL     OW24304   5.516   2.822   0.882
 7802SOL    HW124305   5.493   2.746   0.822
 7802SOL    HW224306   5.435   2.848   0.935
 7803SOL     OW24307   4.358   3.458   5.745
 7803SOL    HW124308   4.290   3.406   5.693
 7803SOL    HW224309   4.448   3.448   5.702
 7804SOL     OW24310   6.177   0.905   3.748
 7804SOL    HW124311   6.199   0.815   3.786
 7804SOL    HW224312   6.182   0.974   3.820
 7805SOL     OW24313   5.442   1.369   1.557
 7805SOL    HW124314   5.378   1.322   1.496
 7805SOL    HW224315   5.399   1.383   1.646
 7806SOL     OW24316   6.131   2.618   5.554
 7806SOL    HW124317   6.066   2.663   5.615
 7806SOL    HW224318   6.114   2.519   5.553
 7807SOL     OW24319   0.194   4.735   6.192
 7807SOL    HW124320   0.146   4.741   6.280
 7807SOL    HW224321   0.128   4.721   6.119
 7808SOL     OW24322   0.455   3.613   4.883
 7808SOL    HW124323   0.368   3.647   4.917
 7808SOL    HW224324   0.441   3.529   4.831
 7809SOL     OW24325   2.757   6.163   5.218
 7809SOL    HW124326   2.783   6.069   5.240
 7809SOL    HW224327   2.660   6.176   5.240
 7810SOL     OW24328   3.777   0.231   5.665
 7810SOL    HW124329   3.742   0.149   5.710
 7810SOL    HW224330   3.867   0.213   5.626
 7811SOL     OW24331   6.775   4.467   3.971
 7811SOL    HW124332   6.784   4.450   4.069
 7811SOL    HW224333   6.800   4.384   3.920
 7812SOL     OW24334   1.035   2.143   3.987
 7812SOL    HW124335   1.121   2.190   4.003
 7812SOL    HW224336   1.019   2.075   4.058
 7813SOL     OW24337   5.018   2.408   6.013
 7813SOL    HW124338   5.052   2.446   5.927
 7813SOL    HW224339   4.918   2.408   6.012
 7814SOL     OW24340   6.579   2.752   3.533
 7814SOL    HW124341   6.668   2.767   3.577
 7814SOL    HW224342   6.530   2.679   3.581
 7815SOL     OW24343   4.837   1.108   6.988
 7815SOL    HW124344   4.749   1.116   0.012
 7815SOL    HW224345   4.843   1.178   6.917
 7816SOL     OW24346   1.731   2.712   6.377
 7816SOL    HW124347   1.699   2.784   6.316
 7816SOL    HW224348   1.656   2.648   6.395
 7817SOL     OW24349   6.339   3.519   4.004
 7817SOL    HW124350   6.249   3.552   3.978
 7817SOL    HW224351   6.333   3.422   4.029
 7818SOL     OW24352   4.526   1.004   2.524
 7818SOL    HW124353   4.566   0.973   2.611
 7818SOL    HW224354   4.549   1.100   2.509
 7819SOL     OW24355   0.065   2.948   1.701
 7819SOL    HW124356   6.993   2.918   1.700
 7819SOL    HW224357   0.098   2.951   1.795
 7820SOL     OW24358   1.723   2.237   4.749
 7820SOL    HW124359   1.699   2.140   4.751
 7820SOL    HW224360   1.812   2.250   4.793
 7821SOL     OW24361   4.737   5.855   1.420
 7821SOL    HW124362   4.651   5.891   1.386
 7821SOL    HW224363   4.727   5.758   1.442
 7822SOL     OW24364   0.185   0.731   4.920
 7822SOL    HW124365   0.124   0.673   4.973
 7822SOL    HW224366   0.179   0.706   4.823
 7823SOL     OW24367   2.058   3.939   4.914
 7823SOL    HW124368   1.978   3.997   4.920
 7823SOL    HW224369   2.137   3.986   4.954
 7824SOL     OW24370   6.568   2.153   5.313
 7824SOL    HW124371   6.572   2.053   5.318
 7824SOL    HW224372   6.474   2.184   5.329
 7825SOL     OW24373   2.231   3.033   0.396
 7825SOL    HW124374   2.280   3.027   0.309
 7825SOL    HW224375   2.143   3.079   0.381
 7826SOL     OW24376   6.213   1.304   1.043
 7826SOL    HW124377   6.261   1.347   1.120
 7826SOL    HW224378   6.136   1.361   1.016
 7827SOL     OW24379   1.828   5.548   1.310
 7827SOL    HW124380   1.853   5.478   1.377
 7827SOL    HW224381   1.777   5.506   1.235
 7828SOL     OW24382   6.060   4.697   0.042
 7828SOL    HW124383   6.033   4.746   6.982
 7828SOL    HW224384   6.121   4.622   0.018
 7829SOL     OW24385   2.886   3.181   1.109
 7829SOL    HW124386   2.909   3.206   1.015
 7829SOL    HW224387   2.789   3.199   1.125
 7830SOL     OW24388   3.144   5.221   5.612
 7830SOL    HW124389   3.060   5.243   5.561
 7830SOL    HW224390   3.153   5.121   5.619
 7831SOL     OW24391   2.039   0.458   2.251
 7831SOL    HW124392   2.115   0.511   2.288
 7831SOL    HW224393   1.977   0.432   2.326
 7832SOL     OW24394   5.921   0.483   4.603
 7832SOL    HW124395   6.012   0.522   4.611
 7832SOL    HW224396   5.853   0.552   4.626
 7833SOL     OW24397   1.234   0.882   4.781
 7833SOL    HW124398   1.308   0.849   4.723
 7833SOL    HW224399   1.148   0.843   4.750
 7834SOL     OW24400   0.244   1.726   3.413
 7834SOL    HW124401   0.323   1.673   3.382
 7834SOL    HW224402   0.163   1.667   3.414
 7835SOL     OW24403   4.170   1.761   4.835
 7835SOL    HW124404   4.112   1.830   4.878
 7835SOL    HW224405   4.214   1.800   4.754
 7836SOL     OW24406   2.997   4.079   5.472
 7836SOL    HW124407   2.929   4.046   5.538
 7836SOL    HW224408   2.956   4.149   5.414
 7837SOL     OW24409   5.198   5.912   0.136
 7837SOL    HW124410   5.117   5.954   0.095
 7837SOL    HW224411   5.253   5.983   0.180
 7838SOL     OW24412   4.481   5.991   1.348
 7838SOL    HW124413   4.503   6.037   1.263
 7838SOL    HW224414   4.472   6.058   1.422
 7839SOL     OW24415   5.819   3.960   4.964
 7839SOL    HW124416   5.735   4.011   4.981
 7839SOL    HW224417   5.796   3.865   4.940
 7840SOL     OW24418   0.604   3.802   4.720
 7840SOL    HW124419   0.702   3.794   4.702
 7840SOL    HW224420   0.570   3.716   4.758
 7841SOL     OW24421   4.067   1.688   6.629
 7841SOL    HW124422   3.990   1.721   6.684
 7841SOL    HW224423   4.150   1.687   6.685
 7842SOL     OW24424   1.931   1.347   2.372
 7842SOL    HW124425   1.922   1.409   2.450
 7842SOL    HW224426   1.993   1.387   2.305
 7843SOL     OW24427   0.309   6.683   3.795
 7843SOL    HW124428   0.380   6.615   3.811
 7843SOL    HW224429   0.256   6.658   3.714
 7844SOL     OW24430   3.955   0.242   2.212
 7844SOL    HW124431   3.875   0.298   2.234
 7844SOL    HW224432   3.929   0.146   2.213
 7845SOL     OW24433   5.419   2.024   2.040
 7845SOL    HW124434   5.387   2.119   2.040
 7845SOL    HW224435   5.369   1.973   2.110
 7846SOL     OW24436   1.093   2.180   0.693
 7846SOL    HW124437   1.002   2.140   0.701
 7846SOL    HW224438   1.086   2.269   0.647
 7847SOL     OW24439   6.506   1.350   4.039
 7847SOL    HW124440   6.597   1.313   4.056
 7847SOL    HW224441   6.504   1.398   3.951
 7848SOL     OW24442   3.193   4.331   0.785
 7848SOL    HW124443   3.110   4.317   0.730
 7848SOL    HW224444   3.199   4.427   0.812
 7849SOL     OW24445   6.060   3.765   5.190
 7849SOL    HW124446   6.088   3.859   5.175
 7849SOL    HW224447   5.986   3.742   5.126
 7850SOL     OW24448   0.266   2.059   3.874
 7850SOL    HW124449   0.341   2.001   3.844
 7850SOL    HW224450   0.179   2.021   3.843
 7851SOL     OW24451   0.736   2.683   1.922
 7851SOL    HW124452   0.772   2.694   1.830
 7851SOL    HW224453   0.733   2.585   1.945
 7852SOL     OW24454   2.877   0.706   0.410
 7852SOL    HW124455   2.783   0.736   0.394
 7852SOL    HW224456   2.940   0.782   0.390
 7853SOL     OW24457   4.597   3.110   1.350
 7853SOL    HW124458   4.587   3.017   1.317
 7853SOL    HW224459   4.668   3.157   1.298
 7854SOL     OW24460   3.645   2.574   6.231
 7854SOL    HW124461   3.721   2.509   6.232
 7854SOL    HW224462   3.569   2.537   6.284
 7855SOL     OW24463   4.673   5.997   4.780
 7855SOL    HW124464   4.736   5.930   4.743
 7855SOL    HW224465   4.623   6.041   4.705
 7856SOL     OW24466   0.381   5.138   5.487
 7856SOL    HW124467   0.418   5.227   5.460
 7856SOL    HW224468   0.346   5.090   5.407
 7857SOL     OW24469   4.828   3.621   0.390
 7857SOL    HW124470   4.888   3.564   0.334
 7857SOL    HW224471   4.855   3.614   0.486
 7858SOL     OW24472   6.688   6.230   4.519
 7858SOL    HW124473   6.724   6.154   4.573
 7858SOL    HW224474   6.588   6.227   4.520
 7859SOL     OW24475   4.452   3.567   6.729
 7859SOL    HW124476   4.456   3.500   6.803
 7859SOL    HW224477   4.513   3.643   6.750
 7860SOL     OW24478   4.094   1.265   4.616
 7860SOL    HW124479   4.098   1.361   4.641
 7860SOL    HW224480   4.157   1.248   4.539
 7861SOL     OW24481   2.637   5.142   1.671
 7861SOL    HW124482   2.619   5.129   1.768
 7861SOL    HW224483   2.623   5.056   1.622
 7862SOL     OW24484   2.307   6.043   2.187
 7862SOL    HW124485   2.373   5.995   2.246
 7862SOL    HW224486   2.350   6.063   2.099
 7863SOL     OW24487   0.710   4.691   3.594
 7863SOL    HW124488   0.700   4.740   3.680
 7863SOL    HW224489   0.658   4.739   3.522
 7864SOL     OW24490   1.424   5.537   6.477
 7864SOL    HW124491   1.333   5.515   6.440
 7864SOL    HW224492   1.481   5.574   6.404
 7865SOL     OW24493   6.260   5.642   4.136
 7865SOL    HW124494   6.280   5.614   4.042
 7865SOL    HW224495   6.163   5.626   4.156
 7866SOL     OW24496   1.983   0.593   5.794
 7866SOL    HW124497   1.931   0.666   5.749
 7866SOL    HW224498   1.977   0.509   5.740
 7867SOL     OW24499   5.645   6.729   3.135
 7867SOL    HW124500   5.613   6.702   3.226
 7867SOL    HW224501   5.734   6.774   3.143
 7868SOL     OW24502   3.563   5.744   0.774
 7868SOL    HW124503   3.545   5.736   0.676
 7868SOL    HW224504   3.642   5.803   0.789
 7869SOL     OW24505   4.998   4.781   5.725
 7869SOL    HW124506   5.065   4.843   5.685
 7869SOL    HW224507   4.994   4.697   5.670
 7870SOL     OW24508   5.080   6.970   4.641
 7870SOL    HW124509   4.985   6.979   4.669
 7870SOL    HW224510   5.092   7.013   4.551
 7871SOL     OW24511   5.826   2.049   1.972
 7871SOL    HW124512   5.827   2.032   1.873
 7871SOL    HW224513   5.732   2.061   2.003
 7872SOL     OW24514   1.733   4.608   2.394
 7872SOL    HW124515   1.762   4.512   2.390
 7872SOL    HW224516   1.813   4.667   2.389
 7873SOL     OW24517   6.463   1.049   0.152
 7873SOL    HW124518   6.412   1.036   0.067
 7873SOL    HW224519   6.558   1.072   0.131
 7874SOL     OW24520   4.882   2.510   1.089
 7874SOL    HW124521   4.915   2.557   1.007
 7874SOL    HW224522   4.931   2.423   1.099
 7875SOL     OW24523   3.900   3.314   0.612
 7875SOL    HW124524   3.957   3.233   0.594
 7875SOL    HW224525   3.803   3.287   0.610
 7876SOL     OW24526   1.224   6.699   3.645
 7876SOL    HW124527   1.127   6.726   3.651
 7876SOL    HW224528   1.280   6.765   3.695
 7877SOL     OW24529   6.921   2.143   2.965
 7877SOL    HW124530   6.830   2.106   2.945
 7877SOL    HW224531   6.990   2.073   2.949
 7878SOL     OW24532   4.800   4.030   3.547
 7878SOL    HW124533   4.763   4.029   3.454
 7878SOL    HW224534   4.844   3.942   3.566
 7879SOL     OW24535   3.363   4.989   2.778
 7879SOL    HW124536   3.448   4.990   2.726
 7879SOL    HW224537   3.289   5.026   2.722
 7880SOL     OW24538   2.598   3.404   1.097
 7880SOL    HW124539   2.575   3.308   1.081
 7880SOL    HW224540   2.516   3.460   1.085
 7881SOL     OW24541   4.818   4.050   4.222
 7881SOL    HW124542   4.803   4.045   4.321
 7881SOL    HW224543   4.754   4.116   4.182
 7882SOL     OW24544   2.084   3.472   1.505
 7882SOL    HW124545   2.123   3.409   1.438
 7882SOL    HW224546   2.077   3.425   1.593
 7883SOL     OW24547   1.156   0.073   5.864
 7883SOL    HW124548   1.159   0.052   5.961
 7883SOL    HW224549   1.062   0.067   5.831
 7884SOL     OW24550   0.935   4.529   4.252
 7884SOL    HW124551   0.868   4.456   4.268
 7884SOL    HW224552   0.978   4.554   4.339
 7885SOL     OW24553   6.717   5.616   0.736
 7885SOL    HW124554   6.639   5.677   0.734
 7885SOL    HW224555   6.761   5.619   0.826
 7886SOL     OW24556   4.009   5.541   0.416
 7886SOL    HW124557   4.023   5.443   0.412
 7886SOL    HW224558   4.084   5.584   0.466
 7887SOL     OW24559   3.107   2.223   6.915
 7887SOL    HW124560   3.145   2.158   6.980
 7887SOL    HW224561   3.058   2.295   6.964
 7888SOL     OW24562   5.255   0.765   3.812
 7888SOL    HW124563   5.166   0.742   3.850
 7888SOL    HW224564   5.246   0.790   3.716
 7889SOL     OW24565   1.529   5.265   1.523
 7889SOL    HW124566   1.486   5.186   1.567
 7889SOL    HW224567   1.624   5.242   1.502
 7890SOL     OW24568   1.973   3.925   2.391
 7890SOL    HW124569   1.973   4.025   2.402
 7890SOL    HW224570   1.890   3.888   2.433
 7891SOL     OW24571   2.060   4.996   2.666
 7891SOL    HW124572   2.031   4.916   2.614
 7891SOL    HW224573   1.982   5.032   2.717
 7892SOL     OW24574   2.049   2.332   4.587
 7892SOL    HW124575   1.980   2.326   4.515
 7892SOL    HW224576   2.011   2.300   4.674
 7893SOL     OW24577   6.183   6.930   1.628
 7893SOL    HW124578   6.273   6.975   1.625
 7893SOL    HW224579   6.196   6.831   1.619
 7894SOL     OW24580   2.763   6.442   1.968
 7894SOL    HW124581   2.842   6.381   1.973
 7894SOL    HW224582   2.793   6.537   1.973
 7895SOL     OW24583   6.301   1.407   5.319
 7895SOL    HW124584   6.254   1.462   5.251
 7895SOL    HW224585   6.331   1.321   5.278
 7896SOL     OW24586   4.828   4.200   6.132
 7896SOL    HW124587   4.759   4.270   6.120
 7896SOL    HW224588   4.821   4.162   6.225
 7897SOL     OW24589   2.836   3.584   6.094
 7897SOL    HW124590   2.814   3.644   6.017
 7897SOL    HW224591   2.762   3.519   6.109
 7898SOL     OW24592   4.948   2.193   3.880
 7898SOL    HW124593   4.876   2.260   3.862
 7898SOL    HW224594   5.037   2.233   3.861
 7899SOL     OW24595   6.640   1.933   1.418
 7899SOL    HW124596   6.694   1.970   1.343
 7899SOL    HW224597   6.614   1.839   1.398
 7900SOL     OW24598   1.344   5.252   1.042
 7900SOL    HW124599   1.383   5.168   1.004
 7900SOL    HW224600   1.359   5.328   0.978
 7901SOL     OW24601   5.003   0.197   6.061
 7901SOL    HW124602   4.911   0.196   6.023
 7901SOL    HW224603   5.067   0.160   5.994
 7902SOL     OW24604   4.689   5.264   1.798
 7902SOL    HW124605   4.751   5.224   1.731
 7902SOL    HW224606   4.708   5.362   1.806
 7903SOL     OW24607   6.079   2.322   0.326
 7903SOL    HW124608   6.152   2.376   0.283
 7903SOL    HW224609   6.093   2.322   0.425
 7904SOL     OW24610   6.298   0.585   2.939
 7904SOL    HW124611   6.340   0.585   3.030
 7904SOL    HW224612   6.368   0.602   2.870
 7905SOL     OW24613   4.695   1.688   0.554
 7905SOL    HW124614   4.698   1.665   0.457
 7905SOL    HW224615   4.713   1.785   0.567
 7906SOL     OW24616   0.084   5.907   6.800
 7906SOL    HW124617   0.099   5.920   6.702
 7906SOL    HW224618   0.097   5.811   6.823
 7907SOL     OW24619   6.153   2.821   4.420
 7907SOL    HW124620   6.221   2.796   4.351
 7907SOL    HW224621   6.132   2.741   4.476
 7908SOL     OW24622   1.497   0.992   3.806
 7908SOL    HW124623   1.523   1.086   3.826
 7908SOL    HW224624   1.579   0.940   3.781
 7909SOL     OW24625   4.895   3.772   4.738
 7909SOL    HW124626   4.862   3.708   4.807
 7909SOL    HW224627   4.915   3.723   4.653
 7910SOL     OW24628   3.427   2.972   5.071
 7910SOL    HW124629   3.518   2.934   5.086
 7910SOL    HW224630   3.389   2.935   4.986
 7911SOL     OW24631   0.380   4.487   0.029
 7911SOL    HW124632   0.337   4.481   0.119
 7911SOL    HW224633   0.362   4.577   7.013
 7912SOL     OW24634   6.846   5.430   0.080
 7912SOL    HW124635   6.860   5.342   0.036
 7912SOL    HW224636   6.750   5.438   0.107
 7913SOL     OW24637   0.598   5.637   6.635
 7913SOL    HW124638   0.623   5.542   6.654
 7913SOL    HW224639   0.596   5.652   6.536
 7914SOL     OW24640   0.273   4.722   0.131
 7914SOL    HW124641   0.290   4.764   0.220
 7914SOL    HW224642   0.312   4.778   0.058
 7915SOL     OW24643   4.867   2.481   2.616
 7915SOL    HW124644   4.824   2.572   2.616
 7915SOL    HW224645   4.798   2.411   2.633
 7916SOL     OW24646   5.493   3.860   5.074
 7916SOL    HW124647   5.575   3.810   5.103
 7916SOL    HW224648   5.485   3.944   5.128
 7917SOL     OW24649   3.964   3.066   3.826
 7917SOL    HW124650   3.974   3.045   3.923
 7917SOL    HW224651   3.999   3.158   3.808
 7918SOL     OW24652   6.212   1.902   1.353
 7918SOL    HW124653   6.191   1.946   1.441
 7918SOL    HW224654   6.249   1.970   1.290
 7919SOL     OW24655   7.007   4.140   3.494
 7919SOL    HW124656   0.057   4.154   3.428
 7919SOL    HW224657   6.925   4.108   3.447
 7920SOL     OW24658   0.010   5.183   1.169
 7920SOL    HW124659   0.049   5.261   1.219
 7920SOL    HW224660   6.996   5.118   1.234
 7921SOL     OW24661   3.456   6.404   0.480
 7921SOL    HW124662   3.462   6.347   0.562
 7921SOL    HW224663   3.360   6.426   0.462
 7922SOL     OW24664   6.505   5.841   0.172
 7922SOL    HW124665   6.545   5.932   0.165
 7922SOL    HW224666   6.417   5.839   0.125
 7923SOL     OW24667   1.971   0.967   2.983
 7923SOL    HW124668   1.949   1.059   3.017
 7923SOL    HW224669   2.048   0.930   3.035
 7924SOL     OW24670   3.353   6.432   3.476
 7924SOL    HW124671   3.274   6.376   3.500
 7924SOL    HW224672   3.420   6.428   3.550
 7925SOL     OW24673   6.968   1.793   6.524
 7925SOL    HW124674   6.966   1.714   6.464
 7925SOL    HW224675   6.957   1.877   6.470
 7926SOL     OW24676   4.210   0.869   3.734
 7926SOL    HW124677   4.212   0.776   3.769
 7926SOL    HW224678   4.115   0.900   3.727
 7927SOL     OW24679   4.130   5.528   4.787
 7927SOL    HW124680   4.052   5.496   4.733
 7927SOL    HW224681   4.192   5.452   4.803
 7928SOL     OW24682   1.147   4.052   3.572
 7928SOL    HW124683   1.188   4.079   3.659
 7928SOL    HW224684   1.103   4.131   3.530
 7929SOL     OW24685   4.156   3.632   5.148
 7929SOL    HW124686   4.230   3.589   5.097
 7929SOL    HW224687   4.121   3.711   5.096
 7930SOL     OW24688   4.626   5.600   3.342
 7930SOL    HW124689   4.694   5.575   3.412
 7930SOL    HW224690   4.560   5.664   3.381
 7931SOL     OW24691   2.024   2.085   6.986
 7931SOL    HW124692   2.069   2.016   0.019
 7931SOL    HW224693   2.091   2.153   6.956
 7932SOL     OW24694   2.444   0.150   7.008
 7932SOL    HW124695   2.385   0.116   0.058
 7932SOL    HW224696   2.425   0.247   6.993
 7933SOL     OW24697   0.474   0.044   0.338
 7933SOL    HW124698   0.422   0.127   0.358
 7933SOL    HW224699   0.531   0.021   0.417
 7934SOL     OW24700   2.573   3.457   0.071
 7934SOL    HW124701   2.500   3.459   0.139
 7934SOL    HW224702   2.644   3.392   0.100
 7935SOL     OW24703   5.237   5.725   6.937
 7935SOL    HW124704   5.162   5.742   6.873
 7935SOL    HW224705   5.252   5.807   6.992
 7936SOL     OW24706   3.369   5.617   2.837
 7936SOL    HW124707   3.393   5.682   2.765
 7936SOL    HW224708   3.316   5.541   2.797
 7937SOL     OW24709   5.134   0.065   4.392
 7937SOL    HW124710   5.195   7.022   4.348
 7937SOL    HW224711   5.189   0.143   4.423
 7938SOL     OW24712   5.086   4.911   4.945
 7938SOL    HW124713   5.121   4.969   4.871
 7938SOL    HW224714   5.108   4.815   4.924
 7939SOL     OW24715   1.012   1.593   6.230
 7939SOL    HW124716   1.004   1.495   6.213
 7939SOL    HW224717   0.992   1.612   6.326
 7940SOL     OW24718   2.641   5.109   1.937
 7940SOL    HW124719   2.652   5.099   2.036
 7940SOL    HW224720   2.682   5.030   1.891
 7941SOL     OW24721   6.481   6.784   1.498
 7941SOL    HW124722   6.396   6.747   1.536
 7941SOL    HW224723   6.493   6.751   1.405
 7942SOL     OW24724   0.010   6.552   2.813
 7942SOL    HW124725   0.099   6.525   2.776
 7942SOL    HW224726   6.993   6.475   2.862
 7943SOL     OW24727   5.677   2.060   1.148
 7943SOL    HW124728   5.704   2.154   1.171
 7943SOL    HW224729   5.749   1.997   1.176
 7944SOL     OW24730   0.159   3.432   0.963
 7944SOL    HW124731   0.086   3.462   1.025
 7944SOL    HW224732   0.121   3.418   0.872
 7945SOL     OW24733   5.392   6.945   2.547
 7945SOL    HW124734   5.428   0.003   2.593
 7945SOL    HW224735   5.355   6.971   2.457
 7946SOL     OW24736   1.411   2.474   5.872
 7946SOL    HW124737   1.435   2.514   5.960
 7946SOL    HW224738   1.492   2.435   5.830
 7947SOL     OW24739   4.010   2.914   6.582
 7947SOL    HW124740   4.106   2.927   6.606
 7947SOL    HW224741   3.978   2.826   6.620
 7948SOL     OW24742   6.500   6.792   1.207
 7948SOL    HW124743   6.534   6.884   1.188
 7948SOL    HW224744   6.405   6.785   1.179
 7949SOL     OW24745   5.071   5.097   4.300
 7949SOL    HW124746   5.023   5.010   4.314
 7949SOL    HW224747   5.056   5.128   4.206
 7950SOL     OW24748   4.721   5.041   3.428
 7950SOL    HW124749   4.626   5.012   3.441
 7950SOL    HW224750   4.780   4.960   3.422
 7951SOL     OW24751   2.818   3.435   0.945
 7951SOL    HW124752   2.886   3.474   1.007
 7951SOL    HW224753   2.734   3.413   0.996
 7952SOL     OW24754   7.014   2.966   6.446
 7952SOL    HW124755   0.064   3.031   6.430
 7952SOL    HW224756   0.030   2.875   6.463
 7953SOL     OW24757   2.083   2.742   3.030
 7953SOL    HW124758   2.043   2.834   3.031
 7953SOL    HW224759   2.031   2.682   3.090
 7954SOL     OW24760   4.622   5.229   4.686
 7954SOL    HW124761   4.612   5.263   4.593
 7954SOL    HW224762   4.534   5.232   4.732
 7955SOL     OW24763   6.958   6.465   6.485
 7955SOL    HW124764   6.924   6.557   6.505
 7955SOL    HW224765   0.033   6.469   6.468
 7956SOL     OW24766   0.503   5.610   3.104
 7956SOL    HW124767   0.505   5.561   3.017
 7956SOL    HW224768   0.414   5.599   3.147
 7957SOL     OW24769   2.358   1.868   0.607
 7957SOL    HW124770   2.431   1.933   0.587
 7957SOL    HW224771   2.301   1.902   0.681
 7958SOL     OW24772   3.259   5.618   4.441
 7958SOL    HW124773   3.308   5.698   4.409
 7958SOL    HW224774   3.321   5.559   4.493
 7959SOL     OW24775   4.157   4.980   0.455
 7959SOL    HW124776   4.167   4.884   0.432
 7959SOL    HW224777   4.061   5.006   0.453
 7960SOL     OW24778   3.654   1.984   1.495
 7960SOL    HW124779   3.645   1.901   1.440
 7960SOL    HW224780   3.640   2.064   1.437
 7961SOL     OW24781   2.280   6.112   6.052
 7961SOL    HW124782   2.357   6.173   6.031
 7961SOL    HW224783   2.202   6.167   6.082
 7962SOL     OW24784   2.289   0.379   1.035
 7962SOL    HW124785   2.231   0.458   1.052
 7962SOL    HW224786   2.262   0.304   1.097
 7963SOL     OW24787   0.118   1.573   4.668
 7963SOL    HW124788   0.082   1.666   4.676
 7963SOL    HW224789   0.145   1.556   4.573
 7964SOL     OW24790   5.937   5.285   3.794
 7964SOL    HW124791   5.949   5.320   3.887
 7964SOL    HW224792   6.026   5.260   3.756
 7965SOL     OW24793   4.419   2.876   0.043
 7965SOL    HW124794   4.368   2.790   0.032
 7965SOL    HW224795   4.420   2.901   0.140
 7966SOL     OW24796   1.383   3.567   4.756
 7966SOL    HW124797   1.323   3.561   4.836
 7966SOL    HW224798   1.392   3.477   4.714
 7967SOL     OW24799   2.785   6.569   3.776
 7967SOL    HW124800   2.876   6.534   3.753
 7967SOL    HW224801   2.728   6.494   3.811
 7968SOL     OW24802   2.204   2.969   3.281
 7968SOL    HW124803   2.249   2.886   3.248
 7968SOL    HW224804   2.163   2.952   3.370
 7969SOL     OW24805   4.252   0.043   2.033
 7969SOL    HW124806   4.201   0.039   2.119
 7969SOL    HW224807   4.216   6.998   1.970
 7970SOL     OW24808   0.136   3.900   2.666
 7970SOL    HW124809   0.148   3.965   2.590
 7970SOL    HW224810   0.142   3.807   2.631
 7971SOL     OW24811   3.481   1.031   1.901
 7971SOL    HW124812   3.561   1.089   1.914
 7971SOL    HW224813   3.402   1.071   1.948
 7972SOL     OW24814   6.609   4.120   1.208
 7972SOL    HW124815   6.509   4.111   1.215
 7972SOL    HW224816   6.651   4.083   1.291
 7973SOL     OW24817   5.249   3.428   3.670
 7973SOL    HW124818   5.267   3.482   3.753
 7973SOL    HW224819   5.333   3.422   3.616
 7974SOL     OW24820   6.057   0.275   4.458
 7974SOL    HW124821   5.976   0.328   4.480
 7974SOL    HW224822   6.056   0.190   4.511
 7975SOL     OW24823   5.353   0.624   4.132
 7975SOL    HW124824   5.289   0.698   4.109
 7975SOL    HW224825   5.325   0.540   4.085
 7976SOL     OW24826   0.314   6.597   5.444
 7976SOL    HW124827   0.293   6.688   5.410
 7976SOL    HW224828   0.282   6.588   5.538
 7977SOL     OW24829   4.110   6.128   2.674
 7977SOL    HW124830   4.174   6.126   2.751
 7977SOL    HW224831   4.101   6.221   2.640
 7978SOL     OW24832   5.736   4.466   6.113
 7978SOL    HW124833   5.711   4.519   6.194
 7978SOL    HW224834   5.672   4.487   6.038
 7979SOL     OW24835   2.897   0.247   4.971
 7979SOL    HW124836   2.830   0.215   5.038
 7979SOL    HW224837   2.964   0.174   4.954
 7980SOL     OW24838   3.690   5.336   0.070
 7980SOL    HW124839   3.714   5.250   0.024
 7980SOL    HW224840   3.772   5.393   0.078
 7981SOL     OW24841   1.010   5.449   1.447
 7981SOL    HW124842   1.039   5.357   1.471
 7981SOL    HW224843   0.967   5.493   1.525
 7982SOL     OW24844   6.875   2.402   0.924
 7982SOL    HW124845   6.799   2.458   0.892
 7982SOL    HW224846   6.951   2.411   0.859
 7983SOL     OW24847   5.445   2.328   3.316
 7983SOL    HW124848   5.474   2.275   3.236
 7983SOL    HW224849   5.376   2.395   3.289
 7984SOL     OW24850   1.372   1.710   1.870
 7984SOL    HW124851   1.314   1.745   1.796
 7984SOL    HW224852   1.452   1.769   1.879
 7985SOL     OW24853   1.682   0.160   2.830
 7985SOL    HW124854   1.665   0.091   2.760
 7985SOL    HW224855   1.734   0.236   2.790
 7986SOL     OW24856   3.473   1.109   0.260
 7986SOL    HW124857   3.388   1.131   0.213
 7986SOL    HW224858   3.467   1.017   0.299
 7987SOL     OW24859   0.534   3.554   6.274
 7987SOL    HW124860   0.599   3.489   6.314
 7987SOL    HW224861   0.495   3.610   6.347
 7988SOL     OW24862   2.545   2.514   4.590
 7988SOL    HW124863   2.470   2.467   4.544
 7988SOL    HW224864   2.628   2.459   4.582
 7989SOL     OW24865   3.497   2.690   5.346
 7989SOL    HW124866   3.517   2.594   5.325
 7989SOL    HW224867   3.411   2.716   5.301
 7990SOL     OW24868   0.986   3.825   3.164
 7990SOL    HW124869   0.935   3.739   3.172
 7990SOL    HW224870   0.923   3.902   3.172
 7991SOL     OW24871   6.863   2.211   5.988
 7991SOL    HW124872   6.927   2.188   5.914
 7991SOL    HW224873   6.805   2.287   5.959
 7992SOL     OW24874   1.235   6.060   1.109
 7992SOL    HW124875   1.333   6.045   1.103
 7992SOL    HW224876   1.193   5.989   1.165
 7993SOL     OW24877   1.909   5.604   6.365
 7993SOL    HW124878   1.903   5.532   6.434
 7993SOL    HW224879   1.912   5.693   6.410
 7994SOL     OW24880   4.609   0.243   3.654
 7994SOL    HW124881   4.685   0.257   3.591
 7994SOL    HW224882   4.632   0.282   3.743
 7995SOL     OW24883   3.760   5.330   3.649
 7995SOL    HW124884   3.815   5.281   3.581
 7995SOL    HW224885   3.715   5.407   3.605
 7996SOL     OW24886   3.383   6.267   4.429
 7996SOL    HW124887   3.313   6.196   4.427
 7996SOL    HW224888   3.367   6.331   4.354
 7997SOL     OW24889   6.437   2.077   1.501
 7997SOL    HW124890   6.522   2.024   1.504
 7997SOL    HW224891   6.433   2.129   1.416
 7998SOL     OW24892   4.473   5.088   0.488
 7998SOL    HW124893   4.383   5.067   0.450
 7998SOL    HW224894   4.537   5.105   0.414
 7999SOL     OW24895   1.327   6.849   5.869
 7999SOL    HW124896   1.262   6.817   5.800
 7999SOL    HW224897   1.297   6.937   5.906
 8000SOL     OW24898   5.697   0.217   6.378
 8000SOL    HW124899   5.621   0.170   6.333
 8000SOL    HW224900   5.715   0.304   6.331
 8001SOL     OW24901   2.917   6.206   1.919
 8001SOL    HW124902   2.874   6.211   2.010
 8001SOL    HW224903   2.952   6.114   1.904
 8002SOL     OW24904   0.450   3.492   5.936
 8002SOL    HW124905   0.438   3.498   5.837
 8002SOL    HW224906   0.374   3.441   5.976
 8003SOL     OW24907   2.769   4.704   2.735
 8003SOL    HW124908   2.779   4.652   2.650
 8003SOL    HW224909   2.858   4.713   2.779
 8004SOL     OW24910   1.671   4.790   3.244
 8004SOL    HW124911   1.647   4.722   3.174
 8004SOL    HW224912   1.647   4.755   3.334
 8005SOL     OW24913   3.644   1.481   2.327
 8005SOL    HW124914   3.673   1.396   2.283
 8005SOL    HW224915   3.562   1.464   2.381
 8006SOL     OW24916   2.625   5.852   0.624
 8006SOL    HW124917   2.692   5.893   0.563
 8006SOL    HW224918   2.639   5.753   0.628
 8007SOL     OW24919   0.430   0.408   4.157
 8007SOL    HW124920   0.474   0.457   4.082
 8007SOL    HW224921   0.499   0.370   4.218
 8008SOL     OW24922   4.856   6.644   6.166
 8008SOL    HW124923   4.856   6.722   6.229
 8008SOL    HW224924   4.761   6.619   6.143
 8009SOL     OW24925   6.281   0.086   2.772
 8009SOL    HW124926   6.290   7.010   2.769
 8009SOL    HW224927   6.188   0.111   2.744
 8010SOL     OW24928   1.984   1.636   6.840
 8010SOL    HW124929   1.890   1.614   6.865
 8010SOL    HW224930   2.045   1.563   6.871
 8011SOL     OW24931   1.969   2.436   1.440
 8011SOL    HW124932   2.035   2.428   1.515
 8011SOL    HW224933   1.881   2.468   1.476
 8012SOL     OW24934   1.574   5.801   1.079
 8012SOL    HW124935   1.539   5.818   0.987
 8012SOL    HW224936   1.557   5.705   1.104
 8013SOL     OW24937   0.569   5.170   4.675
 8013SOL    HW124938   0.492   5.229   4.700
 8013SOL    HW224939   0.581   5.100   4.745
 8014SOL     OW24940   1.326   6.113   5.488
 8014SOL    HW124941   1.275   6.061   5.556
 8014SOL    HW224942   1.366   6.051   5.421
 8015SOL     OW24943   3.046   1.654   0.516
 8015SOL    HW124944   3.099   1.656   0.601
 8015SOL    HW224945   3.029   1.559   0.489
 8016SOL     OW24946   4.526   0.278   0.312
 8016SOL    HW124947   4.543   0.180   0.299
 8016SOL    HW224948   4.568   0.329   0.238
 8017SOL     OW24949   6.855   4.548   5.981
 8017SOL    HW124950   6.899   4.634   6.006
 8017SOL    HW224951   6.785   4.565   5.912
 8018SOL     OW24952   5.054   2.047   5.735
 8018SOL    HW124953   4.983   1.983   5.764
 8018SOL    HW224954   5.013   2.137   5.717
 8019SOL     OW24955   1.899   3.774   0.027
 8019SOL    HW124956   1.917   3.872   0.026
 8019SOL    HW224957   1.825   3.752   6.987
 8020SOL     OW24958   5.808   6.751   0.074
 8020SOL    HW124959   5.828   6.655   0.093
 8020SOL    HW224960   5.872   6.786   0.006
 8021SOL     OW24961   0.998   1.521   2.045
 8021SOL    HW124962   0.985   1.428   2.011
 8021SOL    HW224963   1.052   1.519   2.129
 8022SOL     OW24964   4.054   0.938   3.046
 8022SOL    HW124965   4.121   0.900   2.982
 8022SOL    HW224966   4.059   0.889   3.133
 8023SOL     OW24967   5.785   6.012   3.434
 8023SOL    HW124968   5.735   6.054   3.358
 8023SOL    HW224969   5.800   6.079   3.506
 8024SOL     OW24970   3.224   5.448   6.751
 8024SOL    HW124971   3.138   5.402   6.732
 8024SOL    HW224972   3.222   5.540   6.711
 8025SOL     OW24973   3.719   6.739   5.822
 8025SOL    HW124974   3.694   6.710   5.729
 8025SOL    HW224975   3.688   6.670   5.887
 8026SOL     OW24976   0.451   3.723   6.718
 8026SOL    HW124977   0.362   3.718   6.671
 8026SOL    HW224978   0.437   3.756   6.811
 8027SOL     OW24979   4.662   2.241   5.567
 8027SOL    HW124980   4.613   2.169   5.616
 8027SOL    HW224981   4.632   2.330   5.600
 8028SOL     OW24982   3.524   4.634   5.403
 8028SOL    HW124983   3.486   4.542   5.398
 8028SOL    HW224984   3.615   4.630   5.443
 8029SOL     OW24985   5.444   4.100   6.365
 8029SOL    HW124986   5.386   4.108   6.284
 8029SOL    HW224987   5.537   4.076   6.336
 8030SOL     OW24988   5.637   3.954   5.634
 8030SOL    HW124989   5.573   4.026   5.607
 8030SOL    HW224990   5.620   3.928   5.729
 8031SOL     OW24991   5.036   5.919   2.183
 8031SOL    HW124992   5.132   5.894   2.195
 8031SOL    HW224993   5.026   6.018   2.195
 8032SOL     OW24994   6.140   4.214   5.161
 8032SOL    HW124995   6.226   4.174   5.192
 8032SOL    HW224996   6.137   4.213   5.061
 8033SOL     OW24997   5.199   2.969   6.882
 8033SOL    HW124998   5.099   2.970   6.890
 8033SOL    HW224999   5.239   2.951   6.971
 8034SOL     OW25000   6.427   1.152   5.220
 8034SOL    HW125001   6.503   1.175   5.159
 8034SOL    HW225002   6.385   1.067   5.191
 8035SOL     OW25003   5.232   0.284   4.894
 8035SOL    HW125004   5.328   0.291   4.867
 8035SOL    HW225005   5.204   0.188   4.891
 8036SOL     OW25006   1.400   3.418   1.870
 8036SOL    HW125007   1.385   3.422   1.969
 8036SOL    HW225008   1.378   3.327   1.836
 8037SOL     OW25009   1.652   3.208   1.877
 8037SOL    HW125010   1.722   3.168   1.818
 8037SOL    HW225011   1.665   3.307   1.881
 8038SOL     OW25012   5.327   2.109   2.900
 8038SOL    HW125013   5.363   2.048   2.829
 8038SOL    HW225014   5.404   2.148   2.952
 8039SOL     OW25015   1.756   6.897   3.417
 8039SOL    HW125016   1.815   6.977   3.431
 8039SOL    HW225017   1.706   6.877   3.501
 8040SOL     OW25018   0.563   5.047   0.838
 8040SOL    HW125019   0.562   4.953   0.805
 8040SOL    HW225020   0.492   5.058   0.908
 8041SOL     OW25021   4.013   1.920   1.801
 8041SOL    HW125022   4.112   1.925   1.812
 8041SOL    HW225023   3.977   2.010   1.776
 8042SOL     OW25024   3.287   2.804   1.964
 8042SOL    HW125025   3.283   2.895   2.006
 8042SOL    HW225026   3.307   2.735   2.034
 8043SOL     OW25027   3.006   6.954   0.523
 8043SOL    HW125028   2.940   6.906   0.581
 8043SOL    HW225029   2.958   7.004   0.451
 8044SOL     OW25030   3.024   2.906   1.215
 8044SOL    HW125031   2.982   2.976   1.158
 8044SOL    HW225032   2.974   2.820   1.206
 8045SOL     OW25033   5.647   1.327   1.991
 8045SOL    HW125034   5.642   1.234   2.027
 8045SOL    HW225035   5.666   1.324   1.893
 8046SOL     OW25036   6.100   4.712   6.021
 8046SOL    HW125037   6.069   4.748   6.110
 8046SOL    HW225038   6.043   4.633   5.996
 8047SOL     OW25039   3.246   5.006   4.685
 8047SOL    HW125040   3.253   5.034   4.781
 8047SOL    HW225041   3.151   4.987   4.662
 8048SOL     OW25042   5.512   1.307   4.998
 8048SOL    HW125043   5.567   1.376   4.951
 8048SOL    HW225044   5.540   1.303   5.094
 8049SOL     OW25045   0.877   6.445   1.768
 8049SOL    HW125046   0.950   6.513   1.771
 8049SOL    HW225047   0.883   6.386   1.848
 8050SOL     OW25048   1.029   3.794   1.432
 8050SOL    HW125049   0.938   3.825   1.456
 8050SOL    HW225050   1.030   3.765   1.336
 8051SOL     OW25051   5.301   6.900   3.433
 8051SOL    HW125052   5.281   6.842   3.353
 8051SOL    HW225053   5.338   6.987   3.402
 8052SOL     OW25054   3.356   1.727   2.028
 8052SOL    HW125055   3.304   1.642   2.020
 8052SOL    HW225056   3.367   1.768   1.937
 8053SOL     OW25057   4.137   3.703   2.851
 8053SOL    HW125058   4.148   3.606   2.829
 8053SOL    HW225059   4.099   3.751   2.771
 8054SOL     OW25060   4.749   6.526   4.386
 8054SOL    HW125061   4.796   6.584   4.319
 8054SOL    HW225062   4.705   6.584   4.455
 8055SOL     OW25063   0.613   0.364   5.662
 8055SOL    HW125064   0.595   0.462   5.655
 8055SOL    HW225065   0.706   0.349   5.697
 8056SOL     OW25066   4.886   1.288   3.498
 8056SOL    HW125067   4.836   1.343   3.431
 8056SOL    HW225068   4.830   1.279   3.581
 8057SOL     OW25069   3.117   0.846   2.691
 8057SOL    HW125070   3.180   0.895   2.751
 8057SOL    HW225071   3.023   0.868   2.715
 8058SOL     OW25072   3.353   0.193   2.973
 8058SOL    HW125073   3.270   0.171   3.025
 8058SOL    HW225074   3.383   0.285   2.997
 8059SOL     OW25075   3.882   1.902   5.062
 8059SOL    HW125076   3.954   1.954   5.015
 8059SOL    HW225077   3.918   1.812   5.087
 8060SOL     OW25078   0.650   1.152   4.674
 8060SOL    HW125079   0.619   1.163   4.769
 8060SOL    HW225080   0.591   1.205   4.613
 8061SOL     OW25081   6.932   5.792   1.722
 8061SOL    HW125082   6.972   5.877   1.755
 8061SOL    HW225083   6.940   5.721   1.792
 8062SOL     OW25084   1.969   4.368   4.031
 8062SOL    HW125085   1.883   4.324   4.008
 8062SOL    HW225086   1.952   4.463   4.057
 8063SOL     OW25087   2.055   3.564   0.087
 8063SOL    HW125088   1.992   3.641   0.087
 8063SOL    HW225089   2.144   3.593   0.052
 8064SOL     OW25090   0.428   4.600   0.378
 8064SOL    HW125091   0.372   4.624   0.458
 8064SOL    HW225092   0.377   4.537   0.319
 8065SOL     OW25093   4.207   6.918   3.895
 8065SOL    HW125094   4.306   6.925   3.877
 8065SOL    HW225095   4.157   6.963   3.821
 8066SOL     OW25096   1.429   0.863   6.539
 8066SOL    HW125097   1.478   0.895   6.620
 8066SOL    HW225098   1.494   0.838   6.468
 8067SOL     OW25099   4.053   3.272   1.612
 8067SOL    HW125100   4.018   3.320   1.531
 8067SOL    HW225101   3.981   3.266   1.681
 8068SOL     OW25102   6.344   5.761   5.153
 8068SOL    HW125103   6.371   5.832   5.217
 8068SOL    HW225104   6.389   5.776   5.065
 8069SOL     OW25105   2.701   6.002   1.641
 8069SOL    HW125106   2.649   5.997   1.555
 8069SOL    HW225107   2.715   6.098   1.666
 8070SOL     OW25108   2.667   4.683   0.831
 8070SOL    HW125109   2.722   4.604   0.805
 8070SOL    HW225110   2.715   4.767   0.806
 8071SOL     OW25111   4.225   6.612   4.807
 8071SOL    HW125112   4.187   6.600   4.898
 8071SOL    HW225113   4.286   6.535   4.786
 8072SOL     OW25114   3.358   1.534   0.477
 8072SOL    HW125115   3.293   1.581   0.537
 8072SOL    HW225116   3.326   1.441   0.460
 8073SOL     OW25117   5.264   0.304   6.385
 8073SOL    HW125118   5.176   0.259   6.398
 8073SOL    HW225119   5.335   0.235   6.373
 8074SOL     OW25120   3.262   2.936   0.172
 8074SOL    HW125121   3.336   2.992   0.135
 8074SOL    HW225122   3.231   2.871   0.103
 8075SOL     OW25123   6.460   1.652   1.522
 8075SOL    HW125124   6.429   1.682   1.612
 8075SOL    HW225125   6.403   1.693   1.452
 8076SOL     OW25126   4.753   2.473   5.849
 8076SOL    HW125127   4.669   2.419   5.847
 8076SOL    HW225128   4.753   2.531   5.930
 8077SOL     OW25129   0.479   6.900   1.456
 8077SOL    HW125130   0.561   6.850   1.428
 8077SOL    HW225131   0.481   6.914   1.555
 8078SOL     OW25132   6.379   1.902   0.304
 8078SOL    HW125133   6.287   1.874   0.275
 8078SOL    HW225134   6.380   1.914   0.404
 8079SOL     OW25135   6.056   2.191   3.110
 8079SOL    HW125136   6.014   2.281   3.116
 8079SOL    HW225137   6.045   2.143   3.197
 8080SOL     OW25138   1.790   3.727   0.616
 8080SOL    HW125139   1.770   3.636   0.652
 8080SOL    HW225140   1.814   3.720   0.519
 8081SOL     OW25141   5.682   0.697   5.384
 8081SOL    HW125142   5.761   0.679   5.442
 8081SOL    HW225143   5.610   0.740   5.438
 8082SOL     OW25144   5.666   2.298   2.900
 8082SOL    HW125145   5.707   2.263   2.817
 8082SOL    HW225146   5.612   2.380   2.879
 8083SOL     OW25147   4.949   3.193   2.003
 8083SOL    HW125148   4.874   3.127   2.008
 8083SOL    HW225149   4.978   3.219   2.095
 8084SOL     OW25150   5.984   6.241   1.144
 8084SOL    HW125151   5.886   6.251   1.131
 8084SOL    HW225152   6.008   6.265   1.239
 8085SOL     OW25153   6.137   0.229   1.534
 8085SOL    HW125154   6.096   0.291   1.466
 8085SOL    HW225155   6.068   0.164   1.565
 8086SOL     OW25156   3.858   0.040   4.058
 8086SOL    HW125157   3.802   6.994   4.012
 8086SOL    HW225158   3.934   7.019   4.106
 8087SOL     OW25159   2.459   1.931   1.001
 8087SOL    HW125160   2.486   1.922   1.096
 8087SOL    HW225161   2.364   1.899   0.990
 8088SOL     OW25162   6.604   1.644   1.866
 8088SOL    HW125163   6.673   1.716   1.869
 8088SOL    HW225164   6.639   1.566   1.814
 8089SOL     OW25165   5.057   2.191   6.624
 8089SOL    HW125166   4.971   2.206   6.575
 8089SOL    HW225167   5.078   2.271   6.680
 8090SOL     OW25168   5.147   1.789   6.414
 8090SOL    HW125169   5.174   1.738   6.497
 8090SOL    HW225170   5.133   1.724   6.339
 8091SOL     OW25171   3.420   3.933   6.988
 8091SOL    HW125172   3.384   4.014   6.941
 8091SOL    HW225173   3.494   3.961   0.026
 8092SOL     OW25174   1.624   1.017   4.716
 8092SOL    HW125175   1.700   1.082   4.707
 8092SOL    HW225176   1.541   1.057   4.676
 8093SOL     OW25177   6.242   6.123   1.117
 8093SOL    HW125178   6.300   6.192   1.072
 8093SOL    HW225179   6.148   6.156   1.121
 8094SOL     OW25180   2.184   4.359   5.720
 8094SOL    HW125181   2.212   4.267   5.690
 8094SOL    HW225182   2.173   4.418   5.640
 8095SOL     OW25183   5.997   3.320   3.887
 8095SOL    HW125184   6.028   3.307   3.981
 8095SOL    HW225185   6.033   3.247   3.829
 8096SOL     OW25186   2.796   6.008   3.218
 8096SOL    HW125187   2.738   5.926   3.221
 8096SOL    HW225188   2.738   6.089   3.216
 8097SOL     OW25189   5.275   0.890   3.543
 8097SOL    HW125190   5.225   0.956   3.486
 8097SOL    HW225191   5.302   0.812   3.488
 8098SOL     OW25192   2.046   6.516   4.307
 8098SOL    HW125193   2.121   6.475   4.359
 8098SOL    HW225194   1.959   6.491   4.349
 8099SOL     OW25195   6.494   0.597   3.997
 8099SOL    HW125196   6.583   0.566   3.965
 8099SOL    HW225197   6.482   0.694   3.973
 8100SOL     OW25198   0.393   6.792   0.237
 8100SOL    HW125199   0.439   6.725   0.295
 8100SOL    HW225200   0.426   6.884   0.258
 8101SOL     OW25201   1.645   0.124   4.678
 8101SOL    HW125202   1.735   0.159   4.704
 8101SOL    HW225203   1.642   0.112   4.578
 8102SOL     OW25204   0.816   5.472   6.402
 8102SOL    HW125205   0.895   5.479   6.341
 8102SOL    HW225206   0.817   5.548   6.467
 8103SOL     OW25207   4.072   1.028   1.753
 8103SOL    HW125208   4.085   0.961   1.826
 8103SOL    HW225209   4.074   0.982   1.664
 8104SOL     OW25210   3.842   0.120   6.467
 8104SOL    HW125211   3.774   0.058   6.426
 8104SOL    HW225212   3.859   0.196   6.405
 8105SOL     OW25213   2.512   2.625   3.617
 8105SOL    HW125214   2.573   2.551   3.643
 8105SOL    HW225215   2.417   2.593   3.621
 8106SOL     OW25216   1.489   5.403   3.791
 8106SOL    HW125217   1.538   5.356   3.717
 8106SOL    HW225218   1.442   5.336   3.848
 8107SOL     OW25219   2.025   6.017   5.770
 8107SOL    HW125220   2.052   5.963   5.851
 8107SOL    HW225221   1.933   5.990   5.742
 8108SOL     OW25222   6.678   2.778   4.957
 8108SOL    HW125223   6.618   2.852   4.986
 8108SOL    HW225224   6.633   2.725   4.885
 8109SOL     OW25225   1.926   4.363   4.755
 8109SOL    HW125226   2.001   4.331   4.698
 8109SOL    HW225227   1.916   4.303   4.835
 8110SOL     OW25228   3.197   6.475   0.421
 8110SOL    HW125229   3.201   6.483   0.321
 8110SOL    HW225230   3.222   6.563   0.462
 8111SOL     OW25231   3.040   6.789   5.666
 8111SOL    HW125232   3.065   6.696   5.693
 8111SOL    HW225233   3.029   6.793   5.567
 8112SOL     OW25234   2.708   0.680   5.666
 8112SOL    HW125235   2.622   0.658   5.711
 8112SOL    HW225236   2.692   0.691   5.568
 8113SOL     OW25237   3.043   2.762   0.239
 8113SOL    HW125238   3.118   2.824   0.216
 8113SOL    HW225239   2.956   2.811   0.231
 8114SOL     OW25240   2.254   2.668   2.409
 8114SOL    HW125241   2.277   2.755   2.366
 8114SOL    HW225242   2.178   2.625   2.360
 8115SOL     OW25243   3.961   1.367   1.263
 8115SOL    HW125244   3.985   1.295   1.198
 8115SOL    HW225245   4.033   1.436   1.266
 8116SOL     OW25246   5.535   0.456   5.431
 8116SOL    HW125247   5.605   0.385   5.439
 8116SOL    HW225248   5.578   0.543   5.407
 8117SOL     OW25249   1.576   1.979   3.874
 8117SOL    HW125250   1.499   2.032   3.910
 8117SOL    HW225251   1.659   2.034   3.881
 8118SOL     OW25252   0.607   3.813   5.856
 8118SOL    HW125253   0.633   3.907   5.879
 8118SOL    HW225254   0.554   3.773   5.931
 8119SOL     OW25255   0.374   5.795   4.251
 8119SOL    HW125256   0.398   5.731   4.178
 8119SOL    HW225257   0.358   5.886   4.212
 8120SOL     OW25258   3.961   4.282   6.882
 8120SOL    HW125259   3.869   4.292   6.921
 8120SOL    HW225260   3.992   4.370   6.845
 8121SOL     OW25261   6.942   6.326   2.930
 8121SOL    HW125262   6.861   6.271   2.948
 8121SOL    HW225263   7.017   6.266   2.902
 8122SOL     OW25264   0.399   4.839   2.375
 8122SOL    HW125265   0.437   4.757   2.419
 8122SOL    HW225266   0.466   4.913   2.382
 8123SOL     OW25267   0.867   0.318   6.423
 8123SOL    HW125268   0.963   0.294   6.435
 8123SOL    HW225269   0.833   0.364   6.506
 8124SOL     OW25270   1.279   6.315   1.392
 8124SOL    HW125271   1.180   6.328   1.396
 8124SOL    HW225272   1.323   6.401   1.366
 8125SOL     OW25273   6.091   5.193   3.044
 8125SOL    HW125274   6.180   5.232   3.071
 8125SOL    HW225275   6.090   5.177   2.946
 8126SOL     OW25276   6.067   4.893   2.230
 8126SOL    HW125277   6.112   4.830   2.167
 8126SOL    HW225278   6.092   4.870   2.324
 8127SOL     OW25279   2.625   5.181   0.282
 8127SOL    HW125280   2.721   5.153   0.279
 8127SOL    HW225281   2.617   5.266   0.335
 8128SOL     OW25282   3.039   2.574   6.749
 8128SOL    HW125283   3.131   2.555   6.781
 8128SOL    HW225284   2.986   2.617   6.822
 8129SOL     OW25285   5.192   1.056   6.630
 8129SOL    HW125286   5.267   0.998   6.601
 8129SOL    HW225287   5.224   1.120   6.701
 8130SOL     OW25288   0.950   5.401   5.929
 8130SOL    HW125289   0.924   5.466   6.001
 8130SOL    HW225290   0.926   5.439   5.840
 8131SOL     OW25291   3.106   1.107   0.262
 8131SOL    HW125292   3.030   1.162   0.228
 8131SOL    HW225293   3.167   1.082   0.187
 8132SOL     OW25294   5.561   5.688   5.653
 8132SOL    HW125295   5.541   5.786   5.666
 8132SOL    HW225296   5.564   5.644   5.743
 8133SOL     OW25297   3.130   4.965   3.069
 8133SOL    HW125298   3.095   5.053   3.036
 8133SOL    HW225299   3.230   4.965   3.064
 8134SOL     OW25300   1.902   1.982   4.182
 8134SOL    HW125301   1.986   1.936   4.212
 8134SOL    HW225302   1.838   1.914   4.145
 8135SOL     OW25303   3.124   5.121   2.144
 8135SOL    HW125304   3.113   5.022   2.141
 8135SOL    HW225305   3.104   5.160   2.055
 8136SOL     OW25306   4.190   5.196   2.606
 8136SOL    HW125307   4.162   5.208   2.510
 8136SOL    HW225308   4.278   5.149   2.609
 8137SOL     OW25309   2.064   3.222   4.482
 8137SOL    HW125310   2.125   3.220   4.561
 8137SOL    HW225311   2.102   3.167   4.408
 8138SOL     OW25312   5.945   1.897   2.178
 8138SOL    HW125313   5.901   1.972   2.130
 8138SOL    HW225314   6.014   1.855   2.119
 8139SOL     OW25315   0.888   3.022   3.587
 8139SOL    HW125316   0.983   3.033   3.559
 8139SOL    HW225317   0.830   3.013   3.506
 8140SOL     OW25318   3.900   6.794   0.086
 8140SOL    HW125319   3.806   6.761   0.076
 8140SOL    HW225320   3.899   6.882   0.135
 8141SOL     OW25321   5.164   0.806   5.463
 8141SOL    HW125322   5.185   0.755   5.380
 8141SOL    HW225323   5.143   0.742   5.537
 8142SOL     OW25324   2.257   5.587   0.266
 8142SOL    HW125325   2.275   5.490   0.255
 8142SOL    HW225326   2.327   5.628   0.324
 8143SOL     OW25327   5.324   5.184   1.405
 8143SOL    HW125328   5.263   5.227   1.470
 8143SOL    HW225329   5.301   5.087   1.396
 8144SOL     OW25330   0.091   5.760   5.798
 8144SOL    HW125331   0.132   5.678   5.759
 8144SOL    HW225332   0.147   5.840   5.774
 8145SOL     OW25333   5.017   5.595   0.491
 8145SOL    HW125334   5.007   5.496   0.495
 8145SOL    HW225335   5.027   5.631   0.584
 8146SOL     OW25336   6.352   0.604   5.005
 8146SOL    HW125337   6.442   0.644   4.985
 8146SOL    HW225338   6.280   0.669   4.979
 8147SOL     OW25339   0.412   0.718   7.017
 8147SOL    HW125340   0.413   0.700   0.092
 8147SOL    HW225341   0.378   0.638   6.968
 8148SOL     OW25342   4.140   4.502   6.873
 8148SOL    HW125343   4.089   4.556   6.939
 8148SOL    HW225344   4.214   4.557   6.835
 8149SOL     OW25345   1.446   6.903   4.327
 8149SOL    HW125346   1.387   6.839   4.375
 8149SOL    HW225347   1.534   6.909   4.375
 8150SOL     OW25348   0.876   3.189   0.992
 8150SOL    HW125349   0.854   3.143   0.906
 8150SOL    HW225350   0.888   3.121   1.064
 8151SOL     OW25351   6.101   5.575   3.680
 8151SOL    HW125352   6.046   5.659   3.684
 8151SOL    HW225353   6.057   5.508   3.620
 8152SOL     OW25354   4.605   2.248   3.154
 8152SOL    HW125355   4.692   2.254   3.105
 8152SOL    HW225356   4.613   2.185   3.230
 8153SOL     OW25357   1.088   0.775   3.386
 8153SOL    HW125358   1.124   0.700   3.331
 8153SOL    HW225359   1.055   0.848   3.326
 8154SOL     OW25360   2.917   1.679   3.137
 8154SOL    HW125361   2.851   1.636   3.199
 8154SOL    HW225362   2.900   1.777   3.134
 8155SOL     OW25363   1.575   3.994   2.197
 8155SOL    HW125364   1.650   4.007   2.132
 8155SOL    HW225365   1.612   3.964   2.285
 8156SOL     OW25366   5.626   5.974   1.130
 8156SOL    HW125367   5.545   5.986   1.074
 8156SOL    HW225368   5.693   5.918   1.081
 8157SOL     OW25369   6.130   3.545   6.004
 8157SOL    HW125370   6.126   3.624   6.065
 8157SOL    HW225371   6.051   3.486   6.020
 8158SOL     OW25372   5.692   5.462   5.897
 8158SOL    HW125373   5.599   5.495   5.913
 8158SOL    HW225374   5.692   5.397   5.821
 8159SOL     OW25375   4.128   6.641   5.802
 8159SOL    HW125376   4.118   6.607   5.896
 8159SOL    HW225377   4.125   6.741   5.804
 8160SOL     OW25378   5.060   1.097   3.444
 8160SOL    HW125379   4.985   1.163   3.445
 8160SOL    HW225380   5.081   1.072   3.349
 8161SOL     OW25381   5.260   3.671   0.176
 8161SOL    HW125382   5.306   3.666   0.088
 8161SOL    HW225383   5.315   3.625   0.245
 8162SOL     OW25384   0.358   5.058   0.064
 8162SOL    HW125385   0.354   5.014   6.998
 8162SOL    HW225386   0.439   5.026   0.113
 8163SOL     OW25387   3.741   5.124   5.447
 8163SOL    HW125388   3.723   5.214   5.405
 8163SOL    HW225389   3.835   5.122   5.481
 8164SOL     OW25390   4.025   0.604   6.968
 8164SOL    HW125391   3.936   0.646   6.978
 8164SOL    HW225392   4.085   0.663   6.913
 8165SOL     OW25393   6.840   3.490   6.577
 8165SOL    HW125394   6.900   3.484   6.497
 8165SOL    HW225395   6.781   3.410   6.580
 8166SOL     OW25396   1.999   2.180   3.855
 8166SOL    HW125397   1.946   2.098   3.836
 8166SOL    HW225398   1.940   2.261   3.847
 8167SOL     OW25399   0.045   1.425   3.688
 8167SOL    HW125400   0.016   1.341   3.732
 8167SOL    HW225401   0.109   1.474   3.748
 8168SOL     OW25402   2.202   0.613   1.330
 8168SOL    HW125403   2.146   0.609   1.248
 8168SOL    HW225404   2.287   0.562   1.316
 8169SOL     OW25405   3.882   1.977   0.473
 8169SOL    HW125406   3.977   2.003   0.486
 8169SOL    HW225407   3.877   1.898   0.411
 8170SOL     OW25408   6.656   4.334   2.033
 8170SOL    HW125409   6.719   4.302   1.962
 8170SOL    HW225410   6.704   4.397   2.095
 8171SOL     OW25411   1.618   0.930   6.785
 8171SOL    HW125412   1.692   0.969   6.730
 8171SOL    HW225413   1.655   0.861   6.847
 8172SOL     OW25414   0.273   2.155   2.139
 8172SOL    HW125415   0.360   2.203   2.130
 8172SOL    HW225416   0.197   2.220   2.128
 8173SOL     OW25417   6.282   1.989   2.708
 8173SOL    HW125418   6.214   2.003   2.780
 8173SOL    HW225419   6.254   1.914   2.649
 8174SOL     OW25420   1.667   6.276   2.619
 8174SOL    HW125421   1.674   6.310   2.526
 8174SOL    HW225422   1.605   6.333   2.672
 8175SOL     OW25423   0.949   2.825   3.987
 8175SOL    HW125424   0.872   2.792   4.042
 8175SOL    HW225425   0.929   2.917   3.954
 8176SOL     OW25426   1.888   4.459   1.144
 8176SOL    HW125427   1.824   4.384   1.163
 8176SOL    HW225428   1.981   4.430   1.169
 8177SOL     OW25429   3.553   0.843   2.827
 8177SOL    HW125430   3.562   0.855   2.728
 8177SOL    HW225431   3.643   0.856   2.870
 8178SOL     OW25432   3.434   6.291   1.091
 8178SOL    HW125433   3.447   6.197   1.059
 8178SOL    HW225434   3.338   6.306   1.112
 8179SOL     OW25435   6.086   0.830   4.077
 8179SOL    HW125436   6.017   0.844   4.005
 8179SOL    HW225437   6.056   0.876   4.160
 8180SOL     OW25438   6.160   0.262   6.951
 8180SOL    HW125439   6.060   0.263   6.940
 8180SOL    HW225440   6.201   0.322   6.882
 8181SOL     OW25441   0.792   0.864   1.231
 8181SOL    HW125442   0.751   0.795   1.172
 8181SOL    HW225443   0.730   0.885   1.307
 8182SOL     OW25444   3.662   3.405   5.316
 8182SOL    HW125445   3.752   3.441   5.291
 8182SOL    HW225446   3.644   3.424   5.413
 8183SOL     OW25447   6.861   1.432   4.942
 8183SOL    HW125448   6.806   1.387   5.013
 8183SOL    HW225449   6.835   1.397   4.852
 8184SOL     OW25450   1.118   0.028   0.148
 8184SOL    HW125451   1.163   0.110   0.112
 8184SOL    HW225452   1.036   0.054   0.198
 8185SOL     OW25453   1.947   0.468   0.810
 8185SOL    HW125454   1.977   0.548   0.758
 8185SOL    HW225455   1.847   0.472   0.822
 8186SOL     OW25456   2.329   3.856   5.889
 8186SOL    HW125457   2.235   3.856   5.924
 8186SOL    HW225458   2.364   3.762   5.887
 8187SOL     OW25459   2.580   1.858   5.104
 8187SOL    HW125460   2.527   1.927   5.055
 8187SOL    HW225461   2.661   1.835   5.049
 8188SOL     OW25462   4.075   1.762   3.535
 8188SOL    HW125463   3.994   1.729   3.487
 8188SOL    HW225464   4.047   1.825   3.608
 8189SOL     OW25465   5.518   5.155   3.335
 8189SOL    HW125466   5.474   5.235   3.294
 8189SOL    HW225467   5.461   5.121   3.410
 8190SOL     OW25468   5.213   3.908   3.431
 8190SOL    HW125469   5.148   3.873   3.499
 8190SOL    HW225470   5.273   3.833   3.402
 8191SOL     OW25471   4.662   5.253   2.372
 8191SOL    HW125472   4.584   5.231   2.314
 8191SOL    HW225473   4.719   5.321   2.326
 8192SOL     OW25474   2.112   5.276   1.874
 8192SOL    HW125475   2.096   5.360   1.823
 8192SOL    HW225476   2.032   5.216   1.867
 8193SOL     OW25477   6.557   5.831   4.682
 8193SOL    HW125478   6.534   5.825   4.585
 8193SOL    HW225479   6.556   5.740   4.722
 8194SOL     OW25480   4.358   0.840   0.622
 8194SOL    HW125481   4.374   0.835   0.524
 8194SOL    HW225482   4.284   0.778   0.647
 8195SOL     OW25483   5.799   6.598   4.034
 8195SOL    HW125484   5.785   6.518   4.091
 8195SOL    HW225485   5.892   6.632   4.045
 8196SOL     OW25486   5.282   0.391   6.693
 8196SOL    HW125487   5.343   0.346   6.629
 8196SOL    HW225488   5.227   0.460   6.645
 8197SOL     OW25489   4.385   1.749   1.596
 8197SOL    HW125490   4.395   1.761   1.497
 8197SOL    HW225491   4.476   1.748   1.638
 8198SOL     OW25492   2.701   0.577   2.071
 8198SOL    HW125493   2.622   0.564   2.011
 8198SOL    HW225494   2.773   0.625   2.021
 8199SOL     OW25495   4.706   3.177   5.553
 8199SOL    HW125496   4.686   3.274   5.570
 8199SOL    HW225497   4.719   3.130   5.640
 8200SOL     OW25498   6.181   3.983   1.956
 8200SOL    HW125499   6.171   4.076   1.921
 8200SOL    HW225500   6.278   3.956   1.954
 8201SOL     OW25501   0.289   0.806   5.357
 8201SOL    HW125502   0.328   0.856   5.279
 8201SOL    HW225503   0.318   0.710   5.353
 8202SOL     OW25504   6.784   6.304   2.570
 8202SOL    HW125505   6.779   6.260   2.480
 8202SOL    HW225506   6.792   6.403   2.559
 8203SOL     OW25507   2.003   2.128   0.533
 8203SOL    HW125508   1.960   2.121   0.442
 8203SOL    HW225509   2.070   2.201   0.532
 8204SOL     OW25510   3.888   3.683   0.814
 8204SOL    HW125511   3.832   3.739   0.754
 8204SOL    HW225512   3.972   3.657   0.767
 8205SOL     OW25513   0.508   2.820   6.931
 8205SOL    HW125514   0.477   2.841   0.001
 8205SOL    HW225515   0.561   2.897   6.895
 8206SOL     OW25516   4.714   1.386   0.132
 8206SOL    HW125517   4.631   1.334   0.112
 8206SOL    HW225518   4.694   1.454   0.203
 8207SOL     OW25519   3.378   3.881   4.689
 8207SOL    HW125520   3.315   3.819   4.735
 8207SOL    HW225521   3.331   3.967   4.667
 8208SOL     OW25522   0.964   0.879   0.716
 8208SOL    HW125523   0.917   0.892   0.628
 8208SOL    HW225524   0.901   0.901   0.791
 8209SOL     OW25525   0.388   0.867   5.091
 8209SOL    HW125526   0.329   0.804   5.040
 8209SOL    HW225527   0.476   0.823   5.107
 8210SOL     OW25528   2.178   2.348   0.527
 8210SOL    HW125529   2.158   2.444   0.546
 8210SOL    HW225530   2.258   2.342   0.466
 8211SOL     OW25531   3.471   3.832   1.554
 8211SOL    HW125532   3.485   3.835   1.653
 8211SOL    HW225533   3.516   3.752   1.516
 8212SOL     OW25534   1.622   2.424   3.021
 8212SOL    HW125535   1.614   2.434   3.120
 8212SOL    HW225536   1.547   2.473   2.976
 8213SOL     OW25537   6.814   5.053   1.682
 8213SOL    HW125538   6.898   5.016   1.643
 8213SOL    HW225539   6.826   5.066   1.781
 8214SOL     OW25540   5.708   4.584   3.522
 8214SOL    HW125541   5.676   4.621   3.610
 8214SOL    HW225542   5.684   4.488   3.516
 8215SOL     OW25543   3.062   5.918   5.563
 8215SOL    HW125544   3.014   6.002   5.537
 8215SOL    HW225545   3.000   5.840   5.553
 8216SOL     OW25546   5.565   5.991   4.454
 8216SOL    HW125547   5.588   6.073   4.506
 8216SOL    HW225548   5.493   5.941   4.500
 8217SOL     OW25549   2.305   4.894   0.025
 8217SOL    HW125550   2.305   4.979   6.995
 8217SOL    HW225551   2.386   4.840   0.001
 8218SOL     OW25552   0.686   1.458   6.720
 8218SOL    HW125553   0.726   1.367   6.708
 8218SOL    HW225554   0.746   1.514   6.776
 8219SOL     OW25555   4.695   1.649   0.287
 8219SOL    HW125556   4.787   1.678   0.260
 8219SOL    HW225557   4.629   1.679   0.219
 8220SOL     OW25558   3.407   3.361   3.243
 8220SOL    HW125559   3.380   3.319   3.330
 8220SOL    HW225560   3.456   3.295   3.187
 8221SOL     OW25561   4.521   6.125   4.608
 8221SOL    HW125562   4.554   6.206   4.561
 8221SOL    HW225563   4.429   6.103   4.575
 8222SOL     OW25564   5.368   1.928   2.297
 8222SOL    HW125565   5.298   1.938   2.367
 8222SOL    HW225566   5.457   1.952   2.335
 8223SOL     OW25567   1.323   3.468   6.299
 8223SOL    HW125568   1.387   3.511   6.235
 8223SOL    HW225569   1.369   3.393   6.346
 8224SOL     OW25570   0.722   2.604   2.874
 8224SOL    HW125571   0.672   2.689   2.858
 8224SOL    HW225572   0.813   2.624   2.909
 8225SOL     OW25573   3.599   0.843   0.336
 8225SOL    HW125574   3.633   0.771   0.396
 8225SOL    HW225575   3.676   0.891   0.295
 8226SOL     OW25576   4.749   0.201   2.632
 8226SOL    HW125577   4.828   0.143   2.616
 8226SOL    HW225578   4.729   0.205   2.730
 8227SOL     OW25579   0.303   2.754   3.597
 8227SOL    HW125580   0.330   2.810   3.676
 8227SOL    HW225581   0.337   2.661   3.609
 8228SOL     OW25582   0.256   2.576   5.861
 8228SOL    HW125583   0.211   2.636   5.794
 8228SOL    HW225584   0.300   2.631   5.932
 8229SOL     OW25585   3.892   4.380   0.602
 8229SOL    HW125586   3.914   4.458   0.543
 8229SOL    HW225587   3.805   4.340   0.573
 8230SOL     OW25588   4.871   0.176   5.682
 8230SOL    HW125589   4.968   0.157   5.699
 8230SOL    HW225590   4.861   0.232   5.600
 8231SOL     OW25591   3.891   5.822   1.182
 8231SOL    HW125592   3.959   5.851   1.248
 8231SOL    HW225593   3.834   5.750   1.223
 8232SOL     OW25594   5.057   1.457   0.782
 8232SOL    HW125595   5.073   1.389   0.710
 8232SOL    HW225596   5.134   1.456   0.846
 8233SOL     OW25597   0.767   6.333   6.406
 8233SOL    HW125598   0.844   6.380   6.364
 8233SOL    HW225599   0.703   6.304   6.335
 8234SOL     OW25600   3.068   3.634   0.056
 8234SOL    HW125601   3.151   3.685   0.079
 8234SOL    HW225602   2.993   3.698   0.040
 8235SOL     OW25603   2.229   3.356   0.562
 8235SOL    HW125604   2.183   3.336   0.649
 8235SOL    HW225605   2.161   3.381   0.493
 8236SOL     OW25606   6.495   4.088   0.302
 8236SOL    HW125607   6.570   4.094   0.236
 8236SOL    HW225608   6.430   4.019   0.272
 8237SOL     OW25609   5.040   6.484   4.549
 8237SOL    HW125610   5.128   6.481   4.597
 8237SOL    HW225611   4.966   6.463   4.614
 8238SOL     OW25612   1.684   4.497   0.686
 8238SOL    HW125613   1.668   4.418   0.744
 8238SOL    HW225614   1.598   4.527   0.646
 8239SOL     OW25615   6.657   1.182   5.421
 8239SOL    HW125616   6.569   1.193   5.375
 8239SOL    HW225617   6.731   1.210   5.360
 8240SOL     OW25618   3.496   3.840   2.881
 8240SOL    HW125619   3.430   3.802   2.817
 8240SOL    HW225620   3.459   3.836   2.974
 8241SOL     OW25621   3.646   6.706   0.005
 8241SOL    HW125622   3.571   6.653   0.046
 8241SOL    HW225623   3.653   6.683   6.931
 8242SOL     OW25624   1.343   4.362   6.094
 8242SOL    HW125625   1.313   4.266   6.096
 8242SOL    HW225626   1.300   4.409   6.018
 8243SOL     OW25627   0.868   2.686   6.948
 8243SOL    HW125628   0.901   2.697   0.018
 8243SOL    HW225629   0.889   2.767   6.895
 8244SOL     OW25630   0.778   7.020   3.374
 8244SOL    HW125631   0.825   0.003   3.462
 8244SOL    HW225632   0.806   6.936   3.327
 8245SOL     OW25633   3.448   1.120   2.674
 8245SOL    HW125634   3.518   1.157   2.735
 8245SOL    HW225635   3.491   1.060   2.607
 8246SOL     OW25636   6.926   3.311   5.508
 8246SOL    HW125637   6.833   3.303   5.471
 8246SOL    HW225638   6.991   3.321   5.433
 8247SOL     OW25639   0.989   0.128   2.224
 8247SOL    HW125640   1.056   0.151   2.153
 8247SOL    HW225641   1.022   0.050   2.277
 8248SOL     OW25642   5.767   5.201   3.450
 8248SOL    HW125643   5.676   5.208   3.409
 8248SOL    HW225644   5.764   5.133   3.524
 8249SOL     OW25645   2.096   3.420   5.176
 8249SOL    HW125646   2.103   3.321   5.187
 8249SOL    HW225647   2.048   3.441   5.091
 8250SOL     OW25648   3.322   4.073   2.428
 8250SOL    HW125649   3.258   4.133   2.380
 8250SOL    HW225650   3.414   4.085   2.390
 8251SOL     OW25651   5.969   3.010   4.372
 8251SOL    HW125652   6.030   2.958   4.432
 8251SOL    HW225653   5.952   3.100   4.412
 8252SOL     OW25654   3.430   3.001   6.815
 8252SOL    HW125655   3.497   3.023   6.744
 8252SOL    HW225656   3.344   3.049   6.797
 8253SOL     OW25657   4.029   3.922   5.258
 8253SOL    HW125658   4.111   3.936   5.313
 8253SOL    HW225659   4.056   3.893   5.166
 8254SOL     OW25660   4.474   4.567   4.550
 8254SOL    HW125661   4.473   4.667   4.558
 8254SOL    HW225662   4.389   4.536   4.508
 8255SOL     OW25663   3.205   6.298   5.368
 8255SOL    HW125664   3.156   6.359   5.306
 8255SOL    HW225665   3.238   6.218   5.318
 8256SOL     OW25666   6.489   0.645   2.054
 8256SOL    HW125667   6.431   0.564   2.055
 8256SOL    HW225668   6.560   0.635   1.984
 8257SOL     OW25669   6.532   3.689   3.348
 8257SOL    HW125670   6.444   3.709   3.304
 8257SOL    HW225671   6.556   3.764   3.410
 8258SOL     OW25672   5.154   1.319   0.559
 8258SOL    HW125673   5.173   1.233   0.606
 8258SOL    HW225674   5.086   1.304   0.487
 8259SOL     OW25675   4.470   1.866   3.542
 8259SOL    HW125676   4.507   1.923   3.469
 8259SOL    HW225677   4.388   1.819   3.509
 8260SOL     OW25678   2.645   0.310   2.135
 8260SOL    HW125679   2.686   0.393   2.095
 8260SOL    HW225680   2.682   0.296   2.226
 8261SOL     OW25681   6.444   1.122   1.905
 8261SOL    HW125682   6.457   1.063   1.825
 8261SOL    HW225683   6.524   1.182   1.915
 8262SOL     OW25684   0.990   2.730   0.996
 8262SOL    HW125685   0.933   2.649   0.982
 8262SOL    HW225686   0.985   2.788   0.915
 8263SOL     OW25687   0.883   2.242   0.349
 8263SOL    HW125688   0.834   2.269   0.432
 8263SOL    HW225689   0.910   2.325   0.299
 8264SOL     OW25690   2.184   6.300   2.256
 8264SOL    HW125691   2.098   6.288   2.304
 8264SOL    HW225692   2.227   6.211   2.241
 8265SOL     OW25693   0.979   6.727   1.450
 8265SOL    HW125694   1.044   6.739   1.525
 8265SOL    HW225695   1.024   6.682   1.373
 8266SOL     OW25696   2.035   1.161   3.619
 8266SOL    HW125697   2.074   1.190   3.707
 8266SOL    HW225698   2.030   1.061   3.616
 8267SOL     OW25699   1.755   3.068   0.830
 8267SOL    HW125700   1.800   2.981   0.808
 8267SOL    HW225701   1.791   3.140   0.770
 8268SOL     OW25702   2.228   6.052   5.533
 8268SOL    HW125703   2.317   6.072   5.574
 8268SOL    HW225704   2.158   6.053   5.605
 8269SOL     OW25705   5.322   1.689   1.269
 8269SOL    HW125706   5.302   1.780   1.305
 8269SOL    HW225707   5.256   1.623   1.306
 8270SOL     OW25708   2.884   6.602   5.158
 8270SOL    HW125709   2.918   6.510   5.177
 8270SOL    HW225710   2.923   6.666   5.224
 8271SOL     OW25711   6.965   0.950   2.577
 8271SOL    HW125712   0.032   0.962   2.534
 8271SOL    HW225713   6.942   0.853   2.578
 8272SOL     OW25714   4.788   1.635   1.477
 8272SOL    HW125715   4.869   1.614   1.531
 8272SOL    HW225716   4.743   1.550   1.449
 8273SOL     OW25717   2.061   6.127   0.901
 8273SOL    HW125718   2.084   6.031   0.915
 8273SOL    HW225719   2.077   6.151   0.805
 8274SOL     OW25720   4.893   4.443   3.466
 8274SOL    HW125721   4.851   4.524   3.507
 8274SOL    HW225722   4.947   4.395   3.535
 8275SOL     OW25723   4.839   1.468   5.521
 8275SOL    HW125724   4.868   1.550   5.570
 8275SOL    HW225725   4.764   1.424   5.571
 8276SOL     OW25726   1.799   2.394   3.876
 8276SOL    HW125727   1.862   2.447   3.933
 8276SOL    HW225728   1.746   2.455   3.818
 8277SOL     OW25729   6.736   1.060   0.141
 8277SOL    HW125730   6.723   0.999   0.219
 8277SOL    HW225731   6.833   1.084   0.133
 8278SOL     OW25732   2.792   1.615   5.754
 8278SOL    HW125733   2.810   1.706   5.789
 8278SOL    HW225734   2.727   1.621   5.677
 8279SOL     OW25735   1.487   0.331   4.125
 8279SOL    HW125736   1.581   0.321   4.094
 8279SOL    HW225737   1.466   0.428   4.138
 8280SOL     OW25738   2.281   2.876   0.636
 8280SOL    HW125739   2.338   2.956   0.653
 8280SOL    HW225740   2.227   2.891   0.553
 8281SOL     OW25741   2.023   4.815   1.403
 8281SOL    HW125742   1.960   4.764   1.344
 8281SOL    HW225743   2.046   4.761   1.484
 8282SOL     OW25744   5.125   3.963   6.986
 8282SOL    HW125745   5.040   4.010   6.962
 8282SOL    HW225746   5.146   3.980   0.059
 8283SOL     OW25747   1.841   4.796   0.424
 8283SOL    HW125748   1.795   4.844   0.350
 8283SOL    HW225749   1.938   4.822   0.425
 8284SOL     OW25750   0.911   3.833   0.184
 8284SOL    HW125751   0.816   3.833   0.216
 8284SOL    HW225752   0.916   3.789   0.094
 8285SOL     OW25753   3.283   2.902   4.857
 8285SOL    HW125754   3.196   2.862   4.883
 8285SOL    HW225755   3.284   3.000   4.880
 8286SOL     OW25756   5.415   3.210   6.519
 8286SOL    HW125757   5.425   3.169   6.609
 8286SOL    HW225758   5.336   3.272   6.519
 8287SOL     OW25759   2.104   5.222   4.264
 8287SOL    HW125760   2.197   5.257   4.248
 8287SOL    HW225761   2.069   5.183   4.179
 8288SOL     OW25762   2.873   1.928   1.463
 8288SOL    HW125763   2.837   1.890   1.548
 8288SOL    HW225764   2.925   2.011   1.483
 8289SOL     OW25765   0.481   5.997   1.899
 8289SOL    HW125766   0.491   5.917   1.840
 8289SOL    HW225767   0.550   6.065   1.876
 8290SOL     OW25768   5.899   1.179   0.931
 8290SOL    HW125769   5.917   1.084   0.906
 8290SOL    HW225770   5.927   1.240   0.857
 8291SOL     OW25771   5.051   6.312   5.914
 8291SOL    HW125772   5.141   6.275   5.892
 8291SOL    HW225773   5.058   6.369   5.996
 8292SOL     OW25774   2.400   6.234   6.707
 8292SOL    HW125775   2.371   6.151   6.755
 8292SOL    HW225776   2.481   6.272   6.752
 8293SOL     OW25777   3.290   6.869   6.903
 8293SOL    HW125778   3.300   6.809   6.983
 8293SOL    HW225779   3.277   6.813   6.821
 8294SOL     OW25780   5.810   4.624   4.720
 8294SOL    HW125781   5.881   4.664   4.663
 8294SOL    HW225782   5.746   4.573   4.663
 8295SOL     OW25783   4.984   5.646   1.439
 8295SOL    HW125784   4.897   5.628   1.484
 8295SOL    HW225785   5.003   5.744   1.440
 8296SOL     OW25786   2.393   6.724   6.535
 8296SOL    HW125787   2.389   6.659   6.459
 8296SOL    HW225788   2.303   6.730   6.578
 8297SOL     OW25789   6.651   2.456   2.254
 8297SOL    HW125790   6.702   2.464   2.340
 8297SOL    HW225791   6.553   2.446   2.274
 8298SOL     OW25792   5.753   2.321   1.161
 8298SOL    HW125793   5.690   2.394   1.189
 8298SOL    HW225794   5.846   2.345   1.189
 8299SOL     OW25795   0.244   2.473   2.058
 8299SOL    HW125796   0.173   2.497   1.991
 8299SOL    HW225797   0.233   2.529   2.140
 8300SOL     OW25798   0.593   5.931   5.133
 8300SOL    HW125799   0.539   5.853   5.165
 8300SOL    HW225800   0.532   6.010   5.121
 8301SOL     OW25801   4.398   2.027   1.818
 8301SOL    HW125802   4.390   1.951   1.884
 8301SOL    HW225803   4.429   1.991   1.730
 8302SOL     OW25804   5.816   6.262   6.350
 8302SOL    HW125805   5.761   6.213   6.418
 8302SOL    HW225806   5.861   6.196   6.290
 8303SOL     OW25807   6.506   0.941   4.073
 8303SOL    HW125808   6.440   1.016   4.072
 8303SOL    HW225809   6.521   0.909   3.980
 8304SOL     OW25810   1.201   3.167   0.594
 8304SOL    HW125811   1.212   3.243   0.530
 8304SOL    HW225812   1.193   3.203   0.687
 8305SOL     OW25813   4.028   4.836   4.631
 8305SOL    HW125814   4.079   4.819   4.547
 8305SOL    HW225815   3.959   4.765   4.643
 8306SOL     OW25816   0.147   2.858   5.272
 8306SOL    HW125817   0.068   2.860   5.210
 8306SOL    HW225818   0.129   2.794   5.347
 8307SOL     OW25819   4.415   5.040   1.894
 8307SOL    HW125820   4.326   5.009   1.926
 8307SOL    HW225821   4.428   5.011   1.799
 8308SOL     OW25822   4.146   5.920   1.243
 8308SOL    HW125823   4.125   6.012   1.209
 8308SOL    HW225824   4.157   5.923   1.342
 8309SOL     OW25825   6.220   5.482   3.414
 8309SOL    HW125826   6.127   5.454   3.387
 8309SOL    HW225827   6.214   5.561   3.474
 8310SOL     OW25828   0.916   4.228   0.773
 8310SOL    HW125829   0.909   4.144   0.719
 8310SOL    HW225830   0.999   4.225   0.828
 8311SOL     OW25831   0.901   1.500   4.867
 8311SOL    HW125832   1.000   1.507   4.867
 8311SOL    HW225833   0.873   1.404   4.873
 8312SOL     OW25834   4.302   6.290   1.085
 8312SOL    HW125835   4.384   6.241   1.114
 8312SOL    HW225836   4.225   6.226   1.080
 8313SOL     OW25837   4.959   1.362   2.659
 8313SOL    HW125838   4.859   1.362   2.648
 8313SOL    HW225839   4.983   1.313   2.742
 8314SOL     OW25840   4.628   0.315   0.898
 8314SOL    HW125841   4.582   0.254   0.963
 8314SOL    HW225842   4.618   0.279   0.805
 8315SOL     OW25843   4.106   3.506   1.185
 8315SOL    HW125844   4.196   3.506   1.228
 8315SOL    HW225845   4.095   3.423   1.130
 8316SOL     OW25846   1.014   1.799   1.974
 8316SOL    HW125847   1.018   1.699   1.978
 8316SOL    HW225848   1.103   1.837   1.999
 8317SOL     OW25849   2.558   2.330   2.395
 8317SOL    HW125850   2.492   2.401   2.371
 8317SOL    HW225851   2.509   2.249   2.429
 8318SOL     OW25852   4.327   1.228   4.418
 8318SOL    HW125853   4.360   1.190   4.505
 8318SOL    HW225854   4.397   1.215   4.348
 8319SOL     OW25855   3.014   1.478   6.525
 8319SOL    HW125856   3.060   1.468   6.437
 8319SOL    HW225857   2.987   1.388   6.559
 8320SOL     OW25858   3.326   3.558   1.458
 8320SOL    HW125859   3.318   3.548   1.359
 8320SOL    HW225860   3.423   3.558   1.483
 8321SOL     OW25861   0.085   1.085   0.435
 8321SOL    HW125862   0.002   1.072   0.380
 8321SOL    HW225863   0.073   1.165   0.494
 8322SOL     OW25864   7.010   0.795   0.751
 8322SOL    HW125865   6.978   0.888   0.732
 8322SOL    HW225866   0.043   0.795   0.834
 8323SOL     OW25867   6.000   6.296   2.858
 8323SOL    HW125868   6.052   6.341   2.786
 8323SOL    HW225869   6.058   6.284   2.939
 8324SOL     OW25870   5.829   0.860   1.792
 8324SOL    HW125871   5.883   0.942   1.813
 8324SOL    HW225872   5.765   0.880   1.718
 8325SOL     OW25873   3.341   3.515   5.288
 8325SOL    HW125874   3.438   3.503   5.267
 8325SOL    HW225875   3.287   3.513   5.204
 8326SOL     OW25876   4.935   3.414   5.188
 8326SOL    HW125877   4.870   3.489   5.202
 8326SOL    HW225878   4.885   3.327   5.190
 8327SOL     OW25879   5.901   1.995   6.132
 8327SOL    HW125880   5.866   1.906   6.161
 8327SOL    HW225881   5.824   2.059   6.120
 8328SOL     OW25882   2.570   4.068   6.247
 8328SOL    HW125883   2.581   4.167   6.240
 8328SOL    HW225884   2.641   4.022   6.194
 8329SOL     OW25885   0.052   4.058   6.385
 8329SOL    HW125886   0.092   4.147   6.408
 8329SOL    HW225887   0.059   3.997   6.464
 8330SOL     OW25888   2.738   0.171   0.558
 8330SOL    HW125889   2.668   0.108   0.592
 8330SOL    HW225890   2.765   0.143   0.466
 8331SOL     OW25891   2.670   1.047   1.353
 8331SOL    HW125892   2.768   1.032   1.340
 8331SOL    HW225893   2.619   0.972   1.311
 8332SOL     OW25894   5.133   4.837   2.549
 8332SOL    HW125895   5.131   4.936   2.533
 8332SOL    HW225896   5.152   4.819   2.645
 8333SOL     OW25897   0.220   6.640   6.757
 8333SOL    HW125898   0.254   6.588   6.835
 8333SOL    HW225899   0.290   6.644   6.686
 8334SOL     OW25900   4.340   1.544   4.093
 8334SOL    HW125901   4.281   1.500   4.161
 8334SOL    HW225902   4.381   1.474   4.035
 8335SOL     OW25903   6.227   5.882   6.415
 8335SOL    HW125904   6.300   5.889   6.483
 8335SOL    HW225905   6.246   5.805   6.353
 8336SOL     OW25906   6.897   6.832   2.551
 8336SOL    HW125907   6.836   6.875   2.618
 8336SOL    HW225908   6.990   6.864   2.567
 8337SOL     OW25909   1.182   6.206   3.041
 8337SOL    HW125910   1.109   6.249   2.989
 8337SOL    HW225911   1.189   6.250   3.131
 8338SOL     OW25912   2.157   4.961   2.015
 8338SOL    HW125913   2.224   4.964   1.940
 8338SOL    HW225914   2.071   4.923   1.981
 8339SOL     OW25915   5.868   0.563   1.355
 8339SOL    HW125916   5.786   0.586   1.303
 8339SOL    HW225917   5.920   0.646   1.374
 8340SOL     OW25918   5.345   4.008   1.287
 8340SOL    HW125919   5.386   4.017   1.197
 8340SOL    HW225920   5.292   4.090   1.308
 8341SOL     OW25921   2.244   6.858   6.828
 8341SOL    HW125922   2.330   6.900   6.860
 8341SOL    HW225923   2.196   6.922   6.769
 8342SOL     OW25924   3.377   0.185   1.716
 8342SOL    HW125925   3.281   0.168   1.694
 8342SOL    HW225926   3.434   0.118   1.669
 8343SOL     OW25927   0.921   4.834   6.059
 8343SOL    HW125928   0.857   4.890   6.111
 8343SOL    HW225929   0.952   4.884   5.979
 8344SOL     OW25930   4.604   0.386   5.338
 8344SOL    HW125931   4.645   0.477   5.335
 8344SOL    HW225932   4.505   0.394   5.347
 8345SOL     OW25933   5.172   1.846   3.560
 8345SOL    HW125934   5.218   1.932   3.582
 8345SOL    HW225935   5.114   1.859   3.480
 8346SOL     OW25936   3.058   4.251   0.094
 8346SOL    HW125937   3.116   4.199   0.156
 8346SOL    HW225938   2.994   4.306   0.146
 8347SOL     OW25939   3.543   5.769   4.560
 8347SOL    HW125940   3.598   5.851   4.545
 8347SOL    HW225941   3.603   5.690   4.569
 8348SOL     OW25942   0.970   6.748   1.835
 8348SOL    HW125943   1.066   6.753   1.805
 8348SOL    HW225944   0.941   6.838   1.868
 8349SOL     OW25945   6.221   5.797   1.513
 8349SOL    HW125946   6.253   5.767   1.423
 8349SOL    HW225947   6.268   5.745   1.584
 8350SOL     OW25948   4.895   0.811   4.595
 8350SOL    HW125949   4.949   0.791   4.677
 8350SOL    HW225950   4.806   0.848   4.621
 8351SOL     OW25951   4.597   5.401   4.453
 8351SOL    HW125952   4.582   5.410   4.354
 8351SOL    HW225953   4.692   5.423   4.474
 8352SOL     OW25954   6.802   6.558   2.632
 8352SOL    HW125955   6.760   6.648   2.638
 8352SOL    HW225956   6.891   6.559   2.677
 8353SOL     OW25957   6.617   3.452   1.387
 8353SOL    HW125958   6.536   3.394   1.377
 8353SOL    HW225959   6.598   3.543   1.349
 8354SOL     OW25960   3.875   0.430   6.790
 8354SOL    HW125961   3.909   0.495   6.858
 8354SOL    HW225962   3.881   0.470   6.699
 8355SOL     OW25963   2.798   0.326   0.018
 8355SOL    HW125964   2.755   0.368   6.962
 8355SOL    HW225965   2.870   0.263   7.011
 8356SOL     OW25966   1.420   6.178   0.547
 8356SOL    HW125967   1.416   6.231   0.631
 8356SOL    HW225968   1.452   6.086   0.567
 8357SOL     OW25969   3.894   6.947   5.919
 8357SOL    HW125970   3.832   6.879   5.881
 8357SOL    HW225971   3.843   0.007   5.941
 8358SOL     OW25972   1.288   3.201   5.366
 8358SOL    HW125973   1.203   3.149   5.366
 8358SOL    HW225974   1.352   3.161   5.432
 8359SOL     OW25975   2.918   6.165   4.673
 8359SOL    HW125976   2.908   6.256   4.713
 8359SOL    HW225977   2.836   6.111   4.693
 8360SOL     OW25978   3.736   6.070   1.629
 8360SOL    HW125979   3.720   6.044   1.534
 8360SOL    HW225980   3.796   6.150   1.633
 8361SOL     OW25981   2.198   0.389   2.754
 8361SOL    HW125982   2.248   0.305   2.775
 8361SOL    HW225983   2.232   0.427   2.668
 8362SOL     OW25984   2.819   1.648   0.861
 8362SOL    HW125985   2.846   1.688   0.773
 8362SOL    HW225986   2.722   1.664   0.876
 8363SOL     OW25987   0.540   2.364   0.114
 8363SOL    HW125988   0.489   2.341   0.031
 8363SOL    HW225989   0.638   2.359   0.094
 8364SOL     OW25990   6.496   3.423   2.745
 8364SOL    HW125991   6.425   3.385   2.804
 8364SOL    HW225992   6.575   3.449   2.801
 8365SOL     OW25993   1.734   4.354   1.567
 8365SOL    HW125994   1.683   4.425   1.518
 8365SOL    HW225995   1.751   4.385   1.661
 8366SOL     OW25996   3.556   5.151   2.234
 8366SOL    HW125997   3.516   5.098   2.159
 8366SOL    HW225998   3.552   5.098   2.319
 8367SOL     OW25999   3.914   5.986   3.982
 8367SOL    HW126000   3.987   5.917   3.985
 8367SOL    HW226001   3.876   5.988   3.890
 8368SOL     OW26002   2.259   6.495   5.805
 8368SOL    HW126003   2.178   6.551   5.820
 8368SOL    HW226004   2.309   6.531   5.726
 8369SOL     OW26005   1.824   6.789   6.614
 8369SOL    HW126006   1.899   6.805   6.678
 8369SOL    HW226007   1.765   6.869   6.610
 8370SOL     OW26008   2.548   1.965   5.485
 8370SOL    HW126009   2.562   2.020   5.567
 8370SOL    HW226010   2.543   1.868   5.510
 8371SOL     OW26011   1.736   4.007   1.313
 8371SOL    HW126012   1.759   3.945   1.237
 8371SOL    HW226013   1.732   4.101   1.278
 8372SOL     OW26014   0.494   5.622   2.601
 8372SOL    HW126015   0.555   5.543   2.613
 8372SOL    HW226016   0.528   5.699   2.656
 8373SOL     OW26017   1.190   0.192   4.442
 8373SOL    HW126018   1.283   0.159   4.422
 8373SOL    HW226019   1.168   0.268   4.381
 8374SOL     OW26020   6.810   0.705   6.266
 8374SOL    HW126021   6.730   0.765   6.273
 8374SOL    HW226022   6.893   0.759   6.282
 8375SOL     OW26023   3.282   6.982   5.671
 8375SOL    HW126024   3.321   6.914   5.733
 8375SOL    HW226025   3.190   6.955   5.645
 8376SOL     OW26026   2.158   0.412   4.339
 8376SOL    HW126027   2.155   0.384   4.243
 8376SOL    HW226028   2.065   0.421   4.374
 8377SOL     OW26029   5.886   5.384   1.403
 8377SOL    HW126030   5.851   5.434   1.482
 8377SOL    HW226031   5.982   5.408   1.388
 8378SOL     OW26032   4.902   4.459   3.197
 8378SOL    HW126033   4.846   4.535   3.163
 8378SOL    HW226034   4.903   4.460   3.297
 8379SOL     OW26035   6.435   2.439   1.147
 8379SOL    HW126036   6.517   2.390   1.120
 8379SOL    HW226037   6.383   2.465   1.065
 8380SOL     OW26038   6.554   1.422   2.733
 8380SOL    HW126039   6.494   1.473   2.672
 8380SOL    HW226040   6.513   1.418   2.825
 8381SOL     OW26041   0.226   4.070   5.003
 8381SOL    HW126042   0.300   4.007   5.023
 8381SOL    HW226043   0.247   4.121   4.919
 8382SOL     OW26044   1.217   0.729   2.191
 8382SOL    HW126045   1.274   0.799   2.148
 8382SOL    HW226046   1.178   0.764   2.276
 8383SOL     OW26047   2.351   0.323   6.243
 8383SOL    HW126048   2.405   0.379   6.307
 8383SOL    HW226049   2.280   0.274   6.294
 8384SOL     OW26050   0.392   0.303   0.374
 8384SOL    HW126051   0.469   0.348   0.419
 8384SOL    HW226052   0.306   0.343   0.406
 8385SOL     OW26053   5.795   2.737   1.316
 8385SOL    HW126054   5.725   2.802   1.347
 8385SOL    HW226055   5.879   2.753   1.368
 8386SOL     OW26056   1.046   4.115   2.457
 8386SOL    HW126057   1.126   4.081   2.505
 8386SOL    HW226058   0.995   4.038   2.418
 8387SOL     OW26059   0.847   1.157   1.634
 8387SOL    HW126060   0.778   1.227   1.657
 8387SOL    HW226061   0.881   1.174   1.542
 8388SOL     OW26062   1.533   5.971   0.647
 8388SOL    HW126063   1.510   5.900   0.581
 8388SOL    HW226064   1.567   5.930   0.731
 8389SOL     OW26065   6.074   3.822   2.717
 8389SOL    HW126066   6.078   3.828   2.617
 8389SOL    HW226067   6.083   3.914   2.756
 8390SOL     OW26068   3.800   1.213   6.755
 8390SOL    HW126069   3.871   1.144   6.740
 8390SOL    HW226070   3.719   1.190   6.703
 8391SOL     OW26071   6.202   5.745   0.805
 8391SOL    HW126072   6.228   5.819   0.743
 8391SOL    HW226073   6.241   5.659   0.773
 8392SOL     OW26074   6.329   3.550   3.520
 8392SOL    HW126075   6.242   3.538   3.567
 8392SOL    HW226076   6.357   3.646   3.525
 8393SOL     OW26077   6.123   0.912   2.883
 8393SOL    HW126078   6.107   0.842   2.813
 8393SOL    HW226079   6.221   0.927   2.894
 8394SOL     OW26080   5.608   3.411   1.840
 8394SOL    HW126081   5.630   3.316   1.818
 8394SOL    HW226082   5.514   3.417   1.874
 8395SOL     OW26083   2.628   6.777   5.718
 8395SOL    HW126084   2.539   6.734   5.733
 8395SOL    HW226085   2.615   6.875   5.702
 8396SOL     OW26086   5.122   4.813   2.814
 8396SOL    HW126087   5.109   4.912   2.820
 8396SOL    HW226088   5.206   4.788   2.861
 8397SOL     OW26089   0.719   0.927   3.549
 8397SOL    HW126090   0.659   0.903   3.625
 8397SOL    HW226091   0.748   0.844   3.502
 8398SOL     OW26092   5.295   2.550   5.864
 8398SOL    HW126093   5.223   2.534   5.796
 8398SOL    HW226094   5.280   2.639   5.908
 8399SOL     OW26095   6.396   6.193   6.908
 8399SOL    HW126096   6.300   6.219   6.909
 8399SOL    HW226097   6.443   6.239   6.832
 8400SOL     OW26098   2.011   2.532   3.983
 8400SOL    HW126099   2.093   2.475   3.983
 8400SOL    HW226100   1.965   2.524   4.071
 8401SOL     OW26101   2.281   1.356   5.479
 8401SOL    HW126102   2.215   1.431   5.487
 8401SOL    HW226103   2.275   1.317   5.387
 8402SOL     OW26104   5.384   1.717   6.221
 8402SOL    HW126105   5.335   1.693   6.137
 8402SOL    HW226106   5.354   1.807   6.253
 8403SOL     OW26107   0.677   3.176   4.532
 8403SOL    HW126108   0.649   3.105   4.596
 8403SOL    HW226109   0.597   3.216   4.489
 8404SOL     OW26110   3.962   0.277   6.290
 8404SOL    HW126111   4.026   0.330   6.345
 8404SOL    HW226112   4.010   0.236   6.212
 8405SOL     OW26113   3.075   1.720   6.054
 8405SOL    HW126114   3.138   1.648   6.082
 8405SOL    HW226115   2.981   1.691   6.069
 8406SOL     OW26116   4.132   0.176   0.567
 8406SOL    HW126117   4.164   0.242   0.500
 8406SOL    HW226118   4.042   0.204   0.601
 8407SOL     OW26119   4.087   6.355   3.429
 8407SOL    HW126120   4.150   6.335   3.354
 8407SOL    HW226121   3.995   6.323   3.405
 8408SOL     OW26122   5.711   4.981   0.697
 8408SOL    HW126123   5.639   4.996   0.765
 8408SOL    HW226124   5.673   4.995   0.606
 8409SOL     OW26125   5.068   2.386   1.826
 8409SOL    HW126126   4.971   2.372   1.805
 8409SOL    HW226127   5.087   2.358   1.920
 8410SOL     OW26128   6.480   2.100   1.857
 8410SOL    HW126129   6.502   2.116   1.953
 8410SOL    HW226130   6.454   2.004   1.844
 8411SOL     OW26131   0.404   5.927   1.082
 8411SOL    HW126132   0.465   5.897   1.156
 8411SOL    HW226133   0.366   5.847   1.036
 8412SOL     OW26134   3.774   1.992   1.178
 8412SOL    HW126135   3.760   2.068   1.241
 8412SOL    HW226136   3.705   1.921   1.194
 8413SOL     OW26137   4.252   5.619   6.172
 8413SOL    HW126138   4.350   5.604   6.184
 8413SOL    HW226139   4.231   5.628   6.075
 8414SOL     OW26140   2.346   0.970   2.904
 8414SOL    HW126141   2.343   0.901   2.831
 8414SOL    HW226142   2.269   1.033   2.893
 8415SOL     OW26143   1.909   6.638   4.102
 8415SOL    HW126144   1.812   6.630   4.121
 8415SOL    HW226145   1.962   6.583   4.167
 8416SOL     OW26146   6.315   1.796   4.902
 8416SOL    HW126147   6.379   1.784   4.978
 8416SOL    HW226148   6.362   1.840   4.826
 8417SOL     OW26149   1.842   2.934   5.182
 8417SOL    HW126150   1.744   2.956   5.184
 8417SOL    HW226151   1.860   2.856   5.242
 8418SOL     OW26152   0.195   5.258   2.220
 8418SOL    HW126153   0.183   5.289   2.314
 8418SOL    HW226154   0.115   5.203   2.193
 8419SOL     OW26155   5.931   1.417   2.628
 8419SOL    HW126156   6.017   1.420   2.679
 8419SOL    HW226157   5.860   1.467   2.677
 8420SOL     OW26158   3.171   6.503   1.651
 8420SOL    HW126159   3.082   6.548   1.641
 8420SOL    HW226160   3.242   6.561   1.611
 8421SOL     OW26161   3.212   4.895   0.182
 8421SOL    HW126162   3.176   4.855   0.098
 8421SOL    HW226163   3.156   4.865   0.259
 8422SOL     OW26164   3.846   1.871   2.616
 8422SOL    HW126165   3.783   1.869   2.694
 8422SOL    HW226166   3.870   1.966   2.596
 8423SOL     OW26167   4.519   4.344   5.620
 8423SOL    HW126168   4.419   4.335   5.626
 8423SOL    HW226169   4.553   4.288   5.545
 8424SOL     OW26170   1.792   2.200   3.178
 8424SOL    HW126171   1.849   2.118   3.172
 8424SOL    HW226172   1.790   2.246   3.089
 8425SOL     OW26173   4.184   3.635   4.738
 8425SOL    HW126174   4.193   3.698   4.815
 8425SOL    HW226175   4.149   3.685   4.659
 8426SOL     OW26176   3.674   3.091   2.764
 8426SOL    HW126177   3.670   2.999   2.726
 8426SOL    HW226178   3.581   3.125   2.781
 8427SOL     OW26179   3.035   3.745   3.472
 8427SOL    HW126180   3.103   3.704   3.412
 8427SOL    HW226181   2.995   3.674   3.531
 8428SOL     OW26182   6.875   6.542   1.860
 8428SOL    HW126183   6.898   6.639   1.851
 8428SOL    HW226184   6.816   6.529   1.940
 8429SOL     OW26185   1.634   5.371   5.658
 8429SOL    HW126186   1.586   5.365   5.746
 8429SOL    HW226187   1.717   5.316   5.661
 8430SOL     OW26188   3.998   4.910   4.168
 8430SOL    HW126189   3.902   4.917   4.140
 8430SOL    HW226190   4.047   4.856   4.100
 8431SOL     OW26191   3.932   3.718   0.372
 8431SOL    HW126192   3.856   3.739   0.433
 8431SOL    HW226193   4.017   3.711   0.425
 8432SOL     OW26194   6.696   5.489   5.386
 8432SOL    HW126195   6.608   5.517   5.425
 8432SOL    HW226196   6.767   5.498   5.456
 8433SOL     OW26197   4.078   2.863   0.903
 8433SOL    HW126198   4.014   2.940   0.903
 8433SOL    HW226199   4.062   2.806   0.983
 8434SOL     OW26200   2.510   6.651   4.430
 8434SOL    HW126201   2.420   6.675   4.392
 8434SOL    HW226202   2.579   6.715   4.397
 8435SOL     OW26203   5.244   0.367   2.802
 8435SOL    HW126204   5.256   0.388   2.706
 8435SOL    HW226205   5.326   0.394   2.853
 8436SOL     OW26206   2.978   6.295   3.937
 8436SOL    HW126207   3.056   6.235   3.924
 8436SOL    HW226208   2.899   6.259   3.886
 8437SOL     OW26209   2.188   2.840   2.630
 8437SOL    HW126210   2.261   2.855   2.697
 8437SOL    HW226211   2.216   2.769   2.565
 8438SOL     OW26212   2.554   4.622   2.899
 8438SOL    HW126213   2.623   4.657   2.835
 8438SOL    HW226214   2.524   4.532   2.868
 8439SOL     OW26215   6.469   4.969   3.010
 8439SOL    HW126216   6.451   4.876   3.041
 8439SOL    HW226217   6.519   5.019   3.081
 8440SOL     OW26218   2.265   2.472   3.678
 8440SOL    HW126219   2.317   2.426   3.750
 8440SOL    HW226220   2.209   2.405   3.630
 8441SOL     OW26221   5.636   6.119   6.091
 8441SOL    HW126222   5.599   6.071   6.171
 8441SOL    HW226223   5.636   6.058   6.012
 8442SOL     OW26224   3.717   1.333   4.680
 8442SOL    HW126225   3.720   1.417   4.626
 8442SOL    HW226226   3.763   1.260   4.630
 8443SOL     OW26227   2.303   5.046   3.661
 8443SOL    HW126228   2.298   5.033   3.562
 8443SOL    HW226229   2.378   5.109   3.682
 8444SOL     OW26230   3.105   6.972   3.521
 8444SOL    HW126231   3.110   0.029   3.462
 8444SOL    HW226232   3.198   6.938   3.540
 8445SOL     OW26233   3.075   0.504   0.803
 8445SOL    HW126234   3.063   0.501   0.704
 8445SOL    HW226235   2.997   0.552   0.844
 8446SOL     OW26236   6.716   5.831   5.382
 8446SOL    HW126237   6.721   5.741   5.341
 8446SOL    HW226238   6.620   5.857   5.393
 8447SOL     OW26239   3.848   1.325   1.515
 8447SOL    HW126240   3.750   1.309   1.503
 8447SOL    HW226241   3.889   1.345   1.426
 8448SOL     OW26242   4.867   6.190   3.340
 8448SOL    HW126243   4.921   6.154   3.264
 8448SOL    HW226244   4.928   6.214   3.415
 8449SOL     OW26245   0.605   3.434   3.479
 8449SOL    HW126246   0.594   3.507   3.547
 8449SOL    HW226247   0.541   3.360   3.500
 8450SOL     OW26248   0.548   0.927   1.424
 8450SOL    HW126249   0.539   0.828   1.412
 8450SOL    HW226250   0.562   0.947   1.521
 8451SOL     OW26251   3.055   0.907   0.427
 8451SOL    HW126252   3.051   0.979   0.359
 8451SOL    HW226253   3.140   0.914   0.479
 8452SOL     OW26254   5.147   2.724   4.795
 8452SOL    HW126255   5.062   2.773   4.776
 8452SOL    HW226256   5.217   2.790   4.822
 8453SOL     OW26257   0.107   5.427   0.207
 8453SOL    HW126258   0.085   5.489   0.282
 8453SOL    HW226259   0.027   5.415   0.148
 8454SOL     OW26260   0.117   5.128   0.192
 8454SOL    HW126261   0.207   5.085   0.187
 8454SOL    HW226262   0.127   5.227   0.179
 8455SOL     OW26263   6.629   2.321   3.218
 8455SOL    HW126264   6.622   2.231   3.176
 8455SOL    HW226265   6.712   2.327   3.273
 8456SOL     OW26266   4.536   0.659   3.493
 8456SOL    HW126267   4.483   0.578   3.466
 8456SOL    HW226268   4.582   0.641   3.580
 8457SOL     OW26269   6.544   5.876   4.976
 8457SOL    HW126270   6.523   5.905   4.883
 8457SOL    HW226271   6.596   5.948   5.022
 8458SOL     OW26272   1.394   0.324   0.699
 8458SOL    HW126273   1.315   0.282   0.654
 8458SOL    HW226274   1.384   0.423   0.697
 8459SOL     OW26275   1.993   5.755   3.037
 8459SOL    HW126276   2.014   5.852   3.037
 8459SOL    HW226277   1.913   5.737   2.981
 8460SOL     OW26278   4.679   3.891   5.365
 8460SOL    HW126279   4.602   3.829   5.375
 8460SOL    HW226280   4.753   3.846   5.315
 8461SOL     OW26281   0.905   2.407   5.192
 8461SOL    HW126282   0.897   2.370   5.100
 8461SOL    HW226283   0.992   2.379   5.232
 8462SOL     OW26284   3.255   1.561   0.117
 8462SOL    HW126285   3.208   1.529   0.035
 8462SOL    HW226286   3.189   1.600   0.181
 8463SOL     OW26287   6.378   0.296   1.945
 8463SOL    HW126288   6.373   0.324   1.849
 8463SOL    HW226289   6.395   0.198   1.951
 8464SOL     OW26290   5.715   4.022   4.111
 8464SOL    HW126291   5.635   4.008   4.053
 8464SOL    HW226292   5.688   4.017   4.207
 8465SOL     OW26293   1.614   2.298   0.661
 8465SOL    HW126294   1.662   2.223   0.706
 8465SOL    HW226295   1.539   2.262   0.606
 8466SOL     OW26296   1.463   6.459   4.142
 8466SOL    HW126297   1.523   6.388   4.178
 8466SOL    HW226298   1.426   6.431   4.053
 8467SOL     OW26299   2.986   5.809   0.704
 8467SOL    HW126300   3.076   5.774   0.731
 8467SOL    HW226301   2.990   5.844   0.610
 8468SOL     OW26302   3.003   1.486   0.974
 8468SOL    HW126303   3.060   1.544   1.031
 8468SOL    HW226304   2.931   1.541   0.931
 8469SOL     OW26305   3.129   2.830   6.609
 8469SOL    HW126306   3.084   2.751   6.650
 8469SOL    HW226307   3.169   2.803   6.521
 8470SOL     OW26308   2.381   3.190   1.506
 8470SOL    HW126309   2.407   3.244   1.586
 8470SOL    HW226310   2.462   3.173   1.450
 8471SOL     OW26311   2.755   0.860   3.559
 8471SOL    HW126312   2.678   0.804   3.526
 8471SOL    HW226313   2.803   0.811   3.631
 8472SOL     OW26314   0.148   7.006   4.196
 8472SOL    HW126315   0.166   6.941   4.123
 8472SOL    HW226316   0.170   0.075   4.166
 8473SOL     OW26317   0.070   5.384   6.923
 8473SOL    HW126318   7.003   5.425   6.910
 8473SOL    HW226319   0.100   5.342   6.838
 8474SOL     OW26320   3.077   3.192   1.838
 8474SOL    HW126321   3.096   3.200   1.741
 8474SOL    HW226322   3.097   3.278   1.884
 8475SOL     OW26323   6.879   1.390   2.622
 8475SOL    HW126324   6.785   1.357   2.629
 8475SOL    HW226325   6.879   1.486   2.595
 8476SOL     OW26326   6.183   0.450   2.036
 8476SOL    HW126327   6.256   0.386   2.010
 8476SOL    HW226328   6.183   0.528   1.974
 8477SOL     OW26329   2.922   6.239   1.500
 8477SOL    HW126330   3.019   6.219   1.511
 8477SOL    HW226331   2.893   6.300   1.574
 8478SOL     OW26332   1.239   0.494   5.757
 8478SOL    HW126333   1.191   0.468   5.673
 8478SOL    HW226334   1.179   0.477   5.835
 8479SOL     OW26335   6.047   1.390   0.286
 8479SOL    HW126336   5.955   1.353   0.274
 8479SOL    HW226337   6.101   1.328   0.343
 8480SOL     OW26338   3.416   1.228   1.218
 8480SOL    HW126339   3.469   1.270   1.145
 8480SOL    HW226340   3.467   1.152   1.258
 8481SOL     OW26341   4.262   1.764   3.798
 8481SOL    HW126342   4.324   1.714   3.738
 8481SOL    HW226343   4.300   1.766   3.891
 8482SOL     OW26344   2.245   0.149   1.963
 8482SOL    HW126345   2.265   0.237   1.920
 8482SOL    HW226346   2.147   0.131   1.957
 8483SOL     OW26347   3.093   5.747   2.258
 8483SOL    HW126348   3.009   5.772   2.209
 8483SOL    HW226349   3.142   5.829   2.285
 8484SOL     OW26350   6.865   4.948   2.926
 8484SOL    HW126351   6.798   5.014   2.889
 8484SOL    HW226352   6.910   4.987   3.006
 8485SOL     OW26353   1.738   3.651   6.858
 8485SOL    HW126354   1.735   3.719   6.784
 8485SOL    HW226355   1.788   3.570   6.827
 8486SOL     OW26356   5.428   1.498   2.635
 8486SOL    HW126357   5.507   1.530   2.687
 8486SOL    HW226358   5.441   1.519   2.538
 8487SOL     OW26359   5.207   0.092   0.743
 8487SOL    HW126360   5.227   0.000   0.779
 8487SOL    HW226361   5.246   0.161   0.804
 8488SOL     OW26362   5.839   5.419   5.093
 8488SOL    HW126363   5.787   5.496   5.132
 8488SOL    HW226364   5.918   5.399   5.152
 8489SOL     OW26365   5.915   6.754   1.122
 8489SOL    HW126366   5.871   6.820   1.061
 8489SOL    HW226367   5.857   6.739   1.202
 8490SOL     OW26368   4.717   6.057   3.631
 8490SOL    HW126369   4.635   6.113   3.640
 8490SOL    HW226370   4.793   6.114   3.598
 8491SOL     OW26371   2.853   0.613   1.555
 8491SOL    HW126372   2.812   0.672   1.486
 8491SOL    HW226373   2.804   0.526   1.558
 8492SOL     OW26374   4.614   3.778   5.744
 8492SOL    HW126375   4.591   3.875   5.739
 8492SOL    HW226376   4.533   3.723   5.724
 8493SOL     OW26377   3.261   2.110   0.084
 8493SOL    HW126378   3.251   2.130   0.181
 8493SOL    HW226379   3.288   2.014   0.073
 8494SOL     OW26380   1.598   4.632   6.246
 8494SOL    HW126381   1.681   4.595   6.290
 8494SOL    HW226382   1.563   4.566   6.180
 8495SOL     OW26383   6.926   3.400   0.794
 8495SOL    HW126384   6.960   3.357   0.711
 8495SOL    HW226385   6.898   3.329   0.859
 8496SOL     OW26386   0.270   2.130   3.129
 8496SOL    HW126387   0.265   2.205   3.196
 8496SOL    HW226388   0.232   2.047   3.169
 8497SOL     OW26389   5.465   6.446   4.313
 8497SOL    HW126390   5.516   6.457   4.228
 8497SOL    HW226391   5.367   6.441   4.292
 8498SOL     OW26392   0.344   6.237   1.792
 8498SOL    HW126393   0.299   6.186   1.718
 8498SOL    HW226394   0.435   6.199   1.809
 8499SOL     OW26395   2.192   5.378   5.890
 8499SOL    HW126396   2.231   5.287   5.878
 8499SOL    HW226397   2.266   5.444   5.907
 8500SOL     OW26398   2.412   0.713   5.691
 8500SOL    HW126399   2.396   0.718   5.790
 8500SOL    HW226400   2.387   0.800   5.649
 8501SOL     OW26401   1.728   2.065   0.049
 8501SOL    HW126402   1.826   2.082   0.038
 8501SOL    HW226403   1.698   2.098   0.139
 8502SOL     OW26404   0.568   5.272   1.337
 8502SOL    HW126405   0.472   5.254   1.318
 8502SOL    HW226406   0.623   5.250   1.257
 8503SOL     OW26407   1.235   5.153   2.571
 8503SOL    HW126408   1.294   5.075   2.548
 8503SOL    HW226409   1.159   5.157   2.507
 8504SOL     OW26410   1.611   5.979   3.489
 8504SOL    HW126411   1.515   5.950   3.481
 8504SOL    HW226412   1.669   5.913   3.440
 8505SOL     OW26413   5.028   4.120   3.264
 8505SOL    HW126414   4.939   4.100   3.306
 8505SOL    HW226415   5.014   4.177   3.183
 8506SOL     OW26416   0.822   6.947   0.460
 8506SOL    HW126417   0.827   6.864   0.404
 8506SOL    HW226418   0.739   6.946   0.514
 8507SOL     OW26419   2.192   0.873   5.384
 8507SOL    HW126420   2.284   0.905   5.408
 8507SOL    HW226421   2.130   0.892   5.459
 8508SOL     OW26422   0.282   3.045   4.723
 8508SOL    HW126423   0.240   3.113   4.784
 8508SOL    HW226424   0.243   2.955   4.742
 8509SOL     OW26425   6.154   2.076   4.511
 8509SOL    HW126426   6.071   2.129   4.532
 8509SOL    HW226427   6.132   2.005   4.444
 8510SOL     OW26428   6.610   5.131   3.186
 8510SOL    HW126429   6.639   5.213   3.235
 8510SOL    HW226430   6.601   5.055   3.250
 8511SOL     OW26431   5.739   4.272   1.820
 8511SOL    HW126432   5.822   4.268   1.764
 8511SOL    HW226433   5.752   4.338   1.895
 8512SOL     OW26434   3.767   2.202   0.322
 8512SOL    HW126435   3.801   2.200   0.228
 8512SOL    HW226436   3.817   2.136   0.378
 8513SOL     OW26437   4.924   4.145   1.361
 8513SOL    HW126438   4.958   4.052   1.352
 8513SOL    HW226439   4.882   4.157   1.451
 8514SOL     OW26440   2.361   2.845   3.547
 8514SOL    HW126441   2.415   2.760   3.548
 8514SOL    HW226442   2.409   2.915   3.494
 8515SOL     OW26443   0.337   1.258   6.774
 8515SOL    HW126444   0.269   1.330   6.757
 8515SOL    HW226445   0.297   1.187   6.831
 8516SOL     OW26446   6.336   3.217   1.910
 8516SOL    HW126447   6.296   3.307   1.926
 8516SOL    HW226448   6.351   3.205   1.812
 8517SOL     OW26449   2.017   2.485   6.135
 8517SOL    HW126450   2.054   2.409   6.189
 8517SOL    HW226451   2.058   2.484   6.044
 8518SOL     OW26452   5.382   4.086   5.605
 8518SOL    HW126453   5.296   4.102   5.654
 8518SOL    HW226454   5.363   4.041   5.518
 8519SOL     OW26455   0.575   4.752   0.941
 8519SOL    HW126456   0.644   4.716   0.878
 8519SOL    HW226457   0.610   4.747   1.034
 8520SOL     OW26458   3.184   3.096   5.624
 8520SOL    HW126459   3.187   3.148   5.539
 8520SOL    HW226460   3.201   2.999   5.604
 8521SOL     OW26461   1.886   5.723   5.338
 8521SOL    HW126462   1.975   5.769   5.337
 8521SOL    HW226463   1.856   5.712   5.433
 8522SOL     OW26464   0.274   7.008   1.335
 8522SOL    HW126465   0.212   0.040   1.391
 8522SOL    HW226466   0.320   6.941   1.393
 8523SOL     OW26467   2.791   6.632   6.752
 8523SOL    HW126468   2.730   6.577   6.809
 8523SOL    HW226469   2.795   6.592   6.660
 8524SOL     OW26470   1.233   3.935   5.026
 8524SOL    HW126471   1.313   3.976   5.069
 8524SOL    HW226472   1.209   3.987   4.944
 8525SOL     OW26473   5.750   5.059   1.134
 8525SOL    HW126474   5.786   5.040   1.043
 8525SOL    HW226475   5.665   5.007   1.147
 8526SOL     OW26476   3.625   6.776   0.826
 8526SOL    HW126477   3.579   6.720   0.756
 8526SOL    HW226478   3.722   6.754   0.828
 8527SOL     OW26479   3.435   0.428   0.083
 8527SOL    HW126480   3.399   0.335   0.077
 8527SOL    HW226481   3.362   0.492   0.106
 8528SOL     OW26482   3.750   1.476   0.831
 8528SOL    HW126483   3.767   1.556   0.889
 8528SOL    HW226484   3.815   1.404   0.854
 8529SOL     OW26485   1.059   6.650   0.400
 8529SOL    HW126486   1.037   6.744   0.429
 8529SOL    HW226487   1.117   6.654   0.319
 8530SOL     OW26488   3.946   3.468   5.226
 8530SOL    HW126489   4.004   3.542   5.192
 8530SOL    HW226490   3.953   3.389   5.164
 8531SOL     OW26491   0.024   5.758   2.447
 8531SOL    HW126492   0.098   5.801   2.498
 8531SOL    HW226493   6.969   5.820   2.442
 8532SOL     OW26494   3.802   5.861   4.392
 8532SOL    HW126495   3.864   5.939   4.389
 8532SOL    HW226496   3.734   5.870   4.319
 8533SOL     OW26497   1.593   6.033   0.312
 8533SOL    HW126498   1.651   5.953   0.295
 8533SOL    HW226499   1.640   6.096   0.374
 8534SOL     OW26500   4.824   2.894   4.029
 8534SOL    HW126501   4.834   2.908   4.128
 8534SOL    HW226502   4.869   2.968   3.980
 8535SOL     OW26503   5.950   1.158   4.093
 8535SOL    HW126504   5.958   1.106   4.178
 8535SOL    HW226505   5.967   1.255   4.111
 8536SOL     OW26506   0.862   1.686   5.053
 8536SOL    HW126507   0.909   1.669   5.139
 8536SOL    HW226508   0.875   1.608   4.992
 8537SOL     OW26509   5.631   1.721   3.411
 8537SOL    HW126510   5.585   1.633   3.406
 8537SOL    HW226511   5.721   1.709   3.452
 8538SOL     OW26512   2.133   1.348   6.890
 8538SOL    HW126513   2.071   1.279   6.925
 8538SOL    HW226514   2.183   1.312   6.811
 8539SOL     OW26515   6.852   1.802   2.246
 8539SOL    HW126516   6.841   1.881   2.184
 8539SOL    HW226517   6.813   1.721   2.203
 8540SOL     OW26518   5.922   0.188   6.686
 8540SOL    HW126519   5.919   0.287   6.670
 8540SOL    HW226520   5.912   0.141   6.598
 8541SOL     OW26521   3.616   1.822   3.509
 8541SOL    HW126522   3.558   1.744   3.533
 8541SOL    HW226523   3.670   1.850   3.589
 8542SOL     OW26524   4.024   4.321   6.184
 8542SOL    HW126525   3.982   4.262   6.253
 8542SOL    HW226526   4.007   4.416   6.207
 8543SOL     OW26527   2.115   1.467   1.637
 8543SOL    HW126528   2.170   1.472   1.554
 8543SOL    HW226529   2.065   1.553   1.649
 8544SOL     OW26530   5.725   3.121   4.253
 8544SOL    HW126531   5.802   3.062   4.275
 8544SOL    HW226532   5.640   3.080   4.288
 8545SOL     OW26533   4.558   0.331   5.656
 8545SOL    HW126534   4.642   0.277   5.655
 8545SOL    HW226535   4.481   0.273   5.626
 8546SOL     OW26536   5.693   2.395   4.283
 8546SOL    HW126537   5.707   2.300   4.311
 8546SOL    HW226538   5.779   2.433   4.249
 8547SOL     OW26539   0.830   6.811   6.243
 8547SOL    HW126540   0.736   6.801   6.209
 8547SOL    HW226541   0.836   6.774   6.335
 8548SOL     OW26542   5.893   2.846   4.876
 8548SOL    HW126543   5.900   2.839   4.976
 8548SOL    HW226544   5.881   2.942   4.851
 8549SOL     OW26545   0.519   3.755   4.150
 8549SOL    HW126546   0.550   3.791   4.238
 8549SOL    HW226547   0.489   3.660   4.162
 8550SOL     OW26548   2.109   4.722   6.186
 8550SOL    HW126549   2.094   4.685   6.278
 8550SOL    HW226550   2.166   4.804   6.192
 8551SOL     OW26551   3.777   4.137   6.469
 8551SOL    HW126552   3.808   4.121   6.563
 8551SOL    HW226553   3.681   4.109   6.460
 8552SOL     OW26554   2.783   6.015   4.343
 8552SOL    HW126555   2.795   5.938   4.405
 8552SOL    HW226556   2.778   5.982   4.249
 8553SOL     OW26557   5.410   5.703   6.723
 8553SOL    HW126558   5.477   5.634   6.749
 8553SOL    HW226559   5.343   5.714   6.796
 8554SOL     OW26560   0.584   4.860   0.385
 8554SOL    HW126561   0.535   4.923   0.445
 8554SOL    HW226562   0.540   4.770   0.387
 8555SOL     OW26563   1.141   0.567   3.151
 8555SOL    HW126564   1.188   0.502   3.211
 8555SOL    HW226565   1.071   0.518   3.098
 8556SOL     OW26566   0.792   6.792   3.244
 8556SOL    HW126567   0.882   6.790   3.201
 8556SOL    HW226568   0.786   6.719   3.312
 8557SOL     OW26569   6.497   1.473   2.055
 8557SOL    HW126570   6.541   1.393   2.013
 8557SOL    HW226571   6.522   1.555   2.004
 8558SOL     OW26572   2.612   5.656   2.951
 8558SOL    HW126573   2.524   5.633   2.909
 8558SOL    HW226574   2.637   5.750   2.925
 8559SOL     OW26575   6.356   0.893   2.454
 8559SOL    HW126576   6.418   0.968   2.477
 8559SOL    HW226577   6.408   0.807   2.453
 8560SOL     OW26578   6.595   0.267   1.203
 8560SOL    HW126579   6.602   0.296   1.298
 8560SOL    HW226580   6.574   0.347   1.146
 8561SOL     OW26581   3.559   6.349   2.385
 8561SOL    HW126582   3.503   6.268   2.366
 8561SOL    HW226583   3.543   6.380   2.479
 8562SOL     OW26584   5.205   7.021   4.886
 8562SOL    HW126585   5.152   6.973   4.956
 8562SOL    HW226586   5.172   6.994   4.796
 8563SOL     OW26587   2.442   3.160   6.665
 8563SOL    HW126588   2.344   3.154   6.687
 8563SOL    HW226589   2.469   3.081   6.610
 8564SOL     OW26590   2.222   0.940   3.427
 8564SOL    HW126591   2.231   0.847   3.463
 8564SOL    HW226592   2.312   0.981   3.417
 8565SOL     OW26593   4.622   0.075   1.378
 8565SOL    HW126594   4.539   0.021   1.392
 8565SOL    HW226595   4.685   0.059   1.455
 8566SOL     OW26596   0.879   1.150   2.601
 8566SOL    HW126597   0.949   1.182   2.537
 8566SOL    HW226598   0.838   1.066   2.566
 8567SOL     OW26599   6.708   1.570   1.619
 8567SOL    HW126600   6.620   1.611   1.598
 8567SOL    HW226601   6.734   1.508   1.544
 8568SOL     OW26602   4.693   1.414   6.583
 8568SOL    HW126603   4.605   1.436   6.541
 8568SOL    HW226604   4.715   1.482   6.653
 8569SOL     OW26605   5.032   1.667   5.589
 8569SOL    HW126606   5.056   1.764   5.578
 8569SOL    HW226607   5.098   1.624   5.651
 8570SOL     OW26608   1.045   2.746   6.211
 8570SOL    HW126609   0.981   2.683   6.254
 8570SOL    HW226610   1.046   2.731   6.112
 8571SOL     OW26611   7.001   5.313   5.762
 8571SOL    HW126612   0.067   5.328   5.806
 8571SOL    HW226613   6.930   5.361   5.814
 8572SOL     OW26614   2.688   5.038   6.064
 8572SOL    HW126615   2.777   5.007   6.099
 8572SOL    HW226616   2.630   4.959   6.045
 8573SOL     OW26617   3.801   6.049   6.613
 8573SOL    HW126618   3.729   6.008   6.670
 8573SOL    HW226619   3.764   6.128   6.565
 8574SOL     OW26620   0.241   4.838   5.505
 8574SOL    HW126621   0.233   4.880   5.415
 8574SOL    HW226622   0.208   4.743   5.501
 8575SOL     OW26623   2.738   2.596   0.204
 8575SOL    HW126624   2.749   2.629   0.298
 8575SOL    HW226625   2.718   2.498   0.206
 8576SOL     OW26626   0.782   6.695   0.667
 8576SOL    HW126627   0.789   6.670   0.763
 8576SOL    HW226628   0.860   6.659   0.617
 8577SOL     OW26629   6.120   5.238   4.554
 8577SOL    HW126630   6.179   5.299   4.606
 8577SOL    HW226631   6.071   5.177   4.616
 8578SOL     OW26632   5.013   0.697   3.896
 8578SOL    HW126633   5.039   0.697   3.993
 8578SOL    HW226634   4.957   0.777   3.876
 8579SOL     OW26635   1.447   5.722   3.645
 8579SOL    HW126636   1.415   5.629   3.627
 8579SOL    HW226637   1.513   5.721   3.721
 8580SOL     OW26638   2.433   6.903   1.932
 8580SOL    HW126639   2.382   6.985   1.907
 8580SOL    HW226640   2.423   6.886   2.030
 8581SOL     OW26641   3.246   2.684   1.678
 8581SOL    HW126642   3.289   2.732   1.755
 8581SOL    HW226643   3.280   2.590   1.674
 8582SOL     OW26644   4.626   4.613   2.456
 8582SOL    HW126645   4.607   4.540   2.391
 8582SOL    HW226646   4.718   4.601   2.494
 8583SOL     OW26647   5.773   0.846   6.035
 8583SOL    HW126648   5.788   0.752   6.006
 8583SOL    HW226649   5.692   0.851   6.093
 8584SOL     OW26650   0.424   4.130   6.772
 8584SOL    HW126651   0.471   4.199   6.826
 8584SOL    HW226652   0.470   4.120   6.683
 8585SOL     OW26653   6.759   6.901   0.563
 8585SOL    HW126654   6.820   6.912   0.485
 8585SOL    HW226655   6.666   6.881   0.531
 8586SOL     OW26656   2.561   6.656   3.138
 8586SOL    HW126657   2.654   6.620   3.129
 8586SOL    HW226658   2.502   6.586   3.179
 8587SOL     OW26659   0.883   0.236   2.936
 8587SOL    HW126660   0.886   0.277   2.845
 8587SOL    HW226661   0.788   0.226   2.965
 8588SOL     OW26662   2.811   1.003   0.142
 8588SOL    HW126663   2.765   0.914   0.151
 8588SOL    HW226664   2.788   1.060   0.221
 8589SOL     OW26665   4.093   1.933   4.485
 8589SOL    HW126666   4.057   2.016   4.529
 8589SOL    HW226667   4.184   1.913   4.522
 8590SOL     OW26668   6.697   6.008   4.309
 8590SOL    HW126669   6.655   6.012   4.400
 8590SOL    HW226670   6.698   5.913   4.277
 8591SOL     OW26671   0.649   4.490   6.363
 8591SOL    HW126672   0.631   4.447   6.452
 8591SOL    HW226673   0.574   4.551   6.339
 8592SOL     OW26674   6.954   4.174   0.095
 8592SOL    HW126675   7.012   4.243   0.052
 8592SOL    HW226676   6.985   4.158   0.189
 8593SOL     OW26677   1.314   6.917   2.096
 8593SOL    HW126678   1.398   6.889   2.050
 8593SOL    HW226679   1.290   6.850   2.166
 8594SOL     OW26680   3.431   3.923   5.070
 8594SOL    HW126681   3.407   3.838   5.023
 8594SOL    HW226682   3.469   3.988   5.004
 8595SOL     OW26683   2.261   1.432   2.473
 8595SOL    HW126684   2.296   1.405   2.384
 8595SOL    HW226685   2.322   1.398   2.545
 8596SOL     OW26686   5.978   5.427   2.179
 8596SOL    HW126687   6.002   5.516   2.217
 8596SOL    HW226688   6.037   5.357   2.220
 8597SOL     OW26689   4.133   2.220   1.513
 8597SOL    HW126690   4.218   2.232   1.565
 8597SOL    HW226691   4.075   2.154   1.561
 8598SOL     OW26692   0.211   5.528   1.224
 8598SOL    HW126693   0.111   5.526   1.227
 8598SOL    HW226694   0.245   5.597   1.287
 8599SOL     OW26695   1.180   3.155   3.796
 8599SOL    HW126696   1.217   3.141   3.704
 8599SOL    HW226697   1.246   3.208   3.851
 8600SOL     OW26698   5.672   4.929   6.568
 8600SOL    HW126699   5.675   4.832   6.547
 8600SOL    HW226700   5.763   4.969   6.554
 8601SOL     OW26701   0.838   0.938   4.728
 8601SOL    HW126702   0.855   0.937   4.827
 8601SOL    HW226703   0.787   1.021   4.703
 8602SOL     OW26704   2.138   6.638   2.626
 8602SOL    HW126705   2.109   6.545   2.649
 8602SOL    HW226706   2.074   6.678   2.560
 8603SOL     OW26707   3.761   4.036   0.493
 8603SOL    HW126708   3.850   4.030   0.537
 8603SOL    HW226709   3.769   4.091   0.409
 8604SOL     OW26710   5.985   3.072   3.520
 8604SOL    HW126711   5.971   3.023   3.434
 8604SOL    HW226712   5.910   3.052   3.583
 8605SOL     OW26713   3.362   4.911   4.237
 8605SOL    HW126714   3.281   4.916   4.296
 8605SOL    HW226715   3.444   4.911   4.294
 8606SOL     OW26716   2.379   4.445   5.866
 8606SOL    HW126717   2.459   4.391   5.843
 8606SOL    HW226718   2.303   4.422   5.805
 8607SOL     OW26719   3.166   4.965   1.129
 8607SOL    HW126720   3.263   4.943   1.116
 8607SOL    HW226721   3.158   5.057   1.168
 8608SOL     OW26722   4.773   4.721   3.124
 8608SOL    HW126723   4.776   4.817   3.153
 8608SOL    HW226724   4.776   4.716   3.024
 8609SOL     OW26725   4.196   0.812   4.065
 8609SOL    HW126726   4.231   0.788   4.155
 8609SOL    HW226727   4.097   0.821   4.068
 8610SOL     OW26728   1.346   0.161   2.925
 8610SOL    HW126729   1.311   0.179   2.833
 8610SOL    HW226730   1.410   0.084   2.922
 8611SOL     OW26731   1.730   2.201   4.089
 8611SOL    HW126732   1.772   2.259   4.018
 8611SOL    HW226733   1.802   2.151   4.137
 8612SOL     OW26734   3.141   3.121   6.510
 8612SOL    HW126735   3.187   3.200   6.470
 8612SOL    HW226736   3.094   3.069   6.439
 8613SOL     OW26737   2.287   1.470   1.425
 8613SOL    HW126738   2.351   1.545   1.411
 8613SOL    HW226739   2.257   1.434   1.336
 8614SOL     OW26740   0.799   3.890   2.691
 8614SOL    HW126741   0.814   3.896   2.592
 8614SOL    HW226742   0.887   3.876   2.737
 8615SOL     OW26743   4.902   1.859   4.943
 8615SOL    HW126744   4.879   1.906   4.858
 8615SOL    HW226745   4.992   1.816   4.934
 8616SOL     OW26746   0.761   4.938   0.638
 8616SOL    HW126747   0.842   4.972   0.590
 8616SOL    HW226748   0.684   5.001   0.622
 8617SOL     OW26749   6.100   1.667   0.497
 8617SOL    HW126750   6.098   1.739   0.428
 8617SOL    HW226751   6.037   1.594   0.472
 8618SOL     OW26752   4.979   0.190   1.483
 8618SOL    HW126753   4.985   0.151   1.391
 8618SOL    HW226754   4.908   0.143   1.535
 8619SOL     OW26755   3.512   4.672   0.305
 8619SOL    HW126756   3.560   4.738   0.363
 8619SOL    HW226757   3.519   4.581   0.346
 8620SOL     OW26758   6.325   6.733   3.053
 8620SOL    HW126759   6.242   6.740   3.108
 8620SOL    HW226760   6.404   6.760   3.109
 8621SOL     OW26761   6.030   1.516   3.553
 8621SOL    HW126762   6.035   1.417   3.568
 8621SOL    HW226763   5.964   1.535   3.481
 8622SOL     OW26764   4.332   4.488   0.581
 8622SOL    HW126765   4.273   4.408   0.569
 8622SOL    HW226766   4.329   4.544   0.498
 8623SOL     OW26767   0.709   4.300   3.161
 8623SOL    HW126768   0.638   4.365   3.190
 8623SOL    HW226769   0.792   4.351   3.135
 8624SOL     OW26770   1.142   4.814   3.805
 8624SOL    HW126771   1.127   4.750   3.729
 8624SOL    HW226772   1.208   4.774   3.869
 8625SOL     OW26773   4.740   0.604   3.979
 8625SOL    HW126774   4.657   0.653   4.007
 8625SOL    HW226775   4.813   0.623   4.044
 8626SOL     OW26776   4.077   3.272   4.532
 8626SOL    HW126777   4.006   3.343   4.532
 8626SOL    HW226778   4.133   3.282   4.615
 8627SOL     OW26779   1.186   0.235   2.673
 8627SOL    HW126780   1.208   0.146   2.632
 8627SOL    HW226781   1.234   0.307   2.622
 8628SOL     OW26782   6.221   6.856   1.235
 8628SOL    HW126783   6.138   6.826   1.282
 8628SOL    HW226784   6.236   6.953   1.254
 8629SOL     OW26785   1.634   5.138   4.661
 8629SOL    HW126786   1.625   5.066   4.729
 8629SOL    HW226787   1.663   5.098   4.574
 8630SOL     OW26788   6.097   3.935   4.923
 8630SOL    HW126789   6.153   3.858   4.895
 8630SOL    HW226790   6.000   3.914   4.909
 8631SOL     OW26791   4.098   6.494   6.535
 8631SOL    HW126792   4.178   6.549   6.558
 8631SOL    HW226793   4.017   6.532   6.581
 8632SOL     OW26794   3.512   6.239   3.864
 8632SOL    HW126795   3.519   6.150   3.819
 8632SOL    HW226796   3.590   6.251   3.925
 8633SOL     OW26797   5.034   1.176   4.150
 8633SOL    HW126798   5.067   1.255   4.201
 8633SOL    HW226799   4.975   1.120   4.208
 8634SOL     OW26800   6.463   2.953   1.004
 8634SOL    HW126801   6.418   2.962   1.093
 8634SOL    HW226802   6.438   2.865   0.962
 8635SOL     OW26803   6.129   3.858   5.907
 8635SOL    HW126804   6.090   3.768   5.891
 8635SOL    HW226805   6.113   3.916   5.827
 8636SOL     OW26806   5.568   5.207   6.855
 8636SOL    HW126807   5.596   5.114   6.828
 8636SOL    HW226808   5.478   5.227   6.817
 8637SOL     OW26809   1.658   0.499   0.769
 8637SOL    HW126810   1.559   0.501   0.782
 8637SOL    HW226811   1.684   0.566   0.699
 8638SOL     OW26812   2.041   3.397   0.349
 8638SOL    HW126813   2.082   3.482   0.315
 8638SOL    HW226814   1.983   3.357   0.278
 8639SOL     OW26815   5.887   2.902   1.675
 8639SOL    HW126816   5.857   2.812   1.643
 8639SOL    HW226817   5.890   2.966   1.598
 8640SOL     OW26818   4.841   4.081   0.640
 8640SOL    HW126819   4.772   4.079   0.711
 8640SOL    HW226820   4.932   4.085   0.681
 8641SOL     OW26821   6.761   3.979   4.500
 8641SOL    HW126822   6.766   3.894   4.446
 8641SOL    HW226823   6.853   4.003   4.532
 8642SOL     OW26824   4.137   0.283   2.483
 8642SOL    HW126825   4.227   0.241   2.468
 8642SOL    HW226826   4.099   0.313   2.395
 8643SOL     OW26827   4.118   6.658   6.959
 8643SOL    HW126828   4.211   6.693   6.961
 8643SOL    HW226829   4.061   6.713   7.020
 8644SOL     OW26830   4.912   2.264   5.697
 8644SOL    HW126831   4.928   2.360   5.721
 8644SOL    HW226832   4.831   2.257   5.640
 8645SOL     OW26833   5.591   4.906   1.898
 8645SOL    HW126834   5.590   4.986   1.839
 8645SOL    HW226835   5.517   4.844   1.872
 8646SOL     OW26836   5.946   1.149   1.188
 8646SOL    HW126837   6.043   1.172   1.196
 8646SOL    HW226838   5.917   1.158   1.093
 8647SOL     OW26839   3.800   4.745   6.207
 8647SOL    HW126840   3.879   4.702   6.251
 8647SOL    HW226841   3.832   4.809   6.137
 8648SOL     OW26842   5.656   1.505   4.882
 8648SOL    HW126843   5.624   1.527   4.790
 8648SOL    HW226844   5.742   1.454   4.876
 8649SOL     OW26845   5.707   5.236   5.718
 8649SOL    HW126846   5.748   5.149   5.745
 8649SOL    HW226847   5.645   5.220   5.641
 8650SOL     OW26848   1.511   4.967   4.829
 8650SOL    HW126849   1.447   5.021   4.884
 8650SOL    HW226850   1.498   4.870   4.848
 8651SOL     OW26851   4.135   0.637   0.716
 8651SOL    HW126852   4.226   0.595   0.717
 8651SOL    HW226853   4.092   0.625   0.806
 8652SOL     OW26854   1.479   4.581   3.103
 8652SOL    HW126855   1.418   4.651   3.067
 8652SOL    HW226856   1.557   4.569   3.042
 8653SOL     OW26857   6.159   2.494   6.053
 8653SOL    HW126858   6.169   2.553   5.973
 8653SOL    HW226859   6.147   2.399   6.023
 8654SOL     OW26860   0.833   6.258   1.968
 8654SOL    HW126861   0.847   6.299   2.058
 8654SOL    HW226862   0.915   6.209   1.939
 8655SOL     OW26863   5.899   0.661   3.486
 8655SOL    HW126864   5.875   0.587   3.423
 8655SOL    HW226865   5.901   0.624   3.580
 8656SOL     OW26866   6.138   1.626   1.392
 8656SOL    HW126867   6.069   1.630   1.464
 8656SOL    HW226868   6.176   1.717   1.375
 8657SOL     OW26869   4.502   5.246   6.660
 8657SOL    HW126870   4.446   5.199   6.729
 8657SOL    HW226871   4.573   5.184   6.627
 8658SOL     OW26872   4.639   5.731   0.386
 8658SOL    HW126873   4.710   5.794   0.417
 8658SOL    HW226874   4.648   5.644   0.433
 8659SOL     OW26875   4.719   1.355   3.140
 8659SOL    HW126876   4.647   1.413   3.101
 8659SOL    HW226877   4.682   1.264   3.160
 8660SOL     OW26878   4.863   3.572   0.647
 8660SOL    HW126879   4.863   3.671   0.658
 8660SOL    HW226880   4.793   3.531   0.706
 8661SOL     OW26881   5.757   3.842   1.858
 8661SOL    HW126882   5.798   3.753   1.875
 8661SOL    HW226883   5.814   3.914   1.898
 8662SOL     OW26884   4.945   6.383   1.813
 8662SOL    HW126885   4.914   6.463   1.864
 8662SOL    HW226886   5.028   6.346   1.856
 8663SOL     OW26887   2.617   5.599   0.683
 8663SOL    HW126888   2.662   5.631   0.765
 8663SOL    HW226889   2.540   5.540   0.708
 8664SOL     OW26890   3.666   5.076   0.661
 8664SOL    HW126891   3.593   5.018   0.699
 8664SOL    HW226892   3.656   5.169   0.697
 8665SOL     OW26893   5.402   5.223   5.088
 8665SOL    HW126894   5.500   5.208   5.075
 8665SOL    HW226895   5.371   5.297   5.029
 8666SOL     OW26896   5.398   2.541   4.973
 8666SOL    HW126897   5.451   2.621   4.945
 8666SOL    HW226898   5.375   2.487   4.892
 8667SOL     OW26899   4.829   2.389   3.015
 8667SOL    HW126900   4.919   2.374   3.054
 8667SOL    HW226901   4.825   2.350   2.923
 8668SOL     OW26902   5.084   2.583   3.879
 8668SOL    HW126903   5.054   2.540   3.794
 8668SOL    HW226904   5.090   2.513   3.951
 8669SOL     OW26905   2.904   6.933   6.928
 8669SOL    HW126906   2.931   6.908   6.835
 8669SOL    HW226907   2.821   6.990   6.925
 8670SOL     OW26908   3.359   4.794   5.215
 8670SOL    HW126909   3.268   4.755   5.227
 8670SOL    HW226910   3.428   4.725   5.239
 8671SOL     OW26911   5.790   1.139   3.695
 8671SOL    HW126912   5.853   1.216   3.705
 8671SOL    HW226913   5.805   1.095   3.607
 8672SOL     OW26914   2.440   6.002   4.209
 8672SOL    HW126915   2.512   6.002   4.140
 8672SOL    HW226916   2.480   6.018   4.299
 8673SOL     OW26917   0.217   1.059   6.889
 8673SOL    HW126918   0.240   1.015   6.976
 8673SOL    HW226919   0.118   1.053   6.874
 8674SOL     OW26920   6.571   6.130   1.259
 8674SOL    HW126921   6.631   6.060   1.299
 8674SOL    HW226922   6.626   6.193   1.204
 8675SOL     OW26923   3.442   2.072   4.008
 8675SOL    HW126924   3.538   2.063   3.982
 8675SOL    HW226925   3.435   2.089   4.106
 8676SOL     OW26926   3.438   6.965   3.136
 8676SOL    HW126927   3.534   6.991   3.132
 8676SOL    HW226928   3.382   0.017   3.100
 8677SOL     OW26929   1.747   5.386   5.945
 8677SOL    HW126930   1.784   5.392   5.852
 8677SOL    HW226931   1.821   5.365   6.009
 8678SOL     OW26932   6.953   0.160   0.450
 8678SOL    HW126933   6.886   0.211   0.504
 8678SOL    HW226934   7.000   0.094   0.508
 8679SOL     OW26935   6.432   2.925   4.909
 8679SOL    HW126936   6.429   2.900   5.006
 8679SOL    HW226937   6.346   2.899   4.865
 8680SOL     OW26938   0.563   3.648   0.995
 8680SOL    HW126939   0.609   3.725   0.953
 8680SOL    HW226940   0.464   3.657   0.982
 8681SOL     OW26941   4.350   4.544   0.287
 8681SOL    HW126942   4.298   4.491   0.220
 8681SOL    HW226943   4.391   4.623   0.242
 8682SOL     OW26944   3.800   6.764   2.659
 8682SOL    HW126945   3.810   6.820   2.577
 8682SOL    HW226946   3.779   6.822   2.738
 8683SOL     OW26947   1.155   2.504   1.937
 8683SOL    HW126948   1.201   2.497   2.026
 8683SOL    HW226949   1.140   2.413   1.900
 8684SOL     OW26950   0.693   3.239   4.894
 8684SOL    HW126951   0.755   3.252   4.971
 8684SOL    HW226952   0.647   3.150   4.902
 8685SOL     OW26953   1.206   2.389   5.722
 8685SOL    HW126954   1.125   2.447   5.717
 8685SOL    HW226955   1.277   2.435   5.775
 8686SOL     OW26956   6.795   1.837   1.874
 8686SOL    HW126957   6.794   1.899   1.796
 8686SOL    HW226958   6.798   1.890   1.959
 8687SOL     OW26959   3.478   6.260   2.976
 8687SOL    HW126960   3.411   6.315   2.926
 8687SOL    HW226961   3.464   6.272   3.074
 8688SOL     OW26962   2.614   6.247   0.207
 8688SOL    HW126963   2.603   6.322   0.143
 8688SOL    HW226964   2.531   6.237   0.262
 8689SOL     OW26965   3.397   5.134   6.942
 8689SOL    HW126966   3.454   5.083   7.007
 8689SOL    HW226967   3.308   5.152   6.983
 8690SOL     OW26968   1.670   2.617   3.731
 8690SOL    HW126969   1.694   2.697   3.786
 8690SOL    HW226970   1.590   2.639   3.674
 8691SOL     OW26971   4.303   2.475   6.183
 8691SOL    HW126972   4.221   2.441   6.138
 8691SOL    HW226973   4.327   2.565   6.146
 8692SOL     OW26974   3.500   2.103   2.566
 8692SOL    HW126975   3.407   2.100   2.528
 8692SOL    HW226976   3.566   2.093   2.492
 8693SOL     OW26977   5.547   2.088   0.902
 8693SOL    HW126978   5.605   2.056   0.978
 8693SOL    HW226979   5.511   2.008   0.853
 8694SOL     OW26980   4.102   1.116   6.530
 8694SOL    HW126981   4.162   1.039   6.505
 8694SOL    HW226982   4.024   1.081   6.581
 8695SOL     OW26983   4.206   2.786   5.914
 8695SOL    HW126984   4.224   2.696   5.875
 8695SOL    HW226985   4.126   2.781   5.974
 8696SOL     OW26986   3.240   5.826   1.055
 8696SOL    HW126987   3.185   5.794   1.132
 8696SOL    HW226988   3.180   5.859   0.983
 8697SOL     OW26989   6.558   3.690   0.775
 8697SOL    HW126990   6.590   3.619   0.712
 8697SOL    HW226991   6.589   3.779   0.742
 8698SOL     OW26992   5.820   6.014   3.868
 8698SOL    HW126993   5.887   5.942   3.889
 8698SOL    HW226994   5.782   6.049   3.953
 8699SOL     OW26995   1.616   2.298   5.331
 8699SOL    HW126996   1.662   2.231   5.389
 8699SOL    HW226997   1.572   2.367   5.388
 8700SOL     OW26998   2.412   1.327   4.570
 8700SOL    HW126999   2.389   1.231   4.554
 8700SOL    HW227000   2.368   1.384   4.501
 8701SOL     OW27001   1.438   0.643   0.034
 8701SOL    HW127002   1.424   0.739   0.009
 8701SOL    HW227003   1.380   0.619   0.111
 8702SOL     OW27004   5.514   4.719   6.994
 8702SOL    HW127005   5.595   4.670   0.004
 8702SOL    HW227006   5.444   4.653   6.967
 8703SOL     OW27007   2.568   5.277   1.176
 8703SOL    HW127008   2.559   5.244   1.270
 8703SOL    HW227009   2.649   5.335   1.169
 8704SOL     OW27010   6.166   3.275   2.703
 8704SOL    HW127011   6.114   3.360   2.698
 8704SOL    HW227012   6.224   3.276   2.785
 8705SOL     OW27013   4.807   1.110   0.890
 8705SOL    HW127014   4.735   1.048   0.859
 8705SOL    HW227015   4.780   1.152   0.976
 8706SOL     OW27016   4.444   2.293   5.884
 8706SOL    HW127017   4.506   2.217   5.864
 8706SOL    HW227018   4.350   2.265   5.865
 8707SOL     OW27019   5.107   2.350   6.857
 8707SOL    HW127020   5.042   2.422   6.881
 8707SOL    HW227021   5.122   2.291   6.937
 8708SOL     OW27022   4.476   2.489   2.218
 8708SOL    HW127023   4.477   2.558   2.290
 8708SOL    HW227024   4.386   2.447   2.213
 8709SOL     OW27025   6.678   6.020   6.672
 8709SOL    HW127026   6.745   6.016   6.746
 8709SOL    HW227027   6.671   6.114   6.638
 8710SOL     OW27028   2.156   3.624   2.963
 8710SOL    HW127029   2.194   3.609   3.054
 8710SOL    HW227030   2.127   3.537   2.924
 8711SOL     OW27031   6.927   6.229   2.342
 8711SOL    HW127032   6.958   6.245   2.248
 8711SOL    HW227033   7.007   6.216   2.401
 8712SOL     OW27034   4.080   2.242   4.138
 8712SOL    HW127035   4.154   2.179   4.113
 8712SOL    HW227036   4.094   2.275   4.231
 8713SOL     OW27037   0.374   4.014   3.424
 8713SOL    HW127038   0.472   3.994   3.428
 8713SOL    HW227039   0.352   4.085   3.490
 8714SOL     OW27040   0.489   0.905   5.916
 8714SOL    HW127041   0.461   0.913   6.011
 8714SOL    HW227042   0.413   0.934   5.857
 8715SOL     OW27043   4.897   0.291   1.056
 8715SOL    HW127044   4.820   0.269   0.996
 8715SOL    HW227045   4.864   0.345   1.133
 8716SOL     OW27046   0.789   0.646   1.679
 8716SOL    HW127047   0.816   0.728   1.629
 8716SOL    HW227048   0.691   0.631   1.669
 8717SOL     OW27049   4.068   3.377   2.932
 8717SOL    HW127050   4.045   3.319   3.010
 8717SOL    HW227051   4.011   3.351   2.854
 8718SOL     OW27052   1.301   2.681   5.362
 8718SOL    HW127053   1.289   2.761   5.303
 8718SOL    HW227054   1.243   2.690   5.443
 8719SOL     OW27055   2.021   7.004   6.095
 8719SOL    HW127056   1.998   0.072   6.127
 8719SOL    HW227057   1.939   6.946   6.096
 8720SOL     OW27058   6.363   5.281   5.842
 8720SOL    HW127059   6.416   5.197   5.849
 8720SOL    HW227060   6.288   5.268   5.777
 8721SOL     OW27061   5.482   2.016   4.038
 8721SOL    HW127062   5.546   2.036   3.964
 8721SOL    HW227063   5.394   1.988   4.000
 8722SOL     OW27064   3.738   0.466   0.928
 8722SOL    HW127065   3.685   0.406   0.869
 8722SOL    HW227066   3.686   0.550   0.946
 8723SOL     OW27067   5.604   5.960   1.512
 8723SOL    HW127068   5.599   5.883   1.449
 8723SOL    HW227069   5.618   5.925   1.605
 8724SOL     OW27070   5.985   6.800   4.674
 8724SOL    HW127071   5.903   6.802   4.731
 8724SOL    HW227072   6.047   6.728   4.706
 8725SOL     OW27073   2.673   0.026   6.866
 8725SOL    HW127074   2.606   0.059   6.933
 8725SOL    HW227075   2.625   7.000   6.793
 8726SOL     OW27076   6.522   1.023   1.668
 8726SOL    HW127077   6.495   1.068   1.584
 8726SOL    HW227078   6.594   0.956   1.649
 8727SOL     OW27079   6.549   6.683   1.945
 8727SOL    HW127080   6.452   6.664   1.934
 8727SOL    HW227081   6.593   6.607   1.992
 8728SOL     OW27082   4.247   0.024   4.410
 8728SOL    HW127083   4.198   0.003   4.325
 8728SOL    HW227084   4.264   6.963   4.461
 8729SOL     OW27085   4.648   6.036   3.257
 8729SOL    HW127086   4.727   5.975   3.248
 8729SOL    HW227087   4.667   6.104   3.327
 8730SOL     OW27088   6.551   4.907   2.741
 8730SOL    HW127089   6.538   4.950   2.830
 8730SOL    HW227090   6.534   4.808   2.748
 8731SOL     OW27091   2.105   1.761   2.802
 8731SOL    HW127092   2.101   1.662   2.787
 8731SOL    HW227093   2.199   1.787   2.826
 8732SOL     OW27094   4.920   4.616   1.848
 8732SOL    HW127095   4.864   4.599   1.929
 8732SOL    HW227096   4.862   4.616   1.766
 8733SOL     OW27097   1.323   5.650   3.216
 8733SOL    HW127098   1.379   5.567   3.207
 8733SOL    HW227099   1.368   5.725   3.167
 8734SOL     OW27100   0.791   4.325   2.228
 8734SOL    HW127101   0.803   4.327   2.327
 8734SOL    HW227102   0.752   4.412   2.198
 8735SOL     OW27103   0.848   1.452   6.999
 8735SOL    HW127104   0.900   1.374   0.010
 8735SOL    HW227105   0.896   1.493   6.921
 8736SOL     OW27106   0.845   6.662   6.932
 8736SOL    HW127107   0.881   6.604   7.006
 8736SOL    HW227108   0.870   6.757   6.949
 8737SOL     OW27109   2.828   6.723   5.990
 8737SOL    HW127110   2.850   6.642   5.936
 8737SOL    HW227111   2.878   6.802   5.953
 8738SOL     OW27112   2.075   4.360   3.722
 8738SOL    HW127113   2.074   4.426   3.647
 8738SOL    HW227114   2.168   4.354   3.760
 8739SOL     OW27115   6.155   5.263   5.624
 8739SOL    HW127116   6.062   5.259   5.589
 8739SOL    HW227117   6.219   5.233   5.552
 8740SOL     OW27118   4.395   1.568   5.254
 8740SOL    HW127119   4.490   1.538   5.268
 8740SOL    HW227120   4.375   1.571   5.156
 8741SOL     OW27121   2.122   0.923   2.361
 8741SOL    HW127122   2.058   0.998   2.346
 8741SOL    HW227123   2.179   0.912   2.280
 8742SOL     OW27124   5.565   5.591   1.503
 8742SOL    HW127125   5.616   5.632   1.427
 8742SOL    HW227126   5.572   5.491   1.497
 8743SOL     OW27127   2.185   6.820   2.853
 8743SOL    HW127128   2.185   6.736   2.799
 8743SOL    HW227129   2.259   6.816   2.920
 8744SOL     OW27130   3.678   2.239   6.401
 8744SOL    HW127131   3.621   2.165   6.365
 8744SOL    HW227132   3.731   2.205   6.479
 8745SOL     OW27133   6.698   2.402   6.204
 8745SOL    HW127134   6.680   2.304   6.203
 8745SOL    HW227135   6.620   2.450   6.164
 8746SOL     OW27136   4.440   4.248   5.315
 8746SOL    HW127137   4.521   4.218   5.264
 8746SOL    HW227138   4.416   4.341   5.287
 8747SOL     OW27139   0.611   2.537   3.234
 8747SOL    HW127140   0.667   2.458   3.258
 8747SOL    HW227141   0.596   2.594   3.315
 8748SOL     OW27142   0.100   1.349   6.494
 8748SOL    HW127143   0.006   1.316   6.485
 8748SOL    HW227144   0.164   1.274   6.481
 8749SOL     OW27145   2.523   6.975   5.178
 8749SOL    HW127146   2.557   6.882   5.162
 8749SOL    HW227147   2.448   6.994   5.115
 8750SOL     OW27148   2.973   3.369   5.264
 8750SOL    HW127149   2.958   3.457   5.219
 8750SOL    HW227150   2.890   3.313   5.257
 8751SOL     OW27151   6.311   6.883   2.127
 8751SOL    HW127152   6.325   6.804   2.188
 8751SOL    HW227153   6.283   6.850   2.037
 8752SOL     OW27154   3.086   4.399   6.888
 8752SOL    HW127155   3.053   4.493   6.899
 8752SOL    HW227156   3.058   4.345   6.967
 8753SOL     OW27157   5.060   1.425   4.552
 8753SOL    HW127158   5.008   1.341   4.560
 8753SOL    HW227159   5.103   1.429   4.461
 8754SOL     OW27160   1.065   1.671   5.792
 8754SOL    HW127161   0.973   1.636   5.777
 8754SOL    HW227162   1.124   1.598   5.827
 8755SOL     OW27163   2.583   1.253   6.494
 8755SOL    HW127164   2.506   1.249   6.431
 8755SOL    HW227165   2.554   1.220   6.584
 8756SOL     OW27166   2.119   3.486   3.197
 8756SOL    HW127167   2.141   3.391   3.177
 8756SOL    HW227168   2.078   3.493   3.288
 8757SOL     OW27169   5.530   6.791   5.933
 8757SOL    HW127170   5.439   6.753   5.917
 8757SOL    HW227171   5.543   6.805   6.032
 8758SOL     OW27172   5.013   6.190   2.206
 8758SOL    HW127173   5.045   6.243   2.284
 8758SOL    HW227174   5.069   6.211   2.126
 8759SOL     OW27175   4.098   2.038   6.238
 8759SOL    HW127176   4.133   2.111   6.297
 8759SOL    HW227177   4.007   2.062   6.205
 8760SOL     OW27178   2.166   2.005   4.860
 8760SOL    HW127179   2.155   1.913   4.823
 8760SOL    HW227180   2.127   2.010   4.952
 8761SOL     OW27181   4.349   0.379   0.997
 8761SOL    HW127182   4.408   0.305   1.028
 8761SOL    HW227183   4.282   0.400   1.068
 8762SOL     OW27184   1.458   3.499   2.641
 8762SOL    HW127185   1.438   3.591   2.675
 8762SOL    HW227186   1.503   3.506   2.552
 8763SOL     OW27187   6.190   6.042   4.696
 8763SOL    HW127188   6.210   5.951   4.661
 8763SOL    HW227189   6.272   6.080   4.739
 8764SOL     OW27190   4.739   1.009   4.080
 8764SOL    HW127191   4.737   0.954   3.996
 8764SOL    HW227192   4.655   1.063   4.088
 8765SOL     OW27193   6.094   6.567   4.775
 8765SOL    HW127194   6.033   6.499   4.735
 8765SOL    HW227195   6.092   6.561   4.875
 8766SOL     OW27196   3.835   4.840   3.076
 8766SOL    HW127197   3.818   4.893   2.993
 8766SOL    HW227198   3.932   4.814   3.079
 8767SOL     OW27199   4.466   0.606   3.134
 8767SOL    HW127200   4.451   0.516   3.176
 8767SOL    HW227201   4.558   0.638   3.156
 8768SOL     OW27202   2.017   2.977   0.074
 8768SOL    HW127203   2.020   3.050   0.143
 8768SOL    HW227204   1.929   2.930   0.080
 8769SOL     OW27205   0.872   0.118   4.959
 8769SOL    HW127206   0.951   0.076   4.915
 8769SOL    HW227207   0.788   0.084   4.916
 8770SOL     OW27208   4.980   4.369   2.171
 8770SOL    HW127209   5.032   4.338   2.091
 8770SOL    HW227210   4.996   4.307   2.248
 8771SOL     OW27211   2.115   0.392   5.954
 8771SOL    HW127212   2.196   0.355   5.908
 8771SOL    HW227213   2.084   0.475   5.907
 8772SOL     OW27214   5.950   0.056   0.435
 8772SOL    HW127215   6.006   0.103   0.503
 8772SOL    HW227216   5.989   0.070   0.344
 8773SOL     OW27217   4.817   2.003   3.469
 8773SOL    HW127218   4.828   1.965   3.561
 8773SOL    HW227219   4.886   1.964   3.408
 8774SOL     OW27220   1.707   1.346   0.775
 8774SOL    HW127221   1.718   1.341   0.676
 8774SOL    HW227222   1.795   1.331   0.819
 8775SOL     OW27223   6.029   0.278   4.170
 8775SOL    HW127224   5.995   0.267   4.263
 8775SOL    HW227225   6.094   0.353   4.166
 8776SOL     OW27226   2.942   3.201   4.816
 8776SOL    HW127227   3.022   3.169   4.867
 8776SOL    HW227228   2.864   3.210   4.878
 8777SOL     OW27229   6.876   4.156   1.121
 8777SOL    HW127230   6.917   4.065   1.124
 8777SOL    HW227231   6.779   4.150   1.145
 8778SOL     OW27232   0.291   2.635   4.256
 8778SOL    HW127233   0.376   2.640   4.308
 8778SOL    HW227234   0.309   2.593   4.166
 8779SOL     OW27235   2.366   5.298   2.026
 8779SOL    HW127236   2.271   5.291   1.997
 8779SOL    HW227237   2.400   5.207   2.050
 8780SOL     OW27238   1.352   5.860   3.407
 8780SOL    HW127239   1.349   5.816   3.317
 8780SOL    HW227240   1.338   5.791   3.478
 8781SOL     OW27241   6.762   2.006   4.251
 8781SOL    HW127242   6.675   2.019   4.299
 8781SOL    HW227243   6.808   2.094   4.241
 8782SOL     OW27244   5.732   0.958   1.280
 8782SOL    HW127245   5.711   0.907   1.197
 8782SOL    HW227246   5.793   1.034   1.259
 8783SOL     OW27247   5.775   3.612   3.899
 8783SOL    HW127248   5.852   3.647   3.846
 8783SOL    HW227249   5.730   3.538   3.848
 8784SOL     OW27250   4.914   4.509   5.045
 8784SOL    HW127251   4.819   4.484   5.063
 8784SOL    HW227252   4.971   4.481   5.122
 8785SOL     OW27253   5.741   3.456   6.975
 8785SOL    HW127254   5.668   3.419   0.009
 8785SOL    HW227255   5.826   3.406   6.994
 8786SOL     OW27256   2.538   6.433   7.011
 8786SOL    HW127257   2.559   6.374   6.933
 8786SOL    HW227258   2.538   6.528   6.982
 8787SOL     OW27259   1.266   2.487   2.200
 8787SOL    HW127260   1.252   2.550   2.276
 8787SOL    HW227261   1.362   2.459   2.197
 8788SOL     OW27262   6.677   2.024   5.652
 8788SOL    HW127263   6.742   2.025   5.576
 8788SOL    HW227264   6.653   1.929   5.674
 8789SOL     OW27265   6.178   0.264   5.452
 8789SOL    HW127266   6.187   0.249   5.354
 8789SOL    HW227267   6.268   0.265   5.495
 8790SOL     OW27268   6.558   1.272   0.541
 8790SOL    HW127269   6.631   1.212   0.575
 8790SOL    HW227270   6.554   1.355   0.597
 8791SOL     OW27271   5.044   6.841   5.393
 8791SOL    HW127272   4.959   6.894   5.390
 8791SOL    HW227273   5.067   6.809   5.301
 8792SOL     OW27274   3.953   6.686   3.168
 8792SOL    HW127275   3.948   6.747   3.089
 8792SOL    HW227276   3.898   6.723   3.243
 8793SOL     OW27277   1.979   5.908   4.178
 8793SOL    HW127278   1.999   5.811   4.165
 8793SOL    HW227279   2.056   5.963   4.147
 8794SOL     OW27280   3.624   6.446   2.131
 8794SOL    HW127281   3.598   6.410   2.221
 8794SOL    HW227282   3.602   6.378   2.061
 8795SOL     OW27283   1.376   6.707   5.024
 8795SOL    HW127284   1.396   6.703   4.926
 8795SOL    HW227285   1.452   6.750   5.072
 8796SOL     OW27286   4.215   1.359   5.142
 8796SOL    HW127287   4.280   1.412   5.197
 8796SOL    HW227288   4.142   1.323   5.201
 8797SOL     OW27289   1.114   6.767   5.680
 8797SOL    HW127290   1.150   6.804   5.594
 8797SOL    HW227291   1.135   6.669   5.685
 8798SOL     OW27292   5.624   4.680   5.274
 8798SOL    HW127293   5.590   4.721   5.190
 8798SOL    HW227294   5.705   4.625   5.253
 8799SOL     OW27295   2.020   5.256   3.320
 8799SOL    HW127296   2.035   5.169   3.273
 8799SOL    HW227297   2.097   5.275   3.382
 8800SOL     OW27298   5.321   3.735   4.926
 8800SOL    HW127299   5.395   3.790   4.964
 8800SOL    HW227300   5.252   3.795   4.885
 8801SOL     OW27301   2.491   1.042   4.545
 8801SOL    HW127302   2.580   1.037   4.590
 8801SOL    HW227303   2.496   0.999   4.455
 8802SOL     OW27304   1.472   0.296   1.075
 8802SOL    HW127305   1.473   0.393   1.099
 8802SOL    HW227306   1.379   0.267   1.056
 8803SOL     OW27307   1.510   4.710   5.939
 8803SOL    HW127308   1.540   4.739   6.030
 8803SOL    HW227309   1.570   4.637   5.907
 8804SOL     OW27310   3.707   0.805   1.889
 8804SOL    HW127311   3.694   0.725   1.947
 8804SOL    HW227312   3.683   0.888   1.940
 8805SOL     OW27313   2.431   0.355   3.731
 8805SOL    HW127314   2.491   0.308   3.795
 8805SOL    HW227315   2.417   0.449   3.762
 8806SOL     OW27316   2.142   5.300   1.504
 8806SOL    HW127317   2.122   5.206   1.532
 8806SOL    HW227318   2.234   5.325   1.536
 8807SOL     OW27319   6.427   6.190   6.466
 8807SOL    HW127320   6.466   6.194   6.374
 8807SOL    HW227321   6.431   6.095   6.499
 8808SOL     OW27322   5.623   1.726   0.787
 8808SOL    HW127323   5.662   1.708   0.877
 8808SOL    HW227324   5.526   1.752   0.797
 8809SOL     OW27325   5.332   4.393   2.326
 8809SOL    HW127326   5.329   4.297   2.354
 8809SOL    HW227327   5.326   4.398   2.226
 8810SOL     OW27328   5.706   1.255   5.434
 8810SOL    HW127329   5.708   1.183   5.504
 8810SOL    HW227330   5.737   1.218   5.347
 8811SOL     OW27331   2.287   1.747   4.127
 8811SOL    HW127332   2.322   1.795   4.047
 8811SOL    HW227333   2.244   1.812   4.189
 8812SOL     OW27334   1.093   0.889   0.993
 8812SOL    HW127335   1.048   0.826   1.055
 8812SOL    HW227336   1.080   0.858   0.898
 8813SOL     OW27337   0.925   4.727   1.719
 8813SOL    HW127338   1.024   4.720   1.734
 8813SOL    HW227339   0.884   4.636   1.720
 8814SOL     OW27340   6.209   1.275   0.501
 8814SOL    HW127341   6.259   1.361   0.505
 8814SOL    HW227342   6.216   1.229   0.590
 8815SOL     OW27343   6.718   6.208   0.877
 8815SOL    HW127344   6.747   6.301   0.895
 8815SOL    HW227345   6.630   6.191   0.921
 8816SOL     OW27346   1.511   0.557   1.160
 8816SOL    HW127347   1.444   0.629   1.178
 8816SOL    HW227348   1.588   0.595   1.110
 8817SOL     OW27349   0.430   5.767   5.849
 8817SOL    HW127350   0.360   5.824   5.806
 8817SOL    HW227351   0.500   5.744   5.782
 8818SOL     OW27352   6.815   3.657   3.317
 8818SOL    HW127353   6.718   3.653   3.293
 8818SOL    HW227354   6.854   3.565   3.312
 8819SOL     OW27355   4.626   5.997   3.930
 8819SOL    HW127356   4.656   5.981   3.836
 8819SOL    HW227357   4.526   6.009   3.932
 8820SOL     OW27358   2.510   2.128   4.051
 8820SOL    HW127359   2.473   2.133   4.144
 8820SOL    HW227360   2.539   2.035   4.032
 8821SOL     OW27361   1.787   6.328   6.846
 8821SOL    HW127362   1.741   6.417   6.846
 8821SOL    HW227363   1.854   6.326   6.772
 8822SOL     OW27364   0.839   0.257   3.307
 8822SOL    HW127365   0.806   0.170   3.342
 8822SOL    HW227366   0.764   0.305   3.260
 8823SOL     OW27367   2.101   0.571   1.062
 8823SOL    HW127368   2.060   0.662   1.076
 8823SOL    HW227369   2.031   0.501   1.077
 8824SOL     OW27370   2.069   3.783   0.673
 8824SOL    HW127371   2.100   3.878   0.685
 8824SOL    HW227372   1.970   3.779   0.690
 8825SOL     OW27373   1.908   0.524   3.531
 8825SOL    HW127374   1.880   0.479   3.447
 8825SOL    HW227375   1.938   0.455   3.597
 8826SOL     OW27376   6.374   2.283   0.425
 8826SOL    HW127377   6.395   2.376   0.455
 8826SOL    HW227378   6.367   2.223   0.505
 8827SOL     OW27379   3.143   1.637   3.287
 8827SOL    HW127380   3.060   1.645   3.231
 8827SOL    HW227381   3.168   1.727   3.321
 8828SOL     OW27382   3.954   5.376   4.212
 8828SOL    HW127383   3.964   5.474   4.193
 8828SOL    HW227384   3.950   5.362   4.311
 8829SOL     OW27385   0.335   2.593   6.886
 8829SOL    HW127386   0.369   2.683   6.911
 8829SOL    HW227387   0.352   2.576   6.789
 8830SOL     OW27388   0.416   1.854   0.704
 8830SOL    HW127389   0.355   1.882   0.630
 8830SOL    HW227390   0.362   1.833   0.785
 8831SOL     OW27391   5.480   1.183   3.517
 8831SOL    HW127392   5.413   1.222   3.454
 8831SOL    HW227393   5.432   1.148   3.598
 8832SOL     OW27394   6.411   6.558   2.557
 8832SOL    HW127395   6.324   6.579   2.512
 8832SOL    HW227396   6.400   6.477   2.614
 8833SOL     OW27397   2.093   6.718   5.596
 8833SOL    HW127398   2.118   6.657   5.521
 8833SOL    HW227399   2.024   6.675   5.653
 8834SOL     OW27400   5.796   3.812   4.551
 8834SOL    HW127401   5.832   3.900   4.521
 8834SOL    HW227402   5.716   3.787   4.496
 8835SOL     OW27403   6.227   0.304   5.784
 8835SOL    HW127404   6.282   0.325   5.865
 8835SOL    HW227405   6.287   0.290   5.705
 8836SOL     OW27406   4.317   1.081   6.976
 8836SOL    HW127407   4.398   1.022   6.980
 8836SOL    HW227408   4.309   1.133   0.038
 8837SOL     OW27409   0.569   0.034   2.534
 8837SOL    HW127410   0.654   0.074   2.502
 8837SOL    HW227411   0.557   0.052   2.632
 8838SOL     OW27412   2.755   5.395   2.942
 8838SOL    HW127413   2.702   5.312   2.957
 8838SOL    HW227414   2.694   5.474   2.938
 8839SOL     OW27415   5.315   5.758   2.392
 8839SOL    HW127416   5.263   5.705   2.325
 8839SOL    HW227417   5.269   5.753   2.481
 8840SOL     OW27418   6.893   2.022   2.081
 8840SOL    HW127419   6.872   2.119   2.085
 8840SOL    HW227420   6.986   2.009   2.046
 8841SOL     OW27421   1.358   0.747   5.378
 8841SOL    HW127422   1.287   0.684   5.345
 8841SOL    HW227423   1.359   0.828   5.320
 8842SOL     OW27424   3.518   2.553   0.438
 8842SOL    HW127425   3.429   2.523   0.473
 8842SOL    HW227426   3.505   2.609   0.357
 8843SOL     OW27427   1.769   2.690   5.449
 8843SOL    HW127428   1.705   2.727   5.383
 8843SOL    HW227429   1.831   2.626   5.404
 8844SOL     OW27430   5.262   1.236   6.869
 8844SOL    HW127431   5.255   1.336   6.871
 8844SOL    HW227432   5.354   1.209   6.897
 8845SOL     OW27433   4.313   3.913   0.007
 8845SOL    HW127434   4.386   3.857   0.046
 8845SOL    HW227435   4.231   3.907   0.064
 8846SOL     OW27436   2.196   6.055   4.136
 8846SOL    HW127437   2.289   6.023   4.154
 8846SOL    HW227438   2.195   6.112   4.054
 8847SOL     OW27439   3.235   1.009   2.871
 8847SOL    HW127440   3.207   1.023   2.966
 8847SOL    HW227441   3.291   1.087   2.841
 8848SOL     OW27442   2.530   0.770   1.179
 8848SOL    HW127443   2.459   0.840   1.171
 8848SOL    HW227444   2.494   0.692   1.230
 8849SOL     OW27445   2.800   6.503   3.199
 8849SOL    HW127446   2.877   6.554   3.163
 8849SOL    HW227447   2.820   6.474   3.293
 8850SOL     OW27448   1.485   1.573   0.097
 8850SOL    HW127449   1.437   1.642   0.151
 8850SOL    HW227450   1.584   1.584   0.110
 8851SOL     OW27451   1.928   4.520   2.665
 8851SOL    HW127452   1.837   4.553   2.690
 8851SOL    HW227453   1.976   4.488   2.747
 8852SOL     OW27454   1.055   1.781   5.547
 8852SOL    HW127455   1.052   1.741   5.639
 8852SOL    HW227456   1.150   1.787   5.516
 8853SOL     OW27457   2.983   0.928   1.943
 8853SOL    HW127458   3.061   0.908   1.884
 8853SOL    HW227459   2.975   1.028   1.953
 8854SOL     OW27460   2.198   3.192   4.749
 8854SOL    HW127461   2.214   3.256   4.824
 8854SOL    HW227462   2.265   3.118   4.754
 8855SOL     OW27463   6.390   4.858   1.713
 8855SOL    HW127464   6.331   4.908   1.776
 8855SOL    HW227465   6.458   4.920   1.674
 8856SOL     OW27466   6.470   5.769   6.922
 8856SOL    HW127467   6.373   5.788   6.935
 8856SOL    HW227468   6.523   5.852   6.940
 8857SOL     OW27469   6.657   1.902   5.307
 8857SOL    HW127470   6.736   1.923   5.249
 8857SOL    HW227471   6.666   1.810   5.344
 8858SOL     OW27472   0.134   4.829   4.870
 8858SOL    HW127473   0.201   4.894   4.906
 8858SOL    HW227474   0.052   4.831   4.926
 8859SOL     OW27475   1.361   0.807   3.981
 8859SOL    HW127476   1.334   0.867   4.056
 8859SOL    HW227477   1.413   0.860   3.913
 8860SOL     OW27478   0.148   3.077   1.259
 8860SOL    HW127479   0.049   3.092   1.254
 8860SOL    HW227480   0.195   3.157   1.223
 8861SOL     OW27481   3.898   1.266   0.356
 8861SOL    HW127482   3.941   1.301   0.439
 8861SOL    HW227483   3.903   1.334   0.283
 8862SOL     OW27484   4.802   5.921   4.098
 8862SOL    HW127485   4.768   5.922   4.192
 8862SOL    HW227486   4.728   5.947   4.036
 8863SOL     OW27487   1.729   5.143   3.280
 8863SOL    HW127488   1.787   5.074   3.323
 8863SOL    HW227489   1.767   5.234   3.296
 8864SOL     OW27490   4.887   3.787   6.465
 8864SOL    HW127491   4.877   3.725   6.543
 8864SOL    HW227492   4.870   3.737   6.380
 8865SOL     OW27493   2.937   0.898   5.986
 8865SOL    HW127494   2.920   0.959   5.909
 8865SOL    HW227495   3.021   0.846   5.971
 8866SOL     OW27496   5.190   6.770   2.648
 8866SOL    HW127497   5.242   6.856   2.648
 8866SOL    HW227498   5.197   6.727   2.738
 8867SOL     OW27499   6.086   3.517   3.657
 8867SOL    HW127500   6.050   3.601   3.697
 8867SOL    HW227501   6.069   3.440   3.720
 8868SOL     OW27502   6.867   2.975   2.268
 8868SOL    HW127503   6.848   2.986   2.171
 8868SOL    HW227504   6.910   3.058   2.304
 8869SOL     OW27505   4.215   5.302   4.390
 8869SOL    HW127506   4.257   5.212   4.387
 8869SOL    HW227507   4.177   5.325   4.301
 8870SOL     OW27508   2.005   6.755   1.339
 8870SOL    HW127509   1.963   6.669   1.313
 8870SOL    HW227510   2.027   6.807   1.256
 8871SOL     OW27511   1.655   1.241   3.138
 8871SOL    HW127512   1.698   1.210   3.223
 8871SOL    HW227513   1.556   1.235   3.147
 8872SOL     OW27514   1.209   4.577   6.250
 8872SOL    HW127515   1.237   4.529   6.167
 8872SOL    HW227516   1.223   4.518   6.330
 8873SOL     OW27517   2.072   0.592   1.758
 8873SOL    HW127518   2.010   0.665   1.787
 8873SOL    HW227519   2.033   0.544   1.680
 8874SOL     OW27520   1.267   5.425   1.614
 8874SOL    HW127521   1.274   5.339   1.564
 8874SOL    HW227522   1.356   5.448   1.654
 8875SOL     OW27523   6.931   3.351   4.252
 8875SOL    HW127524   6.896   3.423   4.192
 8875SOL    HW227525   6.878   3.267   4.238
 8876SOL     OW27526   2.842   0.464   6.674
 8876SOL    HW127527   2.892   0.518   6.606
 8876SOL    HW227528   2.869   0.368   6.667
 8877SOL     OW27529   1.155   3.683   2.135
 8877SOL    HW127530   1.201   3.771   2.133
 8877SOL    HW227531   1.212   3.615   2.089
 8878SOL     OW27532   3.523   4.388   0.600
 8878SOL    HW127533   3.493   4.296   0.575
 8878SOL    HW227534   3.523   4.397   0.700
 8879SOL     OW27535   6.732   5.010   2.540
 8879SOL    HW127536   6.812   4.950   2.532
 8879SOL    HW227537   6.664   4.966   2.599
 8880SOL     OW27538   3.984   6.225   4.103
 8880SOL    HW127539   3.992   6.216   4.202
 8880SOL    HW227540   3.961   6.136   4.063
 8881SOL     OW27541   5.317   5.035   4.263
 8881SOL    HW127542   5.218   5.025   4.271
 8881SOL    HW227543   5.358   5.035   4.354
 8882SOL     OW27544   3.768   0.663   0.491
 8882SOL    HW127545   3.766   0.690   0.587
 8882SOL    HW227546   3.856   0.620   0.470
 8883SOL     OW27547   0.544   6.464   5.564
 8883SOL    HW127548   0.465   6.499   5.513
 8883SOL    HW227549   0.598   6.541   5.598
 8884SOL     OW27550   5.756   4.443   5.233
 8884SOL    HW127551   5.696   4.407   5.305
 8884SOL    HW227552   5.718   4.420   5.144
 8885SOL     OW27553   5.348   4.891   0.135
 8885SOL    HW127554   5.431   4.837   0.125
 8885SOL    HW227555   5.367   4.973   0.189
 8886SOL     OW27556   3.721   5.548   6.100
 8886SOL    HW127557   3.625   5.519   6.099
 8886SOL    HW227558   3.737   5.611   6.176
 8887SOL     OW27559   4.227   1.038   0.755
 8887SOL    HW127560   4.294   0.975   0.715
 8887SOL    HW227561   4.275   1.121   0.786
 8888SOL     OW27562   1.852   1.958   3.766
 8888SOL    HW127563   1.818   2.012   3.690
 8888SOL    HW227564   1.849   1.861   3.742
 8889SOL     OW27565   6.714   6.653   6.787
 8889SOL    HW127566   6.792   6.591   6.795
 8889SOL    HW227567   6.638   6.605   6.744
 8890SOL     OW27568   0.538   6.130   0.022
 8890SOL    HW127569   0.522   6.049   0.078
 8890SOL    HW227570   0.451   6.179   0.010
 8891SOL     OW27571   4.551   4.450   6.990
 8891SOL    HW127572   4.588   4.404   6.910
 8891SOL    HW227573   4.480   4.393   0.008
 8892SOL     OW27574   3.773   4.867   3.819
 8892SOL    HW127575   3.690   4.871   3.874
 8892SOL    HW227576   3.755   4.902   3.727
 8893SOL     OW27577   1.174   5.424   5.146
 8893SOL    HW127578   1.158   5.341   5.201
 8893SOL    HW227579   1.269   5.424   5.115
 8894SOL     OW27580   4.729   1.993   0.197
 8894SOL    HW127581   4.675   1.937   0.260
 8894SOL    HW227582   4.767   2.071   0.247
 8895SOL     OW27583   0.622   2.976   0.514
 8895SOL    HW127584   0.538   2.940   0.555
 8895SOL    HW227585   0.665   2.906   0.457
 8896SOL     OW27586   1.657   3.006   4.631
 8896SOL    HW127587   1.641   2.925   4.575
 8896SOL    HW227588   1.577   3.023   4.689
 8897SOL     OW27589   2.034   3.772   3.513
 8897SOL    HW127590   1.962   3.787   3.581
 8897SOL    HW227591   2.124   3.790   3.555
 8898SOL     OW27592   5.399   3.839   2.274
 8898SOL    HW127593   5.367   3.760   2.222
 8898SOL    HW227594   5.432   3.909   2.211
 8899SOL     OW27595   6.815   5.226   6.539
 8899SOL    HW127596   6.821   5.126   6.547
 8899SOL    HW227597   6.788   5.251   6.446
 8900SOL     OW27598   5.662   2.652   3.609
 8900SOL    HW127599   5.594   2.683   3.542
 8900SOL    HW227600   5.678   2.554   3.597
 8901SOL     OW27601   0.882   2.124   3.494
 8901SOL    HW127602   0.964   2.180   3.507
 8901SOL    HW227603   0.909   2.030   3.476
 8902SOL     OW27604   1.798   5.340   0.283
 8902SOL    HW127605   1.852   5.422   0.265
 8902SOL    HW227606   1.776   5.295   0.196
 8903SOL     OW27607   1.558   1.229   5.311
 8903SOL    HW127608   1.481   1.223   5.374
 8903SOL    HW227609   1.544   1.165   5.235
 8904SOL     OW27610   1.027   1.518   3.175
 8904SOL    HW127611   1.045   1.420   3.174
 8904SOL    HW227612   1.054   1.558   3.088
 8905SOL     OW27613   1.659   2.751   2.715
 8905SOL    HW127614   1.746   2.758   2.666
 8905SOL    HW227615   1.677   2.739   2.813
 8906SOL     OW27616   0.552   6.336   0.838
 8906SOL    HW127617   0.548   6.351   0.739
 8906SOL    HW227618   0.538   6.239   0.858
 8907SOL     OW27619   3.196   2.612   5.303
 8907SOL    HW127620   3.214   2.521   5.264
 8907SOL    HW227621   3.099   2.632   5.296
 8908SOL     OW27622   1.417   4.494   0.539
 8908SOL    HW127623   1.326   4.466   0.571
 8908SOL    HW227624   1.408   4.541   0.451
 8909SOL     OW27625   2.717   1.016   6.293
 8909SOL    HW127626   2.625   1.028   6.255
 8909SOL    HW227627   2.775   1.092   6.263
 8910SOL     OW27628   0.662   2.661   5.141
 8910SOL    HW127629   0.700   2.631   5.053
 8910SOL    HW227630   0.733   2.658   5.211
 8911SOL     OW27631   5.026   2.239   4.464
 8911SOL    HW127632   5.111   2.249   4.414
 8911SOL    HW227633   5.036   2.168   4.534
 8912SOL     OW27634   3.445   2.744   5.606
 8912SOL    HW127635   3.505   2.755   5.527
 8912SOL    HW227636   3.481   2.796   5.683
 8913SOL     OW27637   4.921   5.295   0.510
 8913SOL    HW127638   4.977   5.242   0.447
 8913SOL    HW227639   4.858   5.234   0.558
 8914SOL     OW27640   4.942   6.735   4.827
 8914SOL    HW127641   5.028   6.697   4.860
 8914SOL    HW227642   4.898   6.787   4.900
 8915SOL     OW27643   1.511   1.431   4.497
 8915SOL    HW127644   1.571   1.501   4.536
 8915SOL    HW227645   1.514   1.436   4.397
 8916SOL     OW27646   5.767   2.027   6.414
 8916SOL    HW127647   5.688   1.979   6.376
 8916SOL    HW227648   5.749   2.125   6.415
 8917SOL     OW27649   5.678   1.918   0.589
 8917SOL    HW127650   5.582   1.937   0.568
 8917SOL    HW227651   5.688   1.824   0.621
 8918SOL     OW27652   1.696   5.404   1.085
 8918SOL    HW127653   1.685   5.305   1.092
 8918SOL    HW227654   1.607   5.449   1.089
 8919SOL     OW27655   5.015   4.719   6.404
 8919SOL    HW127656   4.949   4.794   6.403
 8919SOL    HW227657   5.054   4.708   6.312
 8920SOL     OW27658   0.634   1.628   7.012
 8920SOL    HW127659   0.550   1.587   6.977
 8920SOL    HW227660   0.702   1.556   0.006
 8921SOL     OW27661   1.256   2.828   1.084
 8921SOL    HW127662   1.319   2.829   1.007
 8921SOL    HW227663   1.168   2.789   1.055
 8922SOL     OW27664   3.965   6.606   1.822
 8922SOL    HW127665   3.989   6.565   1.734
 8922SOL    HW227666   3.882   6.661   1.813
 8923SOL     OW27667   1.134   1.929   5.871
 8923SOL    HW127668   1.143   1.838   5.830
 8923SOL    HW227669   1.180   1.996   5.812
 8924SOL     OW27670   5.125   5.904   4.736
 8924SOL    HW127671   5.091   5.867   4.649
 8924SOL    HW227672   5.188   5.838   4.777
 8925SOL     OW27673   6.750   0.349   2.254
 8925SOL    HW127674   6.817   0.423   2.246
 8925SOL    HW227675   6.762   0.302   2.341
 8926SOL     OW27676   6.638   3.741   5.190
 8926SOL    HW127677   6.539   3.746   5.186
 8926SOL    HW227678   6.668   3.739   5.286
 8927SOL     OW27679   6.907   1.517   5.319
 8927SOL    HW127680   7.000   1.536   5.289
 8927SOL    HW227681   6.882   1.424   5.291
 8928SOL     OW27682   1.547   6.891   6.304
 8928SOL    HW127683   1.615   6.950   6.260
 8928SOL    HW227684   1.457   6.907   6.261
 8929SOL     OW27685   6.276   2.142   5.073
 8929SOL    HW127686   6.336   2.124   4.995
 8929SOL    HW227687   6.181   2.151   5.041
 8930SOL     OW27688   1.298   3.444   2.908
 8930SOL    HW127689   1.330   3.446   2.814
 8930SOL    HW227690   1.231   3.516   2.922
 8931SOL     OW27691   3.111   3.224   1.559
 8931SOL    HW127692   3.169   3.191   1.485
 8931SOL    HW227693   3.037   3.280   1.522
 8932SOL     OW27694   0.125   2.410   3.045
 8932SOL    HW127695   0.219   2.441   3.054
 8932SOL    HW227696   0.123   2.323   2.996
 8933SOL     OW27697   2.926   2.473   6.505
 8933SOL    HW127698   2.853   2.405   6.506
 8933SOL    HW227699   2.951   2.497   6.599
 8934SOL     OW27700   3.625   4.959   4.827
 8934SOL    HW127701   3.725   4.964   4.834
 8934SOL    HW227702   3.584   4.984   4.915
 8935SOL     OW27703   0.507   4.493   0.794
 8935SOL    HW127704   0.552   4.408   0.765
 8935SOL    HW227705   0.547   4.570   0.744
 8936SOL     OW27706   1.530   3.472   0.233
 8936SOL    HW127707   1.600   3.483   0.303
 8936SOL    HW227708   1.546   3.387   0.182
 8937SOL     OW27709   0.685   0.052   5.416
 8937SOL    HW127710   0.624   7.006   5.376
 8937SOL    HW227711   0.780   0.030   5.395
 8938SOL     OW27712   0.352   5.448   0.763
 8938SOL    HW127713   0.255   5.457   0.788
 8938SOL    HW227714   0.388   5.538   0.737
 8939SOL     OW27715   4.935   2.616   4.462
 8939SOL    HW127716   4.864   2.671   4.505
 8939SOL    HW227717   4.893   2.545   4.405
 8940SOL     OW27718   0.251   0.949   4.053
 8940SOL    HW127719   0.291   0.957   4.144
 8940SOL    HW227720   0.182   1.020   4.040
 8941SOL     OW27721   5.695   2.214   5.752
 8941SOL    HW127722   5.705   2.256   5.662
 8941SOL    HW227723   5.601   2.184   5.766
 8942SOL     OW27724   0.705   3.405   5.903
 8942SOL    HW127725   0.623   3.450   5.936
 8942SOL    HW227726   0.717   3.424   5.805
 8943SOL     OW27727   4.345   3.983   0.299
 8943SOL    HW127728   4.336   4.015   0.393
 8943SOL    HW227729   4.287   4.038   0.239
 8944SOL     OW27730   4.865   5.164   5.238
 8944SOL    HW127731   4.846   5.113   5.323
 8944SOL    HW227732   4.782   5.170   5.183
 8945SOL     OW27733   2.160   0.906   3.955
 8945SOL    HW127734   2.237   0.950   4.000
 8945SOL    HW227735   2.080   0.910   4.015
 8946SOL     OW27736   2.940   1.599   5.288
 8946SOL    HW127737   2.996   1.663   5.235
 8946SOL    HW227738   2.947   1.622   5.385
 8947SOL     OW27739   1.227   3.708   5.164
 8947SOL    HW127740   1.212   3.790   5.109
 8947SOL    HW227741   1.265   3.636   5.106
 8948SOL     OW27742   5.980   5.656   4.104
 8948SOL    HW127743   5.994   5.736   4.046
 8948SOL    HW227744   5.902   5.672   4.164
 8949SOL     OW27745   1.640   0.222   0.641
 8949SOL    HW127746   1.658   0.290   0.712
 8949SOL    HW227747   1.542   0.214   0.626
 8950SOL     OW27748   4.855   2.968   5.463
 8950SOL    HW127749   4.952   2.988   5.446
 8950SOL    HW227750   4.805   3.053   5.476
 8951SOL     OW27751   1.771   1.977   5.159
 8951SOL    HW127752   1.678   1.956   5.189
 8951SOL    HW227753   1.832   1.977   5.237
 8952SOL     OW27754   1.083   0.515   2.081
 8952SOL    HW127755   1.121   0.594   2.129
 8952SOL    HW227756   1.154   0.473   2.025
 8953SOL     OW27757   0.942   3.715   6.953
 8953SOL    HW127758   0.964   3.683   6.861
 8953SOL    HW227759   0.987   3.657   7.021
 8954SOL     OW27760   0.268   5.948   5.726
 8954SOL    HW127761   0.280   5.938   5.627
 8954SOL    HW227762   0.302   6.037   5.754
 8955SOL     OW27763   0.353   4.347   2.587
 8955SOL    HW127764   0.321   4.413   2.519
 8955SOL    HW227765   0.449   4.325   2.571
 8956SOL     OW27766   6.759   1.363   0.031
 8956SOL    HW127767   6.665   1.394   0.038
 8956SOL    HW227768   6.787   1.318   0.116
 8957SOL     OW27769   2.903   4.099   1.487
 8957SOL    HW127770   2.970   4.172   1.482
 8957SOL    HW227771   2.906   4.056   1.577
 8958SOL     OW27772   1.137   0.794   3.824
 8958SOL    HW127773   1.100   0.703   3.807
 8958SOL    HW227774   1.220   0.787   3.879
 8959SOL     OW27775   1.717   4.770   0.959
 8959SOL    HW127776   1.777   4.692   0.941
 8959SOL    HW227777   1.763   4.854   0.931
 8960SOL     OW27778   5.224   5.580   2.599
 8960SOL    HW127779   5.165   5.606   2.675
 8960SOL    HW227780   5.182   5.504   2.548
 8961SOL     OW27781   1.790   2.137   4.412
 8961SOL    HW127782   1.812   2.098   4.502
 8961SOL    HW227783   1.805   2.068   4.341
 8962SOL     OW27784   6.257   6.739   1.885
 8962SOL    HW127785   6.172   6.720   1.934
 8962SOL    HW227786   6.246   6.715   1.788
 8963SOL     OW27787   5.137   6.675   4.309
 8963SOL    HW127788   5.184   6.591   4.281
 8963SOL    HW227789   5.089   6.660   4.395
 8964SOL     OW27790   5.999   3.781   3.045
 8964SOL    HW127791   6.001   3.711   3.116
 8964SOL    HW227792   5.905   3.802   3.021
 8965SOL     OW27793   2.002   4.855   1.030
 8965SOL    HW127794   2.078   4.791   1.014
 8965SOL    HW227795   1.944   4.820   1.103
 8966SOL     OW27796   1.900   3.767   5.550
 8966SOL    HW127797   1.822   3.724   5.505
 8966SOL    HW227798   1.937   3.705   5.619
 8967SOL     OW27799   3.401   5.832   1.620
 8967SOL    HW127800   3.412   5.919   1.667
 8967SOL    HW227801   3.485   5.811   1.569
 8968SOL     OW27802   4.725   5.677   2.712
 8968SOL    HW127803   4.670   5.653   2.792
 8968SOL    HW227804   4.799   5.738   2.739
 8969SOL     OW27805   6.372   0.420   3.785
 8969SOL    HW127806   6.390   0.322   3.775
 8969SOL    HW227807   6.274   0.435   3.794
 8970SOL     OW27808   2.937   2.458   0.434
 8970SOL    HW127809   2.877   2.533   0.461
 8970SOL    HW227810   3.008   2.492   0.372
 8971SOL     OW27811   3.599   5.806   2.245
 8971SOL    HW127812   3.585   5.708   2.235
 8971SOL    HW227813   3.694   5.829   2.225
 8972SOL     OW27814   4.676   5.858   6.254
 8972SOL    HW127815   4.579   5.839   6.267
 8972SOL    HW227816   4.695   5.874   6.157
 8973SOL     OW27817   0.799   3.368   2.283
 8973SOL    HW127818   0.862   3.403   2.352
 8973SOL    HW227819   0.785   3.271   2.297
 8974SOL     OW27820   1.385   4.246   5.601
 8974SOL    HW127821   1.390   4.174   5.669
 8974SOL    HW227822   1.293   4.249   5.563
 8975SOL     OW27823   2.389   0.715   6.772
 8975SOL    HW127824   2.437   0.770   6.703
 8975SOL    HW227825   2.372   0.623   6.737
 8976SOL     OW27826   0.699   5.033   5.278
 8976SOL    HW127827   0.739   4.961   5.221
 8976SOL    HW227828   0.614   4.999   5.319
 8977SOL     OW27829   5.556   1.765   6.851
 8977SOL    HW127830   5.579   1.668   6.842
 8977SOL    HW227831   5.542   1.804   6.760
 8978SOL     OW27832   6.202   6.482   6.346
 8978SOL    HW127833   6.133   6.538   6.299
 8978SOL    HW227834   6.288   6.532   6.350
 8979SOL     OW27835   1.346   3.231   4.016
 8979SOL    HW127836   1.252   3.253   4.044
 8979SOL    HW227837   1.405   3.309   4.035
 8980SOL     OW27838   2.225   2.984   5.275
 8980SOL    HW127839   2.165   3.064   5.273
 8980SOL    HW227840   2.273   2.976   5.188
 8981SOL     OW27841   3.658   1.720   5.239
 8981SOL    HW127842   3.674   1.800   5.182
 8981SOL    HW227843   3.745   1.687   5.276
 8982SOL     OW27844   1.625   2.578   0.227
 8982SOL    HW127845   1.607   2.517   0.150
 8982SOL    HW227846   1.539   2.598   0.274
 8983SOL     OW27847   2.882   6.244   6.481
 8983SOL    HW127848   2.921   6.324   6.528
 8983SOL    HW227849   2.919   6.161   6.522
 8984SOL     OW27850   0.928   6.754   3.694
 8984SOL    HW127851   0.956   6.767   3.790
 8984SOL    HW227852   0.853   6.688   3.690
 8985SOL     OW27853   3.687   2.172   0.823
 8985SOL    HW127854   3.693   2.078   0.790
 8985SOL    HW227855   3.754   2.228   0.774
 8986SOL     OW27856   4.468   5.734   2.496
 8986SOL    HW127857   4.489   5.709   2.591
 8986SOL    HW227858   4.400   5.670   2.460
 8987SOL     OW27859   4.077   6.489   2.058
 8987SOL    HW127860   4.046   6.478   1.963
 8987SOL    HW227861   4.113   6.581   2.071
 8988SOL     OW27862   1.451   4.609   4.571
 8988SOL    HW127863   1.508   4.527   4.568
 8988SOL    HW227864   1.433   4.635   4.666
 8989SOL     OW27865   4.897   3.505   6.608
 8989SOL    HW127866   4.799   3.518   6.599
 8989SOL    HW227867   4.919   3.481   6.703
 8990SOL     OW27868   1.214   5.341   4.829
 8990SOL    HW127869   1.260   5.299   4.751
 8990SOL    HW227870   1.274   5.410   4.870
 8991SOL     OW27871   1.716   3.256   4.643
 8991SOL    HW127872   1.694   3.161   4.621
 8991SOL    HW227873   1.744   3.262   4.739
 8992SOL     OW27874   4.547   1.705   0.795
 8992SOL    HW127875   4.477   1.765   0.756
 8992SOL    HW227876   4.623   1.694   0.731
 8993SOL     OW27877   4.086   2.319   0.040
 8993SOL    HW127878   4.000   2.365   0.018
 8993SOL    HW227879   4.101   2.322   0.139
 8994SOL     OW27880   1.664   4.179   5.570
 8994SOL    HW127881   1.591   4.241   5.599
 8994SOL    HW227882   1.665   4.172   5.471
 8995SOL     OW27883   0.525   1.895   0.233
 8995SOL    HW127884   0.589   1.968   0.209
 8995SOL    HW227885   0.575   1.808   0.238
 8996SOL     OW27886   5.760   4.220   6.723
 8996SOL    HW127887   5.674   4.201   6.675
 8996SOL    HW227888   5.751   4.195   6.819
 8997SOL     OW27889   5.113   1.555   6.234
 8997SOL    HW127890   5.176   1.517   6.167
 8997SOL    HW227891   5.038   1.601   6.187
 8998SOL     OW27892   6.223   3.796   4.341
 8998SOL    HW127893   6.224   3.846   4.255
 8998SOL    HW227894   6.179   3.851   4.412
 8999SOL     OW27895   4.515   6.431   6.685
 8999SOL    HW127896   4.567   6.469   6.762
 8999SOL    HW227897   4.432   6.388   6.720
 9000SOL     OW27898   1.792   3.494   1.808
 9000SOL    HW127899   1.812   3.473   1.712
 9000SOL    HW227900   1.793   3.593   1.821
 9001SOL     OW27901   1.303   4.820   2.046
 9001SOL    HW127902   1.298   4.804   1.948
 9001SOL    HW227903   1.315   4.733   2.094
 9002SOL     OW27904   1.666   5.183   4.924
 9002SOL    HW127905   1.718   5.214   4.845
 9002SOL    HW227906   1.598   5.116   4.895
 9003SOL     OW27907   5.592   4.403   1.457
 9003SOL    HW127908   5.646   4.319   1.451
 9003SOL    HW227909   5.594   4.439   1.550
 9004SOL     OW27910   4.149   5.257   0.741
 9004SOL    HW127911   4.200   5.310   0.673
 9004SOL    HW227912   4.154   5.302   0.830
 9005SOL     OW27913   6.685   1.636   5.414
 9005SOL    HW127914   6.686   1.652   5.513
 9005SOL    HW227915   6.771   1.596   5.385
 9006SOL     OW27916   2.153   5.716   1.219
 9006SOL    HW127917   2.082   5.647   1.237
 9006SOL    HW227918   2.166   5.724   1.120
 9007SOL     OW27919   3.246   0.810   3.426
 9007SOL    HW127920   3.330   0.757   3.414
 9007SOL    HW227921   3.197   0.815   3.340
 9008SOL     OW27922   0.887   5.265   2.670
 9008SOL    HW127923   0.869   5.363   2.687
 9008SOL    HW227924   0.958   5.256   2.601
 9009SOL     OW27925   3.018   5.237   0.864
 9009SOL    HW127926   3.047   5.290   0.943
 9009SOL    HW227927   2.950   5.169   0.892
 9010SOL     OW27928   1.922   6.379   4.016
 9010SOL    HW127929   1.918   6.318   3.936
 9010SOL    HW227930   1.940   6.472   3.985
 9011SOL     OW27931   4.512   0.884   1.074
 9011SOL    HW127932   4.482   0.789   1.077
 9011SOL    HW227933   4.532   0.916   1.167
 9012SOL     OW27934   2.093   5.035   6.735
 9012SOL    HW127935   2.127   5.056   6.826
 9012SOL    HW227936   2.073   5.120   6.686
 9013SOL     OW27937   0.563   0.408   6.319
 9013SOL    HW127938   0.660   0.400   6.341
 9013SOL    HW227939   0.531   0.324   6.275
 9014SOL     OW27940   0.137   2.075   0.937
 9014SOL    HW127941   0.220   2.123   0.909
 9014SOL    HW227942   0.152   1.976   0.932
 9015SOL     OW27943   4.855   2.212   1.667
 9015SOL    HW127944   4.918   2.150   1.620
 9015SOL    HW227945   4.830   2.173   1.755
 9016SOL     OW27946   6.601   6.008   6.956
 9016SOL    HW127947   6.697   6.038   6.959
 9016SOL    HW227948   6.542   6.087   6.943
 9017SOL     OW27949   4.656   1.663   4.182
 9017SOL    HW127950   4.570   1.714   4.187
 9017SOL    HW227951   4.679   1.647   4.086
 9018SOL     OW27952   2.686   3.186   5.733
 9018SOL    HW127953   2.775   3.173   5.777
 9018SOL    HW227954   2.684   3.275   5.688
 9019SOL     OW27955   1.593   5.219   2.630
 9019SOL    HW127956   1.534   5.153   2.584
 9019SOL    HW227957   1.558   5.237   2.722
 9020SOL     OW27958   6.886   3.886   0.939
 9020SOL    HW127959   6.858   3.850   1.028
 9020SOL    HW227960   6.986   3.887   0.933
 9021SOL     OW27961   0.145   1.282   3.429
 9021SOL    HW127962   0.147   1.378   3.403
 9021SOL    HW227963   0.062   1.239   3.392
 9022SOL     OW27964   2.721   1.235   0.279
 9022SOL    HW127965   2.739   1.269   0.187
 9022SOL    HW227966   2.630   1.266   0.308
 9023SOL     OW27967   3.340   3.618   1.820
 9023SOL    HW127968   3.352   3.542   1.756
 9023SOL    HW227969   3.429   3.656   1.844
 9024SOL     OW27970   1.376   3.748   5.947
 9024SOL    HW127971   1.407   3.761   5.853
 9024SOL    HW227972   1.281   3.719   5.948
 9025SOL     OW27973   0.495   5.071   0.534
 9025SOL    HW127974   0.451   5.047   0.621
 9025SOL    HW227975   0.459   5.159   0.502
 9026SOL     OW27976   3.419   2.195   0.898
 9026SOL    HW127977   3.513   2.191   0.863
 9026SOL    HW227978   3.402   2.287   0.935
 9027SOL     OW27979   0.408   3.421   3.014
 9027SOL    HW127980   0.427   3.443   3.110
 9027SOL    HW227981   0.414   3.504   2.959
 9028SOL     OW27982   3.217   2.914   5.267
 9028SOL    HW127983   3.227   2.815   5.266
 9028SOL    HW227984   3.294   2.956   5.219
 9029SOL     OW27985   3.730   6.744   4.921
 9029SOL    HW127986   3.741   6.774   5.016
 9029SOL    HW227987   3.691   6.819   4.867
 9030SOL     OW27988   2.078   2.039   3.500
 9030SOL    HW127989   1.995   2.058   3.448
 9030SOL    HW227990   2.158   2.068   3.447
 9031SOL     OW27991   4.291   6.339   3.885
 9031SOL    HW127992   4.329   6.431   3.880
 9031SOL    HW227993   4.192   6.345   3.899
 9032SOL     OW27994   4.812   4.142   1.106
 9032SOL    HW127995   4.841   4.171   1.198
 9032SOL    HW227996   4.767   4.053   1.112
 9033SOL     OW27997   0.653   4.547   2.717
 9033SOL    HW127998   0.631   4.452   2.695
 9033SOL    HW227999   0.607   4.573   2.802
 9034SOL     OW28000   2.695   5.751   4.788
 9034SOL    HW128001   2.626   5.722   4.722
 9034SOL    HW228002   2.786   5.737   4.750
 9035SOL     OW28003   2.123   4.736   0.133
 9035SOL    HW128004   2.198   4.796   0.105
 9035SOL    HW228005   2.044   4.751   0.073
 9036SOL     OW28006   2.054   3.219   5.726
 9036SOL    HW128007   2.067   3.281   5.648
 9036SOL    HW228008   2.143   3.182   5.753
 9037SOL     OW28009   0.854   4.099   3.811
 9037SOL    HW128010   0.869   4.108   3.909
 9037SOL    HW228011   0.913   4.025   3.775
 9038SOL     OW28012   4.513   2.488   6.617
 9038SOL    HW128013   4.536   2.582   6.595
 9038SOL    HW228014   4.434   2.459   6.564
 9039SOL     OW28015   2.438   5.018   6.550
 9039SOL    HW128016   2.452   5.112   6.582
 9039SOL    HW228017   2.350   5.012   6.503
 9040SOL     OW28018   2.505   2.465   2.939
 9040SOL    HW128019   2.477   2.561   2.933
 9040SOL    HW228020   2.452   2.411   2.874
 9041SOL     OW28021   1.143   2.262   0.961
 9041SOL    HW128022   1.138   2.225   0.868
 9041SOL    HW228023   1.189   2.351   0.959
 9042SOL     OW28024   4.180   0.254   4.057
 9042SOL    HW128025   4.231   0.274   4.140
 9042SOL    HW228026   4.169   0.155   4.048
 9043SOL     OW28027   2.465   0.824   6.515
 9043SOL    HW128028   2.564   0.832   6.526
 9043SOL    HW228029   2.421   0.908   6.546
 9044SOL     OW28030   6.502   0.800   0.293
 9044SOL    HW128031   6.494   0.807   0.393
 9044SOL    HW228032   6.503   0.892   0.253
 9045SOL     OW28033   3.843   1.125   2.608
 9045SOL    HW128034   3.937   1.115   2.641
 9045SOL    HW228035   3.830   1.073   2.524
 9046SOL     OW28036   3.529   4.134   2.872
 9046SOL    HW128037   3.599   4.158   2.805
 9046SOL    HW228038   3.570   4.128   2.963
 9047SOL     OW28039   1.796   3.654   4.807
 9047SOL    HW128040   1.762   3.561   4.791
 9047SOL    HW228041   1.727   3.720   4.779
 9048SOL     OW28042   6.547   2.955   6.074
 9048SOL    HW128043   6.477   2.985   6.139
 9048SOL    HW228044   6.515   2.873   6.026
 9049SOL     OW28045   3.960   6.717   5.557
 9049SOL    HW128046   3.963   6.814   5.579
 9049SOL    HW228047   3.991   6.664   5.636
 9050SOL     OW28048   0.573   3.853   1.289
 9050SOL    HW128049   0.475   3.873   1.298
 9050SOL    HW228050   0.586   3.773   1.230
 9051SOL     OW28051   2.451   0.520   1.302
 9051SOL    HW128052   2.500   0.451   1.250
 9051SOL    HW228053   2.481   0.519   1.397
 9052SOL     OW28054   2.524   2.596   4.198
 9052SOL    HW128055   2.589   2.524   4.223
 9052SOL    HW228056   2.487   2.577   4.107
 9053SOL     OW28057   2.358   1.088   2.215
 9053SOL    HW128058   2.338   1.083   2.313
 9053SOL    HW228059   2.450   1.124   2.201
 9054SOL     OW28060   2.878   5.416   4.746
 9054SOL    HW128061   2.963   5.408   4.694
 9054SOL    HW228062   2.898   5.405   4.844
 9055SOL     OW28063   5.921   2.094   4.085
 9055SOL    HW128064   5.865   2.174   4.063
 9055SOL    HW228065   6.005   2.096   4.030
 9056SOL     OW28066   0.026   1.822   1.372
 9056SOL    HW128067   0.101   1.763   1.342
 9056SOL    HW228068   6.986   1.835   1.295
 9057SOL     OW28069   4.515   2.678   5.379
 9057SOL    HW128070   4.597   2.725   5.412
 9057SOL    HW228071   4.452   2.744   5.340
 9058SOL     OW28072   1.368   0.956   2.071
 9058SOL    HW128073   1.390   1.053   2.081
 9058SOL    HW228074   1.447   0.901   2.097
 9059SOL     OW28075   1.419   2.194   3.163
 9059SOL    HW128076   1.358   2.267   3.195
 9059SOL    HW228077   1.512   2.229   3.158
 9060SOL     OW28078   5.784   2.770   4.390
 9060SOL    HW128079   5.696   2.807   4.419
 9060SOL    HW228080   5.854   2.840   4.399
 9061SOL     OW28081   2.860   5.360   2.179
 9061SOL    HW128082   2.827   5.438   2.126
 9061SOL    HW228083   2.794   5.339   2.252
 9062SOL     OW28084   1.400   6.048   1.935
 9062SOL    HW128085   1.302   6.033   1.930
 9062SOL    HW228086   1.429   6.105   1.858
 9063SOL     OW28087   3.152   0.209   4.068
 9063SOL    HW128088   3.193   0.300   4.065
 9063SOL    HW228089   3.076   0.209   4.134
 9064SOL     OW28090   6.213   3.336   6.224
 9064SOL    HW128091   6.175   3.402   6.159
 9064SOL    HW228092   6.178   3.354   6.316
 9065SOL     OW28093   3.790   0.277   0.404
 9065SOL    HW128094   3.863   0.336   0.440
 9065SOL    HW228095   3.805   0.261   0.307
 9066SOL     OW28096   5.132   6.912   0.118
 9066SOL    HW128097   5.196   6.989   0.124
 9066SOL    HW228098   5.163   6.838   0.177
 9067SOL     OW28099   1.188   0.602   3.599
 9067SOL    HW128100   1.166   0.664   3.523
 9067SOL    HW228101   1.123   0.525   3.598
 9068SOL     OW28102   1.580   6.543   4.569
 9068SOL    HW128103   1.604   6.575   4.660
 9068SOL    HW228104   1.592   6.443   4.565
 9069SOL     OW28105   1.481   3.027   0.601
 9069SOL    HW128106   1.405   3.082   0.566
 9069SOL    HW228107   1.481   3.029   0.701
 9070SOL     OW28108   1.818   3.450   5.089
 9070SOL    HW128109   1.741   3.513   5.097
 9070SOL    HW228110   1.797   3.380   5.020
 9071SOL     OW28111   6.808   6.656   1.079
 9071SOL    HW128112   6.791   6.651   1.178
 9071SOL    HW228113   6.779   6.745   1.045
 9072SOL     OW28114   6.918   2.661   1.276
 9072SOL    HW128115   6.943   2.712   1.194
 9072SOL    HW228116   6.998   2.654   1.336
 9073SOL     OW28117   1.968   0.124   1.920
 9073SOL    HW128118   1.926   0.209   1.953
 9073SOL    HW228119   1.952   0.051   1.986
 9074SOL     OW28120   0.933   0.340   2.675
 9074SOL    HW128121   1.030   0.317   2.672
 9074SOL    HW228122   0.906   0.386   2.590
 9075SOL     OW28123   6.952   1.215   2.387
 9075SOL    HW128124   6.964   1.291   2.452
 9075SOL    HW228125   6.900   1.142   2.431
 9076SOL     OW28126   0.506   1.187   6.566
 9076SOL    HW128127   0.459   1.209   6.651
 9076SOL    HW228128   0.604   1.176   6.583
 9077SOL     OW28129   4.225   6.606   1.433
 9077SOL    HW128130   4.207   6.564   1.344
 9077SOL    HW228131   4.221   6.706   1.423
 9078SOL     OW28132   3.544   2.850   4.701
 9078SOL    HW128133   3.456   2.845   4.748
 9078SOL    HW228134   3.529   2.879   4.607
 9079SOL     OW28135   2.954   0.694   4.514
 9079SOL    HW128136   3.042   0.734   4.541
 9079SOL    HW228137   2.919   0.638   4.589
 9080SOL     OW28138   5.404   2.948   6.418
 9080SOL    HW128139   5.340   2.961   6.342
 9080SOL    HW228140   5.419   3.035   6.464
 9081SOL     OW28141   5.106   6.327   2.412
 9081SOL    HW128142   5.199   6.358   2.433
 9081SOL    HW228143   5.041   6.374   2.472
 9082SOL     OW28144   1.772   0.147   4.424
 9082SOL    HW128145   1.812   0.209   4.491
 9082SOL    HW228146   1.682   0.181   4.396
 9083SOL     OW28147   4.756   4.852   5.859
 9083SOL    HW128148   4.829   4.806   5.810
 9083SOL    HW228149   4.775   4.849   5.957
 9084SOL     OW28150   3.978   3.901   3.381
 9084SOL    HW128151   3.973   3.971   3.311
 9084SOL    HW228152   3.886   3.876   3.410
 9085SOL     OW28153   2.287   0.693   0.829
 9085SOL    HW128154   2.210   0.667   0.888
 9085SOL    HW228155   2.258   0.763   0.764
 9086SOL     OW28156   0.643   4.257   0.769
 9086SOL    HW128157   0.742   4.255   0.756
 9086SOL    HW228158   0.609   4.163   0.779
 9087SOL     OW28159   5.141   3.024   1.785
 9087SOL    HW128160   5.170   2.990   1.875
 9087SOL    HW228161   5.203   3.097   1.756
 9088SOL     OW28162   6.229   0.562   0.957
 9088SOL    HW128163   6.247   0.528   1.049
 9088SOL    HW228164   6.306   0.617   0.925
 9089SOL     OW28165   5.280   6.690   5.835
 9089SOL    HW128166   5.186   6.710   5.863
 9089SOL    HW228167   5.293   6.723   5.741
 9090SOL     OW28168   6.034   0.958   5.157
 9090SOL    HW128169   6.100   0.929   5.226
 9090SOL    HW228170   6.039   1.057   5.145
 9091SOL     OW28171   2.933   3.546   6.863
 9091SOL    HW128172   2.939   3.623   6.799
 9091SOL    HW228173   2.982   3.569   6.947
 9092SOL     OW28174   6.561   1.283   0.275
 9092SOL    HW128175   6.497   1.212   0.248
 9092SOL    HW228176   6.567   1.286   0.375
 9093SOL     OW28177   1.768   5.985   5.318
 9093SOL    HW128178   1.824   6.065   5.297
 9093SOL    HW228179   1.828   5.905   5.329
 9094SOL     OW28180   6.845   4.045   3.036
 9094SOL    HW128181   6.800   3.961   3.068
 9094SOL    HW228182   6.808   4.069   2.946
 9095SOL     OW28183   4.859   4.767   6.106
 9095SOL    HW128184   4.855   4.837   6.178
 9095SOL    HW228185   4.865   4.677   6.148
 9096SOL     OW28186   6.849   5.085   3.422
 9096SOL    HW128187   6.920   5.049   3.482
 9096SOL    HW228188   6.778   5.128   3.476
 9097SOL     OW28189   1.874   2.462   6.603
 9097SOL    HW128190   1.902   2.548   6.644
 9097SOL    HW228191   1.791   2.429   6.647
 9098SOL     OW28192   2.474   2.078   4.979
 9098SOL    HW128193   2.445   2.065   4.885
 9098SOL    HW228194   2.507   2.172   4.991
 9099SOL     OW28195   2.540   2.977   6.497
 9099SOL    HW128196   2.578   2.904   6.439
 9099SOL    HW228197   2.499   3.048   6.440
 9100SOL     OW28198   0.880   3.875   2.004
 9100SOL    HW128199   0.948   3.897   2.075
 9100SOL    HW228200   0.903   3.786   1.963
 9101SOL     OW28201   3.029   1.580   2.548
 9101SOL    HW128202   2.999   1.600   2.455
 9101SOL    HW228203   2.997   1.652   2.609
 9102SOL     OW28204   3.834   6.695   2.095
 9102SOL    HW128205   3.840   6.623   2.026
 9102SOL    HW228206   3.846   6.655   2.186
 9103SOL     OW28207   6.159   1.451   6.577
 9103SOL    HW128208   6.257   1.463   6.594
 9103SOL    HW228209   6.129   1.365   6.618
 9104SOL     OW28210   6.671   0.331   1.986
 9104SOL    HW128211   6.705   0.331   2.080
 9104SOL    HW228212   6.571   0.331   1.987
 9105SOL     OW28213   1.063   6.834   5.183
 9105SOL    HW128214   1.070   6.810   5.086
 9105SOL    HW228215   1.037   6.754   5.236
 9106SOL     OW28216   0.630   3.838   0.209
 9106SOL    HW128217   0.613   3.744   0.181
 9106SOL    HW228218   0.641   3.896   0.128
 9107SOL     OW28219   2.195   0.122   6.400
 9107SOL    HW128220   2.251   0.107   6.481
 9107SOL    HW228221   2.098   0.117   6.426
 9108SOL     OW28222   5.089   4.634   5.272
 9108SOL    HW128223   5.078   4.638   5.372
 9108SOL    HW228224   5.027   4.701   5.230
 9109SOL     OW28225   4.840   3.024   2.392
 9109SOL    HW128226   4.848   2.965   2.472
 9109SOL    HW228227   4.805   2.971   2.315
 9110SOL     OW28228   0.985   5.610   4.306
 9110SOL    HW128229   0.939   5.556   4.376
 9110SOL    HW228230   0.923   5.681   4.272
 9111SOL     OW28231   5.003   3.034   5.741
 9111SOL    HW128232   4.914   3.043   5.785
 9111SOL    HW228233   4.991   3.028   5.642
 9112SOL     OW28234   1.620   5.249   2.952
 9112SOL    HW128235   1.650   5.155   2.966
 9112SOL    HW228236   1.697   5.311   2.968
 9113SOL     OW28237   5.834   2.734   3.808
 9113SOL    HW128238   5.889   2.817   3.805
 9113SOL    HW228239   5.790   2.720   3.720
 9114SOL     OW28240   1.648   6.132   4.010
 9114SOL    HW128241   1.623   6.175   4.097
 9114SOL    HW228242   1.730   6.176   3.973
 9115SOL     OW28243   6.112   4.934   3.161
 9115SOL    HW128244   6.068   4.916   3.249
 9115SOL    HW228245   6.091   5.027   3.132
 9116SOL     OW28246   0.099   6.598   3.115
 9116SOL    HW128247   0.142   6.688   3.129
 9116SOL    HW228248   0.081   6.556   3.205
 9117SOL     OW28249   4.262   1.289   6.680
 9117SOL    HW128250   4.294   1.360   6.617
 9117SOL    HW228251   4.211   1.220   6.630
 9118SOL     OW28252   5.869   3.828   0.389
 9118SOL    HW128253   5.903   3.856   0.479
 9118SOL    HW228254   5.906   3.739   0.366
 9119SOL     OW28255   3.576   6.720   1.290
 9119SOL    HW128256   3.486   6.743   1.327
 9119SOL    HW228257   3.608   6.794   1.230
 9120SOL     OW28258   6.861   2.612   6.295
 9120SOL    HW128259   6.945   2.557   6.284
 9120SOL    HW228260   6.782   2.558   6.267
 9121SOL     OW28261   3.711   0.401   5.431
 9121SOL    HW128262   3.787   0.376   5.372
 9121SOL    HW228263   3.691   0.326   5.494
 9122SOL     OW28264   2.201   3.865   2.269
 9122SOL    HW128265   2.113   3.884   2.312
 9122SOL    HW228266   2.263   3.942   2.284
 9123SOL     OW28267   1.401   0.006   3.432
 9123SOL    HW128268   1.350   0.092   3.428
 9123SOL    HW228269   1.464   0.008   3.509
 9124SOL     OW28270   3.514   4.884   1.699
 9124SOL    HW128271   3.518   4.877   1.599
 9124SOL    HW228272   3.563   4.807   1.740
 9125SOL     OW28273   3.652   5.805   0.021
 9125SOL    HW128274   3.654   5.721   6.989
 9125SOL    HW228275   3.731   5.861   7.023
 9126SOL     OW28276   4.294   4.487   0.959
 9126SOL    HW128277   4.355   4.537   1.020
 9126SOL    HW228278   4.347   4.428   0.898
 9127SOL     OW28279   6.884   3.148   5.151
 9127SOL    HW128280   6.930   3.134   5.239
 9127SOL    HW228281   6.941   3.203   5.091
 9128SOL     OW28282   6.388   3.199   4.783
 9128SOL    HW128283   6.350   3.149   4.705
 9128SOL    HW228284   6.415   3.134   4.854
 9129SOL     OW28285   2.037   1.985   1.146
 9129SOL    HW128286   2.078   2.005   1.235
 9129SOL    HW228287   1.968   1.912   1.157
 9130SOL     OW28288   2.713   4.058   5.638
 9130SOL    HW128289   2.727   4.067   5.736
 9130SOL    HW228290   2.640   3.992   5.620
 9131SOL     OW28291   5.952   2.667   0.916
 9131SOL    HW128292   5.946   2.697   0.821
 9131SOL    HW228293   5.868   2.693   0.964
 9132SOL     OW28294   1.016   4.632   3.617
 9132SOL    HW128295   1.072   4.562   3.662
 9132SOL    HW228296   0.927   4.593   3.594
 9133SOL     OW28297   4.011   0.929   0.894
 9133SOL    HW128298   4.032   0.887   0.982
 9133SOL    HW228299   4.096   0.950   0.845
 9134SOL     OW28300   4.201   5.304   1.014
 9134SOL    HW128301   4.188   5.402   1.002
 9134SOL    HW228302   4.291   5.287   1.055
 9135SOL     OW28303   1.157   5.895   1.862
 9135SOL    HW128304   1.225   5.855   1.799
 9135SOL    HW228305   1.096   5.824   1.895
 9136SOL     OW28306   5.430   4.940   6.237
 9136SOL    HW128307   5.380   4.963   6.154
 9136SOL    HW228308   5.517   4.898   6.213
 9137SOL     OW28309   4.921   5.988   6.265
 9137SOL    HW128310   4.844   5.932   6.295
 9137SOL    HW228311   4.901   6.026   6.175
 9138SOL     OW28312   2.423   3.246   0.410
 9138SOL    HW128313   2.345   3.275   0.464
 9138SOL    HW228314   2.393   3.185   0.337
 9139SOL     OW28315   0.078   0.191   1.456
 9139SOL    HW128316   0.053   0.190   1.553
 9139SOL    HW228317   0.161   0.245   1.444
 9140SOL     OW28318   0.473   4.529   2.133
 9140SOL    HW128319   0.493   4.486   2.045
 9140SOL    HW228320   0.538   4.604   2.148
 9141SOL     OW28321   6.730   5.611   6.196
 9141SOL    HW128322   6.669   5.621   6.275
 9141SOL    HW228323   6.708   5.681   6.128
 9142SOL     OW28324   0.933   3.367   2.855
 9142SOL    HW128325   0.985   3.303   2.798
 9142SOL    HW228326   0.971   3.368   2.947
 9143SOL     OW28327   0.223   3.860   2.936
 9143SOL    HW128328   0.201   3.891   2.843
 9143SOL    HW228329   0.249   3.939   2.992
 9144SOL     OW28330   2.920   5.117   4.957
 9144SOL    HW128331   2.937   5.026   4.920
 9144SOL    HW228332   2.854   5.166   4.900
 9145SOL     OW28333   0.933   0.007   6.381
 9145SOL    HW128334   0.884   6.953   6.341
 9145SOL    HW228335   0.876   0.050   6.452
 9146SOL     OW28336   5.917   3.328   3.412
 9146SOL    HW128337   5.972   3.264   3.466
 9146SOL    HW228338   5.915   3.417   3.457
 9147SOL     OW28339   5.683   6.950   3.626
 9147SOL    HW128340   5.653   6.866   3.582
 9147SOL    HW228341   5.783   6.956   3.624
 9148SOL     OW28342   6.372   0.264   1.636
 9148SOL    HW128343   6.409   0.172   1.621
 9148SOL    HW228344   6.278   0.268   1.601
 9149SOL     OW28345   6.132   3.462   0.997
 9149SOL    HW128346   6.130   3.367   0.966
 9149SOL    HW228347   6.145   3.522   0.918
 9150SOL     OW28348   2.506   3.916   6.747
 9150SOL    HW128349   2.464   3.996   6.704
 9150SOL    HW228350   2.604   3.934   6.762
 9151SOL     OW28351   1.900   3.766   3.799
 9151SOL    HW128352   1.962   3.795   3.873
 9151SOL    HW228353   1.881   3.669   3.809
 9152SOL     OW28354   1.860   4.077   4.031
 9152SOL    HW128355   1.777   4.021   4.033
 9152SOL    HW228356   1.895   4.088   4.125
 9153SOL     OW28357   0.140   2.185   6.673
 9153SOL    HW128358   0.053   2.232   6.680
 9153SOL    HW228359   0.126   2.086   6.682
 9154SOL     OW28360   6.353   5.428   3.169
 9154SOL    HW128361   6.311   5.438   3.259
 9154SOL    HW228362   6.437   5.374   3.178
 9155SOL     OW28363   1.422   5.913   2.640
 9155SOL    HW128364   1.406   5.919   2.542
 9155SOL    HW228365   1.337   5.930   2.689
 9156SOL     OW28366   6.807   3.825   0.198
 9156SOL    HW128367   6.902   3.855   0.206
 9156SOL    HW228368   6.763   3.828   0.287
 9157SOL     OW28369   3.472   4.359   6.694
 9157SOL    HW128370   3.381   4.323   6.675
 9157SOL    HW228371   3.528   4.352   6.611
 9158SOL     OW28372   6.777   3.803   4.255
 9158SOL    HW128373   6.715   3.754   4.194
 9158SOL    HW228374   6.870   3.769   4.244
 9159SOL     OW28375   3.417   6.689   3.068
 9159SOL    HW128376   3.431   6.663   3.164
 9159SOL    HW228377   3.412   6.788   3.061
 9160SOL     OW28378   0.778   4.738   6.495
 9160SOL    HW128379   0.752   4.642   6.499
 9160SOL    HW228380   0.876   4.747   6.511
 9161SOL     OW28381   6.059   3.896   1.617
 9161SOL    HW128382   6.060   3.799   1.643
 9161SOL    HW228383   5.971   3.919   1.577
 9162SOL     OW28384   4.562   1.944   2.850
 9162SOL    HW128385   4.481   1.911   2.899
 9162SOL    HW228386   4.542   1.952   2.753
 9163SOL     OW28387   1.350   2.015   3.368
 9163SOL    HW128388   1.373   2.082   3.297
 9163SOL    HW228389   1.385   1.925   3.341
 9164SOL     OW28390   2.355   0.197   6.706
 9164SOL    HW128391   2.388   0.131   6.773
 9164SOL    HW228392   2.433   0.250   6.671
 9165SOL     OW28393   4.954   2.445   5.273
 9165SOL    HW128394   4.882   2.400   5.221
 9165SOL    HW228395   5.010   2.501   5.211
 9166SOL     OW28396   4.798   5.785   1.686
 9166SOL    HW128397   4.882   5.827   1.721
 9166SOL    HW228398   4.719   5.832   1.725
 9167SOL     OW28399   1.235   0.869   5.914
 9167SOL    HW128400   1.292   0.805   5.965
 9167SOL    HW228401   1.201   0.824   5.831
 9168SOL     OW28402   6.632   5.065   4.295
 9168SOL    HW128403   6.584   5.122   4.362
 9168SOL    HW228404   6.564   5.013   4.242
 9169SOL     OW28405   6.126   6.267   6.993
 9169SOL    HW128406   6.075   6.239   0.050
 9169SOL    HW228407   6.171   6.354   7.011
 9170SOL     OW28408   1.455   1.258   6.310
 9170SOL    HW128409   1.437   1.245   6.212
 9170SOL    HW228410   1.418   1.181   6.362
 9171SOL     OW28411   3.217   5.038   0.838
 9171SOL    HW128412   3.192   4.950   0.880
 9171SOL    HW228413   3.160   5.111   0.875
 9172SOL     OW28414   5.278   1.305   4.698
 9172SOL    HW128415   5.220   1.236   4.741
 9172SOL    HW228416   5.225   1.352   4.627
 9173SOL     OW28417   6.169   2.299   4.094
 9173SOL    HW128418   6.117   2.297   4.179
 9173SOL    HW228419   6.107   2.303   4.016
 9174SOL     OW28420   0.815   5.693   6.959
 9174SOL    HW128421   0.851   5.781   6.991
 9174SOL    HW228422   0.848   5.676   6.866
 9175SOL     OW28423   1.854   6.631   6.962
 9175SOL    HW128424   1.891   6.718   6.931
 9175SOL    HW228425   1.850   6.630   0.039
 9176SOL     OW28426   1.946   1.328   2.839
 9176SOL    HW128427   1.958   1.288   2.930
 9176SOL    HW228428   1.849   1.334   2.818
 9177SOL     OW28429   0.269   4.910   4.003
 9177SOL    HW128430   0.228   4.992   4.044
 9177SOL    HW228431   0.273   4.837   4.072
 9178SOL     OW28432   2.028   6.204   6.985
 9178SOL    HW128433   1.930   6.225   6.987
 9178SOL    HW228434   2.080   6.289   6.980
 9179SOL     OW28435   4.615   6.165   5.310
 9179SOL    HW128436   4.616   6.082   5.367
 9179SOL    HW228437   4.534   6.219   5.332
 9180SOL     OW28438   0.003   1.693   4.224
 9180SOL    HW128439   6.936   1.673   4.261
 9180SOL    HW228440   7.018   1.730   4.132
 9181SOL     OW28441   4.156   2.055   3.583
 9181SOL    HW128442   4.209   1.984   3.535
 9181SOL    HW228443   4.180   2.145   3.547
 9182SOL     OW28444   2.225   1.376   2.956
 9182SOL    HW128445   2.174   1.455   2.990
 9182SOL    HW228446   2.185   1.346   2.869
 9183SOL     OW28447   5.326   2.219   5.989
 9183SOL    HW128448   5.244   2.265   6.022
 9183SOL    HW228449   5.388   2.203   6.067
 9184SOL     OW28450   3.274   2.968   0.859
 9184SOL    HW128451   3.261   2.886   0.915
 9184SOL    HW228452   3.262   2.944   0.763
 9185SOL     OW28453   0.506   0.439   0.073
 9185SOL    HW128454   0.472   0.468   7.007
 9185SOL    HW228455   0.486   0.511   0.140
 9186SOL     OW28456   5.063   0.489   6.047
 9186SOL    HW128457   5.160   0.500   6.025
 9186SOL    HW228458   5.044   0.394   6.071
 9187SOL     OW28459   5.272   1.647   0.249
 9187SOL    HW128460   5.296   1.711   0.176
 9187SOL    HW228461   5.335   1.569   0.246
 9188SOL     OW28462   1.183   0.109   1.963
 9188SOL    HW128463   1.211   0.037   2.026
 9188SOL    HW228464   1.255   0.127   1.897
 9189SOL     OW28465   2.540   1.553   3.504
 9189SOL    HW128466   2.501   1.516   3.420
 9189SOL    HW228467   2.620   1.500   3.530
 9190SOL     OW28468   5.667   3.804   5.294
 9190SOL    HW128469   5.651   3.711   5.329
 9190SOL    HW228470   5.759   3.834   5.318
 9191SOL     OW28471   5.099   6.269   6.308
 9191SOL    HW128472   5.008   6.236   6.333
 9191SOL    HW228473   5.091   6.352   6.253
 9192SOL     OW28474   6.986   4.138   5.970
 9192SOL    HW128475   6.953   4.180   5.886
 9192SOL    HW228476   0.051   4.176   5.995
 9193SOL     OW28477   4.077   3.222   3.443
 9193SOL    HW128478   4.051   3.308   3.488
 9193SOL    HW228479   4.021   3.148   3.480
 9194SOL     OW28480   2.833   5.840   2.870
 9194SOL    HW128481   2.898   5.807   2.938
 9194SOL    HW228482   2.881   5.863   2.786
 9195SOL     OW28483   0.428   3.243   3.603
 9195SOL    HW128484   0.349   3.278   3.654
 9195SOL    HW228485   0.407   3.153   3.566
 9196SOL     OW28486   4.191   0.635   3.190
 9196SOL    HW128487   4.280   0.663   3.226
 9196SOL    HW228488   4.201   0.606   3.095
 9197SOL     OW28489   2.831   2.991   6.632
 9197SOL    HW128490   2.836   2.900   6.590
 9197SOL    HW228491   2.786   3.055   6.569
 9198SOL     OW28492   5.785   3.474   5.725
 9198SOL    HW128493   5.718   3.543   5.696
 9198SOL    HW228494   5.760   3.440   5.816
 9199SOL     OW28495   1.783   4.138   6.688
 9199SOL    HW128496   1.749   4.044   6.695
 9199SOL    HW228497   1.706   4.202   6.685
 9200SOL     OW28498   6.359   0.455   0.585
 9200SOL    HW128499   6.401   0.383   0.530
 9200SOL    HW228500   6.302   0.513   0.527
 9201SOL     OW28501   6.846   4.497   1.606
 9201SOL    HW128502   6.778   4.569   1.591
 9201SOL    HW228503   6.855   4.442   1.523
 9202SOL     OW28504   2.829   5.123   4.283
 9202SOL    HW128505   2.734   5.151   4.300
 9202SOL    HW228506   2.836   5.087   4.190
 9203SOL     OW28507   5.452   1.114   5.504
 9203SOL    HW128508   5.537   1.061   5.515
 9203SOL    HW228509   5.387   1.088   5.575
 9204SOL     OW28510   5.552   4.067   3.041
 9204SOL    HW128511   5.624   3.998   3.034
 9204SOL    HW228512   5.521   4.093   2.949
 9205SOL     OW28513   5.857   2.822   2.700
 9205SOL    HW128514   5.899   2.732   2.703
 9205SOL    HW228515   5.832   2.844   2.605
 9206SOL     OW28516   1.596   6.145   3.233
 9206SOL    HW128517   1.658   6.209   3.188
 9206SOL    HW228518   1.545   6.194   3.304
 9207SOL     OW28519   4.318   5.948   6.615
 9207SOL    HW128520   4.413   5.974   6.634
 9207SOL    HW228521   4.263   5.960   6.697
 9208SOL     OW28522   4.890   3.697   2.133
 9208SOL    HW128523   4.847   3.768   2.076
 9208SOL    HW228524   4.886   3.609   2.086
 9209SOL     OW28525   3.665   1.521   2.753
 9209SOL    HW128526   3.687   1.434   2.797
 9209SOL    HW228527   3.622   1.503   2.664
 9210SOL     OW28528   2.093   0.038   0.923
 9210SOL    HW128529   2.136   0.088   0.998
 9210SOL    HW228530   1.996   0.027   0.941
 9211SOL     OW28531   4.831   1.793   6.605
 9211SOL    HW128532   4.743   1.759   6.572
 9211SOL    HW228533   4.864   1.865   6.543
 9212SOL     OW28534   5.688   4.314   4.706
 9212SOL    HW128535   5.704   4.243   4.775
 9212SOL    HW228536   5.724   4.283   4.618
 9213SOL     OW28537   5.927   6.749   3.691
 9213SOL    HW128538   5.978   6.692   3.626
 9213SOL    HW228539   5.853   6.696   3.732
 9214SOL     OW28540   2.096   2.601   4.687
 9214SOL    HW128541   2.078   2.506   4.664
 9214SOL    HW228542   2.170   2.636   4.630
 9215SOL     OW28543   0.556   4.048   2.658
 9215SOL    HW128544   0.651   4.020   2.672
 9215SOL    HW228545   0.504   3.974   2.617
 9216SOL     OW28546   2.803   5.906   5.359
 9216SOL    HW128547   2.825   5.849   5.438
 9216SOL    HW228548   2.819   5.854   5.275
 9217SOL     OW28549   5.011   1.343   5.942
 9217SOL    HW128550   5.079   1.296   5.887
 9217SOL    HW228551   4.999   1.296   6.029
 9218SOL     OW28552   6.011   6.655   6.276
 9218SOL    HW128553   5.940   6.636   6.207
 9218SOL    HW228554   6.044   6.748   6.264
 9219SOL     OW28555   3.594   2.896   5.773
 9219SOL    HW128556   3.596   2.977   5.714
 9219SOL    HW228557   3.674   2.896   5.832
 9220SOL     OW28558   1.545   6.390   2.964
 9220SOL    HW128559   1.502   6.457   3.025
 9220SOL    HW228560   1.599   6.325   3.018
 9221SOL     OW28561   2.262   0.543   6.430
 9221SOL    HW128562   2.295   0.634   6.455
 9221SOL    HW228563   2.190   0.551   6.361
 9222SOL     OW28564   1.452   4.829   3.650
 9222SOL    HW128565   1.497   4.760   3.594
 9222SOL    HW228566   1.428   4.908   3.593
 9223SOL     OW28567   1.623   3.934   4.879
 9223SOL    HW128568   1.574   4.018   4.900
 9223SOL    HW228569   1.682   3.948   4.799
 9224SOL     OW28570   1.553   4.355   3.735
 9224SOL    HW128571   1.540   4.276   3.675
 9224SOL    HW228572   1.647   4.386   3.730
 9225SOL     OW28573   4.532   7.016   6.180
 9225SOL    HW128574   4.485   6.929   6.198
 9225SOL    HW228575   4.624   6.997   6.145
 9226SOL     OW28576   1.190   6.949   0.901
 9226SOL    HW128577   1.099   6.959   0.861
 9226SOL    HW228578   1.244   0.007   0.881
 9227SOL     OW28579   2.585   5.294   0.853
 9227SOL    HW128580   2.683   5.312   0.846
 9227SOL    HW228581   2.540   5.371   0.898
 9228SOL     OW28582   2.522   2.427   5.763
 9228SOL    HW128583   2.431   2.454   5.731
 9228SOL    HW228584   2.576   2.509   5.784
 9229SOL     OW28585   0.160   4.707   6.741
 9229SOL    HW128586   0.131   4.782   6.681
 9229SOL    HW228587   0.102   4.628   6.726
 9230SOL     OW28588   4.885   2.197   4.202
 9230SOL    HW128589   4.846   2.173   4.113
 9230SOL    HW228590   4.958   2.133   4.224
 9231SOL     OW28591   0.696   5.291   5.221
 9231SOL    HW128592   0.732   5.200   5.237
 9231SOL    HW228593   0.749   5.337   5.150
 9232SOL     OW28594   1.790   5.967   1.766
 9232SOL    HW128595   1.773   6.030   1.691
 9232SOL    HW228596   1.713   5.905   1.776
 9233SOL     OW28597   0.429   0.666   0.259
 9233SOL    HW128598   0.333   0.638   0.263
 9233SOL    HW228599   0.450   0.726   0.336
 9234SOL     OW28600   2.523   4.769   0.602
 9234SOL    HW128601   2.583   4.713   0.659
 9234SOL    HW228602   2.520   4.730   0.510
 9235SOL     OW28603   2.439   2.549   3.930
 9235SOL    HW128604   2.433   2.641   3.893
 9235SOL    HW228605   2.515   2.500   3.887
 9236SOL     OW28606   1.872   3.066   6.448
 9236SOL    HW128607   1.876   3.165   6.466
 9236SOL    HW228608   1.932   3.019   6.512
 9237SOL     OW28609   5.511   5.448   3.566
 9237SOL    HW128610   5.472   5.491   3.484
 9237SOL    HW228611   5.555   5.362   3.540
 9238SOL     OW28612   1.440   3.367   5.149
 9238SOL    HW128613   1.455   3.329   5.058
 9238SOL    HW228614   1.363   3.319   5.193
 9239SOL     OW28615   0.673   4.465   0.391
 9239SOL    HW128616   0.584   4.508   0.377
 9239SOL    HW228617   0.659   4.368   0.413
 9240SOL     OW28618   4.908   2.925   2.651
 9240SOL    HW128619   4.900   3.015   2.693
 9240SOL    HW228620   5.004   2.908   2.628
 9241SOL     OW28621   6.263   6.541   0.549
 9241SOL    HW128622   6.287   6.634   0.523
 9241SOL    HW228623   6.163   6.533   0.555
 9242SOL     OW28624   1.592   2.142   1.873
 9242SOL    HW128625   1.651   2.221   1.892
 9242SOL    HW228626   1.595   2.121   1.776
 9243SOL     OW28627   0.675   0.152   1.435
 9243SOL    HW128628   0.577   0.139   1.420
 9243SOL    HW228629   0.707   0.090   1.506
 9244SOL     OW28630   4.170   6.494   5.055
 9244SOL    HW128631   4.140   6.398   5.056
 9244SOL    HW228632   4.188   6.524   5.148
 9245SOL     OW28633   1.025   4.444   3.297
 9245SOL    HW128634   1.097   4.484   3.240
 9245SOL    HW228635   0.962   4.516   3.326
 9246SOL     OW28636   6.204   0.497   4.243
 9246SOL    HW128637   6.229   0.508   4.340
 9246SOL    HW228638   6.278   0.532   4.185
 9247SOL     OW28639   3.850   5.517   3.214
 9247SOL    HW128640   3.863   5.614   3.195
 9247SOL    HW228641   3.765   5.486   3.171
 9248SOL     OW28642   2.616   1.607   5.254
 9248SOL    HW128643   2.662   1.549   5.186
 9248SOL    HW228644   2.611   1.701   5.219
 9249SOL     OW28645   4.071   4.745   1.816
 9249SOL    HW128646   3.989   4.747   1.872
 9249SOL    HW228647   4.147   4.785   1.866
 9250SOL     OW28648   0.086   3.745   4.510
 9250SOL    HW128649   0.077   3.646   4.526
 9250SOL    HW228650   0.139   3.761   4.427
 9251SOL     OW28651   3.918   2.559   0.868
 9251SOL    HW128652   4.007   2.537   0.907
 9251SOL    HW228653   3.853   2.485   0.888
 9252SOL     OW28654   4.316   0.417   5.334
 9252SOL    HW128655   4.228   0.430   5.290
 9252SOL    HW228656   4.304   0.413   5.434
 9253SOL     OW28657   0.840   4.871   5.671
 9253SOL    HW128658   0.747   4.887   5.638
 9253SOL    HW228659   0.862   4.774   5.662
 9254SOL     OW28660   6.286   4.215   2.472
 9254SOL    HW128661   6.246   4.248   2.558
 9254SOL    HW228662   6.382   4.240   2.469
 9255SOL     OW28663   6.123   4.722   0.561
 9255SOL    HW128664   6.062   4.780   0.507
 9255SOL    HW228665   6.069   4.670   0.628
 9256SOL     OW28666   2.066   6.875   1.572
 9256SOL    HW128667   2.165   6.884   1.570
 9256SOL    HW228668   2.036   6.818   1.495
 9257SOL     OW28669   0.144   5.645   3.991
 9257SOL    HW128670   0.131   5.733   4.037
 9257SOL    HW228671   0.062   5.623   3.938
 9258SOL     OW28672   3.699   3.461   0.791
 9258SOL    HW128673   3.747   3.375   0.771
 9258SOL    HW228674   3.766   3.532   0.811
 9259SOL     OW28675   2.043   1.499   6.521
 9259SOL    HW128676   2.060   1.445   6.603
 9259SOL    HW228677   1.948   1.487   6.493
 9260SOL     OW28678   5.948   2.772   5.692
 9260SOL    HW128679   5.991   2.765   5.781
 9260SOL    HW228680   5.849   2.757   5.701
 9261SOL     OW28681   4.221   2.138   0.921
 9261SOL    HW128682   4.286   2.199   0.967
 9261SOL    HW228683   4.129   2.155   0.956
 9262SOL     OW28684   6.499   6.481   4.009
 9262SOL    HW128685   6.593   6.447   4.011
 9262SOL    HW228686   6.455   6.461   4.097
 9263SOL     OW28687   2.724   4.769   3.150
 9263SOL    HW128688   2.677   4.844   3.104
 9263SOL    HW228689   2.657   4.701   3.181
 9264SOL     OW28690   5.498   4.122   6.644
 9264SOL    HW128691   5.416   4.129   6.700
 9264SOL    HW228692   5.474   4.092   6.552
 9265SOL     OW28693   4.352   1.981   6.841
 9265SOL    HW128694   4.287   2.008   6.912
 9265SOL    HW228695   4.348   2.046   6.766
 9266SOL     OW28696   0.703   4.182   1.538
 9266SOL    HW128697   0.646   4.216   1.612
 9266SOL    HW228698   0.663   4.209   1.450
 9267SOL     OW28699   0.580   0.902   3.835
 9267SOL    HW128700   0.561   0.858   3.922
 9267SOL    HW228701   0.494   0.922   3.788
 9268SOL     OW28702   0.709   6.710   1.702
 9268SOL    HW128703   0.803   6.708   1.734
 9268SOL    HW228704   0.707   6.712   1.602
 9269SOL     OW28705   4.578   6.985   0.206
 9269SOL    HW128706   4.676   6.975   0.225
 9269SOL    HW228707   4.530   6.901   0.230
 9270SOL     OW28708   3.192   0.927   6.503
 9270SOL    HW128709   3.260   0.886   6.442
 9270SOL    HW228710   3.125   0.978   6.449
 9271SOL     OW28711   1.037   0.425   6.916
 9271SOL    HW128712   0.955   0.378   6.949
 9271SOL    HW228713   1.019   0.463   6.825
 9272SOL     OW28714   6.367   6.612   6.057
 9272SOL    HW128715   6.453   6.664   6.058
 9272SOL    HW228716   6.386   6.515   6.073
 9273SOL     OW28717   5.134   5.603   3.883
 9273SOL    HW128718   5.042   5.638   3.869
 9273SOL    HW228719   5.183   5.600   3.796
 9274SOL     OW28720   0.769   3.193   0.285
 9274SOL    HW128721   0.760   3.203   0.384
 9274SOL    HW228722   0.719   3.111   0.256
 9275SOL     OW28723   0.709   6.698   1.430
 9275SOL    HW128724   0.676   6.636   1.359
 9275SOL    HW228725   0.808   6.687   1.440
 9276SOL     OW28726   3.316   4.174   0.239
 9276SOL    HW128727   3.405   4.134   0.217
 9276SOL    HW228728   3.282   4.133   0.323
 9277SOL     OW28729   4.363   4.611   2.387
 9277SOL    HW128730   4.365   4.538   2.318
 9277SOL    HW228731   4.457   4.629   2.417
 9278SOL     OW28732   0.488   0.821   4.422
 9278SOL    HW128733   0.521   0.906   4.381
 9278SOL    HW228734   0.551   0.791   4.494
 9279SOL     OW28735   3.756   5.055   1.503
 9279SOL    HW128736   3.715   5.136   1.461
 9279SOL    HW228737   3.819   5.012   1.438
 9280SOL     OW28738   1.664   1.269   2.845
 9280SOL    HW128739   1.648   1.272   2.944
 9280SOL    HW228740   1.650   1.176   2.811
 9281SOL     OW28741   3.324   3.979   6.593
 9281SOL    HW128742   3.304   4.033   6.675
 9281SOL    HW228743   3.239   3.950   6.550
 9282SOL     OW28744   3.483   0.048   4.503
 9282SOL    HW128745   3.403   0.092   4.462
 9282SOL    HW228746   3.529   7.014   4.435
 9283SOL     OW28747   4.822   6.305   6.382
 9283SOL    HW128748   4.885   6.358   6.439
 9283SOL    HW228749   4.774   6.237   6.438
 9284SOL     OW28750   3.128   4.167   5.150
 9284SOL    HW128751   3.081   4.254   5.165
 9284SOL    HW228752   3.210   4.163   5.208
 9285SOL     OW28753   6.351   3.169   2.481
 9285SOL    HW128754   6.287   3.232   2.524
 9285SOL    HW228755   6.429   3.220   2.446
 9286SOL     OW28756   4.645   6.357   0.590
 9286SOL    HW128757   4.634   6.312   0.502
 9286SOL    HW228758   4.568   6.418   0.606
 9287SOL     OW28759   3.036   4.534   5.957
 9287SOL    HW128760   3.117   4.588   5.977
 9287SOL    HW228761   3.039   4.503   5.862
 9288SOL     OW28762   4.453   2.535   3.908
 9288SOL    HW128763   4.491   2.592   3.836
 9288SOL    HW228764   4.370   2.490   3.874
 9289SOL     OW28765   4.305   6.294   6.766
 9289SOL    HW128766   4.211   6.275   6.736
 9289SOL    HW228767   4.352   6.207   6.783
 9290SOL     OW28768   5.615   0.602   4.920
 9290SOL    HW128769   5.650   0.660   4.994
 9290SOL    HW228770   5.628   0.649   4.832
 9291SOL     OW28771   1.075   5.534   5.456
 9291SOL    HW128772   1.174   5.522   5.466
 9291SOL    HW228773   1.047   5.501   5.365
 9292SOL     OW28774   1.315   1.223   6.047
 9292SOL    HW128775   1.253   1.147   6.030
 9292SOL    HW228776   1.409   1.194   6.024
 9293SOL     OW28777   4.612   2.800   5.805
 9293SOL    HW128778   4.587   2.714   5.849
 9293SOL    HW228779   4.661   2.781   5.720
 9294SOL     OW28780   4.511   0.873   6.945
 9294SOL    HW128781   4.469   0.816   7.015
 9294SOL    HW228782   4.609   0.853   6.940
 9295SOL     OW28783   0.679   0.397   4.684
 9295SOL    HW128784   0.672   0.379   4.586
 9295SOL    HW228785   0.775   0.395   4.712
 9296SOL     OW28786   2.844   4.466   0.833
 9296SOL    HW128787   2.848   4.367   0.842
 9296SOL    HW228788   2.899   4.495   0.754
 9297SOL     OW28789   6.856   6.496   3.149
 9297SOL    HW128790   6.891   6.459   3.063
 9297SOL    HW228791   6.769   6.543   3.132
 9298SOL     OW28792   1.404   6.352   5.572
 9298SOL    HW128793   1.381   6.277   5.510
 9298SOL    HW228794   1.467   6.319   5.643
 9299SOL     OW28795   1.982   2.224   4.853
 9299SOL    HW128796   1.971   2.269   4.942
 9299SOL    HW228797   2.059   2.161   4.857
 9300SOL     OW28798   1.535   5.907   5.395
 9300SOL    HW128799   1.621   5.947   5.366
 9300SOL    HW228800   1.535   5.809   5.373
 9301SOL     OW28801   0.448   4.027   4.682
 9301SOL    HW128802   0.513   3.952   4.691
 9301SOL    HW228803   0.399   4.017   4.595
 9302SOL     OW28804   2.180   3.181   5.048
 9302SOL    HW128805   2.261   3.123   5.036
 9302SOL    HW228806   2.100   3.135   5.009
 9303SOL     OW28807   3.138   3.961   0.333
 9303SOL    HW128808   3.046   3.924   0.341
 9303SOL    HW228809   3.189   3.909   0.266
 9304SOL     OW28810   5.133   4.797   0.815
 9304SOL    HW128811   5.091   4.879   0.776
 9304SOL    HW228812   5.063   4.728   0.831
 9305SOL     OW28813   2.417   1.345   0.825
 9305SOL    HW128814   2.412   1.417   0.755
 9305SOL    HW228815   2.504   1.296   0.817
 9306SOL     OW28816   0.440   4.087   5.302
 9306SOL    HW128817   0.504   4.105   5.227
 9306SOL    HW228818   0.385   4.007   5.280
 9307SOL     OW28819   2.296   3.015   1.082
 9307SOL    HW128820   2.295   3.001   0.983
 9307SOL    HW228821   2.211   3.058   1.111
 9308SOL     OW28822   1.571   3.857   1.468
 9308SOL    HW128823   1.613   3.778   1.511
 9308SOL    HW228824   1.637   3.902   1.408
 9309SOL     OW28825   4.446   6.000   5.534
 9309SOL    HW128826   4.477   5.989   5.629
 9309SOL    HW228827   4.425   5.910   5.496
 9310SOL     OW28828   4.180   6.082   6.140
 9310SOL    HW128829   4.278   6.088   6.159
 9310SOL    HW228830   4.136   6.167   6.168
 9311SOL     OW28831   4.471   3.370   1.631
 9311SOL    HW128832   4.543   3.305   1.658
 9311SOL    HW228833   4.399   3.370   1.700
 9312SOL     OW28834   0.813   2.146   0.999
 9312SOL    HW128835   0.873   2.218   1.033
 9312SOL    HW228836   0.717   2.173   1.011
 9313SOL     OW28837   1.278   6.689   1.878
 9313SOL    HW128838   1.286   6.602   1.926
 9313SOL    HW228839   1.295   6.764   1.942
 9314SOL     OW28840   5.073   2.482   0.836
 9314SOL    HW128841   5.144   2.514   0.773
 9314SOL    HW228842   5.108   2.403   0.887
 9315SOL     OW28843   5.776   1.350   6.698
 9315SOL    HW128844   5.790   1.251   6.703
 9315SOL    HW228845   5.816   1.385   6.614
 9316SOL     OW28846   4.840   0.922   5.487
 9316SOL    HW128847   4.928   0.930   5.533
 9316SOL    HW228848   4.775   0.873   5.545
 9317SOL     OW28849   2.859   5.738   4.244
 9317SOL    HW128850   2.774   5.760   4.290
 9317SOL    HW228851   2.887   5.645   4.269
 9318SOL     OW28852   4.374   6.370   0.349
 9318SOL    HW128853   4.289   6.404   0.308
 9318SOL    HW228854   4.392   6.419   0.435
 9319SOL     OW28855   2.638   4.204   0.696
 9319SOL    HW128856   2.591   4.116   0.685
 9319SOL    HW228857   2.720   4.191   0.752
 9320SOL     OW28858   6.222   0.349   6.209
 9320SOL    HW128859   6.238   0.291   6.289
 9320SOL    HW228860   6.159   0.422   6.233
 9321SOL     OW28861   0.378   3.144   5.554
 9321SOL    HW128862   0.335   3.129   5.466
 9321SOL    HW228863   0.309   3.165   5.623
 9322SOL     OW28864   6.036   4.029   5.659
 9322SOL    HW128865   5.985   3.970   5.597
 9322SOL    HW228866   6.133   4.028   5.635
 9323SOL     OW28867   1.536   3.337   3.076
 9323SOL    HW128868   1.623   3.386   3.069
 9323SOL    HW228869   1.470   3.377   3.012
 9324SOL     OW28870   1.323   4.334   1.175
 9324SOL    HW128871   1.381   4.254   1.158
 9324SOL    HW228872   1.265   4.317   1.255
 9325SOL     OW28873   1.725   5.437   2.407
 9325SOL    HW128874   1.786   5.487   2.345
 9325SOL    HW228875   1.773   5.359   2.446
 9326SOL     OW28876   4.019   4.301   0.319
 9326SOL    HW128877   4.086   4.284   0.391
 9326SOL    HW228878   4.059   4.278   0.230
 9327SOL     OW28879   4.736   0.848   3.003
 9327SOL    HW128880   4.692   0.870   2.915
 9327SOL    HW228881   4.800   0.773   2.991
 9328SOL     OW28882   2.803   6.505   4.253
 9328SOL    HW128883   2.782   6.413   4.222
 9328SOL    HW228884   2.894   6.506   4.296
 9329SOL     OW28885   0.114   6.132   6.544
 9329SOL    HW128886   0.147   6.196   6.614
 9329SOL    HW228887   0.179   6.056   6.536
 9330SOL     OW28888   6.176   0.037   6.773
 9330SOL    HW128889   6.184   0.116   6.833
 9330SOL    HW228890   6.139   6.983   6.825
 9331SOL     OW28891   1.741   3.232   4.955
 9331SOL    HW128892   1.806   3.157   4.937
 9331SOL    HW228893   1.650   3.194   4.967
 9332SOL     OW28894   4.318   5.878   0.790
 9332SOL    HW128895   4.378   5.957   0.803
 9332SOL    HW228896   4.306   5.831   0.877
 9333SOL     OW28897   3.405   5.409   0.666
 9333SOL    HW128898   3.424   5.458   0.581
 9333SOL    HW228899   3.309   5.381   0.667
 9334SOL     OW28900   5.028   6.840   5.132
 9334SOL    HW128901   5.101   6.787   5.089
 9334SOL    HW228902   4.939   6.814   5.094
 9335SOL     OW28903   2.410   1.891   1.708
 9335SOL    HW128904   2.332   1.857   1.760
 9335SOL    HW228905   2.444   1.975   1.750
 9336SOL     OW28906   6.754   0.939   5.072
 9336SOL    HW128907   6.811   0.879   5.127
 9336SOL    HW228908   6.689   0.884   5.019
 9337SOL     OW28909   4.671   0.757   5.633
 9337SOL    HW128910   4.743   0.722   5.693
 9337SOL    HW228911   4.584   0.756   5.682
 9338SOL     OW28912   6.522   6.238   0.516
 9338SOL    HW128913   6.475   6.152   0.492
 9338SOL    HW228914   6.499   6.308   0.449
 9339SOL     OW28915   6.021   4.847   6.279
 9339SOL    HW128916   6.035   4.918   6.347
 9339SOL    HW228917   5.945   4.873   6.219
 9340SOL     OW28918   3.547   6.017   2.419
 9340SOL    HW128919   3.627   6.070   2.394
 9340SOL    HW228920   3.545   5.933   2.365
 9341SOL     OW28921   5.821   4.114   6.370
 9341SOL    HW128922   5.891   4.080   6.432
 9341SOL    HW228923   5.789   4.203   6.401
 9342SOL     OW28924   2.421   0.475   4.493
 9342SOL    HW128925   2.476   0.410   4.544
 9342SOL    HW228926   2.346   0.426   4.447
 9343SOL     OW28927   4.739   4.470   2.011
 9343SOL    HW128928   4.670   4.397   2.014
 9343SOL    HW228929   4.824   4.437   2.051
 9344SOL     OW28930   5.922   5.668   5.941
 9344SOL    HW128931   5.873   5.594   5.895
 9344SOL    HW228932   5.949   5.639   6.033
 9345SOL     OW28933   6.859   6.180   0.138
 9345SOL    HW128934   6.947   6.190   0.185
 9345SOL    HW228935   6.803   6.113   0.187
 9346SOL     OW28936   5.527   6.753   1.879
 9346SOL    HW128937   5.465   6.827   1.901
 9346SOL    HW228938   5.614   6.790   1.847
 9347SOL     OW28939   3.637   5.815   1.478
 9347SOL    HW128940   3.689   5.737   1.443
 9347SOL    HW228941   3.675   5.900   1.439
 9348SOL     OW28942   2.517   6.418   2.613
 9348SOL    HW128943   2.515   6.463   2.702
 9348SOL    HW228944   2.452   6.342   2.613
 9349SOL     OW28945   6.576   5.788   2.305
 9349SOL    HW128946   6.477   5.793   2.318
 9349SOL    HW228947   6.597   5.800   2.208
 9350SOL     OW28948   0.013   1.813   5.168
 9350SOL    HW128949   6.988   1.763   5.097
 9350SOL    HW228950   0.082   1.754   5.209
 9351SOL     OW28951   2.446   0.954   5.427
 9351SOL    HW128952   2.523   0.893   5.445
 9351SOL    HW228953   2.456   0.994   5.336
 9352SOL     OW28954   2.335   2.361   5.968
 9352SOL    HW128955   2.267   2.308   5.918
 9352SOL    HW228956   2.374   2.431   5.908
 9353SOL     OW28957   1.179   4.142   1.340
 9353SOL    HW128958   1.101   4.177   1.392
 9353SOL    HW228959   1.163   4.046   1.316
 9354SOL     OW28960   6.363   2.205   1.287
 9354SOL    HW128961   6.358   2.136   1.215
 9354SOL    HW228962   6.386   2.293   1.246
 9355SOL     OW28963   6.721   0.568   4.189
 9355SOL    HW128964   6.665   0.641   4.149
 9355SOL    HW228965   6.793   0.608   4.245
 9356SOL     OW28966   4.478   5.242   2.142
 9356SOL    HW128967   4.505   5.336   2.160
 9356SOL    HW228968   4.378   5.235   2.144
 9357SOL     OW28969   2.884   3.354   0.501
 9357SOL    HW128970   2.867   3.256   0.512
 9357SOL    HW228971   2.903   3.373   0.405
 9358SOL     OW28972   5.637   4.496   1.708
 9358SOL    HW128973   5.713   4.560   1.698
 9358SOL    HW228974   5.667   4.415   1.759
 9359SOL     OW28975   0.062   4.108   6.836
 9359SOL    HW128976   0.079   4.185   6.898
 9359SOL    HW228977   0.046   4.025   6.890
 9360SOL     OW28978   1.920   0.097   5.466
 9360SOL    HW128979   1.920   0.180   5.410
 9360SOL    HW228980   2.005   0.092   5.518
 9361SOL     OW28981   3.197   6.428   2.533
 9361SOL    HW128982   3.172   6.458   2.441
 9361SOL    HW228983   3.244   6.341   2.528
 9362SOL     OW28984   2.323   1.077   2.490
 9362SOL    HW128985   2.413   1.107   2.522
 9362SOL    HW228986   2.312   0.980   2.508
 9363SOL     OW28987   3.487   5.566   2.396
 9363SOL    HW128988   3.444   5.584   2.307
 9363SOL    HW228989   3.434   5.610   2.468
 9364SOL     OW28990   4.760   2.633   6.102
 9364SOL    HW128991   4.707   2.717   6.102
 9364SOL    HW228992   4.746   2.584   6.188
 9365SOL     OW28993   2.581   2.354   5.027
 9365SOL    HW128994   2.535   2.417   4.964
 9365SOL    HW228995   2.637   2.405   5.091
 9366SOL     OW28996   3.179   1.658   0.740
 9366SOL    HW128997   3.219   1.576   0.781
 9366SOL    HW228998   3.167   1.728   0.810
 9367SOL     OW28999   6.885   5.534   3.962
 9367SOL    HW129000   6.869   5.501   3.869
 9367SOL    HW229001   6.806   5.514   4.019
 9368SOL     OW29002   3.829   1.841   2.188
 9368SOL    HW129003   3.754   1.790   2.146
 9368SOL    HW229004   3.858   1.795   2.272
 9369SOL     OW29005   6.598   1.444   5.990
 9369SOL    HW129006   6.553   1.376   5.933
 9369SOL    HW229007   6.661   1.498   5.935
 9370SOL     OW29008   5.788   1.371   3.077
 9370SOL    HW129009   5.809   1.335   3.168
 9370SOL    HW229010   5.873   1.386   3.027
 9371SOL     OW29011   1.234   5.345   0.524
 9371SOL    HW129012   1.293   5.269   0.495
 9371SOL    HW229013   1.269   5.430   0.485
 9372SOL     OW29014   5.422   6.167   3.073
 9372SOL    HW129015   5.384   6.159   3.165
 9372SOL    HW229016   5.471   6.254   3.065
 9373SOL     OW29017   4.518   1.748   3.193
 9373SOL    HW129018   4.495   1.665   3.141
 9373SOL    HW229019   4.433   1.796   3.216
 9374SOL     OW29020   5.821   2.916   0.432
 9374SOL    HW129021   5.729   2.885   0.409
 9374SOL    HW229022   5.888   2.867   0.378
 9375SOL     OW29023   0.041   1.546   3.399
 9375SOL    HW129024   0.005   1.493   3.476
 9375SOL    HW229025   6.995   1.611   3.367
 9376SOL     OW29026   3.571   3.724   1.305
 9376SOL    HW129027   3.596   3.649   1.366
 9376SOL    HW229028   3.564   3.689   1.211
 9377SOL     OW29029   6.507   5.480   3.479
 9377SOL    HW129030   6.520   5.506   3.574
 9377SOL    HW229031   6.421   5.518   3.444
 9378SOL     OW29032   2.537   0.032   5.693
 9378SOL    HW129033   2.462   0.034   5.627
 9378SOL    HW229034   2.503   0.055   5.784
 9379SOL     OW29035   4.797   4.611   4.634
 9379SOL    HW129036   4.750   4.531   4.670
 9379SOL    HW229037   4.856   4.583   4.558
 9380SOL     OW29038   6.271   6.370   5.437
 9380SOL    HW129039   6.325   6.298   5.481
 9380SOL    HW229040   6.188   6.330   5.399
 9381SOL     OW29041   2.960   2.949   5.416
 9381SOL    HW129042   3.057   2.962   5.397
 9381SOL    HW229043   2.907   3.019   5.368
 9382SOL     OW29044   3.880   0.997   3.408
 9382SOL    HW129045   3.932   0.912   3.399
 9382SOL    HW229046   3.822   1.009   3.328
 9383SOL     OW29047   3.644   6.060   4.618
 9383SOL    HW129048   3.571   6.041   4.684
 9383SOL    HW229049   3.724   6.095   4.666
 9384SOL     OW29050   4.073   5.847   2.269
 9384SOL    HW129051   4.038   5.755   2.286
 9384SOL    HW229052   4.117   5.881   2.352
 9385SOL     OW29053   4.260   1.953   2.673
 9385SOL    HW129054   4.279   1.968   2.576
 9385SOL    HW229055   4.161   1.957   2.689
 9386SOL     OW29056   3.350   5.864   4.420
 9386SOL    HW129057   3.424   5.831   4.477
 9386SOL    HW229058   3.383   5.938   4.361
 9387SOL     OW29059   4.311   0.023   1.079
 9387SOL    HW129060   4.220   7.006   1.090
 9387SOL    HW229061   4.370   6.982   1.031
 9388SOL     OW29062   1.671   6.232   2.225
 9388SOL    HW129063   1.606   6.157   2.212
 9388SOL    HW229064   1.763   6.200   2.199
 9389SOL     OW29065   2.336   0.345   5.208
 9389SOL    HW129066   2.351   0.441   5.234
 9389SOL    HW229067   2.406   0.288   5.251
 9390SOL     OW29068   3.848   6.135   3.380
 9390SOL    HW129069   3.898   6.139   3.294
 9390SOL    HW229070   3.765   6.191   3.374
 9391SOL     OW29071   2.049   0.916   5.618
 9391SOL    HW129072   2.115   0.867   5.674
 9391SOL    HW229073   1.999   0.982   5.675
 9392SOL     OW29074   0.458   6.752   4.549
 9392SOL    HW129075   0.380   6.755   4.487
 9392SOL    HW229076   0.426   6.742   4.643
 9393SOL     OW29077   3.928   1.613   4.123
 9393SOL    HW129078   3.943   1.711   4.111
 9393SOL    HW229079   3.962   1.563   4.043
 9394SOL     OW29080   6.106   2.525   3.202
 9394SOL    HW129081   6.063   2.609   3.169
 9394SOL    HW229082   6.178   2.497   3.139
 9395SOL     OW29083   2.802   2.227   0.500
 9395SOL    HW129084   2.845   2.303   0.451
 9395SOL    HW229085   2.766   2.261   0.588
 9396SOL     OW29086   0.111   6.318   4.843
 9396SOL    HW129087   0.139   6.251   4.773
 9396SOL    HW229088   0.091   6.405   4.799
 9397SOL     OW29089   2.505   0.276   0.237
 9397SOL    HW129090   2.516   0.333   0.318
 9397SOL    HW229091   2.581   0.293   0.173
 9398SOL     OW29092   1.863   0.506   0.003
 9398SOL    HW129093   1.791   0.444   0.032
 9398SOL    HW229094   1.930   0.517   0.077
 9399SOL     OW29095   6.782   1.940   0.455
 9399SOL    HW129096   6.732   1.903   0.377
 9399SOL    HW229097   6.803   1.866   0.519
 9400SOL     OW29098   5.241   3.750   1.725
 9400SOL    HW129099   5.277   3.843   1.718
 9400SOL    HW229100   5.144   3.753   1.747
 9401SOL     OW29101   2.698   6.789   3.648
 9401SOL    HW129102   2.703   6.780   3.549
 9401SOL    HW229103   2.731   6.705   3.691
 9402SOL     OW29104   1.982   4.601   5.603
 9402SOL    HW129105   1.918   4.677   5.585
 9402SOL    HW229106   1.976   4.575   5.699
 9403SOL     OW29107   5.156   2.256   2.716
 9403SOL    HW129108   5.212   2.224   2.792
 9403SOL    HW229109   5.181   2.351   2.694
 9404SOL     OW29110   1.222   4.883   6.661
 9404SOL    HW129111   1.272   4.864   6.577
 9404SOL    HW229112   1.281   4.866   6.740
 9405SOL     OW29113   6.662   6.912   1.876
 9405SOL    HW129114   6.606   6.835   1.906
 9405SOL    HW229115   6.757   6.883   1.868
 9406SOL     OW29116   0.393   1.424   5.848
 9406SOL    HW129117   0.456   1.351   5.874
 9406SOL    HW229118   0.413   1.454   5.755
 9407SOL     OW29119   2.762   6.976   2.431
 9407SOL    HW129120   2.687   7.006   2.373
 9407SOL    HW229121   2.757   6.877   2.445
 9408SOL     OW29122   3.297   1.319   5.736
 9408SOL    HW129123   3.261   1.242   5.789
 9408SOL    HW229124   3.224   1.356   5.678
 9409SOL     OW29125   4.759   4.311   4.682
 9409SOL    HW129126   4.682   4.350   4.732
 9409SOL    HW229127   4.820   4.264   4.746
 9410SOL     OW29128   3.673   5.676   1.717
 9410SOL    HW129129   3.649   5.712   1.627
 9410SOL    HW229130   3.589   5.659   1.769
 9411SOL     OW29131   3.640   4.582   1.045
 9411SOL    HW129132   3.680   4.671   1.065
 9411SOL    HW229133   3.616   4.535   1.130
 9412SOL     OW29134   0.698   3.448   1.624
 9412SOL    HW129135   0.774   3.512   1.624
 9412SOL    HW229136   0.614   3.496   1.650
 9413SOL     OW29137   4.239   5.805   5.252
 9413SOL    HW129138   4.311   5.858   5.206
 9413SOL    HW229139   4.258   5.800   5.350
 9414SOL     OW29140   3.274   1.920   3.263
 9414SOL    HW129141   3.329   1.978   3.323
 9414SOL    HW229142   3.335   1.865   3.206
 9415SOL     OW29143   2.369   6.200   2.628
 9415SOL    HW129144   2.374   6.100   2.630
 9415SOL    HW229145   2.274   6.229   2.639
 9416SOL     OW29146   0.492   1.334   1.604
 9416SOL    HW129147   0.538   1.422   1.600
 9416SOL    HW229148   0.500   1.296   1.697
 9417SOL     OW29149   2.799   0.425   5.658
 9417SOL    HW129150   2.894   0.422   5.691
 9417SOL    HW229151   2.761   0.515   5.675
 9418SOL     OW29152   2.070   6.210   0.628
 9418SOL    HW129153   2.080   6.225   0.530
 9418SOL    HW229154   2.029   6.291   0.670
 9419SOL     OW29155   3.317   6.136   5.181
 9419SOL    HW129156   3.356   6.045   5.197
 9419SOL    HW229157   3.365   6.180   5.105
 9420SOL     OW29158   0.624   1.815   5.237
 9420SOL    HW129159   0.717   1.779   5.232
 9420SOL    HW229160   0.600   1.859   5.151
 9421SOL     OW29161   2.426   5.871   5.442
 9421SOL    HW129162   2.332   5.898   5.420
 9421SOL    HW229163   2.459   5.806   5.374
 9422SOL     OW29164   5.273   0.139   2.081
 9422SOL    HW129165   5.220   0.112   2.161
 9422SOL    HW229166   5.288   0.060   2.022
 9423SOL     OW29167   4.193   0.805   2.824
 9423SOL    HW129168   4.221   0.808   2.728
 9423SOL    HW229169   4.136   0.724   2.840
 9424SOL     OW29170   4.952   0.531   5.570
 9424SOL    HW129171   4.942   0.442   5.525
 9424SOL    HW229172   4.881   0.593   5.537
 9425SOL     OW29173   6.909   3.535   6.099
 9425SOL    HW129174   6.874   3.467   6.034
 9425SOL    HW229175   6.864   3.623   6.082
 9426SOL     OW29176   2.536   1.519   0.133
 9426SOL    HW129177   2.499   1.596   0.186
 9426SOL    HW229178   2.510   1.433   0.178
 9427SOL     OW29179   2.275   4.726   5.259
 9427SOL    HW129180   2.336   4.805   5.273
 9427SOL    HW229181   2.274   4.701   5.163
 9428SOL     OW29182   5.261   0.281   1.863
 9428SOL    HW129183   5.322   0.224   1.808
 9428SOL    HW229184   5.260   0.246   1.957
 9429SOL     OW29185   1.275   4.198   1.590
 9429SOL    HW129186   1.265   4.206   1.491
 9429SOL    HW229187   1.370   4.176   1.612
 9430SOL     OW29188   6.686   6.488   1.672
 9430SOL    HW129189   6.757   6.453   1.732
 9430SOL    HW229190   6.678   6.587   1.684
 9431SOL     OW29191   5.489   4.118   0.664
 9431SOL    HW129192   5.474   4.202   0.716
 9431SOL    HW229193   5.549   4.058   0.717
 9432SOL     OW29194   6.791   0.054   3.424
 9432SOL    HW129195   6.856   7.004   3.405
 9432SOL    HW229196   6.834   0.142   3.403
 9433SOL     OW29197   3.161   4.841   3.992
 9433SOL    HW129198   3.110   4.763   4.029
 9433SOL    HW229199   3.217   4.881   4.065
 9434SOL     OW29200   5.449   4.763   3.575
 9434SOL    HW129201   5.397   4.709   3.509
 9434SOL    HW229202   5.432   4.861   3.559
 9435SOL     OW29203   1.227   1.216   4.291
 9435SOL    HW129204   1.195   1.177   4.377
 9435SOL    HW229205   1.266   1.306   4.307
 9436SOL     OW29206   1.133   4.038   2.015
 9436SOL    HW129207   1.052   4.024   1.958
 9436SOL    HW229208   1.211   4.059   1.956
 9437SOL     OW29209   1.188   6.187   3.555
 9437SOL    HW129210   1.139   6.105   3.528
 9437SOL    HW229211   1.166   6.209   3.650
 9438SOL     OW29212   0.994   6.236   1.137
 9438SOL    HW129213   1.084   6.193   1.140
 9438SOL    HW229214   0.998   6.320   1.083
 9439SOL     OW29215   0.317   3.221   2.259
 9439SOL    HW129216   0.286   3.126   2.254
 9439SOL    HW229217   0.348   3.250   2.168
 9440SOL     OW29218   4.855   5.463   4.464
 9440SOL    HW129219   4.895   5.408   4.537
 9440SOL    HW229220   4.916   5.463   4.385
 9441SOL     OW29221   1.630   5.508   4.810
 9441SOL    HW129222   1.623   5.555   4.721
 9441SOL    HW229223   1.707   5.445   4.808
 9442SOL     OW29224   6.211   2.105   0.100
 9442SOL    HW129225   6.192   2.199   0.127
 9442SOL    HW229226   6.292   2.102   0.042
 9443SOL     OW29227   2.160   4.518   1.346
 9443SOL    HW129228   2.119   4.448   1.404
 9443SOL    HW229229   2.253   4.492   1.323
 9444SOL     OW29230   0.696   3.572   6.893
 9444SOL    HW129231   0.635   3.621   6.830
 9444SOL    HW229232   0.783   3.622   6.899
 9445SOL     OW29233   5.372   3.387   2.011
 9445SOL    HW129234   5.289   3.427   1.972
 9445SOL    HW229235   5.348   3.324   2.084
 9446SOL     OW29236   6.765   7.002   3.126
 9446SOL    HW129237   6.816   6.917   3.122
 9446SOL    HW229238   6.686   6.997   3.065
 9447SOL     OW29239   5.397   3.356   3.174
 9447SOL    HW129240   5.387   3.380   3.078
 9447SOL    HW229241   5.416   3.258   3.182
 9448SOL     OW29242   5.312   6.182   6.185
 9448SOL    HW129243   5.224   6.197   6.230
 9448SOL    HW229244   5.378   6.249   6.220
 9449SOL     OW29245   6.960   5.511   6.288
 9449SOL    HW129246   6.875   5.555   6.258
 9449SOL    HW229247   7.000   5.564   6.363
 9450SOL     OW29248   3.363   5.242   4.590
 9450SOL    HW129249   3.321   5.151   4.596
 9450SOL    HW229250   3.453   5.239   4.633
 9451SOL     OW29251   4.164   5.637   5.903
 9451SOL    HW129252   4.186   5.687   5.819
 9451SOL    HW229253   4.073   5.597   5.895
 9452SOL     OW29254   1.826   3.024   1.107
 9452SOL    HW129255   1.789   3.027   1.014
 9452SOL    HW229256   1.751   3.024   1.173
 9453SOL     OW29257   2.072   4.272   3.142
 9453SOL    HW129258   1.977   4.241   3.144
 9453SOL    HW229259   2.081   4.357   3.194
 9454SOL     OW29260   2.346   3.482   6.121
 9454SOL    HW129261   2.363   3.388   6.091
 9454SOL    HW229262   2.249   3.505   6.107
 9455SOL     OW29263   3.482   1.456   2.543
 9455SOL    HW129264   3.461   1.393   2.618
 9455SOL    HW229265   3.434   1.542   2.558
 9456SOL     OW29266   0.253   4.434   0.269
 9456SOL    HW129267   0.174   4.464   0.323
 9456SOL    HW229268   0.269   4.336   0.287
 9457SOL     OW29269   1.695   3.739   6.435
 9457SOL    HW129270   1.774   3.700   6.388
 9457SOL    HW229271   1.620   3.749   6.371
 9458SOL     OW29272   1.409   4.801   6.842
 9458SOL    HW129273   1.437   4.871   6.908
 9458SOL    HW229274   1.366   4.725   6.890
 9459SOL     OW29275   6.354   5.165   2.392
 9459SOL    HW129276   6.453   5.169   2.381
 9459SOL    HW229277   6.323   5.245   2.445
 9460SOL     OW29278   0.172   2.004   5.008
 9460SOL    HW129279   0.101   1.968   5.069
 9460SOL    HW229280   0.136   2.083   4.957
 9461SOL     OW29281   6.249   1.639   3.247
 9461SOL    HW129282   6.233   1.724   3.196
 9461SOL    HW229283   6.326   1.652   3.309
 9462SOL     OW29284   2.003   3.851   3.055
 9462SOL    HW129285   2.069   3.917   3.091
 9462SOL    HW229286   2.050   3.789   2.992
 9463SOL     OW29287   0.301   0.838   1.155
 9463SOL    HW129288   0.321   0.763   1.092
 9463SOL    HW229289   0.348   0.822   1.242
 9464SOL     OW29290   5.453   6.566   6.820
 9464SOL    HW129291   5.432   6.513   6.738
 9464SOL    HW229292   5.505   6.647   6.795
 9465SOL     OW29293   6.934   0.488   3.365
 9465SOL    HW129294   7.009   0.554   3.353
 9465SOL    HW229295   6.953   0.407   3.309
 9466SOL     OW29296   4.450   3.740   5.394
 9466SOL    HW129297   4.403   3.782   5.471
 9466SOL    HW229298   4.412   3.776   5.308
 9467SOL     OW29299   1.147   2.916   1.519
 9467SOL    HW129300   1.080   2.963   1.461
 9467SOL    HW229301   1.227   2.891   1.465
 9468SOL     OW29302   6.012   2.608   6.263
 9468SOL    HW129303   6.017   2.535   6.331
 9468SOL    HW229304   6.061   2.580   6.180
 9469SOL     OW29305   6.109   5.304   1.781
 9469SOL    HW129306   6.051   5.224   1.766
 9469SOL    HW229307   6.197   5.290   1.736
 9470SOL     OW29308   5.582   3.152   6.152
 9470SOL    HW129309   5.636   3.103   6.084
 9470SOL    HW229310   5.487   3.121   6.147
 9471SOL     OW29311   6.532   2.591   5.191
 9471SOL    HW129312   6.555   2.592   5.288
 9471SOL    HW229313   6.523   2.686   5.159
 9472SOL     OW29314   6.641   3.612   4.439
 9472SOL    HW129315   6.691   3.545   4.494
 9472SOL    HW229316   6.707   3.674   4.395
 9473SOL     OW29317   3.831   6.361   5.598
 9473SOL    HW129318   3.922   6.365   5.638
 9473SOL    HW229319   3.764   6.393   5.665
 9474SOL     OW29320   6.049   3.788   1.188
 9474SOL    HW129321   6.131   3.732   1.182
 9474SOL    HW229322   5.987   3.750   1.257
 9475SOL     OW29323   3.519   3.594   0.610
 9475SOL    HW129324   3.474   3.615   0.697
 9475SOL    HW229325   3.571   3.509   0.619
 9476SOL     OW29326   3.037   3.447   4.800
 9476SOL    HW129327   2.985   3.517   4.849
 9476SOL    HW229328   2.994   3.358   4.813
 9477SOL     OW29329   0.410   3.255   2.012
 9477SOL    HW129330   0.408   3.189   1.937
 9477SOL    HW229331   0.430   3.346   1.976
 9478SOL     OW29332   6.079   3.768   6.194
 9478SOL    HW129333   6.104   3.821   6.113
 9478SOL    HW229334   6.117   3.811   6.276
 9479SOL     OW29335   5.596   6.800   6.201
 9479SOL    HW129336   5.632   6.765   6.287
 9479SOL    HW229337   5.662   6.863   6.160
 9480SOL     OW29338   4.455   4.372   6.657
 9480SOL    HW129339   4.496   4.352   6.568
 9480SOL    HW229340   4.521   4.423   6.713
 9481SOL     OW29341   5.905   3.729   1.399
 9481SOL    HW129342   5.820   3.757   1.444
 9481SOL    HW229343   5.976   3.718   1.468
 9482SOL     OW29344   6.453   1.012   3.302
 9482SOL    HW129345   6.392   0.947   3.258
 9482SOL    HW229346   6.433   1.015   3.400
 9483SOL     OW29347   1.859   1.436   1.142
 9483SOL    HW129348   1.850   1.513   1.079
 9483SOL    HW229349   1.769   1.410   1.176
 9484SOL     OW29350   5.173   1.960   3.081
 9484SOL    HW129351   5.167   1.866   3.050
 9484SOL    HW229352   5.234   2.011   3.020
 9485SOL     OW29353   0.747   0.041   1.677
 9485SOL    HW129354   0.665   7.008   1.684
 9485SOL    HW229355   0.809   0.019   1.753
 9486SOL     OW29356   2.149   5.091   0.838
 9486SOL    HW129357   2.214   5.017   0.820
 9486SOL    HW229358   2.076   5.089   0.769
 9487SOL     OW29359   2.859   3.530   3.953
 9487SOL    HW129360   2.877   3.624   3.924
 9487SOL    HW229361   2.783   3.529   4.017
 9488SOL     OW29362   2.782   6.645   1.563
 9488SOL    HW129363   2.726   6.689   1.493
 9488SOL    HW229364   2.745   6.555   1.584
 9489SOL     OW29365   3.183   3.927   1.324
 9489SOL    HW129366   3.176   3.878   1.237
 9489SOL    HW229367   3.097   3.918   1.373
 9490SOL     OW29368   5.645   0.029   0.264
 9490SOL    HW129369   5.693   0.008   0.349
 9490SOL    HW229370   5.666   0.123   0.236
 9491SOL     OW29371   7.018   4.807   4.603
 9491SOL    HW129372   6.998   4.875   4.674
 9491SOL    HW229373   0.032   4.724   4.647
 9492SOL     OW29374   3.356   3.446   2.734
 9492SOL    HW129375   3.307   3.532   2.721
 9492SOL    HW229376   3.454   3.461   2.718
 9493SOL     OW29377   4.353   5.237   4.058
 9493SOL    HW129378   4.438   5.280   4.089
 9493SOL    HW229379   4.340   5.256   3.961
 9494SOL     OW29380   4.334   3.639   0.989
 9494SOL    HW129381   4.256   3.589   1.028
 9494SOL    HW229382   4.307   3.734   0.971
 9495SOL     OW29383   6.478   2.328   4.412
 9495SOL    HW129384   6.405   2.395   4.427
 9495SOL    HW229385   6.565   2.368   4.440
 9496SOL     OW29386   5.137   4.611   0.214
 9496SOL    HW129387   5.117   4.597   0.311
 9496SOL    HW229388   5.208   4.681   0.204
 9497SOL     OW29389   4.654   3.846   0.485
 9497SOL    HW129390   4.725   3.785   0.448
 9497SOL    HW229391   4.643   3.925   0.425
 9498SOL     OW29392   5.355   0.649   6.272
 9498SOL    HW129393   5.292   0.648   6.350
 9498SOL    HW229394   5.304   0.653   6.187
 9499SOL     OW29395   2.537   3.398   5.405
 9499SOL    HW129396   2.450   3.425   5.365
 9499SOL    HW229397   2.540   3.427   5.501
 9500SOL     OW29398   3.202   6.546   1.943
 9500SOL    HW129399   3.217   6.555   1.844
 9500SOL    HW229400   3.160   6.630   1.977
 9501SOL     OW29401   3.134   1.488   4.527
 9501SOL    HW129402   3.131   1.580   4.567
 9501SOL    HW229403   3.055   1.475   4.467
 9502SOL     OW29404   0.134   2.309   5.230
 9502SOL    HW129405   0.037   2.313   5.204
 9502SOL    HW229406   0.145   2.347   5.321
 9503SOL     OW29407   0.537   0.977   1.700
 9503SOL    HW129408   0.612   0.962   1.764
 9503SOL    HW229409   0.485   1.057   1.728
 9504SOL     OW29410   6.966   2.169   1.116
 9504SOL    HW129411   6.979   2.268   1.113
 9504SOL    HW229412   0.023   2.123   1.077
 9505SOL     OW29413   5.606   3.889   3.338
 9505SOL    HW129414   5.536   3.855   3.275
 9505SOL    HW229415   5.613   3.827   3.417
 9506SOL     OW29416   0.799   3.058   6.529
 9506SOL    HW129417   0.818   3.139   6.585
 9506SOL    HW229418   0.882   3.031   6.481
 9507SOL     OW29419   2.086   1.183   3.880
 9507SOL    HW129420   2.158   1.125   3.918
 9507SOL    HW229421   2.044   1.236   3.954
 9508SOL     OW29422   6.146   2.640   0.675
 9508SOL    HW129423   6.091   2.723   0.675
 9508SOL    HW229424   6.095   2.566   0.629
 9509SOL     OW29425   1.361   6.388   5.183
 9509SOL    HW129426   1.420   6.314   5.214
 9509SOL    HW229427   1.383   6.412   5.089
 9510SOL     OW29428   0.739   3.890   1.756
 9510SOL    HW129429   0.791   3.888   1.841
 9510SOL    HW229430   0.801   3.893   1.678
 9511SOL     OW29431   0.871   1.813   0.094
 9511SOL    HW129432   0.796   1.777   0.039
 9511SOL    HW229433   0.896   1.904   0.061
 9512SOL     OW29434   5.681   1.975   3.282
 9512SOL    HW129435   5.668   1.892   3.336
 9512SOL    HW229436   5.748   2.034   3.326
 9513SOL     OW29437   1.434   3.308   4.667
 9513SOL    HW129438   1.530   3.302   4.641
 9513SOL    HW229439   1.376   3.290   4.586
 9514SOL     OW29440   1.251   3.895   7.004
 9514SOL    HW129441   1.157   3.896   0.014
 9514SOL    HW229442   1.299   3.815   0.017
 9515SOL     OW29443   1.494   5.904   7.003
 9515SOL    HW129444   1.551   5.825   0.001
 9515SOL    HW229445   1.430   5.921   0.054
 9516SOL     OW29446   4.973   3.540   4.579
 9516SOL    HW129447   4.963   3.503   4.672
 9516SOL    HW229448   4.935   3.475   4.513
 9517SOL     OW29449   1.566   4.783   1.177
 9517SOL    HW129450   1.489   4.719   1.176
 9517SOL    HW229451   1.610   4.784   1.087
 9518SOL     OW29452   1.578   2.116   6.841
 9518SOL    HW129453   1.623   2.067   6.916
 9518SOL    HW229454   1.480   2.125   6.861
 9519SOL     OW29455   3.201   3.363   2.955
 9519SOL    HW129456   3.271   3.302   2.993
 9519SOL    HW229457   3.243   3.425   2.889
 9520SOL     OW29458   6.593   1.449   3.799
 9520SOL    HW129459   6.649   1.510   3.856
 9520SOL    HW229460   6.644   1.422   3.718
 9521SOL     OW29461   3.482   4.154   1.735
 9521SOL    HW129462   3.399   4.127   1.784
 9521SOL    HW229463   3.494   4.093   1.657
 9522SOL     OW29464   4.098   5.509   2.555
 9522SOL    HW129465   4.138   5.434   2.607
 9522SOL    HW229466   4.142   5.595   2.581
 9523SOL     OW29467   2.627   5.288   5.012
 9523SOL    HW129468   2.625   5.226   5.090
 9523SOL    HW229469   2.569   5.251   4.939
 9524SOL     OW29470   1.736   2.657   1.413
 9524SOL    HW129471   1.647   2.641   1.371
 9524SOL    HW229472   1.725   2.665   1.513
 9525SOL     OW29473   1.881   1.923   5.816
 9525SOL    HW129474   1.933   1.844   5.846
 9525SOL    HW229475   1.836   1.966   5.894
 9526SOL     OW29476   5.977   4.841   0.879
 9526SOL    HW129477   6.062   4.882   0.847
 9526SOL    HW229478   5.967   4.749   0.840
 9527SOL     OW29479   2.376   0.101   4.843
 9527SOL    HW129480   2.276   0.091   4.844
 9527SOL    HW229481   2.415   0.036   4.778
 9528SOL     OW29482   6.232   1.739   1.094
 9528SOL    HW129483   6.228   1.725   1.193
 9528SOL    HW229484   6.328   1.746   1.066
 9529SOL     OW29485   5.197   3.955   0.951
 9529SOL    HW129486   5.193   3.977   0.853
 9529SOL    HW229487   5.163   4.033   1.004
 9530SOL     OW29488   1.050   4.394   4.529
 9530SOL    HW129489   1.127   4.339   4.497
 9530SOL    HW229490   1.084   4.483   4.561
 9531SOL     OW29491   4.085   4.762   3.125
 9531SOL    HW129492   4.156   4.808   3.178
 9531SOL    HW229493   4.122   4.736   3.035
 9532SOL     OW29494   6.641   4.802   0.969
 9532SOL    HW129495   6.663   4.851   1.054
 9532SOL    HW229496   6.628   4.705   0.989
 9533SOL     OW29497   0.532   5.277   3.720
 9533SOL    HW129498   0.624   5.311   3.733
 9533SOL    HW229499   0.528   5.225   3.634
 9534SOL     OW29500   5.880   4.094   4.538
 9534SOL    HW129501   5.907   4.119   4.631
 9534SOL    HW229502   5.866   4.177   4.484
 9535SOL     OW29503   1.939   0.749   6.074
 9535SOL    HW129504   2.023   0.702   6.101
 9535SOL    HW229505   1.889   0.693   6.008
 9536SOL     OW29506   3.460   3.212   5.705
 9536SOL    HW129507   3.388   3.214   5.636
 9536SOL    HW229508   3.509   3.300   5.705
 9537SOL     OW29509   3.116   1.756   4.660
 9537SOL    HW129510   3.102   1.793   4.568
 9537SOL    HW229511   3.142   1.829   4.722
 9538SOL     OW29512   4.805   0.775   4.207
 9538SOL    HW129513   4.760   0.744   4.290
 9538SOL    HW229514   4.758   0.855   4.171
 9539SOL     OW29515   2.882   3.508   4.261
 9539SOL    HW129516   2.938   3.580   4.220
 9539SOL    HW229517   2.867   3.529   4.358
 9540SOL     OW29518   5.072   5.728   4.517
 9540SOL    HW129519   5.047   5.631   4.520
 9540SOL    HW229520   5.028   5.771   4.438
 9541SOL     OW29521   2.163   0.788   5.845
 9541SOL    HW129522   2.236   0.791   5.913
 9541SOL    HW229523   2.105   0.709   5.861
 9542SOL     OW29524   5.524   5.265   4.391
 9542SOL    HW129525   5.460   5.325   4.342
 9542SOL    HW229526   5.492   5.170   4.384
 9543SOL     OW29527   3.704   0.574   6.341
 9543SOL    HW129528   3.750   0.500   6.293
 9543SOL    HW229529   3.628   0.538   6.395
 9544SOL     OW29530   5.096   3.224   3.745
 9544SOL    HW129531   5.117   3.214   3.842
 9544SOL    HW229532   5.169   3.276   3.700
 9545SOL     OW29533   6.128   5.195   2.265
 9545SOL    HW129534   6.216   5.184   2.312
 9545SOL    HW229535   6.076   5.110   2.271
 9546SOL     OW29536   3.794   1.296   5.756
 9546SOL    HW129537   3.801   1.396   5.756
 9546SOL    HW229538   3.803   1.262   5.850
 9547SOL     OW29539   2.232   5.383   3.938
 9547SOL    HW129540   2.132   5.382   3.949
 9547SOL    HW229541   2.275   5.386   4.029
 9548SOL     OW29542   0.517   5.562   4.869
 9548SOL    HW129543   0.448   5.567   4.797
 9548SOL    HW229544   0.597   5.512   4.835
 9549SOL     OW29545   2.600   1.211   2.241
 9549SOL    HW129546   2.649   1.237   2.157
 9549SOL    HW229547   2.666   1.187   2.312
 9550SOL     OW29548   6.324   2.469   0.897
 9550SOL    HW129549   6.367   2.383   0.871
 9550SOL    HW229550   6.225   2.461   0.889
 9551SOL     OW29551   6.038   3.124   5.860
 9551SOL    HW129552   5.948   3.101   5.899
 9551SOL    HW229553   6.109   3.070   5.905
 9552SOL     OW29554   2.385   6.077   5.793
 9552SOL    HW129555   2.337   6.079   5.881
 9552SOL    HW229556   2.471   6.127   5.800
 9553SOL     OW29557   5.669   2.417   6.880
 9553SOL    HW129558   5.572   2.392   6.890
 9553SOL    HW229559   5.720   2.339   6.843
 9554SOL     OW29560   1.446   6.266   3.446
 9554SOL    HW129561   1.417   6.357   3.474
 9554SOL    HW229562   1.383   6.198   3.484
 9555SOL     OW29563   0.494   0.894   3.298
 9555SOL    HW129564   0.579   0.882   3.248
 9555SOL    HW229565   0.459   0.987   3.284
 9556SOL     OW29566   1.749   3.468   1.004
 9556SOL    HW129567   1.760   3.419   1.091
 9556SOL    HW229568   1.840   3.489   0.967
 9557SOL     OW29569   5.396   0.016   1.264
 9557SOL    HW129570   5.397   0.089   1.333
 9557SOL    HW229571   5.318   0.029   1.202
 9558SOL     OW29572   5.793   5.959   5.271
 9558SOL    HW129573   5.715   5.959   5.335
 9558SOL    HW229574   5.816   5.864   5.247
 9559SOL     OW29575   1.204   4.112   0.572
 9559SOL    HW129576   1.121   4.064   0.545
 9559SOL    HW229577   1.187   4.211   0.574
 9560SOL     OW29578   2.628   1.075   2.893
 9560SOL    HW129579   2.542   1.056   2.940
 9560SOL    HW229580   2.656   1.169   2.911
 9561SOL     OW29581   0.296   0.357   1.478
 9561SOL    HW129582   0.281   0.403   1.566
 9561SOL    HW229583   0.258   0.414   1.405
 9562SOL     OW29584   2.820   0.252   4.709
 9562SOL    HW129585   2.892   0.193   4.673
 9562SOL    HW229586   2.844   0.280   4.802
 9563SOL     OW29587   0.350   6.879   6.982
 9563SOL    HW129588   0.341   6.802   6.919
 9563SOL    HW229589   0.385   6.846   0.047
 9564SOL     OW29590   2.433   1.005   0.887
 9564SOL    HW129591   2.364   1.017   0.958
 9564SOL    HW229592   2.391   0.965   0.806
 9565SOL     OW29593   3.404   1.065   5.479
 9565SOL    HW129594   3.456   1.130   5.535
 9565SOL    HW229595   3.345   1.115   5.416
 9566SOL     OW29596   2.802   5.975   0.446
 9566SOL    HW129597   2.899   5.965   0.470
 9566SOL    HW229598   2.793   5.982   0.346
 9567SOL     OW29599   5.169   4.279   6.993
 9567SOL    HW129600   5.141   4.239   0.057
 9567SOL    HW229601   5.200   4.206   6.932
 9568SOL     OW29602   4.134   1.954   0.213
 9568SOL    HW129603   4.074   1.877   0.234
 9568SOL    HW229604   4.141   2.014   0.292
 9569SOL     OW29605   0.053   1.155   2.116
 9569SOL    HW129606   0.015   1.209   2.191
 9569SOL    HW229607   0.123   1.208   2.069
 9570SOL     OW29608   0.473   2.913   1.354
 9570SOL    HW129609   0.509   3.001   1.322
 9570SOL    HW229610   0.389   2.928   1.406
 9571SOL     OW29611   3.201   3.226   5.403
 9571SOL    HW129612   3.270   3.219   5.331
 9571SOL    HW229613   3.121   3.274   5.367
 9572SOL     OW29614   2.121   5.126   2.245
 9572SOL    HW129615   2.043   5.072   2.277
 9572SOL    HW229616   2.155   5.087   2.160
 9573SOL     OW29617   0.769   1.736   6.600
 9573SOL    HW129618   0.703   1.770   6.667
 9573SOL    HW229619   0.722   1.678   6.534
 9574SOL     OW29620   3.376   2.880   2.528
 9574SOL    HW129621   3.323   2.800   2.499
 9574SOL    HW229622   3.337   2.915   2.613
 9575SOL     OW29623   0.255   1.359   1.951
 9575SOL    HW129624   0.243   1.415   1.869
 9575SOL    HW229625   0.292   1.415   2.024
 9576SOL     OW29626   1.949   1.915   0.708
 9576SOL    HW129627   1.987   1.993   0.658
 9576SOL    HW229628   2.017   1.880   0.773
 9577SOL     OW29629   0.912   0.122   5.760
 9577SOL    HW129630   0.908   0.217   5.792
 9577SOL    HW229631   0.946   0.120   5.665
 9578SOL     OW29632   1.404   3.002   2.937
 9578SOL    HW129633   1.503   3.009   2.947
 9578SOL    HW229634   1.361   3.084   2.974
 9579SOL     OW29635   0.258   5.903   3.277
 9579SOL    HW129636   0.318   5.974   3.239
 9579SOL    HW229637   0.275   5.895   3.375
 9580SOL     OW29638   4.303   3.070   0.644
 9580SOL    HW129639   4.367   3.066   0.567
 9580SOL    HW229640   4.226   3.008   0.627
 9581SOL     OW29641   0.444   0.404   6.618
 9581SOL    HW129642   0.502   0.403   6.537
 9581SOL    HW229643   0.352   0.374   6.593
 9582SOL     OW29644   4.404   5.964   5.120
 9582SOL    HW129645   4.445   5.897   5.058
 9582SOL    HW229646   4.451   6.051   5.111
 9583SOL     OW29647   2.885   3.783   1.345
 9583SOL    HW129648   2.803   3.814   1.393
 9583SOL    HW229649   2.940   3.726   1.407
 9584SOL     OW29650   6.770   4.866   5.890
 9584SOL    HW129651   6.779   4.931   5.966
 9584SOL    HW229652   6.696   4.802   5.911
 9585SOL     OW29653   5.520   6.422   3.099
 9585SOL    HW129654   5.594   6.474   3.057
 9585SOL    HW229655   5.448   6.486   3.128
 9586SOL     OW29656   4.870   5.533   2.535
 9586SOL    HW129657   4.872   5.602   2.462
 9586SOL    HW229658   4.809   5.563   2.608
 9587SOL     OW29659   1.166   0.091   1.408
 9587SOL    HW129660   1.185   0.170   1.466
 9587SOL    HW229661   1.089   0.040   1.445
 9588SOL     OW29662   6.204   6.785   0.779
 9588SOL    HW129663   6.228   6.762   0.873
 9588SOL    HW229664   6.266   6.855   0.745
 9589SOL     OW29665   1.842   4.507   0.487
 9589SOL    HW129666   1.851   4.607   0.487
 9589SOL    HW229667   1.786   4.478   0.564
 9590SOL     OW29668   6.026   3.471   1.913
 9590SOL    HW129669   6.092   3.477   1.988
 9590SOL    HW229670   6.053   3.398   1.851
 9591SOL     OW29671   2.951   5.391   5.901
 9591SOL    HW129672   2.864   5.412   5.946
 9591SOL    HW229673   2.961   5.292   5.891
 9592SOL     OW29674   2.606   4.712   0.330
 9592SOL    HW129675   2.652   4.623   0.330
 9592SOL    HW229676   2.672   4.783   0.354
 9593SOL     OW29677   0.820   1.040   6.433
 9593SOL    HW129678   0.816   1.130   6.390
 9593SOL    HW229679   0.906   1.031   6.483
 9594SOL     OW29680   1.981   5.135   4.034
 9594SOL    HW129681   1.881   5.134   4.025
 9594SOL    HW229682   2.023   5.122   3.945
 9595SOL     OW29683   0.214   3.478   4.074
 9595SOL    HW129684   0.236   3.531   3.992
 9595SOL    HW229685   0.136   3.418   4.054
 9596SOL     OW29686   0.953   4.987   6.687
 9596SOL    HW129687   1.052   4.974   6.682
 9596SOL    HW229688   0.922   5.038   6.606
 9597SOL     OW29689   6.837   4.256   1.726
 9597SOL    HW129690   6.911   4.199   1.689
 9597SOL    HW229691   6.846   4.349   1.691
 9598SOL     OW29692   1.871   4.934   3.367
 9598SOL    HW129693   1.862   4.899   3.460
 9598SOL    HW229694   1.803   4.890   3.308
 9599SOL     OW29695   2.288   0.552   4.090
 9599SOL    HW129696   2.332   0.616   4.028
 9599SOL    HW229697   2.291   0.588   4.184
 9600SOL     OW29698   2.864   6.701   0.090
 9600SOL    HW129699   2.867   6.605   0.061
 9600SOL    HW229700   2.887   6.759   0.012
 9601SOL     OW29701   5.027   4.206   0.959
 9601SOL    HW129702   5.078   4.236   1.040
 9601SOL    HW229703   4.941   4.163   0.987
 9602SOL     OW29704   5.977   4.036   6.612
 9602SOL    HW129705   5.916   4.096   6.664
 9602SOL    HW229706   5.977   3.945   6.653
 9603SOL     OW29707   4.605   1.245   5.894
 9603SOL    HW129708   4.523   1.274   5.945
 9603SOL    HW229709   4.589   1.157   5.851
 9604SOL     OW29710   4.839   0.003   0.722
 9604SOL    HW129711   4.816   0.026   0.817
 9604SOL    HW229712   4.938   0.004   0.710
 9605SOL     OW29713   1.024   5.917   3.471
 9605SOL    HW129714   1.027   5.837   3.412
 9605SOL    HW229715   1.014   5.888   3.566
 9606SOL     OW29716   1.756   5.853   0.148
 9606SOL    HW129717   1.799   5.942   0.136
 9606SOL    HW229718   1.826   5.781   0.140
 9607SOL     OW29719   2.244   0.958   6.662
 9607SOL    HW129720   2.235   1.057   6.673
 9607SOL    HW229721   2.212   0.913   6.746
 9608SOL     OW29722   0.186   4.775   1.790
 9608SOL    HW129723   0.099   4.727   1.794
 9608SOL    HW229724   0.249   4.725   1.731
 9609SOL     OW29725   2.578   2.856   0.328
 9609SOL    HW129726   2.491   2.872   0.281
 9609SOL    HW229727   2.569   2.879   0.425
 9610SOL     OW29728   1.529   4.780   3.921
 9610SOL    HW129729   1.474   4.828   3.854
 9610SOL    HW229730   1.506   4.812   4.013
 9611SOL     OW29731   0.990   6.193   0.049
 9611SOL    HW129732   0.915   6.158   0.105
 9611SOL    HW229733   1.021   6.281   0.086
 9612SOL     OW29734   0.409   3.747   1.554
 9612SOL    HW129735   0.481   3.689   1.516
 9612SOL    HW229736   0.320   3.703   1.540
 9613SOL     OW29737   5.212   0.332   3.620
 9613SOL    HW129738   5.157   0.296   3.695
 9613SOL    HW229739   5.157   0.395   3.565
 9614SOL     OW29740   4.256   2.664   1.720
 9614SOL    HW129741   4.321   2.588   1.719
 9614SOL    HW229742   4.305   2.751   1.727
 9615SOL     OW29743   2.570   0.405   0.599
 9615SOL    HW129744   2.543   0.378   0.691
 9615SOL    HW229745   2.643   0.345   0.567
 9616SOL     OW29746   3.593   3.584   1.530
 9616SOL    HW129747   3.606   3.486   1.521
 9616SOL    HW229748   3.674   3.625   1.571
 9617SOL     OW29749   1.426   3.057   3.333
 9617SOL    HW129750   1.373   3.036   3.250
 9617SOL    HW229751   1.523   3.060   3.311
 9618SOL     OW29752   3.460   6.514   0.158
 9618SOL    HW129753   3.469   6.540   0.254
 9618SOL    HW229754   3.491   6.420   0.146
 9619SOL     OW29755   1.650   6.677   6.417
 9619SOL    HW129756   1.718   6.704   6.485
 9619SOL    HW229757   1.629   6.755   6.358
 9620SOL     OW29758   4.310   0.583   6.286
 9620SOL    HW129759   4.300   0.611   6.191
 9620SOL    HW229760   4.321   0.664   6.344
 9621SOL     OW29761   1.024   2.167   2.118
 9621SOL    HW129762   1.026   2.096   2.189
 9621SOL    HW229763   0.989   2.252   2.158
 9622SOL     OW29764   6.800   1.163   0.652
 9622SOL    HW129765   6.858   1.242   0.631
 9622SOL    HW229766   6.827   1.124   0.740
 9623SOL     OW29767   3.007   3.762   5.747
 9623SOL    HW129768   3.070   3.827   5.705
 9623SOL    HW229769   2.960   3.710   5.676
 9624SOL     OW29770   6.898   3.860   2.737
 9624SOL    HW129771   6.996   3.871   2.750
 9624SOL    HW229772   6.866   3.924   2.667
 9625SOL     OW29773   4.778   6.025   6.886
 9625SOL    HW129774   4.798   6.087   6.810
 9625SOL    HW229775   4.748   5.937   6.849
 9626SOL     OW29776   4.098   5.280   0.410
 9626SOL    HW129777   4.025   5.234   0.460
 9626SOL    HW229778   4.182   5.279   0.464
 9627SOL     OW29779   6.872   6.150   4.896
 9627SOL    HW129780   6.783   6.191   4.915
 9627SOL    HW229781   6.944   6.219   4.907
 9628SOL     OW29782   4.792   4.740   0.043
 9628SOL    HW129783   4.821   4.645   0.047
 9628SOL    HW229784   4.861   4.794   7.019
 9629SOL     OW29785   0.462   7.005   1.702
 9629SOL    HW129786   0.467   6.973   1.797
 9629SOL    HW229787   0.388   0.047   1.693
 9630SOL     OW29788   6.685   0.133   4.988
 9630SOL    HW129789   6.657   0.053   5.041
 9630SOL    HW229790   6.658   0.216   5.036
 9631SOL     OW29791   0.063   6.857   6.678
 9631SOL    HW129792   0.028   6.896   6.764
 9631SOL    HW229793   0.116   6.775   6.698
 9632SOL     OW29794   0.883   6.961   2.634
 9632SOL    HW129795   0.879   0.017   2.574
 9632SOL    HW229796   0.979   6.940   2.655
 9633SOL     OW29797   5.277   5.202   5.813
 9633SOL    HW129798   5.328   5.118   5.835
 9633SOL    HW229799   5.319   5.246   5.733
 9634SOL     OW29800   1.002   5.996   4.092
 9634SOL    HW129801   0.993   5.964   4.186
 9634SOL    HW229802   1.095   6.031   4.078
 9635SOL     OW29803   1.534   4.862   5.188
 9635SOL    HW129804   1.577   4.915   5.261
 9635SOL    HW229805   1.516   4.922   5.110
 9636SOL     OW29806   3.913   1.927   5.783
 9636SOL    HW129807   3.865   1.882   5.708
 9636SOL    HW229808   3.852   1.937   5.861
 9637SOL     OW29809   2.107   1.406   6.268
 9637SOL    HW129810   2.132   1.500   6.243
 9637SOL    HW229811   2.015   1.406   6.308
 9638SOL     OW29812   6.506   3.878   6.866
 9638SOL    HW129813   6.480   3.975   6.866
 9638SOL    HW229814   6.541   3.853   6.956
 9639SOL     OW29815   3.831   1.660   2.412
 9639SOL    HW129816   3.807   1.705   2.498
 9639SOL    HW229817   3.759   1.594   2.387
 9640SOL     OW29818   2.091   2.858   3.501
 9640SOL    HW129819   2.191   2.845   3.503
 9640SOL    HW229820   2.067   2.939   3.554
 9641SOL     OW29821   3.899   6.482   0.890
 9641SOL    HW129822   3.957   6.407   0.857
 9641SOL    HW229823   3.803   6.451   0.892
 9642SOL     OW29824   3.154   6.779   4.672
 9642SOL    HW129825   3.251   6.796   4.693
 9642SOL    HW229826   3.113   6.726   4.747
 9643SOL     OW29827   5.421   5.638   4.713
 9643SOL    HW129828   5.418   5.720   4.656
 9643SOL    HW229829   5.511   5.595   4.705
 9644SOL     OW29830   1.046   4.243   6.309
 9644SOL    HW129831   0.961   4.193   6.326
 9644SOL    HW229832   1.055   4.262   6.212
 9645SOL     OW29833   2.430   5.479   3.789
 9645SOL    HW129834   2.473   5.547   3.847
 9645SOL    HW229835   2.354   5.436   3.838
 9646SOL     OW29836   3.054   4.756   1.925
 9646SOL    HW129837   3.109   4.708   1.857
 9646SOL    HW229838   2.961   4.720   1.925
 9647SOL     OW29839   6.567   5.612   2.035
 9647SOL    HW129840   6.601   5.706   2.045
 9647SOL    HW229841   6.471   5.615   2.005
 9648SOL     OW29842   4.193   1.461   0.237
 9648SOL    HW129843   4.242   1.510   0.309
 9648SOL    HW229844   4.231   1.368   0.229
 9649SOL     OW29845   2.849   6.404   0.026
 9649SOL    HW129846   2.870   6.334   0.094
 9649SOL    HW229847   2.750   6.406   0.009
 9650SOL     OW29848   6.419   5.139   2.102
 9650SOL    HW129849   6.482   5.215   2.091
 9650SOL    HW229850   6.343   5.167   2.161
 9651SOL     OW29851   0.279   1.094   6.428
 9651SOL    HW129852   0.353   1.147   6.469
 9651SOL    HW229853   0.279   1.106   6.329
 9652SOL     OW29854   2.166   4.397   0.838
 9652SOL    HW129855   2.181   4.426   0.744
 9652SOL    HW229856   2.134   4.476   0.892
 9653SOL     OW29857   4.266   5.033   4.472
 9653SOL    HW129858   4.352   4.991   4.504
 9653SOL    HW229859   4.214   4.966   4.419
 9654SOL     OW29860   3.280   2.654   1.399
 9654SOL    HW129861   3.287   2.731   1.336
 9654SOL    HW229862   3.265   2.687   1.492
 9655SOL     OW29863   0.312   1.071   0.297
 9655SOL    HW129864   0.223   1.103   0.333
 9655SOL    HW229865   0.366   1.150   0.269
 9656SOL     OW29866   2.559   1.263   1.167
 9656SOL    HW129867   2.582   1.219   1.253
 9656SOL    HW229868   2.616   1.226   1.094
 9657SOL     OW29869   5.423   0.214   3.742
 9657SOL    HW129870   5.348   0.267   3.701
 9657SOL    HW229871   5.510   0.255   3.717
 9658SOL     OW29872   6.321   2.129   3.563
 9658SOL    HW129873   6.390   2.080   3.617
 9658SOL    HW229874   6.367   2.193   3.501
 9659SOL     OW29875   6.678   4.635   0.241
 9659SOL    HW129876   6.668   4.590   0.152
 9659SOL    HW229877   6.622   4.587   0.309
 9660SOL     OW29878   0.350   5.361   0.061
 9660SOL    HW129879   0.270   5.399   0.107
 9660SOL    HW229880   0.354   5.262   0.075
 9661SOL     OW29881   4.186   5.587   1.451
 9661SOL    HW129882   4.279   5.609   1.422
 9661SOL    HW229883   4.184   5.496   1.492
 9662SOL     OW29884   6.169   2.834   4.823
 9662SOL    HW129885   6.074   2.825   4.852
 9662SOL    HW229886   6.219   2.749   4.844
 9663SOL     OW29887   1.338   5.720   3.962
 9663SOL    HW129888   1.307   5.785   3.893
 9663SOL    HW229889   1.280   5.639   3.960
 9664SOL     OW29890   5.589   6.997   2.923
 9664SOL    HW129891   5.526   6.979   2.998
 9664SOL    HW229892   5.619   6.910   2.883
 9665SOL     OW29893   5.174   5.439   5.315
 9665SOL    HW129894   5.237   5.450   5.392
 9665SOL    HW229895   5.174   5.344   5.286
 9666SOL     OW29896   5.352   4.404   1.792
 9666SOL    HW129897   5.407   4.477   1.752
 9666SOL    HW229898   5.403   4.317   1.786
 9667SOL     OW29899   4.099   3.289   4.257
 9667SOL    HW129900   4.004   3.298   4.227
 9667SOL    HW229901   4.102   3.288   4.357
 9668SOL     OW29902   6.539   1.585   6.205
 9668SOL    HW129903   6.548   1.526   6.125
 9668SOL    HW229904   6.465   1.551   6.263
 9669SOL     OW29905   1.018   1.238   0.844
 9669SOL    HW129906   1.091   1.249   0.912
 9669SOL    HW229907   0.936   1.203   0.890
 9670SOL     OW29908   4.859   4.971   6.282
 9670SOL    HW129909   4.766   5.006   6.274
 9670SOL    HW229910   4.923   5.048   6.291
 9671SOL     OW29911   0.575   5.275   6.383
 9671SOL    HW129912   0.528   5.256   6.297
 9671SOL    HW229913   0.674   5.271   6.368
 9672SOL     OW29914   1.682   6.906   4.463
 9672SOL    HW129915   1.720   6.995   4.438
 9672SOL    HW229916   1.756   6.839   4.468
 9673SOL     OW29917   5.311   4.544   6.920
 9673SOL    HW129918   5.263   4.488   6.987
 9673SOL    HW229919   5.302   4.503   6.830
 9674SOL     OW29920   2.932   6.222   2.925
 9674SOL    HW129921   2.850   6.249   2.874
 9674SOL    HW229922   2.970   6.303   2.970
 9675SOL     OW29923   5.789   1.456   1.510
 9675SOL    HW129924   5.791   1.359   1.532
 9675SOL    HW229925   5.702   1.496   1.541
 9676SOL     OW29926   1.383   3.716   5.447
 9676SOL    HW129927   1.380   3.641   5.513
 9676SOL    HW229928   1.309   3.705   5.380
 9677SOL     OW29929   2.769   4.457   6.285
 9677SOL    HW129930   2.761   4.554   6.311
 9677SOL    HW229931   2.687   4.430   6.235
 9678SOL     OW29932   3.262   4.118   3.069
 9678SOL    HW129933   3.358   4.122   3.043
 9678SOL    HW229934   3.209   4.180   3.011
 9679SOL     OW29935   1.220   1.420   1.829
 9679SOL    HW129936   1.239   1.483   1.753
 9679SOL    HW229937   1.295   1.424   1.895
 9680SOL     OW29938   6.367   0.159   3.388
 9680SOL    HW129939   6.431   0.171   3.312
 9680SOL    HW229940   6.411   0.103   3.459
 9681SOL     OW29941   2.740   0.744   1.351
 9681SOL    HW129942   2.651   0.773   1.317
 9681SOL    HW229943   2.801   0.726   1.273
 9682SOL     OW29944   5.079   5.045   3.424
 9682SOL    HW129945   5.040   5.128   3.464
 9682SOL    HW229946   5.008   4.974   3.419
 9683SOL     OW29947   3.664   5.335   1.111
 9683SOL    HW129948   3.641   5.337   1.014
 9683SOL    HW229949   3.629   5.251   1.152
 9684SOL     OW29950   0.473   3.133   5.123
 9684SOL    HW129951   0.401   3.183   5.076
 9684SOL    HW229952   0.514   3.066   5.061
 9685SOL     OW29953   2.139   2.787   1.289
 9685SOL    HW129954   2.055   2.754   1.247
 9685SOL    HW229955   2.128   2.883   1.317
 9686SOL     OW29956   6.170   2.019   0.735
 9686SOL    HW129957   6.215   1.934   0.707
 9686SOL    HW229958   6.071   2.006   0.735
 9687SOL     OW29959   2.292   0.702   3.516
 9687SOL    HW129960   2.236   0.685   3.597
 9687SOL    HW229961   2.307   0.616   3.467
 9688SOL     OW29962   6.417   2.541   3.639
 9688SOL    HW129963   6.486   2.504   3.701
 9688SOL    HW229964   6.381   2.468   3.581
 9689SOL     OW29965   1.438   6.329   0.754
 9689SOL    HW129966   1.533   6.352   0.730
 9689SOL    HW229967   1.390   6.410   0.785
 9690SOL     OW29968   5.856   5.337   6.600
 9690SOL    HW129969   5.815   5.272   6.536
 9690SOL    HW229970   5.909   5.405   6.549
 9691SOL     OW29971   2.672   4.652   1.537
 9691SOL    HW129972   2.642   4.683   1.447
 9691SOL    HW229973   2.720   4.565   1.528
 9692SOL     OW29974   2.218   5.260   2.682
 9692SOL    HW129975   2.197   5.176   2.731
 9692SOL    HW229976   2.137   5.317   2.677
 9693SOL     OW29977   6.977   5.108   2.192
 9693SOL    HW129978   6.990   5.013   2.219
 9693SOL    HW229979   6.931   5.111   2.103
 9694SOL     OW29980   2.253   1.153   6.220
 9694SOL    HW129981   2.242   1.090   6.296
 9694SOL    HW229982   2.193   1.232   6.234
 9695SOL     OW29983   6.339   4.034   1.145
 9695SOL    HW129984   6.348   4.093   1.065
 9695SOL    HW229985   6.263   4.066   1.202
 9696SOL     OW29986   4.992   2.278   1.168
 9696SOL    HW129987   4.950   2.227   1.242
 9696SOL    HW229988   5.033   2.215   1.102
 9697SOL     OW29989   6.814   5.199   6.960
 9697SOL    HW129990   6.772   5.251   6.885
 9697SOL    HW229991   6.878   5.133   6.921
 9698SOL     OW29992   5.698   0.980   5.512
 9698SOL    HW129993   5.796   1.003   5.511
 9698SOL    HW229994   5.683   0.899   5.569
 9699SOL     OW29995   0.352   4.555   6.004
 9699SOL    HW129996   0.273   4.533   5.947
 9699SOL    HW229997   0.337   4.644   6.048
 9700SOL     OW29998   4.247   5.325   5.882
 9700SOL    HW129999   4.309   5.349   5.956
 9700SOL    HW230000   4.153   5.320   5.918
 9701SOL     OW30001   3.707   5.352   4.807
 9701SOL    HW130002   3.720   5.302   4.893
 9701SOL    HW230003   3.671   5.289   4.737
 9702SOL     OW30004   5.904   0.467   6.630
 9702SOL    HW130005   5.922   0.509   6.719
 9702SOL    HW230006   5.990   0.451   6.582
 9703SOL     OW30007   3.336   5.494   4.042
 9703SOL    HW130008   3.302   5.458   4.129
 9703SOL    HW230009   3.383   5.421   3.992
 9704SOL     OW30010   3.195   0.873   2.441
 9704SOL    HW130011   3.239   0.963   2.440
 9704SOL    HW230012   3.160   0.853   2.532
 9705SOL     OW30013   5.277   5.094   0.752
 9705SOL    HW130014   5.266   5.193   0.760
 9705SOL    HW230015   5.354   5.065   0.808
 9706SOL     OW30016   0.267   1.952   1.233
 9706SOL    HW130017   0.234   1.870   1.279
 9706SOL    HW230018   0.277   2.026   1.300
 9707SOL     OW30019   6.457   4.356   1.860
 9707SOL    HW130020   6.395   4.279   1.872
 9707SOL    HW230021   6.534   4.347   1.923
 9708SOL     OW30022   1.954   2.591   3.225
 9708SOL    HW130023   1.968   2.492   3.218
 9708SOL    HW230024   1.954   2.617   3.321
 9709SOL     OW30025   6.978   5.663   3.470
 9709SOL    HW130026   0.012   5.584   3.491
 9709SOL    HW230027   6.935   5.650   3.381
 9710SOL     OW30028   0.569   1.708   2.742
 9710SOL    HW130029   0.615   1.787   2.782
 9710SOL    HW230030   0.483   1.692   2.791
 9711SOL     OW30031   1.589   3.405   6.127
 9711SOL    HW130032   1.573   3.499   6.098
 9711SOL    HW230033   1.679   3.375   6.095
 9712SOL     OW30034   5.250   3.586   4.505
 9712SOL    HW130035   5.151   3.596   4.513
 9712SOL    HW230036   5.277   3.595   4.409
 9713SOL     OW30037   0.479   5.352   2.964
 9713SOL    HW130038   0.385   5.324   2.947
 9713SOL    HW230039   0.538   5.317   2.890
 9714SOL     OW30040   1.886   1.151   1.905
 9714SOL    HW130041   1.831   1.093   1.966
 9714SOL    HW230042   1.981   1.150   1.936
 9715SOL     OW30043   6.805   5.518   4.866
 9715SOL    HW130044   6.794   5.420   4.886
 9715SOL    HW230045   6.903   5.541   4.868
 9716SOL     OW30046   4.191   2.517   6.784
 9716SOL    HW130047   4.160   2.422   6.782
 9716SOL    HW230048   4.114   2.578   6.764
 9717SOL     OW30049   5.510   6.041   5.439
 9717SOL    HW130050   5.507   6.028   5.538
 9717SOL    HW230051   5.491   6.136   5.417
 9718SOL     OW30052   4.653   3.168   1.645
 9718SOL    HW130053   4.623   3.102   1.713
 9718SOL    HW230054   4.624   3.139   1.554
 9719SOL     OW30055   0.703   2.097   0.196
 9719SOL    HW130056   0.707   2.104   0.097
 9719SOL    HW230057   0.766   2.163   0.237
 9720SOL     OW30058   0.585   5.794   1.757
 9720SOL    HW130059   0.523   5.741   1.698
 9720SOL    HW230060   0.618   5.735   1.831
 9721SOL     OW30061   0.918   2.463   1.721
 9721SOL    HW130062   0.968   2.478   1.806
 9721SOL    HW230063   0.840   2.403   1.737
 9722SOL     OW30064   0.606   6.792   3.510
 9722SOL    HW130065   0.631   6.707   3.557
 9722SOL    HW230066   0.624   6.870   3.570
 9723SOL     OW30067   1.812   6.083   2.723
 9723SOL    HW130068   1.761   6.163   2.693
 9723SOL    HW230069   1.880   6.059   2.654
 9724SOL     OW30070   3.293   2.812   1.190
 9724SOL    HW130071   3.198   2.842   1.188
 9724SOL    HW230072   3.315   2.762   1.106
 9725SOL     OW30073   4.201   3.699   6.140
 9725SOL    HW130074   4.267   3.666   6.208
 9725SOL    HW230075   4.134   3.758   6.186
 9726SOL     OW30076   4.468   0.314   4.596
 9726SOL    HW130077   4.448   0.220   4.625
 9726SOL    HW230078   4.566   0.331   4.608
 9727SOL     OW30079   1.189   3.429   5.475
 9727SOL    HW130080   1.227   3.365   5.407
 9727SOL    HW230081   1.263   3.470   5.527
 9728SOL     OW30082   0.793   6.727   6.503
 9728SOL    HW130083   0.789   6.651   6.568
 9728SOL    HW230084   0.741   6.804   6.539
 9729SOL     OW30085   1.141   4.615   2.864
 9729SOL    HW130086   1.150   4.523   2.826
 9729SOL    HW230087   1.049   4.650   2.847
 9730SOL     OW30088   0.351   3.612   2.150
 9730SOL    HW130089   0.349   3.685   2.081
 9730SOL    HW230090   0.442   3.570   2.152
 9731SOL     OW30091   4.327   4.742   0.688
 9731SOL    HW130092   4.335   4.643   0.694
 9731SOL    HW230093   4.279   4.768   0.604
 9732SOL     OW30094   5.581   6.134   2.745
 9732SOL    HW130095   5.665   6.104   2.791
 9732SOL    HW230096   5.503   6.085   2.783
 9733SOL     OW30097   6.089   5.205   4.855
 9733SOL    HW130098   5.996   5.240   4.841
 9733SOL    HW230099   6.153   5.258   4.800
 9734SOL     OW30100   5.212   1.971   3.918
 9734SOL    HW130101   5.159   1.966   4.004
 9734SOL    HW230102   5.156   2.016   3.848
 9735SOL     OW30103   1.654   4.604   2.669
 9735SOL    HW130104   1.599   4.523   2.686
 9735SOL    HW230105   1.672   4.613   2.571
 9736SOL     OW30106   5.465   1.333   5.674
 9736SOL    HW130107   5.476   1.270   5.598
 9736SOL    HW230108   5.554   1.370   5.700
 9737SOL     OW30109   4.705   2.734   4.980
 9737SOL    HW130110   4.631   2.668   4.971
 9737SOL    HW230111   4.700   2.777   5.071
 9738SOL     OW30112   1.584   6.773   3.257
 9738SOL    HW130113   1.656   6.821   3.307
 9738SOL    HW230114   1.495   6.814   3.279
 9739SOL     OW30115   0.524   4.814   1.989
 9739SOL    HW130116   0.546   4.882   2.059
 9739SOL    HW230117   0.430   4.783   2.000
 9740SOL     OW30118   5.950   3.085   3.243
 9740SOL    HW130119   5.959   3.177   3.281
 9740SOL    HW230120   5.862   3.047   3.268
 9741SOL     OW30121   4.572   1.265   2.447
 9741SOL    HW130122   4.609   1.283   2.538
 9741SOL    HW230123   4.614   1.328   2.381
 9742SOL     OW30124   4.642   0.110   3.294
 9742SOL    HW130125   4.702   0.094   3.215
 9742SOL    HW230126   4.617   0.022   3.335
 9743SOL     OW30127   2.214   1.828   5.206
 9743SOL    HW130128   2.255   1.919   5.199
 9743SOL    HW230129   2.251   1.770   5.133
 9744SOL     OW30130   0.607   0.278   2.974
 9744SOL    HW130131   0.584   0.360   2.920
 9744SOL    HW230132   0.600   0.300   3.072
 9745SOL     OW30133   0.343   2.146   6.086
 9745SOL    HW130134   0.354   2.229   6.031
 9745SOL    HW230135   0.349   2.065   6.028
 9746SOL     OW30136   5.824   1.696   5.362
 9746SOL    HW130137   5.749   1.640   5.399
 9746SOL    HW230138   5.912   1.656   5.390
 9747SOL     OW30139   1.303   0.970   1.781
 9747SOL    HW130140   1.263   1.055   1.746
 9747SOL    HW230141   1.319   0.979   1.880
 9748SOL     OW30142   1.167   0.057   4.921
 9748SOL    HW130143   1.259   0.042   4.884
 9748SOL    HW230144   1.145   0.155   4.917
 9749SOL     OW30145   2.304   2.245   5.470
 9749SOL    HW130146   2.323   2.203   5.382
 9749SOL    HW230147   2.296   2.174   5.540
 9750SOL     OW30148   5.568   4.814   4.221
 9750SOL    HW130149   5.607   4.868   4.296
 9750SOL    HW230150   5.481   4.775   4.250
 9751SOL     OW30151   2.595   2.618   1.108
 9751SOL    HW130152   2.502   2.654   1.117
 9751SOL    HW230153   2.596   2.521   1.134
 9752SOL     OW30154   4.624   0.643   6.448
 9752SOL    HW130155   4.670   0.570   6.399
 9752SOL    HW230156   4.599   0.611   6.540
 9753SOL     OW30157   6.623   6.253   4.897
 9753SOL    HW130158   6.554   6.215   4.836
 9753SOL    HW230159   6.613   6.352   4.902
 9754SOL     OW30160   1.346   1.504   6.863
 9754SOL    HW130161   1.398   1.514   6.948
 9754SOL    HW230162   1.300   1.590   6.841
 9755SOL     OW30163   4.301   3.314   5.341
 9755SOL    HW130164   4.388   3.360   5.325
 9755SOL    HW230165   4.303   3.223   5.299
 9756SOL     OW30166   6.335   3.034   0.284
 9756SOL    HW130167   6.305   3.060   0.376
 9756SOL    HW230168   6.351   3.116   0.230
 9757SOL     OW30169   5.024   3.120   3.305
 9757SOL    HW130170   5.037   3.218   3.322
 9757SOL    HW230171   5.006   3.105   3.208
 9758SOL     OW30172   1.452   6.448   6.335
 9758SOL    HW130173   1.522   6.504   6.379
 9758SOL    HW230174   1.495   6.369   6.292
 9759SOL     OW30175   2.095   6.705   1.060
 9759SOL    HW130176   2.077   6.701   0.962
 9759SOL    HW230177   2.179   6.757   1.077
 9760SOL     OW30178   5.102   4.110   5.157
 9760SOL    HW130179   5.168   4.135   5.087
 9760SOL    HW230180   5.037   4.044   5.120
 9761SOL     OW30181   5.952   6.110   1.962
 9761SOL    HW130182   5.956   6.117   2.062
 9761SOL    HW230183   6.038   6.142   1.923
 9762SOL     OW30184   2.786   2.353   4.545
 9762SOL    HW130185   2.785   2.350   4.645
 9762SOL    HW230186   2.867   2.305   4.511
 9763SOL     OW30187   4.742   2.169   1.972
 9763SOL    HW130188   4.774   2.079   1.942
 9763SOL    HW230189   4.705   2.162   2.064
 9764SOL     OW30190   1.028   1.900   3.445
 9764SOL    HW130191   1.118   1.891   3.486
 9764SOL    HW230192   1.037   1.934   3.351
 9765SOL     OW30193   6.571   1.971   4.720
 9765SOL    HW130194   6.599   2.003   4.811
 9765SOL    HW230195   6.618   1.885   4.699
 9766SOL     OW30196   2.394   0.211   2.964
 9766SOL    HW130197   2.466   0.142   2.972
 9766SOL    HW230198   2.389   0.243   2.869
 9767SOL     OW30199   5.316   2.033   4.689
 9767SOL    HW130200   5.383   1.963   4.712
 9767SOL    HW230201   5.361   2.105   4.635
 9768SOL     OW30202   5.084   2.283   2.107
 9768SOL    HW130203   5.071   2.184   2.116
 9768SOL    HW230204   5.031   2.330   2.177
 9769SOL     OW30205   1.506   1.203   2.124
 9769SOL    HW130206   1.512   1.293   2.080
 9769SOL    HW230207   1.547   1.208   2.215
 9770SOL     OW30208   5.882   6.540   6.486
 9770SOL    HW130209   5.846   6.456   6.446
 9770SOL    HW230210   5.972   6.561   6.447
 9771SOL     OW30211   4.316   4.514   1.270
 9771SOL    HW130212   4.363   4.430   1.244
 9771SOL    HW230213   4.356   4.551   1.354
 9772SOL     OW30214   0.483   6.565   1.698
 9772SOL    HW130215   0.555   6.633   1.708
 9772SOL    HW230216   0.462   6.525   1.787
 9773SOL     OW30217   5.382   6.128   3.798
 9773SOL    HW130218   5.287   6.097   3.801
 9773SOL    HW230219   5.442   6.052   3.773
 9774SOL     OW30220   5.930   5.413   2.780
 9774SOL    HW130221   6.003   5.434   2.715
 9774SOL    HW230222   5.872   5.341   2.743
 9775SOL     OW30223   2.184   1.959   4.281
 9775SOL    HW130224   2.148   2.052   4.284
 9775SOL    HW230225   2.155   1.909   4.363
 9776SOL     OW30226   6.972   5.899   4.958
 9776SOL    HW130227   6.934   5.988   4.985
 9776SOL    HW230228   6.915   5.826   4.995
 9777SOL     OW30229   5.524   5.125   6.408
 9777SOL    HW130230   5.479   5.070   6.337
 9777SOL    HW230231   5.524   5.075   6.494
 9778SOL     OW30232   5.781   0.297   3.885
 9778SOL    HW130233   5.734   0.227   3.831
 9778SOL    HW230234   5.714   0.348   3.939
 9779SOL     OW30235   2.848   1.738   4.554
 9779SOL    HW130236   2.853   1.728   4.455
 9779SOL    HW230237   2.874   1.830   4.581
 9780SOL     OW30238   2.502   2.178   0.904
 9780SOL    HW130239   2.410   2.183   0.866
 9780SOL    HW230240   2.524   2.083   0.927
 9781SOL     OW30241   1.856   4.608   4.106
 9781SOL    HW130242   1.763   4.574   4.095
 9781SOL    HW230243   1.871   4.637   4.200
 9782SOL     OW30244   6.621   0.206   0.899
 9782SOL    HW130245   6.661   0.297   0.907
 9782SOL    HW230246   6.623   0.161   0.988
 9783SOL     OW30247   6.233   1.258   1.856
 9783SOL    HW130248   6.189   1.296   1.937
 9783SOL    HW230249   6.310   1.200   1.884
 9784SOL     OW30250   4.703   1.583   3.382
 9784SOL    HW130251   4.653   1.662   3.348
 9784SOL    HW230252   4.788   1.613   3.426
 9785SOL     OW30253   0.148   3.175   4.038
 9785SOL    HW130254   0.052   3.157   4.017
 9785SOL    HW230255   0.167   3.148   4.133
 9786SOL     OW30256   1.303   5.075   5.469
 9786SOL    HW130257   1.347   5.161   5.494
 9786SOL    HW230258   1.365   4.998   5.485
 9787SOL     OW30259   5.126   4.181   2.027
 9787SOL    HW130260   5.105   4.096   2.075
 9787SOL    HW230261   5.080   4.180   1.938
 9788SOL     OW30262   0.574   0.522   3.936
 9788SOL    HW130263   0.573   0.574   3.850
 9788SOL    HW230264   0.616   0.433   3.920
 9789SOL     OW30265   2.191   5.511   6.351
 9789SOL    HW130266   2.246   5.498   6.434
 9789SOL    HW230267   2.094   5.499   6.372
 9790SOL     OW30268   5.594   2.745   4.897
 9790SOL    HW130269   5.677   2.795   4.871
 9790SOL    HW230270   5.514   2.788   4.855
 9791SOL     OW30271   0.847   0.550   2.202
 9791SOL    HW130272   0.825   0.647   2.210
 9791SOL    HW230273   0.935   0.540   2.156
 9792SOL     OW30274   4.838   5.213   2.075
 9792SOL    HW130275   4.871   5.303   2.102
 9792SOL    HW230276   4.915   5.155   2.050
 9793SOL     OW30277   5.098   5.655   2.854
 9793SOL    HW130278   5.030   5.728   2.855
 9793SOL    HW230279   5.180   5.686   2.903
 9794SOL     OW30280   5.468   3.532   6.577
 9794SOL    HW130281   5.427   3.620   6.601
 9794SOL    HW230282   5.487   3.480   6.661
 9795SOL     OW30283   1.119   2.728   3.780
 9795SOL    HW130284   1.048   2.793   3.809
 9795SOL    HW230285   1.209   2.763   3.806
 9796SOL     OW30286   3.226   4.077   0.921
 9796SOL    HW130287   3.164   4.028   0.861
 9796SOL    HW230288   3.214   4.176   0.909
 9797SOL     OW30289   4.413   3.722   0.224
 9797SOL    HW130290   4.352   3.650   0.255
 9797SOL    HW230291   4.377   3.811   0.250
 9798SOL     OW30292   2.740   0.731   1.021
 9798SOL    HW130293   2.645   0.747   1.047
 9798SOL    HW230294   2.743   0.681   0.934
 9799SOL     OW30295   3.621   3.517   2.701
 9799SOL    HW130296   3.641   3.579   2.776
 9799SOL    HW230297   3.707   3.488   2.658
 9800SOL     OW30298   3.882   6.205   6.148
 9800SOL    HW130299   3.920   6.142   6.079
 9800SOL    HW230300   3.857   6.153   6.230
 9801SOL     OW30301   4.068   5.247   0.126
 9801SOL    HW130302   4.083   5.335   0.082
 9801SOL    HW230303   4.065   5.259   0.225
 9802SOL     OW30304   0.148   3.449   2.052
 9802SOL    HW130305   0.218   3.508   2.093
 9802SOL    HW230306   0.191   3.367   2.015
 9803SOL     OW30307   6.369   0.365   6.782
 9803SOL    HW130308   6.330   0.426   6.713
 9803SOL    HW230309   6.439   0.413   6.834
 9804SOL     OW30310   0.219   4.985   3.747
 9804SOL    HW130311   0.201   5.082   3.763
 9804SOL    HW230312   0.236   4.939   3.835
 9805SOL     OW30313   1.220   5.491   6.893
 9805SOL    HW130314   1.285   5.499   6.968
 9805SOL    HW230315   1.249   5.549   6.817
 9806SOL     OW30316   0.691   2.293   1.734
 9806SOL    HW130317   0.709   2.212   1.677
 9806SOL    HW230318   0.593   2.313   1.734
 9807SOL     OW30319   3.111   1.911   6.786
 9807SOL    HW130320   3.130   2.003   6.752
 9807SOL    HW230321   3.101   1.848   6.709
 9808SOL     OW30322   6.018   0.473   5.802
 9808SOL    HW130323   5.926   0.450   5.772
 9808SOL    HW230324   6.075   0.391   5.802
 9809SOL     OW30325   1.062   1.285   5.699
 9809SOL    HW130326   1.042   1.191   5.670
 9809SOL    HW230327   1.042   1.347   5.623
 9810SOL     OW30328   2.605   2.066   3.179
 9810SOL    HW130329   2.646   1.978   3.203
 9810SOL    HW230330   2.628   2.134   3.248
 9811SOL     OW30331   6.144   6.027   3.522
 9811SOL    HW130332   6.117   5.941   3.479
 9811SOL    HW230333   6.083   6.100   3.493
 9812SOL     OW30334   3.790   1.925   6.514
 9812SOL    HW130335   3.695   1.929   6.484
 9812SOL    HW230336   3.843   1.868   6.451
 9813SOL     OW30337   6.417   5.420   6.970
 9813SOL    HW130338   6.436   5.323   6.981
 9813SOL    HW230339   6.363   5.452   0.024
 9814SOL     OW30340   6.634   0.489   6.277
 9814SOL    HW130341   6.661   0.404   6.232
 9814SOL    HW230342   6.695   0.563   6.248
 9815SOL     OW30343   6.690   2.625   1.005
 9815SOL    HW130344   6.782   2.664   0.992
 9815SOL    HW230345   6.683   2.587   1.098
 9816SOL     OW30346   6.196   0.897   6.339
 9816SOL    HW130347   6.257   0.864   6.412
 9816SOL    HW230348   6.241   0.971   6.289
 9817SOL     OW30349   3.200   5.465   1.807
 9817SOL    HW130350   3.132   5.396   1.832
 9817SOL    HW230351   3.163   5.556   1.826
 9818SOL     OW30352   1.923   1.753   3.288
 9818SOL    HW130353   1.836   1.778   3.330
 9818SOL    HW230354   1.991   1.736   3.359
 9819SOL     OW30355   5.942   4.158   4.800
 9819SOL    HW130356   5.900   4.105   4.873
 9819SOL    HW230357   5.942   4.255   4.824
 9820SOL     OW30358   2.910   2.124   6.647
 9820SOL    HW130359   2.838   2.166   6.592
 9820SOL    HW230360   2.995   2.175   6.635
 9821SOL     OW30361   4.487   2.103   1.480
 9821SOL    HW130362   4.558   2.036   1.499
 9821SOL    HW230363   4.485   2.171   1.554
 9822SOL     OW30364   4.395   5.836   4.356
 9822SOL    HW130365   4.405   5.747   4.402
 9822SOL    HW230366   4.340   5.897   4.413
 9823SOL     OW30367   1.532   0.639   2.384
 9823SOL    HW130368   1.462   0.623   2.314
 9823SOL    HW230369   1.488   0.646   2.473
 9824SOL     OW30370   2.403   5.813   5.723
 9824SOL    HW130371   2.417   5.807   5.624
 9824SOL    HW230372   2.379   5.907   5.748
 9825SOL     OW30373   5.302   6.092   5.076
 9825SOL    HW130374   5.262   6.007   5.110
 9825SOL    HW230375   5.241   6.169   5.098
 9826SOL     OW30376   3.665   7.018   5.761
 9826SOL    HW130377   3.606   0.009   5.682
 9826SOL    HW230378   3.640   6.933   5.807
 9827SOL     OW30379   2.111   5.640   2.718
 9827SOL    HW130380   2.035   5.577   2.734
 9827SOL    HW230381   2.085   5.708   2.650
 9828SOL     OW30382   3.625   2.019   4.903
 9828SOL    HW130383   3.542   2.061   4.940
 9828SOL    HW230384   3.686   1.995   4.979
 9829SOL     OW30385   4.895   6.056   6.015
 9829SOL    HW130386   4.920   6.149   5.990
 9829SOL    HW230387   4.974   5.995   6.006
 9830SOL     OW30388   5.789   1.186   2.733
 9830SOL    HW130389   5.703   1.178   2.682
 9830SOL    HW230390   5.835   1.271   2.708
 9831SOL     OW30391   0.096   4.351   2.090
 9831SOL    HW130392   0.143   4.333   2.004
 9831SOL    HW230393   0.101   4.270   2.149
 9832SOL     OW30394   5.208   4.764   4.372
 9832SOL    HW130395   5.197   4.691   4.305
 9832SOL    HW230396   5.284   4.742   4.433
 9833SOL     OW30397   3.655   3.923   3.558
 9833SOL    HW130398   3.593   4.000   3.548
 9833SOL    HW230399   3.606   3.845   3.595
 9834SOL     OW30400   2.343   5.324   5.629
 9834SOL    HW130401   2.338   5.374   5.716
 9834SOL    HW230402   2.431   5.342   5.585
 9835SOL     OW30403   3.655   3.938   4.763
 9835SOL    HW130404   3.673   3.874   4.838
 9835SOL    HW230405   3.570   3.912   4.717
 9836SOL     OW30406   1.195   3.774   6.638
 9836SOL    HW130407   1.124   3.706   6.624
 9836SOL    HW230408   1.168   3.860   6.593
 9837SOL     OW30409   5.548   2.037   1.587
 9837SOL    HW130410   5.513   2.107   1.648
 9837SOL    HW230411   5.478   2.013   1.520
 9838SOL     OW30412   1.143   5.869   1.322
 9838SOL    HW130413   1.174   5.775   1.334
 9838SOL    HW230414   1.063   5.885   1.380
 9839SOL     OW30415   4.384   1.223   3.589
 9839SOL    HW130416   4.358   1.167   3.667
 9839SOL    HW230417   4.400   1.164   3.509
 9840SOL     OW30418   5.241   1.712   6.661
 9840SOL    HW130419   5.254   1.802   6.619
 9840SOL    HW230420   5.158   1.713   6.717
 9841SOL     OW30421   0.191   5.502   3.495
 9841SOL    HW130422   0.266   5.484   3.559
 9841SOL    HW230423   0.123   5.429   3.502
 9842SOL     OW30424   3.794   2.814   0.237
 9842SOL    HW130425   3.729   2.761   0.183
 9842SOL    HW230426   3.758   2.828   0.329
 9843SOL     OW30427   6.642   7.020   1.149
 9843SOL    HW130428   6.598   0.084   1.171
 9843SOL    HW230429   6.736   7.022   1.184
 9844SOL     OW30430   5.506   0.625   4.364
 9844SOL    HW130431   5.477   0.673   4.281
 9844SOL    HW230432   5.542   0.535   4.339
 9845SOL     OW30433   0.871   1.894   2.456
 9845SOL    HW130434   0.780   1.918   2.422
 9845SOL    HW230435   0.938   1.955   2.416
 9846SOL     OW30436   5.443   1.447   1.158
 9846SOL    HW130437   5.450   1.510   1.236
 9846SOL    HW230438   5.528   1.394   1.150
 9847SOL     OW30439   3.784   2.811   1.508
 9847SOL    HW130440   3.829   2.773   1.589
 9847SOL    HW230441   3.737   2.737   1.458
 9848SOL     OW30442   3.261   4.018   5.538
 9848SOL    HW130443   3.173   4.044   5.496
 9848SOL    HW230444   3.274   3.920   5.530
 9849SOL     OW30445   1.233   0.684   6.450
 9849SOL    HW130446   1.297   0.738   6.505
 9849SOL    HW230447   1.280   0.651   6.368
 9850SOL     OW30448   6.950   0.646   4.333
 9850SOL    HW130449   7.012   0.644   4.411
 9850SOL    HW230450   7.001   0.667   4.250
 9851SOL     OW30451   3.690   5.207   4.549
 9851SOL    HW130452   3.647   5.244   4.466
 9851SOL    HW230453   3.778   5.167   4.524
 9852SOL     OW30454   1.314   1.447   6.440
 9852SOL    HW130455   1.359   1.369   6.395
 9852SOL    HW230456   1.231   1.415   6.486
 9853SOL     OW30457   0.233   4.066   4.491
 9853SOL    HW130458   0.229   4.148   4.434
 9853SOL    HW230459   0.143   4.022   4.491
 9854SOL     OW30460   0.656   6.144   6.187
 9854SOL    HW130461   0.736   6.087   6.206
 9854SOL    HW230462   0.654   6.166   6.089
 9855SOL     OW30463   0.832   3.302   0.564
 9855SOL    HW130464   0.781   3.384   0.592
 9855SOL    HW230465   0.906   3.329   0.503
 9856SOL     OW30466   6.202   5.204   3.788
 9856SOL    HW130467   6.176   5.145   3.864
 9856SOL    HW230468   6.248   5.286   3.823
 9857SOL     OW30469   5.104   2.696   3.268
 9857SOL    HW130470   5.021   2.719   3.216
 9857SOL    HW230471   5.140   2.778   3.311
 9858SOL     OW30472   0.987   6.615   2.410
 9858SOL    HW130473   1.086   6.606   2.423
 9858SOL    HW230474   0.943   6.527   2.427
 9859SOL     OW30475   6.989   4.992   5.223
 9859SOL    HW130476   6.918   4.991   5.293
 9859SOL    HW230477   6.997   4.902   5.182
 9860SOL     OW30478   2.254   2.323   5.136
 9860SOL    HW130479   2.161   2.287   5.139
 9860SOL    HW230480   2.319   2.250   5.158
 9861SOL     OW30481   2.648   1.461   3.860
 9861SOL    HW130482   2.726   1.508   3.903
 9861SOL    HW230483   2.678   1.422   3.772
 9862SOL     OW30484   2.456   4.735   1.025
 9862SOL    HW130485   2.538   4.701   0.978
 9862SOL    HW230486   2.482   4.775   1.113
 9863SOL     OW30487   3.244   5.689   0.674
 9863SOL    HW130488   3.286   5.730   0.593
 9863SOL    HW230489   3.312   5.636   0.724
 9864SOL     OW30490   2.835   6.422   5.450
 9864SOL    HW130491   2.868   6.352   5.387
 9864SOL    HW230492   2.740   6.404   5.474
 9865SOL     OW30493   0.517   6.992   5.022
 9865SOL    HW130494   0.572   6.961   5.100
 9865SOL    HW230495   0.569   6.977   4.938
 9866SOL     OW30496   6.311   4.487   4.386
 9866SOL    HW130497   6.365   4.441   4.315
 9866SOL    HW230498   6.284   4.577   4.354
 9867SOL     OW30499   5.097   2.027   2.187
 9867SOL    HW130500   5.037   1.953   2.218
 9867SOL    HW230501   5.156   2.056   2.262
 9868SOL     OW30502   1.381   4.552   3.790
 9868SOL    HW130503   1.438   4.471   3.782
 9868SOL    HW230504   1.421   4.626   3.736
 9869SOL     OW30505   0.400   2.609   0.758
 9869SOL    HW130506   0.336   2.568   0.823
 9869SOL    HW230507   0.386   2.569   0.667
 9870SOL     OW30508   3.504   1.323   1.814
 9870SOL    HW130509   3.420   1.295   1.768
 9870SOL    HW230510   3.553   1.389   1.757
 9871SOL     OW30511   0.132   3.346   5.352
 9871SOL    HW130512   0.188   3.385   5.424
 9871SOL    HW230513   0.175   3.263   5.317
 9872SOL     OW30514   2.385   5.590   5.048
 9872SOL    HW130515   2.482   5.569   5.052
 9872SOL    HW230516   2.346   5.555   4.963
 9873SOL     OW30517   1.773   2.034   6.038
 9873SOL    HW130518   1.712   2.000   6.110
 9873SOL    HW230519   1.861   2.057   6.078
 9874SOL     OW30520   1.105   2.710   4.814
 9874SOL    HW130521   1.013   2.696   4.850
 9874SOL    HW230522   1.106   2.789   4.752
 9875SOL     OW30523   6.834   6.442   0.915
 9875SOL    HW130524   6.851   6.467   0.820
 9875SOL    HW230525   6.816   6.525   0.968
 9876SOL     OW30526   3.325   0.170   3.437
 9876SOL    HW130527   3.235   0.178   3.394
 9876SOL    HW230528   3.345   0.253   3.489
 9877SOL     OW30529   0.216   4.595   4.746
 9877SOL    HW130530   0.282   4.556   4.810
 9877SOL    HW230531   0.177   4.678   4.786
 9878SOL     OW30532   1.921   3.167   6.815
 9878SOL    HW130533   1.922   3.263   6.843
 9878SOL    HW230534   1.936   3.109   6.896
 9879SOL     OW30535   1.615   4.360   6.151
 9879SOL    HW130536   1.667   4.332   6.070
 9879SOL    HW230537   1.518   4.340   6.137
 9880SOL     OW30538   2.367   0.803   0.312
 9880SOL    HW130539   2.353   0.707   0.288
 9880SOL    HW230540   2.311   0.861   0.253
 9881SOL     OW30541   5.128   0.720   4.432
 9881SOL    HW130542   5.046   0.750   4.480
 9881SOL    HW230543   5.125   0.622   4.417
 9882SOL     OW30544   3.791   2.939   4.760
 9882SOL    HW130545   3.704   2.893   4.747
 9882SOL    HW230546   3.827   2.967   4.671
 9883SOL     OW30547   1.659   6.227   1.106
 9883SOL    HW130548   1.678   6.160   1.177
 9883SOL    HW230549   1.594   6.190   1.040
 9884SOL     OW30550   1.506   3.005   6.856
 9884SOL    HW130551   1.529   2.933   6.791
 9884SOL    HW230552   1.557   3.088   6.834
 9885SOL     OW30553   6.811   3.297   3.616
 9885SOL    HW130554   6.874   3.261   3.685
 9885SOL    HW230555   6.745   3.359   3.660
 9886SOL     OW30556   5.364   6.290   1.254
 9886SOL    HW130557   5.433   6.360   1.273
 9886SOL    HW230558   5.381   6.210   1.311
 9887SOL     OW30559   3.707   6.737   0.355
 9887SOL    HW130560   3.735   6.641   0.355
 9887SOL    HW230561   3.765   6.788   0.418
 9888SOL     OW30562   5.498   5.991   2.374
 9888SOL    HW130563   5.439   5.911   2.367
 9888SOL    HW230564   5.563   5.992   2.298
 9889SOL     OW30565   0.251   5.099   3.005
 9889SOL    HW130566   0.343   5.081   3.042
 9889SOL    HW230567   0.190   5.125   3.080
 9890SOL     OW30568   6.486   3.346   0.754
 9890SOL    HW130569   6.506   3.259   0.709
 9890SOL    HW230570   6.561   3.410   0.739
 9891SOL     OW30571   4.728   5.127   0.622
 9891SOL    HW130572   4.644   5.107   0.571
 9891SOL    HW230573   4.705   5.174   0.707
 9892SOL     OW30574   2.033   5.612   3.793
 9892SOL    HW130575   2.007   5.534   3.737
 9892SOL    HW230576   2.055   5.582   3.885
 9893SOL     OW30577   5.709   5.238   2.729
 9893SOL    HW130578   5.743   5.174   2.797
 9893SOL    HW230579   5.626   5.283   2.764
 9894SOL     OW30580   3.688   2.013   5.926
 9894SOL    HW130581   3.614   2.016   5.859
 9894SOL    HW230582   3.660   1.960   6.005
 9895SOL     OW30583   5.242   2.420   6.401
 9895SOL    HW130584   5.249   2.393   6.497
 9895SOL    HW230585   5.173   2.364   6.355
 9896SOL     OW30586   3.465   3.393   0.908
 9896SOL    HW130587   3.556   3.410   0.871
 9896SOL    HW230588   3.466   3.307   0.960
 9897SOL     OW30589   4.920   1.750   2.700
 9897SOL    HW130590   5.004   1.700   2.680
 9897SOL    HW230591   4.943   1.839   2.739
 9898SOL     OW30592   0.883   5.116   5.510
 9898SOL    HW130593   0.858   5.155   5.599
 9898SOL    HW230594   0.804   5.069   5.471
 9899SOL     OW30595   5.213   4.849   2.290
 9899SOL    HW130596   5.292   4.910   2.292
 9899SOL    HW230597   5.182   4.831   2.383
 9900SOL     OW30598   1.321   2.032   4.009
 9900SOL    HW130599   1.337   1.934   3.993
 9900SOL    HW230600   1.293   2.046   4.104
 9901SOL     OW30601   2.327   2.127   6.439
 9901SOL    HW130602   2.417   2.104   6.402
 9901SOL    HW230603   2.321   2.098   6.535
 9902SOL     OW30604   3.561   3.659   1.016
 9902SOL    HW130605   3.569   3.752   0.979
 9902SOL    HW230606   3.519   3.599   0.948
 9903SOL     OW30607   4.395   2.169   2.825
 9903SOL    HW130608   4.374   2.105   2.752
 9903SOL    HW230609   4.494   2.181   2.830
 9904SOL     OW30610   6.962   2.710   0.347
 9904SOL    HW130611   6.916   2.622   0.333
 9904SOL    HW230612   0.002   2.726   0.271
 9905SOL     OW30613   1.379   6.110   6.142
 9905SOL    HW130614   1.360   6.115   6.044
 9905SOL    HW230615   1.318   6.174   6.190
 9906SOL     OW30616   2.138   2.934   6.312
 9906SOL    HW130617   2.059   2.995   6.317
 9906SOL    HW230618   2.107   2.839   6.306
 9907SOL     OW30619   2.472   6.226   2.933
 9907SOL    HW130620   2.374   6.210   2.934
 9907SOL    HW230621   2.519   6.149   2.891
 9908SOL     OW30622   0.477   3.427   6.670
 9908SOL    HW130623   0.573   3.438   6.643
 9908SOL    HW230624   0.441   3.515   6.701
 9909SOL     OW30625   3.056   1.813   2.846
 9909SOL    HW130626   3.112   1.731   2.839
 9909SOL    HW230627   3.036   1.848   2.754
 9910SOL     OW30628   6.730   4.567   1.054
 9910SOL    HW130629   6.809   4.588   1.112
 9910SOL    HW230630   6.702   4.472   1.069
 9911SOL     OW30631   4.278   4.870   3.273
 9911SOL    HW130632   4.341   4.832   3.205
 9911SOL    HW230633   4.263   4.803   3.346
 9912SOL     OW30634   4.767   0.814   2.220
 9912SOL    HW130635   4.669   0.822   2.200
 9912SOL    HW230636   4.788   0.720   2.247
 9913SOL     OW30637   5.446   3.020   2.531
 9913SOL    HW130638   5.520   3.083   2.508
 9913SOL    HW230639   5.485   2.937   2.573
 9914SOL     OW30640   1.563   0.235   5.342
 9914SOL    HW130641   1.609   0.296   5.277
 9914SOL    HW230642   1.466   0.258   5.347
 9915SOL     OW30643   4.977   3.458   3.870
 9915SOL    HW130644   4.940   3.546   3.842
 9915SOL    HW230645   5.030   3.419   3.794
 9916SOL     OW30646   2.101   3.233   2.353
 9916SOL    HW130647   2.002   3.215   2.358
 9916SOL    HW230648   2.125   3.260   2.260
 9917SOL     OW30649   3.331   3.775   5.484
 9917SOL    HW130650   3.336   3.683   5.522
 9917SOL    HW230651   3.412   3.792   5.427
 9918SOL     OW30652   2.007   1.376   5.970
 9918SOL    HW130653   2.079   1.330   5.918
 9918SOL    HW230654   2.035   1.385   6.066
 9919SOL     OW30655   1.379   6.151   2.180
 9919SOL    HW130656   1.332   6.239   2.185
 9919SOL    HW230657   1.395   6.128   2.084
 9920SOL     OW30658   3.974   7.007   1.470
 9920SOL    HW130659   4.005   0.070   1.429
 9920SOL    HW230660   3.943   7.023   1.563
 9921SOL     OW30661   5.881   6.958   2.924
 9921SOL    HW130662   5.784   6.972   2.902
 9921SOL    HW230663   5.926   0.024   2.933
 9922SOL     OW30664   4.118   4.711   0.932
 9922SOL    HW130665   4.045   4.668   0.880
 9922SOL    HW230666   4.171   4.640   0.980
 9923SOL     OW30667   6.665   2.123   6.161
 9923SOL    HW130668   6.741   2.150   6.102
 9923SOL    HW230669   6.639   2.028   6.140
 9924SOL     OW30670   6.792   1.323   3.019
 9924SOL    HW130671   6.890   1.333   3.033
 9924SOL    HW230672   6.742   1.385   3.080
 9925SOL     OW30673   2.609   3.441   5.691
 9925SOL    HW130674   2.603   3.408   5.785
 9925SOL    HW230675   2.633   3.538   5.691
 9926SOL     OW30676   1.304   1.333   0.689
 9926SOL    HW130677   1.225   1.379   0.728
 9926SOL    HW230678   1.384   1.347   0.748
 9927SOL     OW30679   0.609   1.986   2.473
 9927SOL    HW130680   0.564   1.935   2.546
 9927SOL    HW230681   0.540   2.038   2.422
 9928SOL     OW30682   0.587   4.588   1.834
 9928SOL    HW130683   0.504   4.567   1.784
 9928SOL    HW230684   0.577   4.677   1.880
 9929SOL     OW30685   3.302   4.379   5.814
 9929SOL    HW130686   3.294   4.305   5.880
 9929SOL    HW230687   3.307   4.467   5.862
 9930SOL     OW30688   0.090   0.416   6.924
 9930SOL    HW130689   0.124   0.372   7.007
 9930SOL    HW230690   0.038   0.351   6.870
 9931SOL     OW30691   1.442   6.401   4.890
 9931SOL    HW130692   1.375   6.444   4.830
 9931SOL    HW230693   1.527   6.455   4.888
 9932SOL     OW30694   1.701   1.837   0.652
 9932SOL    HW130695   1.651   1.775   0.712
 9932SOL    HW230696   1.790   1.858   0.693
 9933SOL     OW30697   2.994   1.042   3.079
 9933SOL    HW130698   2.905   0.997   3.074
 9933SOL    HW230699   3.006   1.081   3.171
 9934SOL     OW30700   5.653   1.688   6.352
 9934SOL    HW130701   5.560   1.712   6.324
 9934SOL    HW230702   5.657   1.593   6.381
 9935SOL     OW30703   2.671   2.322   0.236
 9935SOL    HW130704   2.617   2.306   0.319
 9935SOL    HW230705   2.685   2.235   0.188
 9936SOL     OW30706   5.045   5.417   5.597
 9936SOL    HW130707   4.992   5.380   5.674
 9936SOL    HW230708   5.031   5.515   5.591
 9937SOL     OW30709   0.231   0.320   2.735
 9937SOL    HW130710   0.136   0.308   2.762
 9937SOL    HW230711   0.266   0.406   2.773
 9938SOL     OW30712   6.654   1.057   4.668
 9938SOL    HW130713   6.560   1.029   4.690
 9938SOL    HW230714   6.694   0.992   4.604
 9939SOL     OW30715   2.035   3.911   0.980
 9939SOL    HW130716   1.993   3.964   0.906
 9939SOL    HW230717   2.103   3.968   1.027
 9940SOL     OW30718   0.614   6.836   3.053
 9940SOL    HW130719   0.685   6.822   3.122
 9940SOL    HW230720   0.552   6.907   3.083
 9941SOL     OW30721   3.995   5.158   5.600
 9941SOL    HW130722   4.012   5.184   5.695
 9941SOL    HW230723   4.074   5.182   5.544
 9942SOL     OW30724   4.689   4.667   3.535
 9942SOL    HW130725   4.642   4.716   3.608
 9942SOL    HW230726   4.621   4.625   3.474
 9943SOL     OW30727   1.902   3.732   0.317
 9943SOL    HW130728   1.902   3.820   0.365
 9943SOL    HW230729   1.855   3.743   0.229
 9944SOL     OW30730   1.719   5.013   0.269
 9944SOL    HW130731   1.803   5.048   0.227
 9944SOL    HW230732   1.679   4.943   0.209
 9945SOL     OW30733   5.940   4.096   0.271
 9945SOL    HW130734   6.005   4.097   0.347
 9945SOL    HW230735   5.862   4.038   0.294
 9946SOL     OW30736   5.704   0.829   2.852
 9946SOL    HW130737   5.756   0.754   2.893
 9946SOL    HW230738   5.730   0.916   2.895
 9947SOL     OW30739   1.065   2.437   4.194
 9947SOL    HW130740   1.109   2.350   4.172
 9947SOL    HW230741   1.099   2.508   4.132
 9948SOL     OW30742   6.458   0.158   3.746
 9948SOL    HW130743   6.488   0.138   3.839
 9948SOL    HW230744   6.477   0.080   3.687
 9949SOL     OW30745   6.582   4.292   4.739
 9949SOL    HW130746   6.576   4.202   4.696
 9949SOL    HW230747   6.575   4.362   4.668
 9950SOL     OW30748   6.198   5.096   6.093
 9950SOL    HW130749   6.200   5.062   5.999
 9950SOL    HW230750   6.274   5.056   6.144
 9951SOL     OW30751   0.848   3.143   2.994
 9951SOL    HW130752   0.821   3.047   3.007
 9951SOL    HW230753   0.948   3.151   3.000
 9952SOL     OW30754   0.916   4.201   1.861
 9952SOL    HW130755   0.895   4.288   1.818
 9952SOL    HW230756   0.846   4.180   1.930
 9953SOL     OW30757   6.200   2.698   3.615
 9953SOL    HW130758   6.279   2.642   3.640
 9953SOL    HW230759   6.146   2.651   3.546
 9954SOL     OW30760   2.752   1.354   5.959
 9954SOL    HW130761   2.732   1.409   6.040
 9954SOL    HW230762   2.819   1.401   5.901
 9955SOL     OW30763   4.445   3.342   1.044
 9955SOL    HW130764   4.471   3.245   1.053
 9955SOL    HW230765   4.394   3.354   0.959
 9956SOL     OW30766   1.129   4.647   3.137
 9956SOL    HW130767   1.190   4.726   3.126
 9956SOL    HW230768   1.112   4.605   3.048
 9957SOL     OW30769   5.365   6.572   1.728
 9957SOL    HW130770   5.376   6.548   1.632
 9957SOL    HW230771   5.425   6.648   1.751
 9958SOL     OW30772   4.191   4.766   5.697
 9958SOL    HW130773   4.144   4.682   5.724
 9958SOL    HW230774   4.233   4.809   5.777
 9959SOL     OW30775   4.433   4.191   1.155
 9959SOL    HW130776   4.508   4.178   1.220
 9959SOL    HW230777   4.346   4.168   1.200
 9960SOL     OW30778   6.515   6.677   0.936
 9960SOL    HW130779   6.511   6.623   0.851
 9960SOL    HW230780   6.427   6.670   0.983
 9961SOL     OW30781   1.992   4.122   1.894
 9961SOL    HW130782   2.077   4.070   1.896
 9961SOL    HW230783   1.960   4.131   1.800
 9962SOL     OW30784   3.218   5.668   2.553
 9962SOL    HW130785   3.199   5.580   2.598
 9962SOL    HW230786   3.176   5.669   2.462
 9963SOL     OW30787   2.080   1.400   0.362
 9963SOL    HW130788   2.030   1.440   0.438
 9963SOL    HW230789   2.142   1.329   0.396
 9964SOL     OW30790   4.506   4.651   5.353
 9964SOL    HW130791   4.460   4.683   5.435
 9964SOL    HW230792   4.603   4.634   5.374
 9965SOL     OW30793   2.959   6.337   5.178
 9965SOL    HW130794   2.888   6.266   5.180
 9965SOL    HW230795   3.000   6.341   5.087
 9966SOL     OW30796   2.776   4.764   2.112
 9966SOL    HW130797   2.863   4.796   2.148
 9966SOL    HW230798   2.793   4.690   2.046
 9967SOL     OW30799   6.331   6.846   2.703
 9967SOL    HW130800   6.411   6.787   2.697
 9967SOL    HW230801   6.264   6.818   2.633
 9968SOL     OW30802   4.256   6.139   0.045
 9968SOL    HW130803   4.321   6.095   7.007
 9968SOL    HW230804   4.163   6.112   0.021
 9969SOL     OW30805   0.781   4.395   4.611
 9969SOL    HW130806   0.879   4.378   4.600
 9969SOL    HW230807   0.741   4.323   4.667
 9970SOL     OW30808   5.493   5.341   2.007
 9970SOL    HW130809   5.545   5.347   2.093
 9970SOL    HW230810   5.556   5.351   1.930
 9971SOL     OW30811   1.374   3.103   1.875
 9971SOL    HW130812   1.354   3.061   1.964
 9971SOL    HW230813   1.473   3.100   1.858
 9972SOL     OW30814   3.552   3.905   0.891
 9972SOL    HW130815   3.636   3.959   0.880
 9972SOL    HW230816   3.492   3.921   0.813
 9973SOL     OW30817   4.037   1.675   4.398
 9973SOL    HW130818   3.980   1.646   4.321
 9973SOL    HW230819   4.075   1.765   4.380
 9974SOL     OW30820   6.641   2.457   3.761
 9974SOL    HW130821   6.678   2.412   3.842
 9974SOL    HW230822   6.716   2.493   3.705
 9975SOL     OW30823   1.028   5.369   6.652
 9975SOL    HW130824   0.990   5.289   6.607
 9975SOL    HW230825   1.128   5.368   6.644
 9976SOL     OW30826   1.778   5.051   5.674
 9976SOL    HW130827   1.863   5.102   5.687
 9976SOL    HW230828   1.792   4.955   5.700
 9977SOL     OW30829   5.232   5.070   4.781
 9977SOL    HW130830   5.227   5.143   4.713
 9977SOL    HW230831   5.243   5.110   4.872
 9978SOL     OW30832   0.309   1.860   6.222
 9978SOL    HW130833   0.408   1.845   6.222
 9978SOL    HW230834   0.290   1.958   6.230
 9979SOL     OW30835   4.940   3.481   5.810
 9979SOL    HW130836   4.919   3.549   5.740
 9979SOL    HW230837   4.941   3.526   5.900
 9980SOL     OW30838   1.309   0.875   0.213
 9980SOL    HW130839   1.225   0.822   0.200
 9980SOL    HW230840   1.353   0.890   0.125
 9981SOL     OW30841   1.268   2.511   0.956
 9981SOL    HW130842   1.275   2.530   1.053
 9981SOL    HW230843   1.251   2.596   0.906
 9982SOL     OW30844   2.622   1.106   4.939
 9982SOL    HW130845   2.603   1.012   4.910
 9982SOL    HW230846   2.541   1.163   4.922
 9983SOL     OW30847   6.083   3.031   2.493
 9983SOL    HW130848   6.170   3.064   2.529
 9983SOL    HW230849   6.099   2.980   2.408
 9984SOL     OW30850   0.379   6.185   1.244
 9984SOL    HW130851   0.394   6.143   1.154
 9984SOL    HW230852   0.353   6.281   1.232
 9985SOL     OW30853   3.133   5.226   0.437
 9985SOL    HW130854   3.197   5.154   0.463
 9985SOL    HW230855   3.143   5.304   0.499
 9986SOL     OW30856   4.819   4.621   0.956
 9986SOL    HW130857   4.761   4.703   0.954
 9986SOL    HW230858   4.887   4.627   0.883
 9987SOL     OW30859   5.729   3.509   1.621
 9987SOL    HW130860   5.678   3.489   1.704
 9987SOL    HW230861   5.673   3.566   1.560
 9988SOL     OW30862   6.357   5.880   4.033
 9988SOL    HW130863   6.342   5.785   4.058
 9988SOL    HW230864   6.301   5.902   3.953
 9989SOL     OW30865   6.400   3.763   1.394
 9989SOL    HW130866   6.465   3.802   1.329
 9989SOL    HW230867   6.405   3.814   1.480
 9990SOL     OW30868   0.144   6.230   3.289
 9990SOL    HW130869   0.159   6.210   3.386
 9990SOL    HW230870   0.207   6.174   3.234
 9991SOL     OW30871   1.457   4.027   3.442
 9991SOL    HW130872   1.485   4.099   3.505
 9991SOL    HW230873   1.437   3.943   3.494
 9992SOL     OW30874   3.416   3.982   1.123
 9992SOL    HW130875   3.464   3.941   1.046
 9992SOL    HW230876   3.343   4.041   1.090
 9993SOL     OW30877   3.473   5.817   3.859
 9993SOL    HW130878   3.398   5.763   3.821
 9993SOL    HW230879   3.438   5.878   3.930
 9994SOL     OW30880   0.289   3.933   3.790
 9994SOL    HW130881   0.312   3.947   3.887
 9994SOL    HW230882   0.317   4.013   3.737
 9995SOL     OW30883   3.178   0.877   4.144
 9995SOL    HW130884   3.220   0.946   4.202
 9995SOL    HW230885   3.162   0.915   4.053
 9996SOL     OW30886   2.848   4.182   0.503
 9996SOL    HW130887   2.764   4.171   0.557
 9996SOL    HW230888   2.849   4.115   0.428
 9997SOL     OW30889   5.375   1.816   3.752
 9997SOL    HW130890   5.334   1.878   3.819
 9997SOL    HW230891   5.308   1.746   3.727
 9998SOL     OW30892   4.832   4.096   2.543
 9998SOL    HW130893   4.915   4.151   2.544
 9998SOL    HW230894   4.833   4.035   2.464
 9999SOL     OW30895   0.903   0.228   4.073
 9999SOL    HW130896   0.916   0.323   4.047
 9999SOL    HW230897   0.810   0.200   4.049
10000SOL     OW30898   5.383   1.426   1.837
10000SOL    HW130899   5.442   1.449   1.914
10000SOL    HW230900   5.290   1.458   1.855
10001SOL     OW30901   3.328   6.670   2.574
10001SOL    HW130902   3.378   6.651   2.490
10001SOL    HW230903   3.275   6.590   2.601
10002SOL     OW30904   2.177   1.196   0.767
10002SOL    HW130905   2.155   1.141   0.687
10002SOL    HW230906   2.264   1.244   0.752
10003SOL     OW30907   3.010   1.706   2.304
10003SOL    HW130908   2.937   1.772   2.285
10003SOL    HW230909   3.094   1.736   2.260
10004SOL     OW30910   5.424   4.736   4.579
10004SOL    HW130911   5.438   4.732   4.678
10004SOL    HW230912   5.501   4.692   4.533
10005SOL     OW30913   2.838   5.622   3.446
10005SOL    HW130914   2.773   5.643   3.373
10005SOL    HW230915   2.801   5.653   3.533
10006SOL     OW30916   5.647   0.185   5.479
10006SOL    HW130917   5.647   0.199   5.578
10006SOL    HW230918   5.658   0.088   5.459
10007SOL     OW30919   0.656   3.675   5.065
10007SOL    HW130920   0.594   3.638   4.996
10007SOL    HW230921   0.719   3.603   5.095
10008SOL     OW30922   4.169   1.937   4.222
10008SOL    HW130923   4.087   1.929   4.165
10008SOL    HW230924   4.142   1.936   4.318
10009SOL     OW30925   1.937   3.721   1.652
10009SOL    HW130926   1.988   3.780   1.590
10009SOL    HW230927   1.990   3.706   1.735
10010SOL     OW30928   3.206   5.085   6.503
10010SOL    HW130929   3.207   5.004   6.444
10010SOL    HW230930   3.222   5.057   6.598
10011SOL     OW30931   0.115   4.342   7.009
10011SOL    HW130932   0.214   4.352   6.999
10011SOL    HW230933   0.073   4.433   7.011
10012SOL     OW30934   4.936   0.634   1.960
10012SOL    HW130935   4.911   0.587   2.044
10012SOL    HW230936   4.894   0.588   1.882
10013SOL     OW30937   1.281   4.757   5.172
10013SOL    HW130938   1.295   4.677   5.229
10013SOL    HW230939   1.364   4.814   5.172
10014SOL     OW30940   1.263   6.744   2.315
10014SOL    HW130941   1.294   6.707   2.403
10014SOL    HW230942   1.276   6.675   2.244
10015SOL     OW30943   3.730   5.077   6.985
10015SOL    HW130944   3.812   5.034   7.022
10015SOL    HW230945   3.659   5.008   6.972
10016SOL     OW30946   2.401   1.639   4.730
10016SOL    HW130947   2.500   1.638   4.741
10016SOL    HW230948   2.378   1.639   4.633
10017SOL     OW30949   2.257   1.698   2.411
10017SOL    HW130950   2.251   1.599   2.424
10017SOL    HW230951   2.211   1.723   2.326
10018SOL     OW30952   6.901   3.736   5.661
10018SOL    HW130953   6.964   3.781   5.724
10018SOL    HW230954   6.811   3.728   5.704
10019SOL     OW30955   0.499   1.232   3.091
10019SOL    HW130956   0.488   1.188   3.181
10019SOL    HW230957   0.409   1.256   3.056
10020SOL     OW30958   0.238   0.864   1.881
10020SOL    HW130959   0.321   0.853   1.935
10020SOL    HW230960   0.170   0.796   1.909
10021SOL     OW30961   1.065   2.835   2.011
10021SOL    HW130962   1.009   2.917   2.003
10021SOL    HW230963   1.090   2.802   1.920
10022SOL     OW30964   1.944   5.698   6.944
10022SOL    HW130965   1.887   5.763   6.894
10022SOL    HW230966   1.985   5.744   7.023
10023SOL     OW30967   2.672   6.199   5.737
10023SOL    HW130968   2.759   6.181   5.782
10023SOL    HW230969   2.657   6.131   5.665
10024SOL     OW30970   1.347   5.103   2.955
10024SOL    HW130971   1.425   5.165   2.963
10024SOL    HW230972   1.282   5.139   2.887
10025SOL     OW30973   1.901   3.135   2.076
10025SOL    HW130974   1.864   3.148   2.168
10025SOL    HW230975   1.913   3.224   2.032
10026SOL     OW30976   5.155   1.039   3.194
10026SOL    HW130977   5.095   1.102   3.144
10026SOL    HW230978   5.250   1.058   3.169
10027SOL     OW30979   0.996   2.680   5.124
10027SOL    HW130980   1.087   2.643   5.103
10027SOL    HW230981   0.937   2.607   5.158
10028SOL     OW30982   3.125   1.055   0.987
10028SOL    HW130983   3.099   1.142   1.029
10028SOL    HW230984   3.043   0.999   0.973
10029SOL     OW30985   0.450   3.458   4.208
10029SOL    HW130986   0.366   3.476   4.158
10029SOL    HW230987   0.504   3.389   4.160
10030SOL     OW30988   3.181   6.677   5.249
10030SOL    HW130989   3.104   6.709   5.306
10030SOL    HW230990   3.178   6.723   5.161
10031SOL     OW30991   4.465   4.922   4.641
10031SOL    HW130992   4.550   4.912   4.693
10031SOL    HW230993   4.396   4.859   4.677
10032SOL     OW30994   3.544   0.461   6.522
10032SOL    HW130995   3.594   0.379   6.550
10032SOL    HW230996   3.454   0.463   6.566
10033SOL     OW30997   4.070   1.546   4.674
10033SOL    HW130998   4.028   1.581   4.590
10033SOL    HW230999   4.125   1.618   4.716
10034SOL     OW31000   2.751   0.951   3.967
10034SOL    HW131001   2.680   0.898   4.014
10034SOL    HW231002   2.722   0.972   3.874
10035SOL     OW31003   5.607   3.864   1.176
10035SOL    HW131004   5.581   3.923   1.100
10035SOL    HW231005   5.703   3.878   1.199
10036SOL     OW31006   6.444   1.046   0.630
10036SOL    HW131007   6.368   1.053   0.695
10036SOL    HW231008   6.470   1.137   0.598
10037SOL     OW31009   6.708   0.098   6.716
10037SOL    HW131010   6.613   0.067   6.708
10037SOL    HW231011   6.750   0.102   6.625
10038SOL     OW31012   4.197   6.858   6.182
10038SOL    HW131013   4.282   6.820   6.219
10038SOL    HW231014   4.134   6.784   6.159
10039SOL     OW31015   5.147   6.299   5.136
10039SOL    HW131016   5.162   6.346   5.223
10039SOL    HW231017   5.060   6.328   5.096
10040SOL     OW31018   4.734   6.208   6.678
10040SOL    HW131019   4.658   6.250   6.727
10040SOL    HW231020   4.699   6.139   6.614
10041SOL     OW31021   5.895   5.326   5.552
10041SOL    HW131022   5.869   5.416   5.517
10041SOL    HW231023   5.824   5.293   5.615
10042SOL     OW31024   0.667   0.719   5.074
10042SOL    HW131025   0.647   0.631   5.031
10042SOL    HW231026   0.718   0.704   5.158
10043SOL     OW31027   0.526   0.051   3.269
10043SOL    HW131028   0.477   0.045   3.356
10043SOL    HW231029   0.625   0.045   3.286
10044SOL     OW31030   2.868   1.818   3.963
10044SOL    HW131031   2.923   1.896   3.992
10044SOL    HW231032   2.915   1.733   3.988
10045SOL     OW31033   5.135   0.328   4.112
10045SOL    HW131034   5.175   0.373   4.032
10045SOL    HW231035   5.197   0.257   4.145
10046SOL     OW31036   0.817   1.720   1.755
10046SOL    HW131037   0.730   1.734   1.803
10046SOL    HW231038   0.890   1.768   1.803
10047SOL     OW31039   6.179   3.172   5.053
10047SOL    HW131040   6.208   3.249   5.109
10047SOL    HW231041   6.210   3.186   4.959
10048SOL     OW31042   3.643   1.660   2.109
10048SOL    HW131043   3.560   1.675   2.056
10048SOL    HW231044   3.622   1.606   2.190
10049SOL     OW31045   0.689   0.802   6.378
10049SOL    HW131046   0.761   0.757   6.325
10049SOL    HW231047   0.721   0.891   6.409
10050SOL     OW31048   6.290   2.598   4.863
10050SOL    HW131049   6.269   2.528   4.795
10050SOL    HW231050   6.258   2.568   4.953
10051SOL     OW31051   6.543   2.611   4.747
10051SOL    HW131052   6.455   2.597   4.792
10051SOL    HW231053   6.589   2.523   4.735
10052SOL     OW31054   1.855   2.391   2.400
10052SOL    HW131055   1.868   2.361   2.494
10052SOL    HW231056   1.782   2.338   2.357
10053SOL     OW31057   3.839   5.277   1.672
10053SOL    HW131058   3.774   5.288   1.747
10053SOL    HW231059   3.820   5.191   1.624
10054SOL     OW31060   4.067   6.583   6.133
10054SOL    HW131061   3.984   6.535   6.159
10054SOL    HW231062   4.147   6.531   6.163
10055SOL     OW31063   6.309   2.257   5.369
10055SOL    HW131064   6.331   2.351   5.393
10055SOL    HW231065   6.227   2.256   5.311
10056SOL     OW31066   6.357   5.331   0.730
10056SOL    HW131067   6.412   5.349   0.812
10056SOL    HW231068   6.417   5.309   0.654
10057SOL     OW31069   3.504   0.809   4.218
10057SOL    HW131070   3.517   0.899   4.177
10057SOL    HW231071   3.456   0.819   4.305
10058SOL     OW31072   0.223   3.813   4.288
10058SOL    HW131073   0.158   3.865   4.233
10058SOL    HW231074   0.309   3.864   4.295
10059SOL     OW31075   4.914   6.759   0.472
10059SOL    HW131076   4.849   6.759   0.396
10059SOL    HW231077   4.941   6.852   0.495
10060SOL     OW31078   2.644   1.315   1.993
10060SOL    HW131079   2.594   1.401   1.977
10060SOL    HW231080   2.709   1.300   1.919
10061SOL     OW31081   4.661   1.284   3.991
10061SOL    HW131082   4.651   1.305   4.089
10061SOL    HW231083   4.732   1.215   3.979
10062SOL     OW31084   6.386   6.779   4.908
10062SOL    HW131085   6.299   6.730   4.917
10062SOL    HW231086   6.398   6.809   4.813
10063SOL     OW31087   1.844   1.689   2.968
10063SOL    HW131088   1.934   1.714   2.930
10063SOL    HW231089   1.855   1.612   3.030
10064SOL     OW31090   5.602   5.623   6.169
10064SOL    HW131091   5.597   5.691   6.242
10064SOL    HW231092   5.679   5.644   6.109
10065SOL     OW31093   2.468   0.622   1.897
10065SOL    HW131094   2.487   0.685   1.822
10065SOL    HW231095   2.422   0.671   1.972
10066SOL     OW31096   1.837   1.406   4.333
10066SOL    HW131097   1.889   1.387   4.416
10066SOL    HW231098   1.883   1.366   4.254
10067SOL     OW31099   5.630   3.849   5.882
10067SOL    HW131100   5.673   3.896   5.958
10067SOL    HW231101   5.567   3.779   5.917
10068SOL     OW31102   5.428   2.957   3.915
10068SOL    HW131103   5.372   2.951   3.998
10068SOL    HW231104   5.519   2.920   3.935
10069SOL     OW31105   1.752   5.478   3.875
10069SOL    HW131106   1.657   5.449   3.885
10069SOL    HW231107   1.757   5.555   3.811
10070SOL     OW31108   0.012   0.401   4.552
10070SOL    HW131109   0.046   0.495   4.556
10070SOL    HW231110   6.936   0.402   4.542
10071SOL     OW31111   5.025   5.246   4.090
10071SOL    HW131112   4.947   5.307   4.076
10071SOL    HW231113   5.105   5.284   4.045
10072SOL     OW31114   1.011   5.923   4.373
10072SOL    HW131115   1.083   5.954   4.435
10072SOL    HW231116   0.956   5.853   4.418
10073SOL     OW31117   6.461   3.972   4.285
10073SOL    HW131118   6.463   3.915   4.367
10073SOL    HW231119   6.554   3.993   4.256
10074SOL     OW31120   0.796   0.768   5.331
10074SOL    HW131121   0.886   0.810   5.321
10074SOL    HW231122   0.725   0.834   5.304
10075SOL     OW31123   1.608   2.261   2.380
10075SOL    HW131124   1.566   2.180   2.422
10075SOL    HW231125   1.609   2.336   2.446
10076SOL     OW31126   5.551   0.432   3.272
10076SOL    HW131127   5.590   0.519   3.244
10076SOL    HW231128   5.453   0.430   3.250
10077SOL     OW31129   3.552   2.162   6.854
10077SOL    HW131130   3.502   2.119   6.930
10077SOL    HW231131   3.583   2.253   6.882
10078SOL     OW31132   6.849   6.349   4.331
10078SOL    HW131133   6.942   6.344   4.368
10078SOL    HW231134   6.786   6.306   4.396
10079SOL     OW31135   1.009   3.454   2.093
10079SOL    HW131136   0.957   3.396   2.156
10079SOL    HW231137   1.036   3.538   2.140
10080SOL     OW31138   3.145   1.464   6.002
10080SOL    HW131139   3.069   1.466   5.937
10080SOL    HW231140   3.219   1.522   5.969
10081SOL     OW31141   6.933   0.641   6.955
10081SOL    HW131142   6.994   0.568   6.925
10081SOL    HW231143   6.980   0.699   7.021
10082SOL     OW31144   0.113   3.850   2.152
10082SOL    HW131145   0.080   3.807   2.068
10082SOL    HW231146   0.072   3.805   2.231
10083SOL     OW31147   5.392   0.739   2.935
10083SOL    HW131148   5.295   0.718   2.922
10083SOL    HW231149   5.446   0.656   2.919
10084SOL     OW31150   3.661   0.842   5.926
10084SOL    HW131151   3.721   0.782   5.873
10084SOL    HW231152   3.566   0.818   5.907
10085SOL     OW31153   0.435   5.780   2.150
10085SOL    HW131154   0.341   5.757   2.125
10085SOL    HW231155   0.441   5.877   2.174
10086SOL     OW31156   6.255   4.965   1.919
10086SOL    HW131157   6.304   5.027   1.981
10086SOL    HW231158   6.184   5.016   1.871
10087SOL     OW31159   0.489   6.912   4.159
10087SOL    HW131160   0.581   6.904   4.198
10087SOL    HW231161   0.421   6.891   4.229
10088SOL     OW31162   6.990   6.931   6.917
10088SOL    HW131163   0.026   6.943   6.997
10088SOL    HW231164   6.903   6.892   6.946
10089SOL     OW31165   2.395   2.765   3.178
10089SOL    HW131166   2.400   2.769   3.079
10089SOL    HW231167   2.400   2.671   3.209
10090SOL     OW31168   1.403   4.539   0.854
10090SOL    HW131169   1.415   4.558   0.951
10090SOL    HW231170   1.381   4.623   0.806
10091SOL     OW31171   1.430   3.238   4.927
10091SOL    HW131172   1.339   3.196   4.931
10091SOL    HW231173   1.455   3.253   4.831
10092SOL     OW31174   2.048   3.382   5.491
10092SOL    HW131175   2.092   3.439   5.422
10092SOL    HW231176   2.027   3.292   5.452
10093SOL     OW31177   0.925   4.350   5.062
10093SOL    HW131178   0.913   4.330   5.159
10093SOL    HW231179   0.986   4.429   5.051
10094SOL     OW31180   2.464   6.227   1.657
10094SOL    HW131181   2.471   6.128   1.645
10094SOL    HW231182   2.434   6.270   1.572
10095SOL     OW31183   6.272   2.187   5.760
10095SOL    HW131184   6.208   2.121   5.799
10095SOL    HW231185   6.318   2.236   5.834
10096SOL     OW31186   5.782   5.037   2.146
10096SOL    HW131187   5.845   4.981   2.200
10096SOL    HW231188   5.709   5.071   2.205
10097SOL     OW31189   1.049   1.154   6.879
10097SOL    HW131190   1.025   1.185   6.971
10097SOL    HW231191   1.074   1.233   6.823
10098SOL     OW31192   2.332   0.613   5.276
10098SOL    HW131193   2.292   0.705   5.278
10098SOL    HW231194   2.329   0.573   5.368
10099SOL     OW31195   0.004   5.050   6.877
10099SOL    HW131196   0.049   5.049   6.788
10099SOL    HW231197   0.064   5.010   6.945
10100SOL     OW31198   5.381   0.194   4.207
10100SOL    HW131199   5.465   0.150   4.174
10100SOL    HW231200   5.399   0.238   4.295
10101SOL     OW31201   5.485   4.180   1.734
10101SOL    HW131202   5.486   4.119   1.655
10101SOL    HW231203   5.579   4.211   1.754
10102SOL     OW31204   1.595   0.956   2.905
10102SOL    HW131205   1.627   0.899   2.981
10102SOL    HW231206   1.524   1.019   2.938
10103SOL     OW31207   2.572   1.389   5.457
10103SOL    HW131208   2.570   1.468   5.397
10103SOL    HW231209   2.480   1.350   5.464
10104SOL     OW31210   1.614   2.795   4.421
10104SOL    HW131211   1.693   2.741   4.390
10104SOL    HW231212   1.540   2.733   4.446
10105SOL     OW31213   1.063   1.100   0.235
10105SOL    HW131214   1.058   1.104   0.335
10105SOL    HW231215   1.133   1.163   0.203
10106SOL     OW31216   4.520   5.390   1.042
10106SOL    HW131217   4.553   5.339   1.122
10106SOL    HW231218   4.501   5.484   1.069
10107SOL     OW31219   0.114   1.533   0.379
10107SOL    HW131220   0.080   1.615   0.334
10107SOL    HW231221   0.209   1.516   0.350
10108SOL     OW31222   6.202   5.792   6.792
10108SOL    HW131223   6.163   5.861   6.731
10108SOL    HW231224   6.148   5.786   6.875
10109SOL     OW31225   3.557   6.565   1.828
10109SOL    HW131226   3.582   6.481   1.876
10109SOL    HW231227   3.502   6.623   1.888
10110SOL     OW31228   4.605   6.625   4.606
10110SOL    HW131229   4.626   6.717   4.640
10110SOL    HW231230   4.515   6.597   4.641
10111SOL     OW31231   6.125   2.683   4.108
10111SOL    HW131232   6.212   2.684   4.157
10111SOL    HW231233   6.121   2.760   4.044
10112SOL     OW31234   5.604   4.038   4.352
10112SOL    HW131235   5.599   3.938   4.358
10112SOL    HW231236   5.625   4.076   4.442
10113SOL     OW31237   4.436   0.714   5.754
10113SOL    HW131238   4.344   0.676   5.739
10113SOL    HW231239   4.476   0.673   5.836
10114SOL     OW31240   5.217   0.748   1.015
10114SOL    HW131241   5.231   0.666   1.072
10114SOL    HW231242   5.229   0.724   0.919
10115SOL     OW31243   3.174   2.092   3.607
10115SOL    HW131244   3.242   2.125   3.541
10115SOL    HW231245   3.082   2.116   3.575
10116SOL     OW31246   0.603   6.544   0.108
10116SOL    HW131247   0.674   6.589   0.053
10116SOL    HW231248   0.637   6.455   0.139
10117SOL     OW31249   6.892   0.111   5.195
10117SOL    HW131250   6.864   0.120   5.100
10117SOL    HW231251   6.817   0.138   5.255
10118SOL     OW31252   0.999   5.310   2.991
10118SOL    HW131253   1.091   5.345   2.975
10118SOL    HW231254   0.947   5.376   3.044
10119SOL     OW31255   0.650   6.569   4.745
10119SOL    HW131256   0.606   6.507   4.680
10119SOL    HW231257   0.631   6.538   4.838
10120SOL     OW31258   1.142   3.700   4.140
10120SOL    HW131259   1.219   3.705   4.203
10120SOL    HW231260   1.056   3.710   4.191
10121SOL     OW31261   6.283   4.796   5.846
10121SOL    HW131262   6.366   4.765   5.891
10121SOL    HW231263   6.203   4.771   5.902
10122SOL     OW31264   5.686   3.224   0.674
10122SOL    HW131265   5.698   3.155   0.744
10122SOL    HW231266   5.768   3.282   0.669
10123SOL     OW31267   6.636   6.630   0.315
10123SOL    HW131268   6.714   6.573   0.287
10123SOL    HW231269   6.658   6.726   0.297
10124SOL     OW31270   1.647   3.246   6.799
10124SOL    HW131271   1.632   3.314   6.727
10124SOL    HW231272   1.740   3.211   6.793
10125SOL     OW31273   1.414   0.654   2.633
10125SOL    HW131274   1.346   0.707   2.684
10125SOL    HW231275   1.489   0.627   2.694
10126SOL     OW31276   0.264   0.153   6.809
10126SOL    HW131277   0.222   0.196   6.729
10126SOL    HW231278   0.333   0.087   6.779
10127SOL     OW31279   2.660   4.990   5.487
10127SOL    HW131280   2.574   4.951   5.521
10127SOL    HW231281   2.680   4.953   5.397
10128SOL     OW31282   0.886   1.642   1.495
10128SOL    HW131283   0.902   1.660   1.592
10128SOL    HW231284   0.831   1.717   1.456
10129SOL     OW31285   5.131   2.756   4.121
10129SOL    HW131286   5.073   2.705   4.057
10129SOL    HW231287   5.175   2.691   4.183
10130SOL     OW31288   2.058   4.204   2.406
10130SOL    HW131289   2.151   4.172   2.386
10130SOL    HW231290   2.060   4.301   2.427
10131SOL     OW31291   0.334   0.681   3.185
10131SOL    HW131292   0.300   0.657   3.094
10131SOL    HW231293   0.401   0.754   3.177
10132SOL     OW31294   2.946   6.940   3.954
10132SOL    HW131295   2.913   6.958   3.861
10132SOL    HW231296   2.902   6.857   3.989
10133SOL     OW31297   5.057   6.164   1.449
10133SOL    HW131298   5.125   6.212   1.505
10133SOL    HW231299   4.971   6.160   1.498
10134SOL     OW31300   6.506   6.791   3.960
10134SOL    HW131301   6.536   6.716   3.902
10134SOL    HW231302   6.568   6.869   3.949
10135SOL     OW31303   5.406   3.063   3.181
10135SOL    HW131304   5.369   3.025   3.266
10135SOL    HW231305   5.342   3.045   3.106
10136SOL     OW31306   5.671   0.602   3.070
10136SOL    HW131307   5.754   0.551   3.046
10136SOL    HW231308   5.695   0.697   3.091
10137SOL     OW31309   6.161   4.278   4.148
10137SOL    HW131310   6.197   4.365   4.116
10137SOL    HW231311   6.075   4.258   4.100
10138SOL     OW31312   5.133   1.907   0.684
10138SOL    HW131313   5.147   1.865   0.594
10138SOL    HW231314   5.035   1.903   0.707
10139SOL     OW31315   3.716   3.834   3.319
10139SOL    HW131316   3.650   3.770   3.279
10139SOL    HW231317   3.684   3.864   3.408
10140SOL     OW31318   6.353   6.348   6.160
10140SOL    HW131319   6.290   6.342   6.237
10140SOL    HW231320   6.308   6.315   6.077
10141SOL     OW31321   3.270   1.485   4.232
10141SOL    HW131322   3.222   1.398   4.245
10141SOL    HW231323   3.208   1.561   4.253
10142SOL     OW31324   6.588   6.514   4.856
10142SOL    HW131325   6.609   6.601   4.900
10142SOL    HW231326   6.588   6.527   4.756
10143SOL     OW31327   4.517   0.881   0.370
10143SOL    HW131328   4.577   0.815   0.415
10143SOL    HW231329   4.484   0.843   0.284
10144SOL     OW31330   4.023   0.061   6.126
10144SOL    HW131331   4.068   0.011   6.199
10144SOL    HW231332   4.011   0.001   6.047
10145SOL     OW31333   3.161   5.640   5.565
10145SOL    HW131334   3.186   5.559   5.511
10145SOL    HW231335   3.198   5.721   5.521
10146SOL     OW31336   3.870   5.003   4.422
10146SOL    HW131337   3.927   4.970   4.497
10146SOL    HW231338   3.921   4.997   4.336
10147SOL     OW31339   5.415   4.407   4.772
10147SOL    HW131340   5.402   4.494   4.818
10147SOL    HW231341   5.511   4.396   4.747
10148SOL     OW31342   5.310   5.225   6.725
10148SOL    HW131343   5.284   5.131   6.705
10148SOL    HW231344   5.309   5.279   6.641
10149SOL     OW31345   5.853   1.866   1.283
10149SOL    HW131346   5.840   1.872   1.382
10149SOL    HW231347   5.929   1.926   1.256
10150SOL     OW31348   4.077   3.487   0.695
10150SOL    HW131349   4.013   3.420   0.658
10150SOL    HW231350   4.141   3.441   0.757
10151SOL     OW31351   1.213   6.786   0.134
10151SOL    HW131352   1.240   6.744   0.048
10151SOL    HW231353   1.194   6.883   0.120
10152SOL     OW31354   0.576   6.489   5.037
10152SOL    HW131355   0.637   6.411   5.047
10152SOL    HW231356   0.483   6.457   5.021
10153SOL     OW31357   4.964   6.189   3.812
10153SOL    HW131358   5.002   6.205   3.903
10153SOL    HW231359   4.892   6.256   3.793
10154SOL     OW31360   5.731   0.108   5.213
10154SOL    HW131361   5.715   0.166   5.293
10154SOL    HW231362   5.676   0.025   5.220
10155SOL     OW31363   3.443   2.006   5.770
10155SOL    HW131364   3.391   2.056   5.839
10155SOL    HW231365   3.407   2.027   5.679
10156SOL     OW31366   6.137   1.290   2.145
10156SOL    HW131367   6.208   1.238   2.192
10156SOL    HW231368   6.047   1.255   2.171
10157SOL     OW31369   6.029   2.835   6.413
10157SOL    HW131370   6.004   2.762   6.350
10157SOL    HW231371   5.946   2.878   6.449
10158SOL     OW31372   5.604   3.550   0.720
10158SOL    HW131373   5.638   3.459   0.742
10158SOL    HW231374   5.504   3.549   0.717
10159SOL     OW31375   2.709   2.856   6.279
10159SOL    HW131376   2.712   2.766   6.236
10159SOL    HW231377   2.707   2.926   6.208
10160SOL     OW31378   2.291   2.878   2.213
10160SOL    HW131379   2.346   2.961   2.201
10160SOL    HW231380   2.224   2.871   2.140
10161SOL     OW31381   3.419   3.409   6.500
10161SOL    HW131382   3.444   3.369   6.588
10161SOL    HW231383   3.351   3.351   6.455
10162SOL     OW31384   3.553   4.398   0.306
10162SOL    HW131385   3.555   4.378   0.404
10162SOL    HW231386   3.463   4.374   0.269
10163SOL     OW31387   5.403   5.298   5.610
10163SOL    HW131388   5.378   5.382   5.563
10163SOL    HW231389   5.428   5.228   5.542
10164SOL     OW31390   5.563   3.060   4.715
10164SOL    HW131391   5.658   3.083   4.736
10164SOL    HW231392   5.507   3.143   4.720
10165SOL     OW31393   0.621   1.771   3.579
10165SOL    HW131394   0.603   1.870   3.573
10165SOL    HW231395   0.689   1.745   3.511
10166SOL     OW31396   3.691   1.178   1.990
10166SOL    HW131397   3.650   1.254   1.940
10166SOL    HW231398   3.781   1.157   1.951
10167SOL     OW31399   2.885   2.689   6.954
10167SOL    HW131400   2.850   2.692   0.024
10167SOL    HW231401   2.809   2.696   6.889
10168SOL     OW31402   5.881   3.905   5.488
10168SOL    HW131403   5.909   3.938   5.398
10168SOL    HW231404   5.798   3.951   5.516
10169SOL     OW31405   6.276   3.871   3.504
10169SOL    HW131406   6.188   3.896   3.462
10169SOL    HW231407   6.350   3.921   3.458
10170SOL     OW31408   0.965   5.179   6.198
10170SOL    HW131409   0.877   5.134   6.182
10170SOL    HW231410   1.036   5.133   6.144
10171SOL     OW31411   6.585   3.061   5.789
10171SOL    HW131412   6.656   3.012   5.841
10171SOL    HW231413   6.532   3.118   5.852
10172SOL     OW31414   6.723   6.553   4.592
10172SOL    HW131415   6.658   6.600   4.531
10172SOL    HW231416   6.736   6.459   4.560
10173SOL     OW31417   0.621   2.569   1.102
10173SOL    HW131418   0.689   2.572   1.029
10173SOL    HW231419   0.634   2.649   1.162
10174SOL     OW31420   5.725   5.376   2.261
10174SOL    HW131421   5.816   5.392   2.223
10174SOL    HW231422   5.729   5.301   2.327
10175SOL     OW31423   5.738   2.115   4.281
10175SOL    HW131424   5.765   2.083   4.190
10175SOL    HW231425   5.676   2.049   4.323
10176SOL     OW31426   1.098   3.421   5.773
10176SOL    HW131427   1.185   3.375   5.789
10176SOL    HW231428   1.111   3.491   5.702
10177SOL     OW31429   2.307   0.509   0.313
10177SOL    HW131430   2.254   0.442   0.365
10177SOL    HW231431   2.402   0.506   0.344
10178SOL     OW31432   6.870   1.231   5.232
10178SOL    HW131433   6.795   1.228   5.166
10178SOL    HW231434   6.938   1.161   5.208
10179SOL     OW31435   0.540   1.697   6.450
10179SOL    HW131436   0.539   1.762   6.373
10179SOL    HW231437   0.455   1.705   6.502
10180SOL     OW31438   4.300   0.430   6.654
10180SOL    HW131439   4.342   0.343   6.679
10180SOL    HW231440   4.359   0.506   6.684
10181SOL     OW31441   5.459   2.592   2.170
10181SOL    HW131442   5.371   2.637   2.186
10181SOL    HW231443   5.524   2.659   2.134
10182SOL     OW31444   4.445   0.936   1.674
10182SOL    HW131445   4.438   0.860   1.609
10182SOL    HW231446   4.541   0.963   1.682
10183SOL     OW31447   6.986   2.182   6.224
10183SOL    HW131448   6.940   2.213   6.141
10183SOL    HW231449   7.007   2.261   6.282
10184SOL     OW31450   3.580   0.715   6.773
10184SOL    HW131451   3.613   0.637   6.827
10184SOL    HW231452   3.620   0.710   6.681
10185SOL     OW31453   5.803   5.899   1.804
10185SOL    HW131454   5.861   5.961   1.856
10185SOL    HW231455   5.859   5.842   1.744
10186SOL     OW31456   6.097   4.256   3.623
10186SOL    HW131457   6.166   4.207   3.676
10186SOL    HW231458   6.141   4.324   3.565
10187SOL     OW31459   0.495   3.200   0.945
10187SOL    HW131460   0.420   3.192   0.878
10187SOL    HW231461   0.579   3.228   0.898
10188SOL     OW31462   3.400   5.625   0.959
10188SOL    HW131463   3.482   5.645   0.906
10188SOL    HW231464   3.333   5.698   0.945
10189SOL     OW31465   0.828   0.580   6.247
10189SOL    HW131466   0.916   0.622   6.229
10189SOL    HW231467   0.841   0.486   6.277
10190SOL     OW31468   4.875   3.297   1.749
10190SOL    HW131469   4.791   3.250   1.723
10190SOL    HW231470   4.905   3.265   1.839
10191SOL     OW31471   5.140   5.191   5.231
10191SOL    HW131472   5.055   5.141   5.214
10191SOL    HW231473   5.209   5.163   5.164
10192SOL     OW31474   4.598   1.344   5.583
10192SOL    HW131475   4.548   1.390   5.657
10192SOL    HW231476   4.551   1.261   5.556
10193SOL     OW31477   4.042   3.259   1.963
10193SOL    HW131478   4.002   3.169   1.943
10193SOL    HW231479   4.058   3.267   2.061
10194SOL     OW31480   5.883   5.541   4.855
10194SOL    HW131481   5.808   5.606   4.845
10194SOL    HW231482   5.874   5.492   4.942
10195SOL     OW31483   6.434   5.442   1.019
10195SOL    HW131484   6.343   5.482   1.026
10195SOL    HW231485   6.494   5.483   1.087
10196SOL     OW31486   4.350   1.813   4.046
10196SOL    HW131487   4.340   1.717   4.070
10196SOL    HW231488   4.278   1.866   4.091
10197SOL     OW31489   6.196   1.948   5.542
10197SOL    HW131490   6.213   2.046   5.545
10197SOL    HW231491   6.216   1.913   5.450
10198SOL     OW31492   3.124   0.311   1.984
10198SOL    HW131493   3.138   0.356   2.072
10198SOL    HW231494   3.173   0.224   1.983
10199SOL     OW31495   2.475   2.275   7.000
10199SOL    HW131496   2.527   2.268   6.915
10199SOL    HW231497   2.534   2.311   0.049
10200SOL     OW31498   5.183   2.107   0.360
10200SOL    HW131499   5.260   2.165   0.385
10200SOL    HW231500   5.196   2.016   0.398
10201SOL     OW31501   1.780   4.237   0.909
10201SOL    HW131502   1.820   4.166   0.850
10201SOL    HW231503   1.695   4.270   0.868
10202SOL     OW31504   3.825   3.284   1.012
10202SOL    HW131505   3.923   3.304   1.018
10202SOL    HW231506   3.774   3.355   1.060
10203SOL     OW31507   6.152   3.150   3.734
10203SOL    HW131508   6.106   3.105   3.657
10203SOL    HW231509   6.245   3.174   3.707
10204SOL     OW31510   5.076   6.565   0.164
10204SOL    HW131511   5.146   6.610   0.221
10204SOL    HW231512   5.094   6.585   0.068
10205SOL     OW31513   2.182   1.009   1.464
10205SOL    HW131514   2.133   1.084   1.506
10205SOL    HW231515   2.200   0.938   1.532
10206SOL     OW31516   0.270   0.934   0.076
10206SOL    HW131517   0.338   0.861   0.068
10206SOL    HW231518   0.300   1.000   0.144
10207SOL     OW31519   1.134   2.083   6.781
10207SOL    HW131520   1.133   1.999   6.727
10207SOL    HW231521   1.133   2.162   6.720
10208SOL     OW31522   5.698   4.283   3.536
10208SOL    HW131523   5.733   4.245   3.450
10208SOL    HW231524   5.758   4.256   3.611
10209SOL     OW31525   0.204   0.220   0.059
10209SOL    HW131526   0.231   0.200   6.988
10209SOL    HW231527   0.284   0.219   0.118
10210SOL     OW31528   4.748   6.532   2.057
10210SOL    HW131529   4.721   6.441   2.089
10210SOL    HW231530   4.799   6.579   2.129
10211SOL     OW31531   4.365   6.256   4.410
10211SOL    HW131532   4.328   6.327   4.350
10211SOL    HW231533   4.299   6.181   4.418
10212SOL     OW31534   0.701   0.354   5.328
10212SOL    HW131535   0.681   0.267   5.372
10212SOL    HW231536   0.768   0.341   5.255
10213SOL     OW31537   5.233   2.903   0.745
10213SOL    HW131538   5.137   2.921   0.727
10213SOL    HW231539   5.271   2.847   0.671
10214SOL     OW31540   1.151   1.536   2.257
10214SOL    HW131541   1.085   1.526   2.331
10214SOL    HW231542   1.213   1.459   2.256
10215SOL     OW31543   4.083   3.457   3.562
10215SOL    HW131544   3.989   3.485   3.580
10215SOL    HW231545   4.129   3.526   3.506
10216SOL     OW31546   0.439   0.673   0.630
10216SOL    HW131547   0.385   0.626   0.700
10216SOL    HW231548   0.380   0.738   0.581
10217SOL     OW31549   3.006   1.983   3.306
10217SOL    HW131550   3.105   1.968   3.296
10217SOL    HW231551   2.960   1.963   3.219
10218SOL     OW31552   1.615   1.517   1.784
10218SOL    HW131553   1.556   1.588   1.746
10218SOL    HW231554   1.654   1.548   1.870
10219SOL     OW31555   6.959   2.850   3.171
10219SOL    HW131556   6.871   2.811   3.198
10219SOL    HW231557   7.005   2.887   3.252
10220SOL     OW31558   4.321   2.341   1.125
10220SOL    HW131559   4.317   2.259   1.182
10220SOL    HW231560   4.331   2.422   1.183
10221SOL     OW31561   0.605   5.305   3.219
10221SOL    HW131562   0.544   5.336   3.146
10221SOL    HW231563   0.652   5.222   3.189
10222SOL     OW31564   3.048   3.089   6.036
10222SOL    HW131565   3.056   3.023   6.110
10222SOL    HW231566   3.122   3.075   5.970
10223SOL     OW31567   0.532   4.655   1.502
10223SOL    HW131568   0.606   4.628   1.440
10223SOL    HW231569   0.542   4.752   1.525
10224SOL     OW31570   6.850   3.186   3.926
10224SOL    HW131571   6.820   3.276   3.956
10224SOL    HW231572   6.773   3.123   3.928
10225SOL     OW31573   1.776   4.762   5.568
10225SOL    HW131574   1.699   4.738   5.628
10225SOL    HW231575   1.755   4.734   5.475
10226SOL     OW31576   2.630   0.497   6.837
10226SOL    HW131577   2.544   0.479   6.789
10226SOL    HW231578   2.704   0.507   6.770
10227SOL     OW31579   4.955   4.600   0.748
10227SOL    HW131580   4.865   4.594   0.705
10227SOL    HW231581   5.002   4.512   0.740
10228SOL     OW31582   6.934   6.819   1.845
10228SOL    HW131583   6.932   6.886   1.919
10228SOL    HW231584   7.009   6.840   1.783
10229SOL     OW31585   1.297   2.888   5.147
10229SOL    HW131586   1.261   2.979   5.126
10229SOL    HW231587   1.246   2.819   5.096
10230SOL     OW31588   5.932   5.857   2.881
10230SOL    HW131589   6.000   5.850   2.809
10230SOL    HW231590   5.901   5.766   2.908
10231SOL     OW31591   0.403   5.597   5.121
10231SOL    HW131592   0.454   5.591   5.036
10231SOL    HW231593   0.311   5.630   5.102
10232SOL     OW31594   2.669   1.281   3.322
10232SOL    HW131595   2.713   1.194   3.298
10232SOL    HW231596   2.731   1.356   3.301
10233SOL     OW31597   3.756   3.978   5.219
10233SOL    HW131598   3.851   3.958   5.243
10233SOL    HW231599   3.747   4.076   5.199
10234SOL     OW31600   6.315   1.449   1.275
10234SOL    HW131601   6.357   1.403   1.353
10234SOL    HW231602   6.234   1.499   1.305
10235SOL     OW31603   1.887   2.630   1.893
10235SOL    HW131604   1.919   2.722   1.914
10235SOL    HW231605   1.957   2.563   1.920
10236SOL     OW31606   2.720   6.537   0.451
10236SOL    HW131607   2.736   6.474   0.375
10236SOL    HW231608   2.703   6.629   0.415
10237SOL     OW31609   6.927   2.820   6.936
10237SOL    HW131610   6.915   2.891   6.867
10237SOL    HW231611   6.858   2.749   6.922
10238SOL     OW31612   4.354   4.266   1.489
10238SOL    HW131613   4.365   4.199   1.562
10238SOL    HW231614   4.290   4.337   1.518
10239SOL     OW31615   1.330   2.386   4.637
10239SOL    HW131616   1.387   2.367   4.717
10239SOL    HW231617   1.375   2.456   4.581
10240SOL     OW31618   2.106   5.655   2.314
10240SOL    HW131619   2.117   5.720   2.240
10240SOL    HW231620   2.175   5.583   2.306
10241SOL     OW31621   5.584   0.776   2.345
10241SOL    HW131622   5.496   0.806   2.307
10241SOL    HW231623   5.569   0.734   2.435
10242SOL     OW31624   6.498   1.767   1.008
10242SOL    HW131625   6.579   1.787   0.954
10242SOL    HW231626   6.525   1.750   1.103
10243SOL     OW31627   2.363   3.989   1.768
10243SOL    HW131628   2.317   3.962   1.853
10243SOL    HW231629   2.406   4.078   1.780
10244SOL     OW31630   2.673   3.962   0.515
10244SOL    HW131631   2.731   3.896   0.468
10244SOL    HW231632   2.624   3.916   0.590
10245SOL     OW31633   3.840   3.880   1.316
10245SOL    HW131634   3.741   3.885   1.329
10245SOL    HW231635   3.873   3.789   1.343
10246SOL     OW31636   3.052   3.985   4.343
10246SOL    HW131637   2.981   3.918   4.364
10246SOL    HW231638   3.117   3.990   4.418
10247SOL     OW31639   0.052   3.822   6.207
10247SOL    HW131640   6.999   3.757   6.195
10247SOL    HW231641   0.020   3.901   6.258
10248SOL     OW31642   0.998   0.062   3.145
10248SOL    HW131643   0.952   0.117   3.214
10248SOL    HW231644   0.956   0.079   3.056
10249SOL     OW31645   2.987   5.829   6.777
10249SOL    HW131646   3.038   5.820   6.863
10249SOL    HW231647   2.944   5.742   6.754
10250SOL     OW31648   6.718   3.593   0.985
10250SOL    HW131649   6.630   3.550   1.003
10250SOL    HW231650   6.718   3.635   0.895
10251SOL     OW31651   2.111   1.521   4.213
10251SOL    HW131652   2.161   1.595   4.168
10251SOL    HW231653   2.015   1.526   4.188
10252SOL     OW31654   4.144   3.515   5.940
10252SOL    HW131655   4.178   3.568   6.018
10252SOL    HW231656   4.218   3.459   5.902
10253SOL     OW31657   2.733   6.226   0.578
10253SOL    HW131658   2.751   6.136   0.538
10253SOL    HW231659   2.819   6.274   0.593
10254SOL     OW31660   4.769   1.852   5.489
10254SOL    HW131661   4.680   1.809   5.493
10254SOL    HW231662   4.791   1.874   5.394
10255SOL     OW31663   2.844   6.864   0.727
10255SOL    HW131664   2.907   6.787   0.719
10255SOL    HW231665   2.753   6.830   0.752
10256SOL     OW31666   4.106   1.062   2.657
10256SOL    HW131667   4.155   0.983   2.620
10256SOL    HW231668   4.167   1.116   2.714
10257SOL     OW31669   1.251   5.517   4.288
10257SOL    HW131670   1.270   5.563   4.201
10257SOL    HW231671   1.154   5.526   4.310
10258SOL     OW31672   4.031   2.014   2.932
10258SOL    HW131673   4.124   1.976   2.935
10258SOL    HW231674   3.965   1.943   2.956
10259SOL     OW31675   0.503   4.249   3.523
10259SOL    HW131676   0.505   4.263   3.622
10259SOL    HW231677   0.588   4.283   3.482
10260SOL     OW31678   0.502   1.490   3.348
10260SOL    HW131679   0.489   1.548   3.268
10260SOL    HW231680   0.600   1.480   3.366
10261SOL     OW31681   6.947   4.743   0.655
10261SOL    HW131682   6.905   4.653   0.668
10261SOL    HW231683   6.991   4.747   0.565
10262SOL     OW31684   3.087   6.506   6.483
10262SOL    HW131685   3.147   6.492   6.404
10262SOL    HW231686   3.027   6.585   6.466
10263SOL     OW31687   5.641   0.498   0.335
10263SOL    HW131688   5.596   0.581   0.301
10263SOL    HW231689   5.614   0.482   0.430
10264SOL     OW31690   6.694   5.744   6.604
10264SOL    HW131691   6.729   5.709   6.691
10264SOL    HW231692   6.708   5.844   6.602
10265SOL     OW31693   3.833   2.186   0.003
10265SOL    HW131694   3.811   2.258   6.960
10265SOL    HW231695   3.913   2.136   6.995
10266SOL     OW31696   3.811   3.108   3.228
10266SOL    HW131697   3.886   3.148   3.175
10266SOL    HW231698   3.832   3.117   3.326
10267SOL     OW31699   5.060   1.160   0.831
10267SOL    HW131700   5.084   1.197   0.921
10267SOL    HW231701   4.962   1.141   0.828
10268SOL     OW31702   5.916   6.464   2.089
10268SOL    HW131703   5.966   6.433   2.170
10268SOL    HW231704   5.825   6.422   2.087
10269SOL     OW31705   1.151   2.657   5.614
10269SOL    HW131706   1.060   2.626   5.643
10269SOL    HW231707   1.152   2.757   5.608
10270SOL     OW31708   3.035   5.418   2.387
10270SOL    HW131709   2.983   5.407   2.302
10270SOL    HW231710   3.044   5.330   2.433
10271SOL     OW31711   3.351   2.368   0.048
10271SOL    HW131712   3.331   2.423   0.129
10271SOL    HW231713   3.326   2.272   0.065
10272SOL     OW31714   1.186   0.999   4.482
10272SOL    HW131715   1.195   0.902   4.502
10272SOL    HW231716   1.114   1.038   4.540
10273SOL     OW31717   2.839   5.384   3.635
10273SOL    HW131718   2.938   5.378   3.642
10273SOL    HW231719   2.814   5.437   3.553
10274SOL     OW31720   1.019   5.003   5.866
10274SOL    HW131721   1.077   5.082   5.885
10274SOL    HW231722   0.963   5.022   5.785
10275SOL     OW31723   0.225   0.349   2.201
10275SOL    HW131724   0.135   0.311   2.177
10275SOL    HW231725   0.249   0.323   2.294
10276SOL     OW31726   4.824   5.913   5.781
10276SOL    HW131727   4.862   5.958   5.863
10276SOL    HW231728   4.815   5.815   5.798
10277SOL     OW31729   1.966   6.196   4.850
10277SOL    HW131730   2.005   6.165   4.763
10277SOL    HW231731   1.896   6.131   4.880
10278SOL     OW31732   0.873   1.293   3.669
10278SOL    HW131733   0.830   1.256   3.751
10278SOL    HW231734   0.968   1.260   3.663
10279SOL     OW31735   1.782   4.916   4.529
10279SOL    HW131736   1.803   4.866   4.613
10279SOL    HW231737   1.866   4.955   4.491
10280SOL     OW31738   6.279   2.968   6.413
10280SOL    HW131739   6.262   3.059   6.450
10280SOL    HW231740   6.192   2.927   6.383
10281SOL     OW31741   6.089   2.072   3.867
10281SOL    HW131742   6.046   2.158   3.840
10281SOL    HW231743   6.187   2.075   3.845
10282SOL     OW31744   5.554   3.325   3.608
10282SOL    HW131745   5.594   3.297   3.520
10282SOL    HW231746   5.623   3.319   3.679
10283SOL     OW31747   1.388   3.177   1.152
10283SOL    HW131748   1.466   3.146   1.207
10283SOL    HW231749   1.311   3.115   1.167
10284SOL     OW31750   5.897   1.744   5.076
10284SOL    HW131751   5.804   1.765   5.046
10284SOL    HW231752   5.900   1.735   5.176
10285SOL     OW31753   4.587   6.377   2.737
10285SOL    HW131754   4.647   6.438   2.685
10285SOL    HW231755   4.559   6.421   2.822
10286SOL     OW31756   3.973   0.346   3.848
10286SOL    HW131757   4.024   0.311   3.927
10286SOL    HW231758   3.911   0.418   3.878
10287SOL     OW31759   2.720   5.543   1.991
10287SOL    HW131760   2.623   5.527   1.977
10287SOL    HW231761   2.769   5.530   1.904
10288SOL     OW31762   4.447   6.573   3.503
10288SOL    HW131763   4.442   6.649   3.438
10288SOL    HW231764   4.357   6.531   3.512
10289SOL     OW31765   2.997   6.294   0.526
10289SOL    HW131766   3.050   6.237   0.588
10289SOL    HW231767   3.059   6.353   0.474
10290SOL     OW31768   3.106   3.080   2.834
10290SOL    HW131769   3.068   3.068   2.926
10290SOL    HW231770   3.072   3.166   2.795
10291SOL     OW31771   3.670   1.974   3.056
10291SOL    HW131772   3.754   1.921   3.042
10291SOL    HW231773   3.661   2.044   2.985
10292SOL     OW31774   0.896   1.966   5.391
10292SOL    HW131775   0.947   2.049   5.418
10292SOL    HW231776   0.919   1.891   5.453
10293SOL     OW31777   1.122   3.242   3.279
10293SOL    HW131778   1.030   3.254   3.318
10293SOL    HW231779   1.180   3.194   3.345
10294SOL     OW31780   4.512   1.520   3.038
10294SOL    HW131781   4.558   1.582   2.974
10294SOL    HW231782   4.421   1.496   3.002
10295SOL     OW31783   1.098   3.126   5.664
10295SOL    HW131784   1.096   3.211   5.716
10295SOL    HW231785   1.044   3.137   5.580
10296SOL     OW31786   5.296   1.433   6.035
10296SOL    HW131787   5.336   1.495   5.967
10296SOL    HW231788   5.286   1.342   5.995
10297SOL     OW31789   1.896   1.025   6.688
10297SOL    HW131790   1.887   1.108   6.744
10297SOL    HW231791   1.912   1.050   6.593
10298SOL     OW31792   2.437   4.451   0.900
10298SOL    HW131793   2.358   4.398   0.871
10298SOL    HW231794   2.407   4.535   0.944
10299SOL     OW31795   3.649   5.337   2.755
10299SOL    HW131796   3.577   5.353   2.688
10299SOL    HW231797   3.620   5.264   2.818
10300SOL     OW31798   1.290   4.036   1.801
10300SOL    HW131799   1.389   4.050   1.811
10300SOL    HW231800   1.259   4.079   1.716
10301SOL     OW31801   4.416   2.065   5.548
10301SOL    HW131802   4.426   1.997   5.621
10301SOL    HW231803   4.439   2.023   5.460
10302SOL     OW31804   2.594   6.294   4.666
10302SOL    HW131805   2.639   6.212   4.629
10302SOL    HW231806   2.522   6.323   4.604
10303SOL     OW31807   1.314   5.930   3.763
10303SOL    HW131808   1.355   5.859   3.706
10303SOL    HW231809   1.360   6.017   3.747
10304SOL     OW31810   5.641   0.379   1.392
10304SOL    HW131811   5.687   0.411   1.475
10304SOL    HW231812   5.649   0.448   1.320
10305SOL     OW31813   1.501   4.068   5.920
10305SOL    HW131814   1.544   3.979   5.914
10305SOL    HW231815   1.425   4.065   5.986
10306SOL     OW31816   5.220   5.733   0.381
10306SOL    HW131817   5.152   5.671   0.419
10306SOL    HW231818   5.198   5.752   0.285
10307SOL     OW31819   3.122   1.731   5.139
10307SOL    HW131820   3.118   1.669   5.061
10307SOL    HW231821   3.120   1.826   5.106
10308SOL     OW31822   1.902   4.036   2.863
10308SOL    HW131823   1.992   4.027   2.819
10308SOL    HW231824   1.891   3.962   2.930
10309SOL     OW31825   0.072   1.744   0.230
10309SOL    HW131826   0.046   1.736   0.134
10309SOL    HW231827   0.125   1.828   0.243
10310SOL     OW31828   3.288   3.816   0.161
10310SOL    HW131829   3.339   3.843   0.079
10310SOL    HW231830   3.345   3.755   0.217
10311SOL     OW31831   6.684   5.462   0.365
10311SOL    HW131832   6.652   5.505   0.281
10311SOL    HW231833   6.765   5.406   0.345
10312SOL     OW31834   4.070   6.767   2.378
10312SOL    HW131835   3.994   6.702   2.369
10312SOL    HW231836   4.099   6.772   2.473
10313SOL     OW31837   3.811   5.836   2.005
10313SOL    HW131838   3.890   5.870   2.055
10313SOL    HW231839   3.823   5.739   1.986
10314SOL     OW31840   6.708   0.642   0.388
10314SOL    HW131841   6.634   0.707   0.369
10314SOL    HW231842   6.700   0.563   0.327
10315SOL     OW31843   5.965   6.121   4.548
10315SOL    HW131844   6.041   6.083   4.601
10315SOL    HW231845   5.967   6.221   4.553
10316SOL     OW31846   6.527   2.468   5.772
10316SOL    HW131847   6.448   2.527   5.789
10316SOL    HW231848   6.606   2.501   5.824
10317SOL     OW31849   4.016   6.063   6.810
10317SOL    HW131850   4.076   5.984   6.820
10317SOL    HW231851   3.965   6.056   6.724
10318SOL     OW31852   4.621   0.336   6.497
10318SOL    HW131853   4.720   0.330   6.505
10318SOL    HW231854   4.581   0.364   6.584
10319SOL     OW31855   0.735   3.416   5.619
10319SOL    HW131856   0.659   3.399   5.557
10319SOL    HW231857   0.754   3.515   5.621
10320SOL     OW31858   0.860   6.378   2.482
10320SOL    HW131859   0.881   6.281   2.486
10320SOL    HW231860   0.770   6.395   2.523
10321SOL     OW31861   5.460   2.254   1.749
10321SOL    HW131862   5.447   2.252   1.848
10321SOL    HW231863   5.405   2.328   1.710
10322SOL     OW31864   4.650   5.273   5.107
10322SOL    HW131865   4.625   5.368   5.126
10322SOL    HW231866   4.568   5.216   5.108
10323SOL     OW31867   6.000   4.773   5.285
10323SOL    HW131868   5.920   4.828   5.263
10323SOL    HW231869   5.997   4.688   5.233
10324SOL     OW31870   3.518   3.121   2.070
10324SOL    HW131871   3.423   3.143   2.092
10324SOL    HW231872   3.551   3.049   2.131
10325SOL     OW31873   6.191   4.265   2.037
10325SOL    HW131874   6.139   4.203   2.095
10325SOL    HW231875   6.287   4.263   2.063
10326SOL     OW31876   5.150   4.662   6.174
10326SOL    HW131877   5.226   4.597   6.177
10326SOL    HW231878   5.157   4.717   6.091
10327SOL     OW31879   2.501   2.531   0.728
10327SOL    HW131880   2.410   2.524   0.768
10327SOL    HW231881   2.494   2.530   0.628
10328SOL     OW31882   6.395   2.562   0.495
10328SOL    HW131883   6.321   2.585   0.559
10328SOL    HW231884   6.407   2.637   0.430
10329SOL     OW31885   2.566   1.060   3.744
10329SOL    HW131886   2.660   1.088   3.730
10329SOL    HW231887   2.504   1.130   3.710
10330SOL     OW31888   4.334   1.378   2.455
10330SOL    HW131889   4.252   1.327   2.428
10330SOL    HW231890   4.415   1.327   2.428
10331SOL     OW31891   6.676   6.692   6.058
10331SOL    HW131892   6.701   6.775   6.009
10331SOL    HW231893   6.673   6.711   6.157
10332SOL     OW31894   6.803   0.332   0.609
10332SOL    HW131895   6.812   0.431   0.607
10332SOL    HW231896   6.863   0.294   0.680
10333SOL     OW31897   0.657   4.372   5.357
10333SOL    HW131898   0.673   4.312   5.279
10333SOL    HW231899   0.562   4.404   5.356
10334SOL     OW31900   3.621   1.010   4.560
10334SOL    HW131901   3.568   1.089   4.531
10334SOL    HW231902   3.719   1.031   4.551
10335SOL     OW31903   2.723   4.105   0.064
10335SOL    HW131904   2.642   4.110   0.122
10335SOL    HW231905   2.772   4.192   0.068
10336SOL     OW31906   6.249   0.103   1.279
10336SOL    HW131907   6.230   0.140   1.369
10336SOL    HW231908   6.335   0.141   1.244
10337SOL     OW31909   0.070   6.296   6.752
10337SOL    HW131910   0.089   6.261   6.844
10337SOL    HW231911   0.026   6.386   6.760
10338SOL     OW31912   2.199   6.773   2.097
10338SOL    HW131913   2.234   6.837   2.164
10338SOL    HW231914   2.235   6.681   2.116
10339SOL     OW31915   4.977   3.586   6.077
10339SOL    HW131916   4.904   3.610   6.141
10339SOL    HW231917   5.059   3.638   6.100
10340SOL     OW31918   1.310   3.567   0.361
10340SOL    HW131919   1.369   3.528   0.291
10340SOL    HW231920   1.355   3.558   0.451
10341SOL     OW31921   1.990   3.377   2.011
10341SOL    HW131922   1.927   3.423   1.948
10341SOL    HW231923   2.075   3.429   2.016
10342SOL     OW31924   1.987   6.827   3.902
10342SOL    HW131925   2.073   6.863   3.938
10342SOL    HW231926   1.958   6.749   3.958
10343SOL     OW31927   3.428   5.157   6.349
10343SOL    HW131928   3.485   5.077   6.330
10343SOL    HW231929   3.354   5.130   6.412
10344SOL     OW31930   4.517   2.825   0.308
10344SOL    HW131931   4.507   2.766   0.388
10344SOL    HW231932   4.535   2.769   0.227
10345SOL     OW31933   1.797   1.487   6.403
10345SOL    HW131934   1.752   1.567   6.444
10345SOL    HW231935   1.767   1.477   6.308
10346SOL     OW31936   0.223   5.246   1.520
10346SOL    HW131937   0.154   5.207   1.581
10346SOL    HW231938   0.285   5.304   1.573
10347SOL     OW31939   3.837   1.498   3.138
10347SOL    HW131940   3.913   1.453   3.092
10347SOL    HW231941   3.766   1.432   3.158
10348SOL     OW31942   6.265   2.678   6.946
10348SOL    HW131943   6.212   2.617   6.888
10348SOL    HW231944   6.272   2.768   6.903
10349SOL     OW31945   1.056   0.680   0.300
10349SOL    HW131946   0.960   0.667   0.275
10349SOL    HW231947   1.062   0.752   0.370
10350SOL     OW31948   2.841   5.827   5.090
10350SOL    HW131949   2.747   5.838   5.058
10350SOL    HW231950   2.885   5.753   5.038
10351SOL     OW31951   4.185   4.931   6.405
10351SOL    HW131952   4.209   4.897   6.315
10351SOL    HW231953   4.110   4.996   6.397
10352SOL     OW31954   3.589   1.147   6.575
10352SOL    HW131955   3.634   1.058   6.559
10352SOL    HW231956   3.506   1.153   6.519
10353SOL     OW31957   6.667   3.352   5.395
10353SOL    HW131958   6.602   3.295   5.445
10353SOL    HW231959   6.652   3.341   5.296
10354SOL     OW31960   5.404   2.506   2.525
10354SOL    HW131961   5.468   2.446   2.477
10354SOL    HW231962   5.311   2.484   2.497
10355SOL     OW31963   2.435   6.618   1.799
10355SOL    HW131964   2.454   6.710   1.832
10355SOL    HW231965   2.366   6.575   1.858
10356SOL     OW31966   0.550   4.826   4.677
10356SOL    HW131967   0.458   4.831   4.639
10356SOL    HW231968   0.615   4.807   4.604
10357SOL     OW31969   1.441   2.908   6.217
10357SOL    HW131970   1.467   3.005   6.226
10357SOL    HW231971   1.523   2.851   6.219
10358SOL     OW31972   6.962   3.211   3.400
10358SOL    HW131973   0.027   3.259   3.400
10358SOL    HW231974   6.906   3.244   3.476
10359SOL     OW31975   0.775   1.891   1.451
10359SOL    HW131976   0.803   1.928   1.540
10359SOL    HW231977   0.801   1.955   1.379
10360SOL     OW31978   4.639   4.363   3.373
10360SOL    HW131979   4.587   4.443   3.342
10360SOL    HW231980   4.723   4.392   3.418
10361SOL     OW31981   2.634   6.244   3.147
10361SOL    HW131982   2.720   6.289   3.125
10361SOL    HW231983   2.573   6.248   3.067
10362SOL     OW31984   1.081   4.576   5.048
10362SOL    HW131985   1.041   4.623   4.969
10362SOL    HW231986   1.158   4.629   5.083
10363SOL     OW31987   4.432   1.323   2.150
10363SOL    HW131988   4.408   1.302   2.055
10363SOL    HW231989   4.396   1.413   2.174
10364SOL     OW31990   3.329   3.067   1.298
10364SOL    HW131991   3.369   3.059   1.389
10364SOL    HW231992   3.323   2.977   1.256
10365SOL     OW31993   3.967   5.110   6.400
10365SOL    HW131994   3.923   5.184   6.350
10365SOL    HW231995   3.901   5.070   6.465
10366SOL     OW31996   2.804   0.489   4.323
10366SOL    HW131997   2.759   0.576   4.344
10366SOL    HW231998   2.760   0.447   4.244
10367SOL     OW31999   6.261   2.537   2.575
10367SOL    HW132000   6.256   2.470   2.648
10367SOL    HW232001   6.250   2.629   2.613
10368SOL     OW32002   1.810   1.904   1.334
10368SOL    HW132003   1.879   1.934   1.400
10368SOL    HW232004   1.780   1.812   1.357
10369SOL     OW32005   4.688   0.797   6.168
10369SOL    HW132006   4.657   0.738   6.242
10369SOL    HW232007   4.675   0.893   6.193
10370SOL     OW32008   4.834   1.973   5.200
10370SOL    HW132009   4.819   1.973   5.101
10370SOL    HW232010   4.927   1.943   5.220
10371SOL     OW32011   3.571   5.823   4.933
10371SOL    HW132012   3.632   5.759   4.885
10371SOL    HW232013   3.538   5.892   4.868
10372SOL     OW32014   1.675   1.392   6.158
10372SOL    HW132015   1.708   1.380   6.065
10372SOL    HW232016   1.588   1.346   6.169
10373SOL     OW32017   2.318   6.464   5.034
10373SOL    HW132018   2.400   6.504   4.993
10373SOL    HW232019   2.294   6.514   5.116
10374SOL     OW32020   3.484   1.237   3.011
10374SOL    HW132021   3.574   1.243   2.969
10374SOL    HW232022   3.442   1.328   3.015
10375SOL     OW32023   3.829   1.690   0.008
10375SOL    HW132024   3.854   1.650   0.096
10375SOL    HW232025   3.879   1.644   6.958
10376SOL     OW32026   1.015   6.463   3.574
10376SOL    HW132027   1.096   6.522   3.576
10376SOL    HW232028   1.028   6.388   3.640
10377SOL     OW32029   6.522   0.875   3.805
10377SOL    HW132030   6.528   0.971   3.779
10377SOL    HW232031   6.493   0.820   3.727
10378SOL     OW32032   6.497   0.837   5.864
10378SOL    HW132033   6.422   0.772   5.855
10378SOL    HW232034   6.537   0.855   5.774
10379SOL     OW32035   4.345   0.548   4.915
10379SOL    HW132036   4.377   0.456   4.936
10379SOL    HW232037   4.362   0.608   4.993
10380SOL     OW32038   6.347   1.254   3.156
10380SOL    HW132039   6.345   1.167   3.206
10380SOL    HW232040   6.256   1.296   3.160
10381SOL     OW32041   4.753   5.602   6.034
10381SOL    HW132042   4.677   5.667   6.040
10381SOL    HW232043   4.790   5.602   5.941
10382SOL     OW32044   2.507   4.770   6.068
10382SOL    HW132045   2.575   4.734   6.004
10382SOL    HW232046   2.434   4.703   6.082
10383SOL     OW32047   1.071   2.921   0.513
10383SOL    HW132048   1.126   3.000   0.540
10383SOL    HW232049   0.997   2.951   0.453
10384SOL     OW32050   0.597   7.007   0.606
10384SOL    HW132051   0.552   6.935   0.658
10384SOL    HW232052   0.572   0.073   0.643
10385SOL     OW32053   4.843   6.973   6.125
10385SOL    HW132054   4.942   6.962   6.123
10385SOL    HW232055   4.818   0.038   6.085
10386SOL     OW32056   6.984   3.744   5.381
10386SOL    HW132057   6.978   3.744   5.480
10386SOL    HW232058   6.962   3.835   5.346
10387SOL     OW32059   3.381   1.905   2.797
10387SOL    HW132060   3.289   1.941   2.812
10387SOL    HW232061   3.444   1.980   2.775
10388SOL     OW32062   1.000   5.629   3.780
10388SOL    HW132063   1.002   5.635   3.680
10388SOL    HW232064   0.934   5.695   3.816
10389SOL     OW32065   0.627   5.659   2.305
10389SOL    HW132066   0.586   5.634   2.392
10389SOL    HW232067   0.573   5.731   2.261
10390SOL     OW32068   1.583   3.606   2.382
10390SOL    HW132069   1.659   3.607   2.317
10390SOL    HW232070   1.572   3.697   2.422
10391SOL     OW32071   1.232   5.737   6.011
10391SOL    HW132072   1.260   5.642   6.018
10391SOL    HW232073   1.300   5.789   5.959
10392SOL     OW32074   6.123   4.109   0.488
10392SOL    HW132075   6.131   4.191   0.544
10392SOL    HW232076   6.134   4.028   0.545
10393SOL     OW32077   0.440   1.734   3.188
10393SOL    HW132078   0.426   1.712   3.091
10393SOL    HW232079   0.518   1.796   3.197
10394SOL     OW32080   2.760   6.787   6.241
10394SOL    HW132081   2.797   6.755   6.153
10394SOL    HW232082   2.670   6.828   6.227
10395SOL     OW32083   6.688   0.855   4.237
10395SOL    HW132084   6.773   0.896   4.203
10395SOL    HW232085   6.611   0.889   4.183
10396SOL     OW32086   1.196   0.929   3.605
10396SOL    HW132087   1.176   0.872   3.684
10396SOL    HW232088   1.147   0.894   3.525
10397SOL     OW32089   3.531   1.390   3.618
10397SOL    HW132090   3.598   1.382   3.692
10397SOL    HW232091   3.546   1.476   3.569
10398SOL     OW32092   6.331   2.363   0.152
10398SOL    HW132093   6.276   2.445   0.168
10398SOL    HW232094   6.354   2.321   0.240
10399SOL     OW32095   4.454   1.557   5.721
10399SOL    HW132096   4.502   1.553   5.808
10399SOL    HW232097   4.400   1.474   5.708
10400SOL     OW32098   3.257   6.038   2.761
10400SOL    HW132099   3.214   6.033   2.851
10400SOL    HW232100   3.307   5.953   2.745
10401SOL     OW32101   6.285   6.399   2.106
10401SOL    HW132102   6.253   6.373   2.015
10401SOL    HW232103   6.367   6.347   2.129
10402SOL     OW32104   0.141   2.823   5.918
10402SOL    HW132105   0.218   2.884   5.903
10402SOL    HW232106   0.080   2.862   5.987
10403SOL     OW32107   5.167   1.561   2.691
10403SOL    HW132108   5.258   1.524   2.676
10403SOL    HW232109   5.099   1.502   2.649
10404SOL     OW32110   0.921   6.504   4.082
10404SOL    HW132111   0.969   6.574   4.027
10404SOL    HW232112   0.828   6.534   4.100
10405SOL     OW32113   1.797   5.129   5.164
10405SOL    HW132114   1.743   5.167   5.089
10405SOL    HW232115   1.885   5.176   5.170
10406SOL     OW32116   1.903   4.491   5.079
10406SOL    HW132117   1.943   4.420   5.138
10406SOL    HW232118   1.975   4.554   5.051
10407SOL     OW32119   1.493   0.757   6.036
10407SOL    HW132120   1.555   0.681   6.013
10407SOL    HW232121   1.545   0.829   6.082
10408SOL     OW32122   4.622   5.613   2.975
10408SOL    HW132123   4.538   5.597   3.028
10408SOL    HW232124   4.702   5.596   3.032
10409SOL     OW32125   0.280   4.302   1.427
10409SOL    HW132126   0.358   4.238   1.426
10409SOL    HW232127   0.256   4.327   1.333
10410SOL     OW32128   5.038   1.284   1.466
10410SOL    HW132129   4.973   1.265   1.392
10410SOL    HW232130   5.119   1.226   1.454
10411SOL     OW32131   2.230   4.545   3.903
10411SOL    HW132132   2.312   4.557   3.847
10411SOL    HW232133   2.169   4.479   3.858
10412SOL     OW32134   0.934   1.600   6.782
10412SOL    HW132135   1.017   1.639   6.823
10412SOL    HW232136   0.885   1.672   6.733
10413SOL     OW32137   1.005   1.827   0.830
10413SOL    HW132138   0.941   1.808   0.755
10413SOL    HW232139   1.073   1.893   0.799
10414SOL     OW32140   5.420   6.175   6.512
10414SOL    HW132141   5.438   6.208   6.419
10414SOL    HW232142   5.397   6.078   6.509
10415SOL     OW32143   1.171   5.522   3.964
10415SOL    HW132144   1.141   5.447   4.023
10415SOL    HW232145   1.101   5.541   3.896
10416SOL     OW32146   6.333   1.773   5.709
10416SOL    HW132147   6.279   1.831   5.648
10416SOL    HW232148   6.277   1.695   5.738
10417SOL     OW32149   4.114   5.091   3.122
10417SOL    HW132150   4.152   5.030   3.192
10417SOL    HW232151   4.149   5.063   3.032
10418SOL     OW32152   6.808   3.789   6.128
10418SOL    HW132153   6.858   3.869   6.094
10418SOL    HW232154   6.711   3.812   6.135
10419SOL     OW32155   3.364   0.982   5.222
10419SOL    HW132156   3.348   1.078   5.199
10419SOL    HW232157   3.397   0.975   5.316
10420SOL     OW32158   6.392   2.901   2.414
10420SOL    HW132159   6.348   2.852   2.490
10420SOL    HW232160   6.390   2.999   2.433
10421SOL     OW32161   0.895   4.666   4.013
10421SOL    HW132162   0.881   4.591   4.077
10421SOL    HW232163   0.976   4.648   3.957
10422SOL     OW32164   6.395   4.156   5.269
10422SOL    HW132165   6.419   4.105   5.352
10422SOL    HW232166   6.413   4.253   5.285
10423SOL     OW32167   3.605   4.916   4.377
10423SOL    HW132168   3.555   4.901   4.462
10423SOL    HW232169   3.703   4.926   4.397
10424SOL     OW32170   3.956   1.040   0.211
10424SOL    HW132171   3.916   1.098   0.282
10424SOL    HW232172   3.890   1.027   0.138
10425SOL     OW32173   1.409   0.061   1.278
10425SOL    HW132174   1.452   0.113   1.204
10425SOL    HW232175   1.322   0.102   1.303
10426SOL     OW32176   5.212   2.823   5.450
10426SOL    HW132177   5.187   2.915   5.480
10426SOL    HW232178   5.225   2.823   5.351
10427SOL     OW32179   5.167   5.897   5.179
10427SOL    HW132180   5.127   5.815   5.140
10427SOL    HW232181   5.192   5.880   5.275
10428SOL     OW32182   1.682   1.746   3.421
10428SOL    HW132183   1.603   1.784   3.468
10428SOL    HW232184   1.657   1.658   3.380
10429SOL     OW32185   1.176   3.265   2.347
10429SOL    HW132186   1.246   3.224   2.406
10429SOL    HW232187   1.089   3.217   2.360
10430SOL     OW32188   3.676   5.914   4.083
10430SOL    HW132189   3.767   5.936   4.049
10430SOL    HW232190   3.652   5.821   4.054
10431SOL     OW32191   2.619   1.944   4.395
10431SOL    HW132192   2.689   1.962   4.463
10431SOL    HW232193   2.549   1.883   4.433
10432SOL     OW32194   0.129   0.058   5.296
10432SOL    HW132195   0.041   0.077   5.252
10432SOL    HW232196   0.116   0.051   5.395
10433SOL     OW32197   2.063   0.177   1.402
10433SOL    HW132198   2.041   0.274   1.397
10433SOL    HW232199   2.023   0.137   1.484
10434SOL     OW32200   4.829   0.779   5.858
10434SOL    HW132201   4.841   0.822   5.947
10434SOL    HW232202   4.852   0.682   5.865
10435SOL     OW32203   1.030   2.282   6.328
10435SOL    HW132204   1.100   2.314   6.265
10435SOL    HW232205   1.064   2.288   6.422
10436SOL     OW32206   0.173   3.967   5.525
10436SOL    HW132207   0.190   4.057   5.485
10436SOL    HW232208   0.184   3.896   5.455
10437SOL     OW32209   5.079   5.651   5.091
10437SOL    HW132210   5.026   5.582   5.142
10437SOL    HW232211   5.165   5.610   5.061
10438SOL     OW32212   6.958   6.512   6.820
10438SOL    HW132213   0.006   6.579   6.836
10438SOL    HW232214   6.921   6.480   6.907
10439SOL     OW32215   6.519   0.398   4.341
10439SOL    HW132216   6.514   0.305   4.304
10439SOL    HW232217   6.591   0.448   4.294
10440SOL     OW32218   0.047   1.317   0.193
10440SOL    HW132219   0.022   1.378   0.118
10440SOL    HW232220   0.054   1.370   0.278
10441SOL     OW32221   3.260   1.427   1.346
10441SOL    HW132222   3.206   1.387   1.421
10441SOL    HW232223   3.316   1.355   1.305
10442SOL     OW32224   2.957   0.761   5.380
10442SOL    HW132225   3.022   0.769   5.304
10442SOL    HW232226   2.987   0.689   5.442
10443SOL     OW32227   0.380   1.971   3.440
10443SOL    HW132228   0.470   1.973   3.396
10443SOL    HW232229   0.342   1.878   3.434
10444SOL     OW32230   3.420   5.073   3.779
10444SOL    HW132231   3.321   5.058   3.779
10444SOL    HW232232   3.450   5.104   3.689
10445SOL     OW32233   0.813   3.927   2.424
10445SOL    HW132234   0.875   3.862   2.380
10445SOL    HW232235   0.729   3.934   2.370
10446SOL     OW32236   1.930   4.048   5.560
10446SOL    HW132237   1.857   4.090   5.507
10446SOL    HW232238   1.932   3.950   5.542
10447SOL     OW32239   6.373   2.355   3.378
10447SOL    HW132240   6.373   2.287   3.304
10447SOL    HW232241   6.394   2.445   3.339
10448SOL     OW32242   2.834   0.489   3.630
10448SOL    HW132243   2.802   0.516   3.721
10448SOL    HW232244   2.822   0.390   3.618
10449SOL     OW32245   3.555   5.557   6.918
10449SOL    HW132246   3.593   5.465   6.932
10449SOL    HW232247   3.549   5.576   6.821
10450SOL     OW32248   6.320   0.173   6.428
10450SOL    HW132249   6.362   0.100   6.374
10450SOL    HW232250   6.390   0.240   6.454
10451SOL     OW32251   1.477   0.848   4.321
10451SOL    HW132252   1.414   0.781   4.361
10451SOL    HW232253   1.541   0.880   4.391
10452SOL     OW32254   6.486   3.251   3.164
10452SOL    HW132255   6.405   3.196   3.183
10452SOL    HW232256   6.568   3.198   3.185
10453SOL     OW32257   4.258   6.241   3.202
10453SOL    HW132258   4.272   6.283   3.112
10453SOL    HW232259   4.182   6.175   3.196
10454SOL     OW32260   6.867   1.371   6.650
10454SOL    HW132261   6.906   1.412   6.732
10454SOL    HW232262   6.803   1.435   6.607
10455SOL     OW32263   5.878   6.612   4.427
10455SOL    HW132264   5.939   6.689   4.415
10455SOL    HW232265   5.800   6.639   4.483
10456SOL     OW32266   6.576   5.556   0.139
10456SOL    HW132267   6.510   5.530   0.069
10456SOL    HW232268   6.573   5.655   0.152
10457SOL     OW32269   4.175   3.309   6.920
10457SOL    HW132270   4.233   3.227   6.912
10457SOL    HW232271   4.110   3.311   6.845
10458SOL     OW32272   6.898   6.969   6.198
10458SOL    HW132273   6.830   6.960   6.126
10458SOL    HW232274   6.854   7.000   6.283
10459SOL     OW32275   6.941   5.005   0.753
10459SOL    HW132276   6.847   5.040   0.757
10459SOL    HW232277   6.950   4.945   0.674
10460SOL     OW32278   6.890   4.382   1.349
10460SOL    HW132279   6.893   4.479   1.323
10460SOL    HW232280   6.870   4.327   1.268
10461SOL     OW32281   6.655   5.177   5.312
10461SOL    HW132282   6.754   5.182   5.326
10461SOL    HW232283   6.623   5.262   5.268
10462SOL     OW32284   5.035   1.683   1.612
10462SOL    HW132285   5.076   1.665   1.702
10462SOL    HW232286   5.078   1.624   1.544
10463SOL     OW32287   4.518   2.278   6.181
10463SOL    HW132288   4.471   2.227   6.253
10463SOL    HW232289   4.455   2.344   6.140
10464SOL     OW32290   5.188   5.133   2.459
10464SOL    HW132291   5.153   5.211   2.509
10464SOL    HW232292   5.288   5.134   2.460
10465SOL     OW32293   5.353   4.104   2.428
10465SOL    HW132294   5.451   4.098   2.445
10465SOL    HW232295   5.326   4.034   2.362
10466SOL     OW32296   5.661   4.329   5.802
10466SOL    HW132297   5.724   4.374   5.739
10466SOL    HW232298   5.589   4.393   5.828
10467SOL     OW32299   1.868   2.582   6.954
10467SOL    HW132300   1.855   2.489   6.920
10467SOL    HW232301   1.965   2.596   6.976
10468SOL     OW32302   2.897   4.763   3.710
10468SOL    HW132303   2.995   4.756   3.728
10468SOL    HW232304   2.882   4.802   3.619
10469SOL     OW32305   5.567   2.552   5.728
10469SOL    HW132306   5.594   2.516   5.638
10469SOL    HW232307   5.472   2.529   5.746
10470SOL     OW32308   2.363   1.816   3.869
10470SOL    HW132309   2.460   1.839   3.877
10470SOL    HW232310   2.311   1.898   3.847
10471SOL     OW32311   2.417   0.780   0.007
10471SOL    HW132312   2.433   0.760   6.934
10471SOL    HW232313   2.504   0.785   0.055
10472SOL     OW32314   3.474   4.953   0.813
10472SOL    HW132315   3.386   5.000   0.804
10472SOL    HW232316   3.484   4.918   0.906
10473SOL     OW32317   5.367   5.911   6.529
10473SOL    HW132318   5.391   5.844   6.599
10473SOL    HW232319   5.278   5.888   6.489
10474SOL     OW32320   4.980   1.419   3.750
10474SOL    HW132321   4.974   1.452   3.656
10474SOL    HW232322   4.970   1.496   3.813
10475SOL     OW32323   2.330   6.320   1.871
10475SOL    HW132324   2.392   6.301   1.795
10475SOL    HW232325   2.382   6.325   1.956
10476SOL     OW32326   4.120   6.266   6.389
10476SOL    HW132327   4.049   6.195   6.399
10476SOL    HW232328   4.099   6.343   6.449
10477SOL     OW32329   0.334   6.033   4.116
10477SOL    HW132330   0.367   6.043   4.022
10477SOL    HW232331   0.318   6.124   4.155
10478SOL     OW32332   6.346   7.013   0.147
10478SOL    HW132333   6.356   0.023   0.241
10478SOL    HW232334   6.285   6.934   0.147
10479SOL     OW32335   6.514   2.905   2.166
10479SOL    HW132336   6.533   2.997   2.132
10479SOL    HW232337   6.500   2.909   2.265
10480SOL     OW32338   1.786   0.428   2.380
10480SOL    HW132339   1.775   0.420   2.281
10480SOL    HW232340   1.806   0.523   2.404
10481SOL     OW32341   0.822   6.554   2.975
10481SOL    HW132342   0.724   6.532   2.973
10481SOL    HW232343   0.839   6.634   2.917
10482SOL     OW32344   6.196   4.400   4.638
10482SOL    HW132345   6.256   4.436   4.565
10482SOL    HW232346   6.218   4.304   4.654
10483SOL     OW32347   5.416   5.141   0.279
10483SOL    HW132348   5.369   5.214   0.328
10483SOL    HW232349   5.486   5.180   0.219
10484SOL     OW32350   5.178   1.271   1.059
10484SOL    HW132351   5.267   1.226   1.058
10484SOL    HW232352   5.180   1.348   1.123
10485SOL     OW32353   4.061   4.603   6.319
10485SOL    HW132354   4.146   4.630   6.273
10485SOL    HW232355   4.083   4.544   6.396
10486SOL     OW32356   6.767   2.469   0.387
10486SOL    HW132357   6.676   2.510   0.395
10486SOL    HW232358   6.760   2.384   0.335
10487SOL     OW32359   5.599   6.791   2.231
10487SOL    HW132360   5.627   6.701   2.197
10487SOL    HW232361   5.665   6.860   2.202
10488SOL     OW32362   2.696   3.476   6.765
10488SOL    HW132363   2.645   3.558   6.738
10488SOL    HW232364   2.780   3.504   6.812
10489SOL     OW32365   0.312   6.761   6.075
10489SOL    HW132366   0.323   6.664   6.096
10489SOL    HW232367   0.217   6.788   6.089
10490SOL     OW32368   6.353   1.376   2.903
10490SOL    HW132369   6.364   1.313   2.981
10490SOL    HW232370   6.328   1.323   2.822
10491SOL     OW32371   1.667   3.390   6.560
10491SOL    HW132372   1.585   3.343   6.528
10491SOL    HW232373   1.738   3.387   6.489
10492SOL     OW32374   5.072   3.930   5.552
10492SOL    HW132375   5.131   3.902   5.476
10492SOL    HW232376   4.977   3.933   5.521
10493SOL     OW32377   3.469   0.662   1.544
10493SOL    HW132378   3.435   0.579   1.590
10493SOL    HW232379   3.451   0.741   1.603
10494SOL     OW32380   5.625   2.338   5.155
10494SOL    HW132381   5.580   2.310   5.240
10494SOL    HW232382   5.656   2.257   5.105
10495SOL     OW32383   1.533   6.913   1.051
10495SOL    HW132384   1.478   6.895   1.133
10495SOL    HW232385   1.627   6.883   1.066
10496SOL     OW32386   0.265   6.847   0.511
10496SOL    HW132387   0.332   6.830   0.439
10496SOL    HW232388   0.279   6.781   0.585
10497SOL     OW32389   1.819   0.050   0.833
10497SOL    HW132390   1.820   0.081   0.738
10497SOL    HW232391   1.749   7.003   0.844
10498SOL     OW32392   2.775   6.510   0.767
10498SOL    HW132393   2.743   6.492   0.674
10498SOL    HW232394   2.871   6.538   0.764
10499SOL     OW32395   2.666   6.718   2.499
10499SOL    HW132396   2.729   6.656   2.545
10499SOL    HW232397   2.573   6.700   2.529
10500SOL     OW32398   0.509   0.931   5.573
10500SOL    HW132399   0.447   0.990   5.625
10500SOL    HW232400   0.527   0.972   5.484
10501SOL     OW32401   1.810   5.358   3.447
10501SOL    HW132402   1.890   5.320   3.402
10501SOL    HW232403   1.824   5.455   3.466
10502SOL     OW32404   3.267   6.679   1.301
10502SOL    HW132405   3.183   6.625   1.308
10502SOL    HW232406   3.282   6.704   1.205
10503SOL     OW32407   4.480   2.656   0.519
10503SOL    HW132408   4.574   2.623   0.522
10503SOL    HW232409   4.453   2.688   0.610
10504SOL     OW32410   1.948   2.618   0.581
10504SOL    HW132411   2.032   2.598   0.632
10504SOL    HW232412   1.887   2.540   0.586
10505SOL     OW32413   5.751   6.090   0.549
10505SOL    HW132414   5.803   6.175   0.559
10505SOL    HW232415   5.758   6.058   0.454
10506SOL     OW32416   0.604   4.899   6.320
10506SOL    HW132417   0.530   4.838   6.291
10506SOL    HW232418   0.669   4.847   6.375
10507SOL     OW32419   1.866   6.320   0.452
10507SOL    HW132420   1.817   6.241   0.487
10507SOL    HW232421   1.808   6.401   0.459
10508SOL     OW32422   5.792   5.728   4.324
10508SOL    HW132423   5.718   5.762   4.266
10508SOL    HW232424   5.792   5.777   4.411
10509SOL     OW32425   0.960   6.765   5.992
10509SOL    HW132426   0.893   6.783   5.920
10509SOL    HW232427   0.917   6.771   6.082
10510SOL     OW32428   5.789   4.956   5.736
10510SOL    HW132429   5.769   4.959   5.639
10510SOL    HW232430   5.888   4.954   5.750
10511SOL     OW32431   4.364   2.730   0.776
10511SOL    HW132432   4.317   2.647   0.808
10511SOL    HW232433   4.318   2.811   0.813
10512SOL     OW32434   3.717   0.857   6.545
10512SOL    HW132435   3.801   0.865   6.598
10512SOL    HW232436   3.738   0.850   6.448
10513SOL     OW32437   7.019   2.427   5.859
10513SOL    HW132438   0.085   2.423   5.815
10513SOL    HW232439   7.017   2.504   5.923
10514SOL     OW32440   6.673   3.664   0.026
10514SOL    HW132441   6.706   3.570   0.027
10514SOL    HW232442   6.730   3.720   0.088
10515SOL     OW32443   5.938   2.773   3.139
10515SOL    HW132444   5.928   2.872   3.127
10515SOL    HW232445   5.866   2.726   3.088
10516SOL     OW32446   4.941   1.129   6.635
10516SOL    HW132447   4.929   1.202   6.702
10516SOL    HW232448   5.034   1.093   6.642
10517SOL     OW32449   0.788   2.273   2.500
10517SOL    HW132450   0.873   2.275   2.552
10517SOL    HW232451   0.734   2.193   2.526
10518SOL     OW32452   1.054   4.884   0.213
10518SOL    HW132453   1.045   4.880   0.113
10518SOL    HW232454   0.970   4.851   0.255
10519SOL     OW32455   3.165   2.391   5.769
10519SOL    HW132456   3.173   2.471   5.829
10519SOL    HW232457   3.233   2.397   5.696
10520SOL     OW32458   2.432   2.670   6.783
10520SOL    HW132459   2.442   2.642   6.879
10520SOL    HW232460   2.379   2.754   6.779
10521SOL     OW32461   6.641   5.847   1.350
10521SOL    HW132462   6.590   5.859   1.436
10521SOL    HW232463   6.581   5.868   1.273
10522SOL     OW32464   6.122   0.570   0.487
10522SOL    HW132465   6.154   0.633   0.417
10522SOL    HW232466   6.034   0.531   0.460
10523SOL     OW32467   0.431   6.069   4.551
10523SOL    HW132468   0.475   6.108   4.470
10523SOL    HW232469   0.501   6.049   4.620
10524SOL     OW32470   1.798   1.052   5.150
10524SOL    HW132471   1.820   0.964   5.107
10524SOL    HW232472   1.755   1.112   5.082
10525SOL     OW32473   2.737   6.688   5.479
10525SOL    HW132474   2.772   6.594   5.472
10525SOL    HW232475   2.723   6.711   5.575
10526SOL     OW32476   0.562   0.505   2.841
10526SOL    HW132477   0.489   0.572   2.857
10526SOL    HW232478   0.615   0.533   2.761
10527SOL     OW32479   1.393   2.686   3.866
10527SOL    HW132480   1.459   2.760   3.876
10527SOL    HW232481   1.422   2.625   3.792
10528SOL     OW32482   1.236   4.064   5.364
10528SOL    HW132483   1.314   4.025   5.413
10528SOL    HW232484   1.177   4.112   5.429
10529SOL     OW32485   1.142   5.683   2.964
10529SOL    HW132486   1.134   5.585   2.980
10529SOL    HW232487   1.212   5.722   3.024
10530SOL     OW32488   1.889   1.216   6.269
10530SOL    HW132489   1.817   1.271   6.226
10530SOL    HW232490   1.909   1.137   6.212
10531SOL     OW32491   1.688   3.489   4.519
10531SOL    HW132492   1.703   3.410   4.578
10531SOL    HW232493   1.653   3.459   4.430
10532SOL     OW32494   2.451   3.144   0.651
10532SOL    HW132495   2.406   3.210   0.711
10532SOL    HW232496   2.454   3.180   0.558
10533SOL     OW32497   3.118   1.717   4.129
10533SOL    HW132498   3.106   1.649   4.056
10533SOL    HW232499   3.119   1.809   4.089
10534SOL     OW32500   0.265   5.923   0.737
10534SOL    HW132501   0.199   5.856   0.772
10534SOL    HW232502   0.335   5.875   0.684
10535SOL     OW32503   0.256   2.567   2.351
10535SOL    HW132504   0.186   2.602   2.414
10535SOL    HW232505   0.277   2.638   2.283
10536SOL     OW32506   3.892   0.419   3.037
10536SOL    HW132507   3.838   0.481   3.094
10536SOL    HW232508   3.841   0.398   2.953
10537SOL     OW32509   3.223   5.337   3.126
10537SOL    HW132510   3.151   5.315   3.060
10537SOL    HW232511   3.311   5.306   3.091
10538SOL     OW32512   4.784   3.087   6.528
10538SOL    HW132513   4.831   3.011   6.574
10538SOL    HW232514   4.845   3.125   6.458
10539SOL     OW32515   0.751   4.164   6.328
10539SOL    HW132516   0.735   4.232   6.256
10539SOL    HW232517   0.683   4.177   6.400
10540SOL     OW32518   1.756   0.787   5.771
10540SOL    HW132519   1.676   0.807   5.714
10540SOL    HW232520   1.812   0.870   5.780
10541SOL     OW32521   3.537   3.814   1.822
10541SOL    HW132522   3.631   3.793   1.848
10541SOL    HW232523   3.484   3.838   1.904
10542SOL     OW32524   0.019   1.329   0.538
10542SOL    HW132525   0.052   1.409   0.488
10542SOL    HW232526   0.033   1.342   0.636
10543SOL     OW32527   0.589   0.973   5.277
10543SOL    HW132528   0.519   0.964   5.206
10543SOL    HW232529   0.620   1.068   5.281
10544SOL     OW32530   2.170   1.232   2.729
10544SOL    HW132531   2.072   1.236   2.750
10544SOL    HW232532   2.182   1.211   2.632
10545SOL     OW32533   6.701   6.906   2.721
10545SOL    HW132534   6.772   6.847   2.760
10545SOL    HW232535   6.650   6.950   2.794
10546SOL     OW32536   1.018   0.437   5.611
10546SOL    HW132537   1.026   0.345   5.573
10546SOL    HW232538   0.927   0.474   5.591
10547SOL     OW32539   4.594   1.799   2.303
10547SOL    HW132540   4.501   1.795   2.340
10547SOL    HW232541   4.648   1.722   2.338
10548SOL     OW32542   5.143   3.893   4.833
10548SOL    HW132543   5.169   3.976   4.783
10548SOL    HW232544   5.065   3.851   4.787
10549SOL     OW32545   6.404   0.575   2.613
10549SOL    HW132546   6.321   0.524   2.634
10549SOL    HW232547   6.430   0.557   2.518
10550SOL     OW32548   4.439   6.577   3.888
10550SOL    HW132549   4.449   6.675   3.869
10550SOL    HW232550   4.504   6.551   3.959
10551SOL     OW32551   1.588   2.530   5.063
10551SOL    HW132552   1.563   2.448   5.012
10551SOL    HW232553   1.612   2.603   4.999
10552SOL     OW32554   3.637   2.050   5.487
10552SOL    HW132555   3.540   2.036   5.504
10552SOL    HW232556   3.652   2.072   5.391
10553SOL     OW32557   1.077   5.010   1.658
10553SOL    HW132558   1.080   5.100   1.614
10553SOL    HW232559   1.005   4.955   1.616
10554SOL     OW32560   5.239   4.958   6.629
10554SOL    HW132561   5.278   4.901   6.557
10554SOL    HW232562   5.250   4.913   6.717
10555SOL     OW32563   2.690   2.198   1.551
10555SOL    HW132564   2.703   2.210   1.452
10555SOL    HW232565   2.764   2.244   1.600
10556SOL     OW32566   1.968   3.122   5.362
10556SOL    HW132567   1.907   3.086   5.292
10556SOL    HW232568   1.999   3.048   5.421
10557SOL     OW32569   1.208   2.342   3.292
10557SOL    HW132570   1.172   2.319   3.382
10557SOL    HW232571   1.195   2.439   3.274
10558SOL     OW32572   3.997   0.118   5.095
10558SOL    HW132573   4.061   0.042   5.104
10558SOL    HW232574   4.031   0.183   5.026
10559SOL     OW32575   3.883   1.247   0.867
10559SOL    HW132576   3.932   1.232   0.781
10559SOL    HW232577   3.925   1.191   0.939
10560SOL     OW32578   2.191   5.453   4.432
10560SOL    HW132579   2.154   5.444   4.524
10560SOL    HW232580   2.120   5.426   4.366
10561SOL     OW32581   2.364   4.865   0.297
10561SOL    HW132582   2.446   4.819   0.331
10561SOL    HW232583   2.370   4.872   0.197
10562SOL     OW32584   5.150   6.977   0.493
10562SOL    HW132585   5.223   6.969   0.425
10562SOL    HW232586   5.178   0.017   0.565
10563SOL     OW32587   2.013   1.086   4.387
10563SOL    HW132588   2.074   1.151   4.432
10563SOL    HW232589   2.067   1.014   4.343
10564SOL     OW32590   6.094   0.146   2.014
10564SOL    HW132591   6.138   0.126   2.101
10564SOL    HW232592   6.095   0.245   1.999
10565SOL     OW32593   0.651   0.622   5.774
10565SOL    HW132594   0.667   0.713   5.736
10565SOL    HW232595   0.718   0.602   5.845
10566SOL     OW32596   4.261   3.559   7.010
10566SOL    HW132597   4.359   3.541   7.019
10566SOL    HW232598   4.215   3.476   6.978
10567SOL     OW32599   2.035   3.398   3.921
10567SOL    HW132600   1.967   3.334   3.887
10567SOL    HW232601   2.060   3.373   4.015
10568SOL     OW32602   5.681   1.298   1.725
10568SOL    HW132603   5.599   1.286   1.669
10568SOL    HW232604   5.755   1.243   1.688
10569SOL     OW32605   6.599   3.163   2.059
10569SOL    HW132606   6.513   3.176   2.010
10569SOL    HW232607   6.641   3.252   2.077
10570SOL     OW32608   1.835   5.218   2.510
10570SOL    HW132609   1.740   5.216   2.542
10570SOL    HW232610   1.867   5.125   2.497
10571SOL     OW32611   6.582   5.594   4.009
10571SOL    HW132612   6.624   5.527   4.071
10571SOL    HW232613   6.507   5.550   3.959
10572SOL     OW32614   6.056   3.596   3.253
10572SOL    HW132615   6.150   3.593   3.285
10572SOL    HW232616   6.036   3.515   3.198
10573SOL     OW32617   5.664   6.104   3.163
10573SOL    HW132618   5.712   6.161   3.096
10573SOL    HW232619   5.565   6.112   3.148
10574SOL     OW32620   1.532   1.692   3.824
10574SOL    HW132621   1.447   1.729   3.787
10574SOL    HW232622   1.594   1.768   3.847
10575SOL     OW32623   0.138   0.840   3.824
10575SOL    HW132624   0.160   0.898   3.902
10575SOL    HW232625   0.138   0.896   3.741
10576SOL     OW32626   1.229   6.591   5.303
10576SOL    HW132627   1.238   6.561   5.398
10576SOL    HW232628   1.272   6.524   5.243
10577SOL     OW32629   1.332   3.005   6.524
10577SOL    HW132630   1.430   2.990   6.512
10577SOL    HW232631   1.291   2.923   6.564
10578SOL     OW32632   6.526   0.130   4.020
10578SOL    HW132633   6.488   0.140   4.112
10578SOL    HW232634   6.600   0.196   4.007
10579SOL     OW32635   3.921   1.735   0.359
10579SOL    HW132636   3.853   1.680   0.409
10579SOL    HW232637   4.004   1.680   0.344
10580SOL     OW32638   6.604   6.915   0.276
10580SOL    HW132639   6.578   6.951   0.186
10580SOL    HW232640   6.694   6.949   0.301
10581SOL     OW32641   5.746   6.897   2.625
10581SOL    HW132642   5.714   6.802   2.629
10581SOL    HW232643   5.673   6.958   2.656
10582SOL     OW32644   3.597   4.599   6.099
10582SOL    HW132645   3.612   4.501   6.112
10582SOL    HW232646   3.669   4.650   6.147
10583SOL     OW32647   3.999   1.006   6.182
10583SOL    HW132648   4.077   0.953   6.147
10583SOL    HW232649   3.937   0.944   6.231
10584SOL     OW32650   5.553   6.643   1.060
10584SOL    HW132651   5.461   6.658   1.025
10584SOL    HW232652   5.595   6.731   1.083
10585SOL     OW32653   1.453   3.041   5.508
10585SOL    HW132654   1.492   3.038   5.601
10585SOL    HW232655   1.527   3.051   5.442
10586SOL     OW32656   1.378   5.799   5.604
10586SOL    HW132657   1.416   5.858   5.532
10586SOL    HW232658   1.314   5.852   5.659
10587SOL     OW32659   6.095   3.639   0.294
10587SOL    HW132660   6.057   3.662   0.205
10587SOL    HW232661   6.032   3.579   0.343
10588SOL     OW32662   1.296   3.926   2.221
10588SOL    HW132663   1.389   3.961   2.208
10588SOL    HW232664   1.232   3.983   2.170
10589SOL     OW32665   5.469   1.390   4.321
10589SOL    HW132666   5.503   1.339   4.401
10589SOL    HW232667   5.506   1.349   4.238
10590SOL     OW32668   1.680   0.152   2.129
10590SOL    HW132669   1.677   0.100   2.044
10590SOL    HW232670   1.690   0.250   2.108
10591SOL     OW32671   1.452   1.450   5.622
10591SOL    HW132672   1.401   1.411   5.699
10591SOL    HW232673   1.533   1.497   5.655
10592SOL     OW32674   4.941   2.482   0.354
10592SOL    HW132675   4.886   2.403   0.326
10592SOL    HW232676   5.038   2.456   0.354
10593SOL     OW32677   2.951   5.666   1.124
10593SOL    HW132678   2.885   5.740   1.132
10593SOL    HW232679   3.002   5.658   1.209
10594SOL     OW32680   5.826   1.831   3.659
10594SOL    HW132681   5.852   1.814   3.754
10594SOL    HW232682   5.907   1.825   3.601
10595SOL     OW32683   3.063   0.451   5.784
10595SOL    HW132684   3.145   0.399   5.759
10595SOL    HW232685   3.055   0.455   5.883
10596SOL     OW32686   4.327   6.944   1.722
10596SOL    HW132687   4.311   0.016   1.745
10596SOL    HW232688   4.276   6.885   1.785
10597SOL     OW32689   2.676   1.169   4.190
10597SOL    HW132690   2.725   1.196   4.272
10597SOL    HW232691   2.737   1.118   4.129
10598SOL     OW32692   2.762   2.231   6.901
10598SOL    HW132693   2.826   2.224   6.824
10598SOL    HW232694   2.787   2.163   6.971
10599SOL     OW32695   5.407   1.290   0.453
10599SOL    HW132696   5.312   1.285   0.484
10599SOL    HW232697   5.412   1.336   0.364
10600SOL     OW32698   2.374   3.082   0.182
10600SOL    HW132699   2.339   3.169   0.147
10600SOL    HW232700   2.400   3.024   0.105
10601SOL     OW32701   2.290   4.958   6.240
10601SOL    HW132702   2.364   4.901   6.205
10601SOL    HW232703   2.324   5.051   6.258
10602SOL     OW32704   5.039   1.813   2.336
10602SOL    HW132705   5.106   1.812   2.410
10602SOL    HW232706   4.950   1.841   2.371
10603SOL     OW32707   1.900   5.974   3.202
10603SOL    HW132708   1.914   6.006   3.109
10603SOL    HW232709   1.858   6.047   3.256
10604SOL     OW32710   5.767   4.296   4.434
10604SOL    HW132711   5.742   4.262   4.344
10604SOL    HW232712   5.831   4.372   4.424
10605SOL     OW32713   0.611   5.358   6.640
10605SOL    HW132714   0.670   5.295   6.690
10605SOL    HW232715   0.601   5.327   6.545
10606SOL     OW32716   6.157   0.672   1.838
10606SOL    HW132717   6.174   0.743   1.907
10606SOL    HW232718   6.066   0.634   1.852
10607SOL     OW32719   3.938   3.805   5.731
10607SOL    HW132720   3.997   3.734   5.693
10607SOL    HW232721   3.975   3.835   5.819
10608SOL     OW32722   5.757   2.092   4.996
10608SOL    HW132723   5.700   2.015   5.026
10608SOL    HW232724   5.798   2.070   4.908
10609SOL     OW32725   3.391   5.633   1.364
10609SOL    HW132726   3.419   5.697   1.436
10609SOL    HW232727   3.460   5.633   1.292
10610SOL     OW32728   1.129   4.244   0.031
10610SOL    HW132729   1.095   4.326   7.006
10610SOL    HW232730   1.073   4.165   0.005
10611SOL     OW32731   5.801   3.174   0.080
10611SOL    HW132732   5.882   3.208   0.032
10611SOL    HW232733   5.820   3.166   0.177
10612SOL     OW32734   2.408   6.317   5.935
10612SOL    HW132735   2.354   6.374   5.872
10612SOL    HW232736   2.470   6.375   5.988
10613SOL     OW32737   0.082   6.916   5.980
10613SOL    HW132738   0.032   6.965   6.051
10613SOL    HW232739   0.042   6.825   5.967
10614SOL     OW32740   0.108   1.448   4.109
10614SOL    HW132741   0.050   1.456   4.028
10614SOL    HW232742   0.090   1.524   4.171
10615SOL     OW32743   4.367   5.739   5.500
10615SOL    HW132744   4.362   5.640   5.491
10615SOL    HW232745   4.319   5.768   5.583
10616SOL     OW32746   3.133   6.530   0.156
10616SOL    HW132747   3.164   6.479   0.076
10616SOL    HW232748   3.036   6.552   0.146
10617SOL     OW32749   1.777   2.143   0.827
10617SOL    HW132750   1.844   2.075   0.801
10617SOL    HW232751   1.819   2.234   0.826
10618SOL     OW32752   6.201   2.597   0.205
10618SOL    HW132753   6.203   2.627   0.110
10618SOL    HW232754   6.118   2.631   0.249
10619SOL     OW32755   0.427   3.867   2.497
10619SOL    HW132756   0.476   3.860   2.411
10619SOL    HW232757   0.382   3.781   2.518
10620SOL     OW32758   0.895   5.473   5.678
10620SOL    HW132759   0.801   5.446   5.656
10620SOL    HW232760   0.948   5.482   5.593
10621SOL     OW32761   1.335   5.863   0.358
10621SOL    HW132762   1.415   5.922   0.366
10621SOL    HW232763   1.259   5.914   0.319
10622SOL     OW32764   4.349   0.846   2.108
10622SOL    HW132765   4.410   0.920   2.140
10622SOL    HW232766   4.255   0.880   2.104
10623SOL     OW32767   5.683   2.845   4.046
10623SOL    HW132768   5.615   2.831   4.118
10623SOL    HW232769   5.674   2.772   3.978
10624SOL     OW32770   0.805   1.223   4.967
10624SOL    HW132771   0.716   1.267   4.969
10624SOL    HW232772   0.801   1.136   5.017
10625SOL     OW32773   0.567   4.289   6.958
10625SOL    HW132774   0.654   4.339   6.954
10625SOL    HW232775   0.493   4.352   6.982
10626SOL     OW32776   1.078   2.491   1.501
10626SOL    HW132777   1.027   2.508   1.585
10626SOL    HW232778   1.069   2.394   1.476
10627SOL     OW32779   5.805   6.090   2.894
10627SOL    HW132780   5.871   6.154   2.857
10627SOL    HW232781   5.843   5.998   2.894
10628SOL     OW32782   5.422   5.117   5.396
10628SOL    HW132783   5.384   5.027   5.374
10628SOL    HW232784   5.388   5.184   5.330
10629SOL     OW32785   2.575   4.621   5.439
10629SOL    HW132786   2.527   4.582   5.361
10629SOL    HW232787   2.517   4.690   5.483
10630SOL     OW32788   6.290   0.732   3.419
10630SOL    HW132789   6.239   0.646   3.422
10630SOL    HW232790   6.312   0.754   3.324
10631SOL     OW32791   1.187   6.050   4.552
10631SOL    HW132792   1.147   6.050   4.644
10631SOL    HW232793   1.255   6.123   4.545
10632SOL     OW32794   6.040   2.372   4.315
10632SOL    HW132795   5.996   2.461   4.300
10632SOL    HW232796   6.068   2.365   4.411
10633SOL     OW32797   2.764   4.119   1.111
10633SOL    HW132798   2.719   4.091   1.196
10633SOL    HW232799   2.694   4.146   1.044
10634SOL     OW32800   2.986   5.492   0.028
10634SOL    HW132801   3.010   5.458   0.119
10634SOL    HW232802   2.888   5.478   0.013
10635SOL     OW32803   3.045   0.843   1.226
10635SOL    HW132804   3.134   0.841   1.180
10635SOL    HW232805   2.980   0.788   1.174
10636SOL     OW32806   0.826   2.002   1.948
10636SOL    HW132807   0.817   2.069   2.022
10636SOL    HW232808   0.868   1.919   1.983
10637SOL     OW32809   3.645   4.052   5.572
10637SOL    HW132810   3.566   4.106   5.598
10637SOL    HW232811   3.708   4.109   5.518
10638SOL     OW32812   0.303   6.422   3.026
10638SOL    HW132813   0.216   6.463   3.055
10638SOL    HW232814   0.358   6.491   2.979
10639SOL     OW32815   1.031   1.757   3.833
10639SOL    HW132816   1.025   1.693   3.756
10639SOL    HW232817   0.955   1.821   3.830
10640SOL     OW32818   4.318   6.992   6.982
10640SOL    HW132819   4.402   0.019   7.005
10640SOL    HW232820   4.338   6.894   6.980
10641SOL     OW32821   4.460   1.693   0.123
10641SOL    HW132822   4.482   1.746   0.041
10641SOL    HW232823   4.413   1.609   0.096
10642SOL     OW32824   0.483   2.728   1.554
10642SOL    HW132825   0.476   2.793   1.479
10642SOL    HW232826   0.540   2.651   1.525
10643SOL     OW32827   2.387   3.558   5.853
10643SOL    HW132828   2.375   3.527   5.948
10643SOL    HW232829   2.478   3.598   5.842
10644SOL     OW32830   4.497   2.059   4.004
10644SOL    HW132831   4.461   1.965   4.006
10644SOL    HW232832   4.547   2.073   3.918
10645SOL     OW32833   0.853   1.103   4.238
10645SOL    HW132834   0.883   1.150   4.321
10645SOL    HW232835   0.824   1.170   4.170
10646SOL     OW32836   0.590   1.849   6.236
10646SOL    HW132837   0.615   1.781   6.167
10646SOL    HW232838   0.650   1.928   6.228
10647SOL     OW32839   5.771   5.237   6.372
10647SOL    HW132840   5.755   5.296   6.292
10647SOL    HW232841   5.685   5.193   6.399
10648SOL     OW32842   5.377   3.681   6.324
10648SOL    HW132843   5.402   3.715   6.415
10648SOL    HW232844   5.397   3.583   6.318
10649SOL     OW32845   0.076   4.488   4.426
10649SOL    HW132846   0.105   4.419   4.360
10649SOL    HW232847   0.090   4.579   4.387
10650SOL     OW32848   1.397   6.413   3.874
10650SOL    HW132849   1.406   6.323   3.832
10650SOL    HW232850   1.443   6.481   3.816
10651SOL     OW32851   4.320   6.879   5.439
10651SOL    HW132852   4.397   6.845   5.493
10651SOL    HW232853   4.270   6.801   5.400
10652SOL     OW32854   3.420   0.211   6.441
10652SOL    HW132855   3.341   0.226   6.499
10652SOL    HW232856   3.447   0.114   6.446
10653SOL     OW32857   5.097   4.624   4.664
10653SOL    HW132858   4.998   4.638   4.658
10653SOL    HW232859   5.122   4.543   4.611
10654SOL     OW32860   3.213   6.809   1.787
10654SOL    HW132861   3.120   6.801   1.751
10654SOL    HW232862   3.278   6.811   1.711
10655SOL     OW32863   3.023   5.273   1.924
10655SOL    HW132864   2.962   5.316   1.991
10655SOL    HW232865   2.972   5.203   1.874
10656SOL     OW32866   6.487   2.540   6.827
10656SOL    HW132867   6.421   2.610   6.857
10656SOL    HW232868   6.508   2.479   6.903
10657SOL     OW32869   5.979   6.622   0.773
10657SOL    HW132870   5.994   6.551   0.842
10657SOL    HW232871   6.048   6.693   0.783
10658SOL     OW32872   0.423   4.335   4.996
10658SOL    HW132873   0.410   4.265   4.926
10658SOL    HW232874   0.442   4.423   4.953
10659SOL     OW32875   5.878   0.145   0.907
10659SOL    HW132876   5.938   0.081   0.955
10659SOL    HW232877   5.928   0.230   0.889
10660SOL     OW32878   4.987   4.059   5.955
10660SOL    HW132879   4.939   3.972   5.940
10660SOL    HW232880   4.938   4.112   6.024
10661SOL     OW32881   0.266   6.716   2.552
10661SOL    HW132882   0.185   6.677   2.596
10661SOL    HW232883   0.316   6.772   2.619
10662SOL     OW32884   6.467   0.940   1.151
10662SOL    HW132885   6.399   0.984   1.092
10662SOL    HW232886   6.495   0.853   1.110
10663SOL     OW32887   1.044   0.476   1.368
10663SOL    HW132888   0.989   0.411   1.421
10663SOL    HW232889   1.084   0.430   1.290
10664SOL     OW32890   1.941   3.997   6.487
10664SOL    HW132891   1.910   3.970   6.396
10664SOL    HW232892   1.873   4.056   6.530
10665SOL     OW32893   1.586   1.119   0.109
10665SOL    HW132894   1.634   1.176   0.043
10665SOL    HW232895   1.527   1.054   0.061
10666SOL     OW32896   3.588   4.745   0.038
10666SOL    HW132897   3.608   4.699   0.124
10666SOL    HW232898   3.504   4.708   7.022
10667SOL     OW32899   4.144   1.801   5.787
10667SOL    HW132900   4.126   1.703   5.795
10667SOL    HW232901   4.058   1.852   5.795
10668SOL     OW32902   1.507   2.087   5.931
10668SOL    HW132903   1.599   2.072   5.967
10668SOL    HW232904   1.447   2.116   6.005
10669SOL     OW32905   0.731   0.073   0.925
10669SOL    HW132906   0.666   0.146   0.947
10669SOL    HW232907   0.764   0.031   1.010
10670SOL     OW32908   5.576   4.574   5.923
10670SOL    HW132909   5.660   4.601   5.877
10670SOL    HW232910   5.498   4.620   5.878
10671SOL     OW32911   2.092   3.409   2.754
10671SOL    HW132912   2.117   3.381   2.662
10671SOL    HW232913   2.108   3.332   2.817
10672SOL     OW32914   0.077   3.183   0.663
10672SOL    HW132915   0.093   3.258   0.598
10672SOL    HW232916   7.006   3.152   0.655
10673SOL     OW32917   2.988   2.543   5.562
10673SOL    HW132918   2.914   2.479   5.539
10673SOL    HW232919   3.073   2.492   5.573
10674SOL     OW32920   3.838   3.612   1.080
10674SOL    HW132921   3.848   3.657   0.991
10674SOL    HW232922   3.927   3.576   1.110
10675SOL     OW32923   0.434   0.682   5.632
10675SOL    HW132924   0.497   0.665   5.708
10675SOL    HW232925   0.440   0.779   5.606
10676SOL     OW32926   5.747   0.695   6.415
10676SOL    HW132927   5.707   0.672   6.504
10676SOL    HW232928   5.822   0.760   6.428
10677SOL     OW32929   0.428   0.635   2.276
10677SOL    HW132930   0.439   0.671   2.183
10677SOL    HW232931   0.439   0.710   2.342
10678SOL     OW32932   3.014   6.092   2.584
10678SOL    HW132933   2.992   5.996   2.604
10678SOL    HW232934   3.070   6.130   2.657
10679SOL     OW32935   5.851   5.334   4.678
10679SOL    HW132936   5.838   5.368   4.584
10679SOL    HW232937   5.848   5.410   4.742
10680SOL     OW32938   1.864   3.077   2.617
10680SOL    HW132939   1.793   3.142   2.640
10680SOL    HW232940   1.953   3.124   2.614
10681SOL     OW32941   6.405   4.132   6.563
10681SOL    HW132942   6.471   4.153   6.491
10681SOL    HW232943   6.354   4.050   6.538
10682SOL     OW32944   1.698   1.361   3.558
10682SOL    HW132945   1.789   1.398   3.539
10682SOL    HW232946   1.637   1.381   3.481
10683SOL     OW32947   2.071   2.220   4.129
10683SOL    HW132948   2.137   2.293   4.111
10683SOL    HW232949   2.046   2.176   4.043
10684SOL     OW32950   5.427   4.086   1.046
10684SOL    HW132951   5.359   4.039   0.990
10684SOL    HW232952   5.469   4.159   0.992
10685SOL     OW32953   0.785   4.050   3.291
10685SOL    HW132954   0.775   4.041   3.390
10685SOL    HW232955   0.755   4.141   3.263
10686SOL     OW32956   3.584   6.008   6.804
10686SOL    HW132957   3.527   6.090   6.808
10686SOL    HW232958   3.567   5.952   6.885
10687SOL     OW32959   6.912   5.288   2.413
10687SOL    HW132960   6.930   5.243   2.325
10687SOL    HW232961   6.985   5.354   2.432
10688SOL     OW32962   6.524   4.348   2.516
10688SOL    HW132963   6.533   4.445   2.492
10688SOL    HW232964   6.592   4.325   2.586
10689SOL     OW32965   6.983   0.239   2.801
10689SOL    HW132966   6.921   0.262   2.876
10689SOL    HW232967   6.990   0.140   2.793
10690SOL     OW32968   4.211   5.335   2.852
10690SOL    HW132969   4.170   5.254   2.812
10690SOL    HW232970   4.142   5.383   2.906
10691SOL     OW32971   6.833   0.980   1.673
10691SOL    HW132972   6.792   1.065   1.705
10691SOL    HW232973   6.890   0.998   1.592
10692SOL     OW32974   3.036   5.734   3.720
10692SOL    HW132975   3.094   5.738   3.638
10692SOL    HW232976   3.065   5.656   3.777
10693SOL     OW32977   1.054   1.484   0.740
10693SOL    HW132978   1.007   1.398   0.760
10693SOL    HW232979   1.005   1.533   0.668
10694SOL     OW32980   3.601   6.418   0.898
10694SOL    HW132981   3.565   6.497   0.849
10694SOL    HW232982   3.536   6.389   0.968
10695SOL     OW32983   0.449   2.969   4.215
10695SOL    HW132984   0.350   2.980   4.220
10695SOL    HW232985   0.472   2.894   4.153
10696SOL     OW32986   6.841   6.086   1.502
10696SOL    HW132987   6.845   6.185   1.486
10696SOL    HW232988   6.835   6.038   1.415
10697SOL     OW32989   0.482   6.442   3.221
10697SOL    HW132990   0.412   6.449   3.150
10697SOL    HW232991   0.562   6.393   3.185
10698SOL     OW32992   2.885   0.052   3.204
10698SOL    HW132993   2.858   0.001   3.122
10698SOL    HW232994   2.805   0.068   3.261
10699SOL     OW32995   4.761   1.825   3.116
10699SOL    HW132996   4.669   1.797   3.141
10699SOL    HW232997   4.758   1.912   3.067
10700SOL     OW32998   0.513   6.735   0.708
10700SOL    HW132999   0.597   6.736   0.654
10700SOL    HW233000   0.471   6.644   0.701
10701SOL     OW33001   4.190   5.837   6.844
10701SOL    HW133002   4.252   5.771   6.800
10701SOL    HW233003   4.159   5.800   6.932
10702SOL     OW33004   5.730   2.531   0.290
10702SOL    HW133005   5.738   2.570   0.198
10702SOL    HW233006   5.807   2.469   0.307
10703SOL     OW33007   3.887   4.029   3.634
10703SOL    HW133008   3.940   4.064   3.557
10703SOL    HW233009   3.805   3.983   3.600
10704SOL     OW33010   4.921   6.895   2.016
10704SOL    HW133011   5.012   6.854   2.011
10704SOL    HW233012   4.860   6.834   2.067
10705SOL     OW33013   1.252   4.241   6.665
10705SOL    HW133014   1.274   4.270   6.758
10705SOL    HW233015   1.330   4.190   6.627
10706SOL     OW33016   4.235   0.598   1.935
10706SOL    HW133017   4.320   0.598   1.988
10706SOL    HW233018   4.189   0.510   1.946
10707SOL     OW33019   6.922   0.068   5.686
10707SOL    HW133020   6.845   0.096   5.628
10707SOL    HW233021   6.977   0.148   5.708
10708SOL     OW33022   4.892   1.273   1.227
10708SOL    HW133023   4.974   1.254   1.172
10708SOL    HW233024   4.811   1.249   1.174
10709SOL     OW33025   6.611   0.397   5.105
10709SOL    HW133026   6.687   0.430   5.160
10709SOL    HW233027   6.596   0.460   5.029
10710SOL     OW33028   6.312   5.584   3.847
10710SOL    HW133029   6.352   5.499   3.881
10710SOL    HW233030   6.239   5.563   3.783
10711SOL     OW33031   1.750   0.259   4.131
10711SOL    HW133032   1.831   0.209   4.161
10711SOL    HW233033   1.768   0.304   4.044
10712SOL     OW33034   3.693   1.316   5.132
10712SOL    HW133035   3.759   1.355   5.069
10712SOL    HW233036   3.608   1.369   5.130
10713SOL     OW33037   2.458   6.069   1.939
10713SOL    HW133038   2.529   6.006   1.907
10713SOL    HW233039   2.502   6.145   1.987
10714SOL     OW33040   0.360   4.651   5.129
10714SOL    HW133041   0.274   4.699   5.109
10714SOL    HW233042   0.403   4.623   5.043
10715SOL     OW33043   4.620   2.164   4.338
10715SOL    HW133044   4.717   2.184   4.322
10715SOL    HW233045   4.564   2.217   4.274
10716SOL     OW33046   6.625   1.322   4.575
10716SOL    HW133047   6.675   1.238   4.597
10716SOL    HW233048   6.564   1.305   4.498
10717SOL     OW33049   6.393   0.898   2.084
10717SOL    HW133050   6.440   0.813   2.058
10717SOL    HW233051   6.400   0.963   2.009
10718SOL     OW33052   6.263   5.125   6.852
10718SOL    HW133053   6.207   5.150   6.931
10718SOL    HW233054   6.211   5.139   6.768
10719SOL     OW33055   5.208   1.246   2.002
10719SOL    HW133056   5.155   1.248   1.917
10719SOL    HW233057   5.284   1.182   1.992
10720SOL     OW33058   6.962   3.395   6.312
10720SOL    HW133059   6.922   3.304   6.317
10720SOL    HW233060   6.929   3.442   6.230
10721SOL     OW33061   5.953   2.419   4.734
10721SOL    HW133062   5.955   2.436   4.833
10721SOL    HW233063   5.859   2.406   4.704
10722SOL     OW33064   6.415   3.814   0.471
10722SOL    HW133065   6.358   3.744   0.514
10722SOL    HW233066   6.382   3.832   0.378
10723SOL     OW33067   5.788   4.393   6.522
10723SOL    HW133068   5.786   4.355   6.615
10723SOL    HW233069   5.842   4.477   6.522
10724SOL     OW33070   4.283   6.472   6.257
10724SOL    HW133071   4.241   6.383   6.275
10724SOL    HW233072   4.375   6.473   6.298
10725SOL     OW33073   0.550   6.222   4.191
10725SOL    HW133074   0.543   6.125   4.212
10725SOL    HW233075   0.611   6.234   4.112
10726SOL     OW33076   5.809   0.377   4.857
10726SOL    HW133077   5.739   0.446   4.875
10726SOL    HW233078   5.852   0.395   4.769
10727SOL     OW33079   2.038   5.306   5.301
10727SOL    HW133080   2.064   5.360   5.221
10727SOL    HW233081   2.072   5.350   5.384
10728SOL     OW33082   4.930   6.821   3.238
10728SOL    HW133083   4.979   6.906   3.256
10728SOL    HW233084   4.832   6.836   3.248
10729SOL     OW33085   6.424   2.643   2.856
10729SOL    HW133086   6.479   2.667   2.776
10729SOL    HW233087   6.433   2.716   2.924
10730SOL     OW33088   2.310   6.524   2.158
10730SOL    HW133089   2.266   6.470   2.230
10730SOL    HW233090   2.390   6.476   2.123
10731SOL     OW33091   3.462   6.031   0.458
10731SOL    HW133092   3.550   6.011   0.414
10731SOL    HW233093   3.392   6.043   0.387
10732SOL     OW33094   5.560   6.258   2.497
10732SOL    HW133095   5.512   6.199   2.432
10732SOL    HW233096   5.574   6.210   2.583
10733SOL     OW33097   6.009   1.474   6.218
10733SOL    HW133098   6.000   1.411   6.141
10733SOL    HW233099   5.972   1.564   6.192
10734SOL     OW33100   1.591   0.407   6.575
10734SOL    HW133101   1.591   0.495   6.623
10734SOL    HW233102   1.572   0.333   6.639
10735SOL     OW33103   0.859   5.112   2.077
10735SOL    HW133104   0.935   5.099   2.141
10735SOL    HW233105   0.847   5.030   2.022
10736SOL     OW33106   0.236   1.086   3.605
10736SOL    HW133107   0.201   1.146   3.533
10736SOL    HW233108   0.234   1.133   3.693
10737SOL     OW33109   0.380   1.766   1.058
10737SOL    HW133110   0.479   1.775   1.072
10737SOL    HW233111   0.333   1.835   1.114
10738SOL     OW33112   2.776   0.824   2.846
10738SOL    HW133113   2.788   0.769   2.928
10738SOL    HW233114   2.713   0.900   2.865
10739SOL     OW33115   5.909   1.592   2.184
10739SOL    HW133116   5.940   1.646   2.105
10739SOL    HW233117   5.849   1.648   2.241
10740SOL     OW33118   1.790   6.706   5.986
10740SOL    HW133119   1.820   6.697   6.081
10740SOL    HW233120   1.704   6.756   5.983
10741SOL     OW33121   1.782   2.704   3.014
10741SOL    HW133122   1.699   2.753   3.043
10741SOL    HW233123   1.820   2.655   3.093
10742SOL     OW33124   6.381   5.519   2.271
10742SOL    HW133125   6.469   5.517   2.318
10742SOL    HW233126   6.395   5.537   2.174
10743SOL     OW33127   3.266   1.551   5.387
10743SOL    HW133128   3.222   1.596   5.309
10743SOL    HW233129   3.358   1.587   5.399
10744SOL     OW33130   2.833   0.509   1.158
10744SOL    HW133131   2.763   0.443   1.186
10744SOL    HW233132   2.800   0.559   1.079
10745SOL     OW33133   2.027   4.251   1.004
10745SOL    HW133134   2.077   4.298   0.931
10745SOL    HW233135   1.933   4.234   0.975
10746SOL     OW33136   2.415   6.071   6.976
10746SOL    HW133137   2.463   6.124   0.022
10746SOL    HW233138   2.410   5.975   7.004
10747SOL     OW33139   6.280   2.519   4.476
10747SOL    HW133140   6.336   2.482   4.550
10747SOL    HW233141   6.189   2.540   4.510
10748SOL     OW33142   4.352   5.167   1.204
10748SOL    HW133143   4.444   5.203   1.220
10748SOL    HW233144   4.287   5.220   1.258
10749SOL     OW33145   6.554   4.618   2.752
10749SOL    HW133146   6.459   4.614   2.782
10749SOL    HW233147   6.611   4.566   2.816
10750SOL     OW33148   4.876   3.215   3.999
10750SOL    HW133149   4.885   3.298   3.944
10750SOL    HW233150   4.966   3.187   4.032
10751SOL     OW33151   1.599   3.612   5.177
10751SOL    HW133152   1.535   3.540   5.202
10751SOL    HW233153   1.561   3.667   5.102
10752SOL     OW33154   5.883   5.388   0.163
10752SOL    HW133155   5.925   5.411   0.076
10752SOL    HW233156   5.886   5.467   0.224
10753SOL     OW33157   5.207   6.399   4.211
10753SOL    HW133158   5.191   6.403   4.112
10753SOL    HW233159   5.124   6.368   4.257
10754SOL     OW33160   0.661   3.001   1.806
10754SOL    HW133161   0.697   3.016   1.713
10754SOL    HW233162   0.720   3.048   1.872
10755SOL     OW33163   6.702   2.892   1.414
10755SOL    HW133164   6.720   2.794   1.411
10755SOL    HW233165   6.661   2.916   1.502
10756SOL     OW33166   6.381   2.225   0.784
10756SOL    HW133167   6.466   2.187   0.748
10756SOL    HW233168   6.304   2.171   0.750
10757SOL     OW33169   6.684   3.758   0.454
10757SOL    HW133170   6.604   3.816   0.465
10757SOL    HW233171   6.659   3.675   0.404
10758SOL     OW33172   0.736   6.268   6.652
10758SOL    HW133173   0.754   6.288   6.556
10758SOL    HW233174   0.780   6.182   6.677
10759SOL     OW33175   1.622   1.908   6.242
10759SOL    HW133176   1.555   1.941   6.308
10759SOL    HW233177   1.714   1.912   6.282
10760SOL     OW33178   0.698   6.266   0.490
10760SOL    HW133179   0.765   6.338   0.509
10760SOL    HW233180   0.722   6.184   0.540
10761SOL     OW33181   0.748   2.098   6.294
10761SOL    HW133182   0.683   2.154   6.346
10761SOL    HW233183   0.833   2.149   6.283
10762SOL     OW33184   4.144   0.680   5.760
10762SOL    HW133185   4.068   0.615   5.752
10762SOL    HW233186   4.138   0.748   5.687
10763SOL     OW33187   5.791   0.422   3.399
10763SOL    HW133188   5.703   0.394   3.361
10763SOL    HW233189   5.864   0.365   3.359
10764SOL     OW33190   4.599   1.158   4.876
10764SOL    HW133191   4.659   1.235   4.898
10764SOL    HW233192   4.559   1.122   4.960
10765SOL     OW33193   6.064   2.280   2.040
10765SOL    HW133194   6.007   2.355   2.010
10765SOL    HW233195   6.029   2.244   2.127
10766SOL     OW33196   1.114   4.831   0.610
10766SOL    HW133197   1.073   4.922   0.609
10766SOL    HW233198   1.089   4.784   0.695
10767SOL     OW33199   1.325   5.873   0.864
10767SOL    HW133200   1.289   5.874   0.771
10767SOL    HW233201   1.295   5.790   0.911
10768SOL     OW33202   5.868   5.548   0.394
10768SOL    HW133203   5.832   5.466   0.438
10768SOL    HW233204   5.887   5.618   0.463
10769SOL     OW33205   2.651   4.247   5.444
10769SOL    HW133206   2.697   4.210   5.525
10769SOL    HW233207   2.583   4.182   5.412
10770SOL     OW33208   5.412   0.050   4.657
10770SOL    HW133209   5.375   0.049   4.564
10770SOL    HW233210   5.442   6.982   4.682
10771SOL     OW33211   5.181   0.226   5.707
10771SOL    HW133212   5.217   0.319   5.697
10771SOL    HW233213   5.248   0.168   5.753
10772SOL     OW33214   5.424   5.863   3.500
10772SOL    HW133215   5.464   5.802   3.432
10772SOL    HW233216   5.496   5.903   3.557
10773SOL     OW33217   7.005   4.057   0.580
10773SOL    HW133218   6.922   4.106   0.607
10773SOL    HW233219   6.985   3.960   0.570
10774SOL     OW33220   1.528   2.550   0.766
10774SOL    HW133221   1.461   2.534   0.838
10774SOL    HW233222   1.557   2.462   0.728
10775SOL     OW33223   1.902   4.561   0.878
10775SOL    HW133224   1.831   4.523   0.818
10775SOL    HW233225   1.902   4.512   0.965
10776SOL     OW33226   0.059   0.707   2.749
10776SOL    HW133227   0.073   0.804   2.772
10776SOL    HW233228   6.988   0.682   2.771
10777SOL     OW33229   2.915   0.750   3.774
10777SOL    HW133230   2.855   0.687   3.824
10777SOL    HW233231   2.986   0.699   3.726
10778SOL     OW33232   6.445   6.492   4.313
10778SOL    HW133233   6.510   6.424   4.346
10778SOL    HW233234   6.481   6.584   4.330
10779SOL     OW33235   5.357   4.965   3.180
10779SOL    HW133236   5.259   4.987   3.172
10779SOL    HW233237   5.383   4.963   3.276
10780SOL     OW33238   0.776   5.736   4.426
10780SOL    HW133239   0.714   5.658   4.427
10780SOL    HW233240   0.825   5.741   4.513
10781SOL     OW33241   5.975   2.469   5.020
10781SOL    HW133242   6.065   2.494   5.057
10781SOL    HW233243   5.906   2.531   5.058
10782SOL     OW33244   0.867   2.863   5.312
10782SOL    HW133245   0.860   2.868   5.212
10782SOL    HW233246   0.842   2.771   5.343
10783SOL     OW33247   1.359   2.323   2.587
10783SOL    HW133248   1.435   2.387   2.573
10783SOL    HW233249   1.339   2.276   2.500
10784SOL     OW33250   2.839   6.325   2.447
10784SOL    HW133251   2.887   6.239   2.464
10784SOL    HW233252   2.868   6.393   2.514
10785SOL     OW33253   1.782   5.324   1.478
10785SOL    HW133254   1.783   5.339   1.576
10785SOL    HW233255   1.835   5.242   1.456
10786SOL     OW33256   4.612   2.085   2.223
10786SOL    HW133257   4.616   1.995   2.265
10786SOL    HW233258   4.517   2.108   2.202
10787SOL     OW33259   3.319   1.338   3.768
10787SOL    HW133260   3.398   1.345   3.707
10787SOL    HW233261   3.332   1.399   3.846
10788SOL     OW33262   0.303   4.166   0.250
10788SOL    HW133263   0.307   4.096   0.321
10788SOL    HW233264   0.281   4.123   0.162
10789SOL     OW33265   6.402   1.423   6.805
10789SOL    HW133266   6.484   1.387   6.760
10789SOL    HW233267   6.429   1.468   6.890
10790SOL     OW33268   0.824   2.609   4.870
10790SOL    HW133269   0.842   2.519   4.911
10790SOL    HW233270   0.773   2.598   4.785
10791SOL     OW33271   2.024   1.504   2.630
10791SOL    HW133272   1.994   1.447   2.706
10791SOL    HW233273   2.113   1.472   2.598
10792SOL     OW33274   3.692   2.214   1.364
10792SOL    HW133275   3.598   2.221   1.330
10792SOL    HW233276   3.733   2.305   1.368
10793SOL     OW33277   5.007   1.648   4.678
10793SOL    HW133278   5.033   1.569   4.622
10793SOL    HW233279   5.075   1.661   4.750
10794SOL     OW33280   4.406   2.889   1.719
10794SOL    HW133281   4.466   2.934   1.785
10794SOL    HW233282   4.353   2.958   1.670
10795SOL     OW33283   0.153   3.562   3.033
10795SOL    HW133284   0.155   3.653   2.991
10795SOL    HW233285   0.216   3.502   2.983
10796SOL     OW33286   6.696   6.765   0.019
10796SOL    HW133287   6.711   6.720   6.954
10796SOL    HW233288   6.675   6.862   0.005
10797SOL     OW33289   4.096   2.851   0.607
10797SOL    HW133290   4.088   2.863   0.706
10797SOL    HW233291   4.022   2.793   0.574
10798SOL     OW33292   2.973   6.746   6.431
10798SOL    HW133293   2.902   6.750   6.361
10798SOL    HW233294   3.055   6.791   6.397
10799SOL     OW33295   3.249   1.512   2.261
10799SOL    HW133296   3.155   1.494   2.292
10799SOL    HW233297   3.265   1.611   2.261
10800SOL     OW33298   1.411   6.947   6.587
10800SOL    HW133299   1.390   6.849   6.592
10800SOL    HW233300   1.349   6.992   6.523
10801SOL     OW33301   1.906   5.707   6.075
10801SOL    HW133302   1.900   5.626   6.016
10801SOL    HW233303   1.953   5.683   6.160
10802SOL     OW33304   1.447   3.807   3.630
10802SOL    HW133305   1.433   3.730   3.568
10802SOL    HW233306   1.381   3.802   3.705
10803SOL     OW33307   6.269   4.863   5.265
10803SOL    HW133308   6.315   4.857   5.354
10803SOL    HW233309   6.176   4.827   5.272
10804SOL     OW33310   5.983   4.273   1.675
10804SOL    HW133311   6.061   4.211   1.679
10804SOL    HW233312   6.015   4.367   1.664
10805SOL     OW33313   4.124   6.575   0.695
10805SOL    HW133314   4.115   6.490   0.747
10805SOL    HW233315   4.059   6.574   0.619
10806SOL     OW33316   5.439   3.821   0.676
10806SOL    HW133317   5.395   3.736   0.705
10806SOL    HW233318   5.491   3.859   0.752
10807SOL     OW33319   3.421   5.819   3.092
10807SOL    HW133320   3.398   5.893   3.156
10807SOL    HW233321   3.468   5.857   3.012
10808SOL     OW33322   0.681   2.483   6.022
10808SOL    HW133323   0.681   2.395   5.975
10808SOL    HW233324   0.772   2.523   6.019
10809SOL     OW33325   3.005   0.624   4.068
10809SOL    HW133326   2.937   0.573   4.120
10809SOL    HW233327   3.030   0.707   4.118
10810SOL     OW33328   0.422   1.709   5.414
10810SOL    HW133329   0.367   1.792   5.426
10810SOL    HW233330   0.504   1.730   5.360
10811SOL     OW33331   4.241   5.150   5.441
10811SOL    HW133332   4.329   5.190   5.464
10811SOL    HW233333   4.225   5.159   5.342
10812SOL     OW33334   6.549   2.682   2.610
10812SOL    HW133335   6.464   2.685   2.557
10812SOL    HW233336   6.618   2.739   2.565
10813SOL     OW33337   2.817   6.169   2.193
10813SOL    HW133338   2.750   6.214   2.252
10813SOL    HW233339   2.909   6.180   2.231
10814SOL     OW33340   1.898   0.133   5.143
10814SOL    HW133341   1.990   0.171   5.132
10814SOL    HW233342   1.903   0.034   5.149
10815SOL     OW33343   5.416   4.128   2.824
10815SOL    HW133344   5.347   4.074   2.873
10815SOL    HW233345   5.445   4.080   2.742
10816SOL     OW33346   1.606   0.824   2.145
10816SOL    HW133347   1.584   0.834   2.242
10816SOL    HW233348   1.568   0.737   2.112
10817SOL     OW33349   5.027   0.388   2.956
10817SOL    HW133350   5.104   0.356   2.901
10817SOL    HW233351   5.026   0.340   3.044
10818SOL     OW33352   5.375   2.698   6.536
10818SOL    HW133353   5.387   2.791   6.502
10818SOL    HW233354   5.388   2.633   6.461
10819SOL     OW33355   0.435   4.667   6.440
10819SOL    HW133356   0.388   4.750   6.468
10819SOL    HW233357   0.368   4.595   6.423
10820SOL     OW33358   6.910   6.474   3.639
10820SOL    HW133359   6.876   6.544   3.577
10820SOL    HW233360   6.877   6.384   3.610
10821SOL     OW33361   6.809   0.102   1.720
10821SOL    HW133362   6.785   0.112   1.623
10821SOL    HW233363   6.728   0.116   1.776
10822SOL     OW33364   1.317   3.942   2.500
10822SOL    HW133365   1.328   3.849   2.533
10822SOL    HW233366   1.318   3.942   2.400
10823SOL     OW33367   2.211   5.799   0.895
10823SOL    HW133368   2.114   5.782   0.885
10823SOL    HW233369   2.240   5.867   0.827
10824SOL     OW33370   4.932   1.094   2.767
10824SOL    HW133371   4.928   1.131   2.860
10824SOL    HW233372   5.023   1.055   2.751
10825SOL     OW33373   3.398   1.050   0.820
10825SOL    HW133374   3.497   1.042   0.805
10825SOL    HW233375   3.374   1.011   0.908
10826SOL     OW33376   0.309   3.783   1.889
10826SOL    HW133377   0.279   3.873   1.857
10826SOL    HW233378   0.392   3.756   1.840
10827SOL     OW33379   0.178   3.459   4.414
10827SOL    HW133380   0.172   3.486   4.318
10827SOL    HW233381   0.095   3.411   4.441
10828SOL     OW33382   1.136   6.004   0.226
10828SOL    HW133383   1.118   5.911   0.194
10828SOL    HW233384   1.073   6.068   0.181
10829SOL     OW33385   3.069   3.941   2.174
10829SOL    HW133386   2.977   3.906   2.191
10829SOL    HW233387   3.136   3.875   2.209
10830SOL     OW33388   5.274   3.205   4.727
10830SOL    HW133389   5.201   3.150   4.686
10830SOL    HW233390   5.276   3.190   4.826
10831SOL     OW33391   5.553   1.122   2.611
10831SOL    HW133392   5.574   1.190   2.540
10831SOL    HW233393   5.464   1.081   2.592
10832SOL     OW33394   0.840   1.878   0.382
10832SOL    HW133395   0.857   1.864   0.285
10832SOL    HW233396   0.821   1.975   0.399
10833SOL     OW33397   2.653   0.854   4.405
10833SOL    HW133398   2.702   0.848   4.318
10833SOL    HW233399   2.717   0.881   4.478
10834SOL     OW33400   0.544   1.837   5.698
10834SOL    HW133401   0.450   1.807   5.684
10834SOL    HW233402   0.577   1.882   5.614
10835SOL     OW33403   5.762   1.773   2.335
10835SOL    HW133404   5.698   1.764   2.258
10835SOL    HW233405   5.838   1.832   2.309
10836SOL     OW33406   1.143   2.044   6.333
10836SOL    HW133407   1.073   2.115   6.328
10836SOL    HW233408   1.103   1.961   6.370
10837SOL     OW33409   0.084   4.531   0.487
10837SOL    HW133410   0.091   4.631   0.488
10837SOL    HW233411   7.018   4.503   0.522
10838SOL     OW33412   5.432   7.010   6.755
10838SOL    HW133413   5.484   7.009   6.841
10838SOL    HW233414   5.425   6.916   6.720
10839SOL     OW33415   2.285   1.758   6.909
10839SOL    HW133416   2.201   1.792   6.866
10839SOL    HW233417   2.340   1.709   6.841
10840SOL     OW33418   3.405   5.305   1.686
10840SOL    HW133419   3.345   5.378   1.720
10840SOL    HW233420   3.456   5.265   1.762
10841SOL     OW33421   3.993   6.031   5.919
10841SOL    HW133422   4.085   6.070   5.928
10841SOL    HW233423   4.000   5.932   5.911
10842SOL     OW33424   6.308   3.128   0.829
10842SOL    HW133425   6.365   3.051   0.858
10842SOL    HW233426   6.359   3.213   0.840
10843SOL     OW33427   0.725   1.592   2.121
10843SOL    HW133428   0.811   1.584   2.072
10843SOL    HW233429   0.743   1.617   2.216
10844SOL     OW33430   5.625   6.723   2.848
10844SOL    HW133431   5.698   6.691   2.786
10844SOL    HW233432   5.656   6.716   2.942
10845SOL     OW33433   1.241   0.685   1.431
10845SOL    HW133434   1.173   0.621   1.394
10845SOL    HW233435   1.215   0.778   1.408
10846SOL     OW33436   4.077   2.043   1.235
10846SOL    HW133437   4.003   2.034   1.302
10846SOL    HW233438   4.039   2.066   1.146
10847SOL     OW33439   3.568   2.305   5.861
10847SOL    HW133440   3.575   2.397   5.898
10847SOL    HW233441   3.483   2.262   5.891
10848SOL     OW33442   1.572   0.664   0.452
10848SOL    HW133443   1.498   0.611   0.411
10848SOL    HW233444   1.561   0.761   0.430
10849SOL     OW33445   2.948   4.922   4.637
10849SOL    HW133446   2.856   4.940   4.601
10849SOL    HW233447   2.941   4.889   4.731
10850SOL     OW33448   5.586   6.974   6.957
10850SOL    HW133449   5.673   6.983   6.909
10850SOL    HW233450   5.603   6.971   0.032
10851SOL     OW33451   2.717   2.287   6.535
10851SOL    HW133452   2.673   2.211   6.489
10851SOL    HW233453   2.648   2.355   6.560
10852SOL     OW33454   0.361   0.921   6.656
10852SOL    HW133455   0.336   0.940   6.751
10852SOL    HW233456   0.390   1.006   6.612
10853SOL     OW33457   2.878   1.523   4.402
10853SOL    HW133458   2.809   1.455   4.426
10853SOL    HW233459   2.895   1.582   4.481
10854SOL     OW33460   6.642   0.008   6.978
10854SOL    HW133461   6.688   0.022   6.890
10854SOL    HW233462   6.601   0.094   7.007
10855SOL     OW33463   1.814   6.273   1.908
10855SOL    HW133464   1.789   6.248   1.815
10855SOL    HW233465   1.910   6.300   1.911
10856SOL     OW33466   6.033   6.802   6.905
10856SOL    HW133467   6.104   6.790   6.974
10856SOL    HW233468   6.015   6.715   6.859
10857SOL     OW33469   6.394   1.602   3.526
10857SOL    HW133470   6.404   1.516   3.477
10857SOL    HW233471   6.308   1.601   3.578
10858SOL     OW33472   1.377   3.018   0.093
10858SOL    HW133473   1.429   2.980   0.170
10858SOL    HW233474   1.406   2.972   0.008
10859SOL     OW33475   0.560   4.868   3.405
10859SOL    HW133476   0.643   4.922   3.398
10859SOL    HW233477   0.480   4.928   3.398
10860SOL     OW33478   6.629   1.713   7.002
10860SOL    HW133479   6.586   1.623   7.014
10860SOL    HW233480   6.578   1.765   6.933
10861SOL     OW33481   3.014   2.786   1.614
10861SOL    HW133482   3.096   2.748   1.657
10861SOL    HW233483   3.033   2.806   1.518
10862SOL     OW33484   3.378   2.160   6.020
10862SOL    HW133485   3.350   2.228   6.088
10862SOL    HW233486   3.365   2.069   6.058
10863SOL     OW33487   2.738   0.998   3.249
10863SOL    HW133488   2.761   0.956   3.337
10863SOL    HW233489   2.661   0.949   3.209
10864SOL     OW33490   2.459   4.240   1.864
10864SOL    HW133491   2.420   4.271   1.951
10864SOL    HW233492   2.538   4.297   1.840
10865SOL     OW33493   5.215   2.926   3.383
10865SOL    HW133494   5.215   2.878   3.470
10865SOL    HW233495   5.128   2.974   3.370
10866SOL     OW33496   6.842   3.970   2.150
10866SOL    HW133497   6.935   3.951   2.120
10866SOL    HW233498   6.787   3.999   2.071
10867SOL     OW33499   3.278   2.463   0.521
10867SOL    HW133500   3.237   2.410   0.595
10867SOL    HW233501   3.275   2.410   0.436
10868SOL     OW33502   1.115   2.272   3.537
10868SOL    HW133503   1.085   2.345   3.599
10868SOL    HW233504   1.158   2.199   3.591
10869NA      NA33505   0.180   1.778   6.021
10870NA      NA33506   4.475   4.663   5.128
10871NA      NA33507   1.545   5.466   2.559
10872NA      NA33508   5.245   4.132   3.401
10873NA      NA33509   4.302   2.377   5.256
10874NA      NA33510   2.453   5.139   0.756
10875NA      NA33511   1.002   5.405   6.897
10876NA      NA33512   3.433   3.939   1.342
10877NA      NA33513   4.294   4.890   0.868
10878NA      NA33514   3.266   0.932   6.722
10879NA      NA33515   5.578   5.830   1.929
10880NA      NA33516   1.312   6.833   5.263
10881NA      NA33517   4.633   5.091   1.996
10882NA      NA33518   3.055   3.063   6.705
   7.02335   7.02335   7.02335
