Generated by trjconv : CNT in water t= 191.00000
33518
    1C        C    1   2.841   2.769   4.745
    1C        C    2   2.899   2.720   4.864
    1C        C    3   2.839   2.772   4.980
    1C        C    4   2.841   2.764   4.259
    1C        C    5   2.889   2.714   4.383
    1C        C    6   2.834   2.762   4.504
    1C        C    7   3.009   2.638   4.625
    1C        C    8   2.889   2.714   4.624
    1C        C    9   3.073   2.599   4.744
    1C        C   10   3.004   2.626   4.865
    1C        C   11   3.176   2.492   4.977
    1C        C   12   3.057   2.566   4.980
    1C        C   13   2.843   2.765   3.772
    1C        C   14   2.896   2.718   3.895
    1C        C   15   2.846   2.771   4.016
    1C        C   16   3.016   2.643   4.139
    1C        C   17   2.900   2.724   4.137
    1C        C   18   3.080   2.614   4.261
    1C        C   19   3.012   2.646   4.381
    1C        C   20   3.204   2.555   4.503
    1C        C   21   3.073   2.608   4.503
    1C        C   22   3.274   2.530   4.624
    1C        C   23   3.205   2.546   4.746
    1C        C   24   3.407   2.482   4.861
    1C        C   25   3.265   2.499   4.866
    1C        C   26   3.484   2.474   4.979
    1C        C   27   2.842   2.758   3.282
    1C        C   28   2.900   2.718   3.405
    1C        C   29   2.846   2.764   3.527
    1C        C   30   3.014   2.638   3.649
    1C        C   31   2.899   2.721   3.650
    1C        C   32   3.072   2.602   3.773
    1C        C   33   3.009   2.633   3.895
    1C        C   34   3.204   2.549   4.015
    1C        C   35   3.073   2.601   4.017
    1C        C   36   3.274   2.528   4.136
    1C        C   37   3.209   2.557   4.257
    1C        C   38   3.413   2.514   4.381
    1C        C   39   3.274   2.541   4.382
    1C        C   40   3.486   2.508   4.502
    1C        C   41   3.412   2.502   4.622
    1C        C   42   3.627   2.486   4.744
    1C        C   43   3.485   2.487   4.742
    1C        C   44   3.701   2.490   4.865
    1C        C   45   3.623   2.479   4.980
    1C        C   46   2.831   2.746   2.791
    1C        C   47   2.889   2.708   2.914
    1C        C   48   2.840   2.755   3.037
    1C        C   49   3.010   2.630   3.160
    1C        C   50   2.895   2.712   3.160
    1C        C   51   3.076   2.603   3.282
    1C        C   52   3.019   2.643   3.405
    1C        C   53   3.207   2.549   3.526
    1C        C   54   3.076   2.603   3.528
    1C        C   55   3.274   2.531   3.649
    1C        C   56   3.204   2.550   3.770
    1C        C   57   3.412   2.506   3.894
    1C        C   58   3.273   2.534   3.892
    1C        C   59   3.483   2.501   4.016
    1C        C   60   3.414   2.505   4.138
    1C        C   61   3.626   2.507   4.258
    1C        C   62   3.485   2.500   4.260
    1C        C   63   3.698   2.512   4.379
    1C        C   64   3.627   2.507   4.501
    1C        C   65   3.835   2.543   4.622
    1C        C   66   3.698   2.511   4.624
    1C        C   67   3.901   2.566   4.745
    1C        C   68   3.838   2.523   4.863
    1C        C   69   4.047   2.587   4.980
    1C        C   70   3.919   2.530   4.977
    1C        C   71   2.825   2.736   2.307
    1C        C   72   2.884   2.691   2.428
    1C        C   73   2.831   2.743   2.548
    1C        C   74   3.004   2.622   2.672
    1C        C   75   2.883   2.695   2.670
    1C        C   76   3.069   2.591   2.793
    1C        C   77   3.006   2.629   2.914
    1C        C   78   3.201   2.544   3.035
    1C        C   79   3.070   2.597   3.036
    1C        C   80   3.270   2.523   3.156
    1C        C   81   3.206   2.547   3.280
    1C        C   82   3.413   2.507   3.402
    1C        C   83   3.273   2.528   3.403
    1C        C   84   3.483   2.504   3.524
    1C        C   85   3.413   2.508   3.647
    1C        C   86   3.623   2.505   3.765
    1C        C   87   3.481   2.500   3.771
    1C        C   88   3.691   2.513   3.888
    1C        C   89   3.624   2.509   4.013
    1C        C   90   3.833   2.549   4.134
    1C        C   91   3.695   2.519   4.135
    1C        C   92   3.900   2.573   4.256
    1C        C   93   3.835   2.545   4.378
    1C        C   94   4.030   2.630   4.500
    1C        C   95   3.901   2.571   4.500
    1C        C   96   4.090   2.669   4.622
    1C        C   97   4.028   2.631   4.743
    1C        C   98   4.196   2.759   4.861
    1C        C   99   4.096   2.656   4.864
    1C        C  100   4.214   2.840   4.974
    1C        C  101   2.816   2.721   2.070
    1C        C  102   2.985   2.585   2.189
    1C        C  103   2.871   2.672   2.189
    1C        C  104   3.059   2.568   2.310
    1C        C  105   2.998   2.608   2.431
    1C        C  106   3.201   2.537   2.550
    1C        C  107   3.069   2.589   2.551
    1C        C  108   3.271   2.520   2.672
    1C        C  109   3.200   2.538   2.793
    1C        C  110   3.411   2.504   2.914
    1C        C  111   3.271   2.524   2.914
    1C        C  112   3.482   2.497   3.036
    1C        C  113   3.410   2.503   3.158
    1C        C  114   3.623   2.504   3.279
    1C        C  115   3.482   2.497   3.279
    1C        C  116   3.694   2.515   3.401
    1C        C  117   3.624   2.511   3.524
    1C        C  118   3.835   2.544   3.645
    1C        C  119   3.697   2.515   3.645
    1C        C  120   3.898   2.573   3.768
    1C        C  121   3.827   2.551   3.889
    1C        C  122   4.021   2.638   4.010
    1C        C  123   3.896   2.572   4.010
    1C        C  124   4.083   2.675   4.132
    1C        C  125   4.024   2.641   4.256
    1C        C  126   4.194   2.766   4.375
    1C        C  127   4.086   2.674   4.378
    1C        C  128   4.247   2.815   4.496
    1C        C  129   4.195   2.763   4.617
    1C        C  130   4.325   2.930   4.736
    1C        C  131   4.245   2.813   4.739
    1C        C  132   4.360   2.996   4.856
    1C        C  133   4.292   2.955   4.971
    1C        C  134   3.166   2.463   2.084
    1C        C  135   3.031   2.500   2.084
    1C        C  136   3.257   2.484   2.189
    1C        C  137   3.192   2.517   2.309
    1C        C  138   3.404   2.486   2.428
    1C        C  139   3.264   2.501   2.429
    1C        C  140   3.478   2.481   2.548
    1C        C  141   3.409   2.489   2.671
    1C        C  142   3.622   2.499   2.789
    1C        C  143   3.481   2.494   2.792
    1C        C  144   3.692   2.508   2.912
    1C        C  145   3.623   2.506   3.035
    1C        C  146   3.832   2.536   3.154
    1C        C  147   3.693   2.512   3.157
    1C        C  148   3.900   2.560   3.276
    1C        C  149   3.833   2.539   3.398
    1C        C  150   4.027   2.623   3.521
    1C        C  151   3.900   2.562   3.520
    1C        C  152   4.086   2.663   3.643
    1C        C  153   4.025   2.634   3.767
    1C        C  154   4.193   2.764   3.888
    1C        C  155   4.083   2.676   3.889
    1C        C  156   4.246   2.811   4.010
    1C        C  157   4.196   2.760   4.132
    1C        C  158   4.340   2.919   4.250
    1C        C  159   4.246   2.814   4.253
    1C        C  160   4.378   2.979   4.372
    1C        C  161   4.329   2.930   4.495
    1C        C  162   4.437   3.115   4.611
    1C        C  163   4.369   2.991   4.616
    1C        C  164   4.470   3.179   4.733
    1C        C  165   4.435   3.116   4.854
    1C        C  166   4.509   3.321   4.972
    1C        C  167   4.473   3.187   4.969
    1C        C  168   3.474   2.436   2.075
    1C        C  169   3.397   2.462   2.188
    1C        C  170   3.615   2.473   2.304
    1C        C  171   3.473   2.467   2.306
    1C        C  172   3.690   2.492   2.422
    1C        C  173   3.619   2.487   2.544
    1C        C  174   3.826   2.542   2.663
    1C        C  175   3.689   2.508   2.665
    1C        C  176   3.893   2.565   2.786
    1C        C  177   3.829   2.542   2.910
    1C        C  178   4.026   2.622   3.030
    1C        C  179   3.900   2.558   3.031
    1C        C  180   4.086   2.659   3.152
    1C        C  181   4.025   2.626   3.275
    1C        C  182   4.197   2.748   3.398
    1C        C  183   4.086   2.660   3.398
    1C        C  184   4.245   2.800   3.520
    1C        C  185   4.198   2.749   3.643
    1C        C  186   4.343   2.909   3.762
    1C        C  187   4.248   2.804   3.764
    1C        C  188   4.382   2.971   3.883
    1C        C  189   4.340   2.917   4.007
    1C        C  190   4.450   3.101   4.124
    1C        C  191   4.383   2.976   4.128
    1C        C  192   4.471   3.167   4.247
    1C        C  193   4.443   3.105   4.371
    1C        C  194   4.507   3.314   4.486
    1C        C  195   4.470   3.177   4.489
    1C        C  196   4.520   3.384   4.608
    1C        C  197   4.510   3.315   4.732
    1C        C  198   4.543   3.531   4.850
    1C        C  199   4.532   3.389   4.851
    1C        C  200   4.577   3.617   4.960
    1C        C  201   3.613   2.416   2.072
    1C        C  202   3.824   2.516   2.181
    1C        C  203   3.689   2.466   2.182
    1C        C  204   3.898   2.538   2.300
    1C        C  205   3.828   2.519   2.422
    1C        C  206   4.021   2.620   2.541
    1C        C  207   3.895   2.555   2.541
    1C        C  208   4.083   2.653   2.663
    1C        C  209   4.023   2.620   2.787
    1C        C  210   4.199   2.743   2.905
    1C        C  211   4.086   2.658   2.908
    1C        C  212   4.249   2.790   3.028
    1C        C  213   4.201   2.742   3.152
    1C        C  214   4.337   2.903   3.270
    1C        C  215   4.252   2.790   3.274
    1C        C  216   4.373   2.965   3.391
    1C        C  217   4.331   2.911   3.515
    1C        C  218   4.430   3.097   3.637
    1C        C  219   4.373   2.968   3.638
    1C        C  220   4.464   3.165   3.757
    1C        C  221   4.441   3.099   3.880
    1C        C  222   4.503   3.304   4.003
    1C        C  223   4.471   3.166   4.001
    1C        C  224   4.517   3.374   4.124
    1C        C  225   4.509   3.303   4.246
    1C        C  226   4.516   3.523   4.364
    1C        C  227   4.515   3.382   4.363
    1C        C  228   4.520   3.595   4.486
    1C        C  229   4.528   3.525   4.608
    1C        C  230   4.498   3.740   4.726
    1C        C  231   4.530   3.601   4.727
    1C        C  232   4.497   3.821   4.842
    1C        C  233   4.548   3.754   4.954
    1C        C  234   4.012   2.614   2.061
    1C        C  235   3.889   2.549   2.061
    1C        C  236   4.084   2.643   2.177
    1C        C  237   4.026   2.600   2.298
    1C        C  238   4.202   2.728   2.417
    1C        C  239   4.085   2.647   2.418
    1C        C  240   4.255   2.779   2.538
    1C        C  241   4.197   2.736   2.660
    1C        C  242   4.336   2.899   2.781
    1C        C  243   4.247   2.789   2.781
    1C        C  244   4.375   2.958   2.903
    1C        C  245   4.337   2.901   3.027
    1C        C  246   4.441   3.087   3.147
    1C        C  247   4.381   2.959   3.148
    1C        C  248   4.452   3.159   3.268
    1C        C  249   4.428   3.095   3.392
    1C        C  250   4.491   3.298   3.513
    1C        C  251   4.451   3.163   3.514
    1C        C  252   4.511   3.370   3.633
    1C        C  253   4.505   3.300   3.756
    1C        C  254   4.520   3.511   3.877
    1C        C  255   4.514   3.370   3.878
    1C        C  256   4.517   3.585   3.998
    1C        C  257   4.516   3.515   4.121
    1C        C  258   4.489   3.731   4.237
    1C        C  259   4.512   3.591   4.240
    1C        C  260   4.466   3.799   4.358
    1C        C  261   4.488   3.732   4.481
    1C        C  262   4.424   3.935   4.600
    1C        C  263   4.473   3.803   4.602
    1C        C  264   4.399   4.007   4.719
    1C        C  265   4.432   3.946   4.842
    1C        C  266   4.315   4.127   4.954
    1C        C  267   4.387   4.009   4.958
    1C        C  268   4.258   2.774   2.060
    1C        C  269   4.194   2.731   2.177
    1C        C  270   4.349   2.883   2.297
    1C        C  271   4.257   2.775   2.296
    1C        C  272   4.384   2.947   2.418
    1C        C  273   4.345   2.887   2.539
    1C        C  274   4.442   3.081   2.659
    1C        C  275   4.380   2.954   2.659
    1C        C  276   4.472   3.147   2.780
    1C        C  277   4.443   3.082   2.902
    1C        C  278   4.506   3.286   3.023
    1C        C  279   4.468   3.150   3.023
    1C        C  280   4.515   3.359   3.143
    1C        C  281   4.497   3.293   3.267
    1C        C  282   4.517   3.504   3.386
    1C        C  283   4.508   3.363   3.389
    1C        C  284   4.515   3.578   3.507
    1C        C  285   4.516   3.511   3.631
    1C        C  286   4.482   3.718   3.750
    1C        C  287   4.513   3.581   3.754
    1C        C  288   4.469   3.789   3.872
    1C        C  289   4.491   3.724   3.995
    1C        C  290   4.425   3.931   4.113
    1C        C  291   4.473   3.798   4.114
    1C        C  292   4.398   3.998   4.235
    1C        C  293   4.424   3.934   4.358
    1C        C  294   4.322   4.123   4.476
    1C        C  295   4.391   3.999   4.479
    1C        C  296   4.279   4.183   4.596
    1C        C  297   4.322   4.126   4.718
    1C        C  298   4.197   4.312   4.836
    1C        C  299   4.279   4.194   4.836
    1C        C  300   4.169   4.401   4.944
    1C        C  301   4.347   2.881   2.059
    1C        C  302   4.466   3.065   2.172
    1C        C  303   4.397   2.940   2.176
    1C        C  304   4.480   3.139   2.293
    1C        C  305   4.449   3.073   2.414
    1C        C  306   4.502   3.280   2.536
    1C        C  307   4.473   3.142   2.535
    1C        C  308   4.514   3.354   2.656
    1C        C  309   4.510   3.283   2.779
    1C        C  310   4.523   3.496   2.897
    1C        C  311   4.520   3.354   2.900
    1C        C  312   4.509   3.567   3.018
    1C        C  313   4.508   3.501   3.143
    1C        C  314   4.488   3.714   3.262
    1C        C  315   4.510   3.574   3.263
    1C        C  316   4.475   3.785   3.383
    1C        C  317   4.492   3.717   3.506
    1C        C  318   4.421   3.920   3.626
    1C        C  319   4.469   3.787   3.627
    1C        C  320   4.391   3.987   3.747
    1C        C  321   4.420   3.921   3.869
    1C        C  322   4.308   4.105   3.990
    1C        C  323   4.388   3.988   3.989
    1C        C  324   4.272   4.166   4.111
    1C        C  325   4.322   4.116   4.234
    1C        C  326   4.181   4.279   4.350
    1C        C  327   4.280   4.178   4.354
    1C        C  328   4.131   4.335   4.470
    1C        C  329   4.186   4.290   4.592
    1C        C  330   4.026   4.436   4.711
    1C        C  331   4.137   4.347   4.712
    1C        C  332   3.967   4.486   4.829
    1C        C  333   4.049   4.472   4.941
    1C        C  334   4.548   3.267   2.058
    1C        C  335   4.531   3.128   2.061
    1C        C  336   4.538   3.347   2.172
    1C        C  337   4.512   3.277   2.292
    1C        C  338   4.519   3.491   2.410
    1C        C  339   4.516   3.349   2.414
    1C        C  340   4.520   3.563   2.531
    1C        C  341   4.523   3.495   2.654
    1C        C  342   4.494   3.706   2.772
    1C        C  343   4.521   3.567   2.775
    1C        C  344   4.473   3.775   2.894
    1C        C  345   4.489   3.707   3.016
    1C        C  346   4.424   3.911   3.135
    1C        C  347   4.470   3.777   3.137
    1C        C  348   4.389   3.976   3.256
    1C        C  349   4.422   3.916   3.379
    1C        C  350   4.314   4.097   3.499
    1C        C  351   4.394   3.980   3.502
    1C        C  352   4.268   4.157   3.619
    1C        C  353   4.316   4.107   3.742
    1C        C  354   4.176   4.264   3.863
    1C        C  355   4.272   4.161   3.865
    1C        C  356   4.122   4.314   3.984
    1C        C  357   4.176   4.270   4.107
    1C        C  358   4.005   4.397   4.226
    1C        C  359   4.122   4.319   4.228
    1C        C  360   3.948   4.440   4.348
    1C        C  361   4.018   4.419   4.469
    1C        C  362   3.826   4.512   4.592
    1C        C  363   3.958   4.460   4.589
    1C        C  364   3.758   4.543   4.711
    1C        C  365   3.834   4.534   4.830
    1C        C  366   3.627   4.582   4.949
    1C        C  367   3.765   4.562   4.949
    1C        C  368   4.509   3.559   2.053
    1C        C  369   4.524   3.487   2.172
    1C        C  370   4.499   3.705   2.285
    1C        C  371   4.518   3.565   2.290
    1C        C  372   4.482   3.772   2.408
    1C        C  373   4.497   3.703   2.530
    1C        C  374   4.420   3.904   2.647
    1C        C  375   4.476   3.774   2.650
    1C        C  376   4.382   3.967   2.767
    1C        C  377   4.416   3.904   2.889
    1C        C  378   4.315   4.090   3.011
    1C        C  379   4.389   3.970   3.012
    1C        C  380   4.269   4.149   3.131
    1C        C  381   4.311   4.094   3.254
    1C        C  382   4.172   4.253   3.375
    1C        C  383   4.269   4.151   3.377
    1C        C  384   4.122   4.309   3.495
    1C        C  385   4.173   4.262   3.618
    1C        C  386   4.004   4.388   3.739
    1C        C  387   4.122   4.310   3.741
    1C        C  388   3.944   4.428   3.860
    1C        C  389   4.002   4.388   3.982
    1C        C  390   3.813   4.484   4.106
    1C        C  391   3.944   4.432   4.103
    1C        C  392   3.747   4.510   4.228
    1C        C  393   3.818   4.495   4.349
    1C        C  394   3.613   4.544   4.473
    1C        C  395   3.752   4.522   4.472
    1C        C  396   3.542   4.558   4.594
    1C        C  397   3.618   4.562   4.713
    1C        C  398   3.408   4.543   4.839
    1C        C  399   3.547   4.566   4.835
    1C        C  400   3.338   4.509   4.956
    1C        C  401   4.498   3.698   2.049
    1C        C  402   4.452   3.913   2.163
    1C        C  403   4.487   3.777   2.164
    1C        C  404   4.408   3.972   2.284
    1C        C  405   4.432   3.904   2.406
    1C        C  406   4.327   4.093   2.522
    1C        C  407   4.401   3.973   2.525
    1C        C  408   4.277   4.148   2.642
    1C        C  409   4.314   4.091   2.766
    1C        C  410   4.176   4.249   2.885
    1C        C  411   4.273   4.147   2.889
    1C        C  412   4.123   4.300   3.006
    1C        C  413   4.171   4.251   3.129
    1C        C  414   4.000   4.374   3.247
    1C        C  415   4.117   4.295   3.252
    1C        C  416   3.941   4.409   3.370
    1C        C  417   4.002   4.383   3.495
    1C        C  418   3.808   4.471   3.617
    1C        C  419   3.938   4.417   3.617
    1C        C  420   3.742   4.500   3.739
    1C        C  421   3.813   4.481   3.860
    1C        C  422   3.607   4.527   3.984
    1C        C  423   3.747   4.504   3.982
    1C        C  424   3.539   4.539   4.108
    1C        C  425   3.609   4.539   4.231
    1C        C  426   3.397   4.548   4.355
    1C        C  427   3.538   4.545   4.353
    1C        C  428   3.327   4.543   4.478
    1C        C  429   3.401   4.548   4.598
    1C        C  430   3.191   4.514   4.721
    1C        C  431   3.331   4.542   4.720
    1C        C  432   3.122   4.488   4.843
    1C        C  433   3.201   4.490   4.959
    1C        C  434   4.383   4.121   2.050
    1C        C  435   4.442   3.994   2.050
    1C        C  436   4.298   4.157   2.159
    1C        C  437   4.332   4.093   2.281
    1C        C  438   4.180   4.248   2.399
    1C        C  439   4.280   4.148   2.400
    1C        C  440   4.121   4.293   2.520
    1C        C  441   4.177   4.247   2.641
    1C        C  442   4.003   4.371   2.762
    1C        C  443   4.120   4.292   2.763
    1C        C  444   3.943   4.414   2.883
    1C        C  445   4.003   4.375   3.004
    1C        C  446   3.809   4.464   3.127
    1C        C  447   3.938   4.408   3.125
    1C        C  448   3.744   4.490   3.250
    1C        C  449   3.811   4.466   3.372
    1C        C  450   3.606   4.525   3.495
    1C        C  451   3.744   4.492   3.493
    1C        C  452   3.537   4.534   3.617
    1C        C  453   3.605   4.533   3.741
    1C        C  454   3.394   4.538   3.866
    1C        C  455   3.535   4.539   3.864
    1C        C  456   3.325   4.532   3.990
    1C        C  457   3.398   4.537   4.110
    1C        C  458   3.191   4.498   4.234
    1C        C  459   3.328   4.531   4.233
    1C        C  460   3.125   4.479   4.357
    1C        C  461   3.191   4.506   4.479
    1C        C  462   2.992   4.432   4.600
    1C        C  463   3.121   4.489   4.601
    1C        C  464   2.926   4.397   4.720
    1C        C  465   2.986   4.442   4.840
    1C        C  466   2.796   4.336   4.955
    1C        C  467   2.904   4.425   4.956
    1C        C  468   4.116   4.275   2.040
    1C        C  469   4.185   4.245   2.158
    1C        C  470   4.003   4.366   2.276
    1C        C  471   4.126   4.295   2.278
    1C        C  472   3.937   4.397   2.397
    1C        C  473   4.000   4.365   2.519
    1C        C  474   3.809   4.459   2.639
    1C        C  475   3.939   4.404   2.641
    1C        C  476   3.743   4.487   2.761
    1C        C  477   3.813   4.470   2.882
    1C        C  478   3.606   4.517   3.007
    1C        C  479   3.745   4.492   3.004
    1C        C  480   3.535   4.529   3.128
    1C        C  481   3.607   4.524   3.250
    1C        C  482   3.395   4.531   3.375
    1C        C  483   3.536   4.532   3.372
    1C        C  484   3.326   4.528   3.498
    1C        C  485   3.395   4.538   3.620
    1C        C  486   3.189   4.493   3.743
    1C        C  487   3.326   4.528   3.743
    1C        C  488   3.124   4.473   3.867
    1C        C  489   3.187   4.501   3.990
    1C        C  490   2.996   4.411   4.113
    1C        C  491   3.121   4.476   4.113
    1C        C  492   2.934   4.385   4.237
    1C        C  493   2.996   4.422   4.358
    1C        C  494   2.816   4.307   4.480
    1C        C  495   2.935   4.384   4.480
    1C        C  496   2.763   4.255   4.600
    1C        C  497   2.815   4.308   4.720
    1C        C  498   2.655   4.167   4.838
    1C        C  499   2.748   4.274   4.839
    1C        C  500   2.599   4.114   4.956
    1C        C  501   3.999   4.350   2.036
    1C        C  502   3.811   4.457   2.155
    1C        C  503   3.937   4.393   2.154
    1C        C  504   3.741   4.483   2.275
    1C        C  505   3.807   4.451   2.396
    1C        C  506   3.602   4.507   2.520
    1C        C  507   3.740   4.480   2.517
    1C        C  508   3.531   4.519   2.641
    1C        C  509   3.605   4.517   2.762
    1C        C  510   3.394   4.525   2.885
    1C        C  511   3.535   4.523   2.885
    1C        C  512   3.321   4.522   3.006
    1C        C  513   3.394   4.526   3.127
    1C        C  514   3.188   4.496   3.253
    1C        C  515   3.327   4.524   3.251
    1C        C  516   3.122   4.471   3.375
    1C        C  517   3.189   4.494   3.498
    1C        C  518   2.995   4.410   3.622
    1C        C  519   3.123   4.469   3.621
    1C        C  520   2.938   4.369   3.745
    1C        C  521   3.000   4.405   3.866
    1C        C  522   2.834   4.278   3.990
    1C        C  523   2.941   4.370   3.990
    1C        C  524   2.782   4.237   4.115
    1C        C  525   2.826   4.293   4.237
    1C        C  526   2.691   4.133   4.360
    1C        C  527   2.769   4.251   4.359
    1C        C  528   2.648   4.076   4.482
    1C        C  529   2.681   4.141   4.603
    1C        C  530   2.574   3.958   4.729
    1C        C  531   2.633   4.087   4.724
    1C        C  532   2.534   3.900   4.852
    1C        C  533   2.527   3.994   4.959
    1C        C  534   3.612   4.547   2.038
    1C        C  535   3.746   4.504   2.040
    1C        C  536   3.532   4.532   2.155
    1C        C  537   3.602   4.510   2.276
    1C        C  538   3.390   4.516   2.399
    1C        C  539   3.531   4.520   2.398
    1C        C  540   3.317   4.509   2.520
    1C        C  541   3.390   4.515   2.641
    1C        C  542   3.183   4.483   2.764
    1C        C  543   3.321   4.512   2.764
    1C        C  544   3.117   4.468   2.887
    1C        C  545   3.183   4.495   3.009
    1C        C  546   2.995   4.401   3.130
    1C        C  547   3.118   4.471   3.133
    1C        C  548   2.940   4.364   3.254
    1C        C  549   2.996   4.407   3.376
    1C        C  550   2.826   4.284   3.504
    1C        C  551   2.934   4.375   3.499
    1C        C  552   2.771   4.235   3.624
    1C        C  553   2.826   4.283   3.745
    1C        C  554   2.699   4.116   3.872
    1C        C  555   2.780   4.231   3.868
    1C        C  556   2.657   4.062   3.995
    1C        C  557   2.695   4.125   4.116
    1C        C  558   2.603   3.938   4.243
    1C        C  559   2.655   4.069   4.239
    1C        C  560   2.566   3.878   4.365
    1C        C  561   2.588   3.948   4.486
    1C        C  562   2.526   3.747   4.614
    1C        C  563   2.558   3.885   4.609
    1C        C  564   2.514   3.678   4.737
    1C        C  565   2.512   3.758   4.854
    1C        C  566   2.528   3.544   4.975
    1C        C  567   2.521   3.683   4.972
    1C        C  568   3.321   4.473   2.040
    1C        C  569   3.391   4.512   2.155
    1C        C  570   3.180   4.478   2.277
    1C        C  571   3.318   4.512   2.277
    1C        C  572   3.112   4.457   2.399
    1C        C  573   3.179   4.481   2.521
    1C        C  574   2.981   4.406   2.643
    1C        C  575   3.111   4.462   2.644
    1C        C  576   2.926   4.364   2.766
    1C        C  577   2.991   4.403   2.885
    1C        C  578   2.826   4.274   3.015
    1C        C  579   2.933   4.365   3.008
    1C        C  580   2.777   4.223   3.138
    1C        C  581   2.830   4.275   3.258
    1C        C  582   2.699   4.113   3.382
    1C        C  583   2.782   4.228   3.382
    1C        C  584   2.661   4.053   3.504
    1C        C  585   2.691   4.119   3.625
    1C        C  586   2.596   3.933   3.753
    1C        C  587   2.657   4.060   3.749
    1C        C  588   2.576   3.868   3.877
    1C        C  589   2.596   3.935   4.000
    1C        C  590   2.538   3.733   4.124
    1C        C  591   2.578   3.868   4.123
    1C        C  592   2.522   3.669   4.249
    1C        C  593   2.534   3.740   4.371
    1C        C  594   2.510   3.532   4.494
    1C        C  595   2.520   3.673   4.494
    1C        C  596   2.516   3.462   4.616
    1C        C  597   2.513   3.536   4.736
    1C        C  598   2.528   3.326   4.858
    1C        C  599   2.522   3.467   4.859
    1C        C  600   2.523   3.246   4.974
    1C        C  601   3.188   4.436   2.040
    1C        C  602   2.979   4.390   2.155
    1C        C  603   3.112   4.442   2.158
    1C        C  604   2.918   4.359   2.280
    1C        C  605   2.983   4.399   2.398
    1C        C  606   2.816   4.273   2.526
    1C        C  607   2.922   4.366   2.521
    1C        C  608   2.768   4.220   2.648
    1C        C  609   2.817   4.274   2.769
    1C        C  610   2.689   4.111   2.894
    1C        C  611   2.774   4.224   2.894
    1C        C  612   2.650   4.053   3.016
    1C        C  613   2.689   4.112   3.139
    1C        C  614   2.588   3.928   3.263
    1C        C  615   2.654   4.053   3.263
    1C        C  616   2.567   3.862   3.386
    1C        C  617   2.599   3.926   3.508
    1C        C  618   2.535   3.727   3.634
    1C        C  619   2.571   3.864   3.632
    1C        C  620   2.529   3.660   3.758
    1C        C  621   2.541   3.731   3.880
    1C        C  622   2.516   3.520   4.004
    1C        C  623   2.530   3.661   4.003
    1C        C  624   2.514   3.455   4.129
    1C        C  625   2.511   3.528   4.249
    1C        C  626   2.533   3.320   4.377
    1C        C  627   2.510   3.459   4.372
    1C        C  628   2.548   3.247   4.497
    1C        C  629   2.534   3.321   4.616
    1C        C  630   2.592   3.118   4.741
    1C        C  631   2.544   3.252   4.739
    1C        C  632   2.613   3.048   4.863
    1C        C  633   2.559   3.111   4.980
    1C        C  634   2.778   4.300   2.050
    1C        C  635   2.891   4.383   2.042
    1C        C  636   2.742   4.229   2.165
    1C        C  637   2.803   4.276   2.284
    1C        C  638   2.674   4.110   2.408
    1C        C  639   2.759   4.222   2.407
    1C        C  640   2.643   4.046   2.530
    1C        C  641   2.686   4.106   2.650
    1C        C  642   2.588   3.920   2.777
    1C        C  643   2.653   4.046   2.774
    1C        C  644   2.561   3.855   2.900
    1C        C  645   2.589   3.926   3.019
    1C        C  646   2.530   3.722   3.145
    1C        C  647   2.567   3.859   3.141
    1C        C  648   2.517   3.654   3.268
    1C        C  649   2.532   3.726   3.389
    1C        C  650   2.513   3.516   3.514
    1C        C  651   2.521   3.657   3.513
    1C        C  652   2.520   3.447   3.637
    1C        C  653   2.518   3.519   3.759
    1C        C  654   2.536   3.310   3.886
    1C        C  655   2.515   3.449   3.882
    1C        C  656   2.549   3.245   4.011
    1C        C  657   2.538   3.316   4.133
    1C        C  658   2.609   3.118   4.254
    1C        C  659   2.555   3.249   4.256
    1C        C  660   2.634   3.055   4.378
    1C        C  661   2.598   3.115   4.500
    1C        C  662   2.711   2.937   4.621
    1C        C  663   2.627   3.051   4.622
    1C        C  664   2.749   2.877   4.743
    1C        C  665   2.695   2.931   4.863
    1C        C  666   2.738   2.867   4.981
    1C        C  667   2.672   4.023   2.051
    1C        C  668   2.682   4.102   2.167
    1C        C  669   2.589   3.911   2.289
    1C        C  670   2.639   4.044   2.288
    1C        C  671   2.559   3.848   2.412
    1C        C  672   2.584   3.917   2.533
    1C        C  673   2.529   3.715   2.656
    1C        C  674   2.562   3.852   2.656
    1C        C  675   2.521   3.646   2.780
    1C        C  676   2.535   3.717   2.901
    1C        C  677   2.515   3.508   3.025
    1C        C  678   2.524   3.649   3.025
    1C        C  679   2.512   3.440   3.148
    1C        C  680   2.509   3.513   3.269
    1C        C  681   2.532   3.304   3.397
    1C        C  682   2.518   3.444   3.392
    1C        C  683   2.551   3.237   3.520
    1C        C  684   2.541   3.308   3.642
    1C        C  685   2.597   3.104   3.767
    1C        C  686   2.555   3.239   3.765
    1C        C  687   2.627   3.045   3.892
    1C        C  688   2.596   3.112   4.012
    1C        C  689   2.708   2.930   4.139
    1C        C  690   2.631   3.049   4.133
    1C        C  691   2.746   2.869   4.260
    1C        C  692   2.700   2.930   4.379
    1C        C  693   2.747   2.873   4.500
    1C        C  694   2.628   3.890   2.053
    1C        C  695   2.527   3.703   2.176
    1C        C  696   2.582   3.833   2.172
    1C        C  697   2.508   3.635   2.298
    1C        C  698   2.523   3.711   2.416
    1C        C  699   2.492   3.501   2.539
    1C        C  700   2.510   3.641   2.538
    1C        C  701   2.509   3.432   2.661
    1C        C  702   2.510   3.506   2.782
    1C        C  703   2.533   3.295   2.907
    1C        C  704   2.513   3.435   2.904
    1C        C  705   2.541   3.228   3.031
    1C        C  706   2.528   3.299   3.152
    1C        C  707   2.599   3.102   3.276
    1C        C  708   2.547   3.233   3.275
    1C        C  709   2.631   3.040   3.399
    1C        C  710   2.604   3.106   3.521
    1C        C  711   2.709   2.926   3.647
    1C        C  712   2.630   3.043   3.644
    1C        C  713   2.751   2.872   3.771
    1C        C  714   2.707   2.929   3.893
    1C        C  715   2.754   2.879   4.016
    1C        C  716   2.447   3.498   2.062
    1C        C  717   2.485   3.633   2.062
    1C        C  718   2.462   3.419   2.181
    1C        C  719   2.485   3.495   2.299
    1C        C  720   2.507   3.284   2.420
    1C        C  721   2.485   3.423   2.421
    1C        C  722   2.536   3.218   2.542
    1C        C  723   2.525   3.292   2.662
    1C        C  724   2.587   3.090   2.787
    1C        C  725   2.544   3.224   2.785
    1C        C  726   2.615   3.027   2.910
    1C        C  727   2.590   3.095   3.032
    1C        C  728   2.703   2.917   3.156
    1C        C  729   2.625   3.034   3.154
    1C        C  730   2.750   2.866   3.279
    1C        C  731   2.706   2.920   3.402
    1C        C  732   2.748   2.866   3.525
    1C        C  733   2.494   3.197   2.065
    1C        C  734   2.490   3.279   2.179
    1C        C  735   2.572   3.079   2.301
    1C        C  736   2.515   3.209   2.300
    1C        C  737   2.600   3.014   2.424
    1C        C  738   2.583   3.085   2.544
    1C        C  739   2.693   2.903   2.667
    1C        C  740   2.617   3.022   2.666
    1C        C  741   2.733   2.848   2.791
    1C        C  742   2.694   2.910   2.912
    1C        C  743   2.745   2.860   3.034
    1C        C  744   2.548   3.068   2.067
    1C        C  745   2.678   2.891   2.184
    1C        C  746   2.607   3.013   2.181
    1C        C  747   2.725   2.836   2.305
    1C        C  748   2.682   2.898   2.425
    1C        C  749   2.732   2.844   2.545
    1C        C  750   2.731   2.831   2.069
    1C        C  751   3.649   2.295   1.995
    1C        O  752   3.637   2.181   2.048
    1C        O  753   3.731   2.294   1.881
    1C        C  754   4.614   3.050   1.967
    1C        O  755   4.624   3.069   1.843
    1C        O  756   4.694   2.948   2.020
    1C        C  757   4.451   4.227   1.972
    1C        O  758   4.541   4.299   2.024
    1C        O  759   4.435   4.246   1.834
    1C        C  760   3.580   4.660   1.948
    1C        O  761   3.598   4.778   1.989
    1C        O  762   3.612   4.650   1.812
    1C        C  763   2.892   4.482   1.932
    1C        O  764   2.899   4.442   1.812
    1C        O  765   2.851   4.614   1.951
    1C        C  766   2.328   3.470   1.978
    1C        O  767   2.322   3.428   1.860
    1C        O  768   2.195   3.467   2.022
    1C        C  769   4.678   3.571   5.058
    1C        O  770   4.639   3.536   5.173
    1C        O  771   4.816   3.569   5.035
    1C        C  772   4.255   4.424   5.063
    1C        O  773   4.240   4.366   5.174
    1C        O  774   4.378   4.489   5.051
    1C        C  775   4.142   2.515   5.068
    1C        O  776   4.243   2.459   5.016
    1C        O  777   4.175   2.581   5.187
    1C        C  778   2.908   4.507   5.080
    1C        O  779   2.849   4.618   5.086
    1C        O  780   2.956   4.459   5.203
    1C        C  781   2.467   3.039   5.071
    1C        O  782   2.355   3.008   5.023
    1C        O  783   2.451   3.071   5.205
    1C        C  784   2.396   4.014   5.024
    1C        O  785   2.301   4.069   4.962
    1C        O  786   2.386   4.007   5.164
    1C        C  787   2.943   2.398   2.024
    1C        O  788   2.916   2.414   1.902
    1C        O  789   2.854   2.327   2.104
    1C        C  790   3.170   2.376   5.069
    1C        O  791   3.113   2.268   5.036
    1C        O  792   3.199   2.384   5.205
    1C        H  793   4.345   2.968   5.063
    1C        H  794   4.149   2.835   5.059
    1C        H  795   4.472   3.137   5.064
    1C        H  796   4.507   3.375   5.064
    1C        H  797   4.575   3.813   5.040
    1C        H  798   4.410   3.962   5.052
    1C        H  799   4.346   4.193   5.032
    1C        H  800   4.042   4.553   5.011
    1C        H  801   3.814   4.537   5.040
    1C        H  802   3.587   4.650   5.022
    1C        H  803   3.396   4.454   5.027
    1C        H  804   3.164   4.431   5.040
    1C        H  805   3.891   2.470   5.060
    1C        H  806   3.669   2.457   5.075
    1C        H  807   2.983   2.534   5.051
    1C        H  808   3.432   2.452   5.070
    1C        H  809   2.861   2.727   5.075
    1C        H  810   2.735   2.926   5.070
    1C        H  811   2.486   3.294   5.063
    1C        H  812   2.494   3.498   5.066
    1C        H  813   2.576   3.726   5.053
    1C        H  814   2.594   4.177   5.042
    1C        H  815   2.762   4.302   5.050
    1C        H  816   2.675   2.842   1.978
    1C        H  817   2.801   2.652   1.990
    1C        H  818   3.213   2.461   1.987
    1C        H  819   3.435   2.468   1.981
    1C        H  820   3.866   2.489   1.975
    1C        H  821   4.019   2.687   1.982
    1C        H  822   4.273   2.707   1.977
    1C        H  823   4.388   2.909   1.964
    1C        H  824   4.563   3.309   1.961
    1C        H  825   4.472   3.513   1.963
    1C        H  826   4.513   3.748   1.956
    1C        H  827   3.806   4.536   1.958
    1C        H  828   3.977   4.392   1.940
    1C        H  829   4.139   4.213   1.956
    1C        H  830   4.519   3.986   1.975
    1C        H  831   2.611   3.853   1.954
    1C        H  832   2.652   4.072   1.958
    1C        H  833   2.726   4.283   1.958
    1C        H  834   3.369   4.470   1.945
    1C        H  835   3.147   4.392   1.951
    1C        H  836   2.526   3.007   1.982
    1C        H  837   2.415   3.209   1.995
    1C        H  838   2.436   3.693   1.989
    2V3OU   H29  839   2.803   3.547   1.955
    2V3OU   C27  840   2.781   3.497   2.053
    2V3OU   H27  841   2.725   3.571   2.116
    2V3OU   H28  842   2.721   3.406   2.029
    2V3OU   O11  843   2.910   3.469   2.108
    2V3OU   C15  844   2.922   3.391   2.222
    2V3OU   C13  845   3.052   3.372   2.271
    2V3OU   C14  846   3.076   3.269   2.363
    2V3OU   C16  847   2.974   3.184   2.407
    2V3OU    H6  848   2.985   3.098   2.475
    2V3OU   C12  849   3.209   3.232   2.415
    2V3OU    O2  850   3.233   3.123   2.472
    2V3OU   C10  851   3.326   3.304   2.362
    2V3OU    C8  852   3.457   3.264   2.385
    2V3OU   O10  853   3.485   3.148   2.450
    2V3OU   H26  854   3.399   3.103   2.460
    2V3OU    C6  855   3.565   3.345   2.339
    2V3OU    C5  856   3.539   3.465   2.273
    2V3OU    C4  857   3.701   3.283   2.338
    2V3OU    H4  858   3.726   3.222   2.430
    2V3OU    H5  859   3.701   3.223   2.243
    2V3OU    C2  860   3.811   3.389   2.333
    2V3OU    O6  861   3.804   3.467   2.452
    2V3OU   H21  862   3.761   3.550   2.428
    2V3OU    C3  863   3.783   3.496   2.228
    2V3OU    H2  864   3.860   3.577   2.230
    2V3OU    H3  865   3.785   3.443   2.129
    2V3OU   C25  866   3.946   3.318   2.322
    2V3OU    O7  867   3.998   3.292   2.214
    2V3OU   C26  868   4.027   3.287   2.447
    2V3OU   H22  869   4.057   3.385   2.493
    2V3OU   H23  870   4.120   3.232   2.418
    2V3OU    O8  871   3.963   3.206   2.543
    2V3OU   H24  872   3.929   3.261   2.615
    2V3OU    C1  873   3.648   3.564   2.246
    2V3OU    H1  874   3.625   3.614   2.147
    2V3OU    O3  875   3.654   3.657   2.354
    2V3OU   C19  876   3.613   3.791   2.329
    2V3OU    H9  877   3.523   3.803   2.263
    2V3OU    O4  878   3.715   3.847   2.249
    2V3OU   C20  879   3.847   3.869   2.301
    2V3OU   H10  880   3.898   3.770   2.321
    2V3OU   C24  881   3.606   3.856   2.468
    2V3OU   H16  882   3.546   3.785   2.531
    2V3OU   H17  883   3.559   3.958   2.468
    2V3OU   C23  884   3.747   3.873   2.523
    2V3OU   H15  885   3.786   3.767   2.538
    2V3OU    N1  886   3.735   3.952   2.644
    2V3OU   H19  887   3.809   3.925   2.706
    2V3OU   H20  888   3.645   3.937   2.685
    2V3OU   C21  889   3.850   3.948   2.432
    2V3OU   H11  890   3.952   3.926   2.475
    2V3OU    O5  891   3.815   4.085   2.426
    2V3OU   H18  892   3.786   4.106   2.516
    2V3OU   C22  893   3.908   3.948   2.187
    2V3OU   H12  894   3.861   4.048   2.173
    2V3OU   H13  895   3.899   3.889   2.092
    2V3OU   H14  896   4.020   3.952   2.198
    2V3OU   C11  897   3.160   3.471   2.262
    2V3OU    O1  898   3.135   3.578   2.202
    2V3OU    C9  899   3.297   3.421   2.288
    2V3OU    C7  900   3.403   3.499   2.243
    2V3OU    O9  901   3.384   3.623   2.185
    2V3OU   H25  902   3.288   3.624   2.169
    2V3OU   C17  903   2.817   3.309   2.267
    2V3OU    H7  904   2.716   3.347   2.255
    2V3OU   C18  905   2.847   3.207   2.358
    2V3OU    H8  906   2.774   3.159   2.425
    3SOL     OW  907   3.314   4.694   0.826
    3SOL    HW1  908   3.336   4.731   0.916
    3SOL    HW2  909   3.340   4.597   0.822
    4SOL     OW  910   6.730   6.259   1.712
    4SOL    HW1  911   6.707   6.194   1.785
    4SOL    HW2  912   6.824   6.291   1.725
    5SOL     OW  913   4.106   1.643   2.735
    5SOL    HW1  914   4.053   1.559   2.725
    5SOL    HW2  915   4.062   1.702   2.803
    6SOL     OW  916   4.321   1.549   1.087
    6SOL    HW1  917   4.337   1.478   1.018
    6SOL    HW2  918   4.228   1.540   1.123
    7SOL     OW  919   6.476   3.652   2.249
    7SOL    HW1  920   6.567   3.692   2.242
    7SOL    HW2  921   6.447   3.651   2.344
    8SOL     OW  922   2.698   6.979   6.367
    8SOL    HW1  923   2.728   6.888   6.393
    8SOL    HW2  924   2.767   0.028   6.395
    9SOL     OW  925   6.709   5.630   6.258
    9SOL    HW1  926   6.697   5.539   6.219
    9SOL    HW2  927   6.674   5.631   6.352
   10SOL     OW  928   0.813   5.077   5.965
   10SOL    HW1  929   0.864   5.045   5.885
   10SOL    HW2  930   0.792   4.999   6.024
   11SOL     OW  931   2.898   6.939   0.093
   11SOL    HW1  932   2.832   6.903   0.028
   11SOL    HW2  933   2.989   6.904   0.072
   12SOL     OW  934   3.870   6.248   4.188
   12SOL    HW1  935   3.900   6.299   4.108
   12SOL    HW2  936   3.824   6.164   4.158
   13SOL     OW  937   3.443   5.386   3.842
   13SOL    HW1  938   3.400   5.461   3.892
   13SOL    HW2  939   3.383   5.359   3.766
   14SOL     OW  940   5.024   5.195   6.436
   14SOL    HW1  941   5.087   5.265   6.402
   14SOL    HW2  942   4.963   5.236   6.504
   15SOL     OW  943   1.187   5.853   1.196
   15SOL    HW1  944   1.282   5.825   1.211
   15SOL    HW2  945   1.140   5.860   1.283
   16SOL     OW  946   5.679   3.157   5.545
   16SOL    HW1  947   5.640   3.247   5.567
   16SOL    HW2  948   5.692   3.150   5.446
   17SOL     OW  949   5.333   6.185   5.591
   17SOL    HW1  950   5.302   6.132   5.512
   17SOL    HW2  951   5.259   6.243   5.623
   18SOL     OW  952   3.039   1.083   5.870
   18SOL    HW1  953   3.116   1.085   5.806
   18SOL    HW2  954   2.993   0.994   5.864
   19SOL     OW  955   0.690   7.015   3.481
   19SOL    HW1  956   0.672   0.009   3.579
   19SOL    HW2  957   0.639   0.065   3.429
   20SOL     OW  958   5.422   2.557   4.609
   20SOL    HW1  959   5.405   2.477   4.666
   20SOL    HW2  960   5.512   2.549   4.566
   21SOL     OW  961   3.161   2.085   2.515
   21SOL    HW1  962   3.098   2.030   2.460
   21SOL    HW2  963   3.175   2.174   2.470
   22SOL     OW  964   2.309   6.904   0.133
   22SOL    HW1  965   2.398   6.878   0.170
   22SOL    HW2  966   2.239   6.839   0.164
   23SOL     OW  967   4.737   6.576   3.385
   23SOL    HW1  968   4.683   6.496   3.410
   23SOL    HW2  969   4.695   6.658   3.424
   24SOL     OW  970   4.947   1.052   3.178
   24SOL    HW1  971   4.932   0.996   3.259
   24SOL    HW2  972   5.034   1.101   3.186
   25SOL     OW  973   3.102   6.871   5.085
   25SOL    HW1  974   3.165   6.793   5.084
   25SOL    HW2  975   3.061   6.882   4.994
   26SOL     OW  976   6.317   0.924   0.463
   26SOL    HW1  977   6.234   0.873   0.439
   26SOL    HW2  978   6.320   0.936   0.563
   27SOL     OW  979   0.534   1.714   1.689
   27SOL    HW1  980   0.555   1.754   1.779
   27SOL    HW2  981   0.606   1.738   1.624
   28SOL     OW  982   3.648   1.365   6.763
   28SOL    HW1  983   3.714   1.366   6.837
   28SOL    HW2  984   3.688   1.320   6.683
   29SOL     OW  985   5.011   2.903   1.700
   29SOL    HW1  986   4.955   2.984   1.720
   29SOL    HW2  987   5.101   2.915   1.741
   30SOL     OW  988   3.342   0.824   4.416
   30SOL    HW1  989   3.418   0.877   4.455
   30SOL    HW2  990   3.359   0.809   4.318
   31SOL     OW  991   0.883   2.460   5.635
   31SOL    HW1  992   0.828   2.391   5.683
   31SOL    HW2  993   0.853   2.465   5.539
   32SOL     OW  994   0.164   1.768   3.121
   32SOL    HW1  995   0.070   1.777   3.088
   32SOL    HW2  996   0.219   1.721   3.052
   33SOL     OW  997   2.257   3.544   0.082
   33SOL    HW1  998   2.321   3.604   0.130
   33SOL    HW2  999   2.177   3.529   0.140
   34SOL     OW 1000   2.274   1.492   3.164
   34SOL    HW1 1001   2.322   1.579   3.153
   34SOL    HW2 1002   2.341   1.419   3.178
   35SOL     OW 1003   3.307   2.791   6.860
   35SOL    HW1 1004   3.302   2.890   6.847
   35SOL    HW2 1005   3.248   2.746   6.794
   36SOL     OW 1006   6.320   0.799   5.858
   36SOL    HW1 1007   6.274   0.860   5.921
   36SOL    HW2 1008   6.259   0.723   5.834
   37SOL     OW 1009   1.141   0.265   0.574
   37SOL    HW1 1010   1.232   0.224   0.568
   37SOL    HW2 1011   1.073   0.198   0.547
   38SOL     OW 1012   6.989   4.419   2.311
   38SOL    HW1 1013   0.043   4.356   2.286
   38SOL    HW2 1014   6.900   4.377   2.292
   39SOL     OW 1015   6.866   5.031   6.944
   39SOL    HW1 1016   6.914   5.117   6.927
   39SOL    HW2 1017   6.886   4.967   6.870
   40SOL     OW 1018   5.405   1.850   1.452
   40SOL    HW1 1019   5.312   1.812   1.453
   40SOL    HW2 1020   5.431   1.876   1.545
   41SOL     OW 1021   6.681   6.812   3.991
   41SOL    HW1 1022   6.594   6.812   4.041
   41SOL    HW2 1023   6.726   6.900   4.005
   42SOL     OW 1024   2.503   5.587   5.274
   42SOL    HW1 1025   2.572   5.516   5.257
   42SOL    HW2 1026   2.469   5.623   5.187
   43SOL     OW 1027   5.413   6.315   5.280
   43SOL    HW1 1028   5.324   6.276   5.257
   43SOL    HW2 1029   5.411   6.349   5.374
   44SOL     OW 1030   5.942   1.850   6.581
   44SOL    HW1 1031   5.959   1.928   6.521
   44SOL    HW2 1032   5.859   1.867   6.634
   45SOL     OW 1033   3.298   6.756   3.111
   45SOL    HW1 1034   3.390   6.796   3.104
   45SOL    HW2 1035   3.267   6.727   3.021
   46SOL     OW 1036   1.170   3.223   3.667
   46SOL    HW1 1037   1.221   3.140   3.691
   46SOL    HW2 1038   1.225   3.303   3.688
   47SOL     OW 1039   4.908   4.691   1.138
   47SOL    HW1 1040   4.990   4.687   1.194
   47SOL    HW2 1041   4.877   4.786   1.131
   48SOL     OW 1042   6.822   2.805   5.905
   48SOL    HW1 1043   6.755   2.852   5.849
   48SOL    HW2 1044   6.883   2.871   5.948
   49SOL     OW 1045   4.721   4.118   1.910
   49SOL    HW1 1046   4.628   4.114   1.874
   49SOL    HW2 1047   4.725   4.183   1.985
   50SOL     OW 1048   6.321   2.560   5.594
   50SOL    HW1 1049   6.288   2.627   5.661
   50SOL    HW2 1050   6.274   2.573   5.507
   51SOL     OW 1051   3.285   6.244   2.447
   51SOL    HW1 1052   3.200   6.293   2.428
   51SOL    HW2 1053   3.290   6.162   2.389
   52SOL     OW 1054   5.178   2.281   3.143
   52SOL    HW1 1055   5.230   2.230   3.212
   52SOL    HW2 1056   5.194   2.379   3.156
   53SOL     OW 1057   3.890   6.893   4.609
   53SOL    HW1 1058   3.982   6.929   4.592
   53SOL    HW2 1059   3.888   6.795   4.585
   54SOL     OW 1060   3.619   4.668   1.076
   54SOL    HW1 1061   3.701   4.658   1.019
   54SOL    HW2 1062   3.566   4.747   1.046
   55SOL     OW 1063   3.327   1.456   6.176
   55SOL    HW1 1064   3.279   1.544   6.174
   55SOL    HW2 1065   3.276   1.390   6.121
   56SOL     OW 1066   0.193   0.585   1.295
   56SOL    HW1 1067   0.209   0.678   1.263
   56SOL    HW2 1068   0.178   0.525   1.217
   57SOL     OW 1069   5.222   0.323   0.690
   57SOL    HW1 1070   5.142   0.379   0.667
   57SOL    HW2 1071   5.274   0.368   0.763
   58SOL     OW 1072   6.687   6.681   5.941
   58SOL    HW1 1073   6.682   6.779   5.958
   58SOL    HW2 1074   6.757   6.641   6.000
   59SOL     OW 1075   1.393   1.329   5.736
   59SOL    HW1 1076   1.328   1.393   5.695
   59SOL    HW2 1077   1.378   1.238   5.698
   60SOL     OW 1078   5.425   1.120   5.846
   60SOL    HW1 1079   5.471   1.032   5.845
   60SOL    HW2 1080   5.326   1.106   5.845
   61SOL     OW 1081   4.957   1.852   5.216
   61SOL    HW1 1082   4.861   1.874   5.234
   61SOL    HW2 1083   5.013   1.880   5.295
   62SOL     OW 1084   6.592   1.195   3.205
   62SOL    HW1 1085   6.655   1.149   3.142
   62SOL    HW2 1086   6.601   1.294   3.194
   63SOL     OW 1087   5.455   1.645   3.903
   63SOL    HW1 1088   5.550   1.660   3.930
   63SOL    HW2 1089   5.453   1.613   3.808
   64SOL     OW 1090   0.297   4.043   6.013
   64SOL    HW1 1091   0.364   4.035   6.087
   64SOL    HW2 1092   0.243   3.958   6.009
   65SOL     OW 1093   6.742   4.553   5.301
   65SOL    HW1 1094   6.773   4.458   5.295
   65SOL    HW2 1095   6.689   4.566   5.384
   66SOL     OW 1096   3.714   0.850   5.640
   66SOL    HW1 1097   3.801   0.865   5.592
   66SOL    HW2 1098   3.672   0.766   5.606
   67SOL     OW 1099   5.205   4.336   5.832
   67SOL    HW1 1100   5.303   4.329   5.813
   67SOL    HW2 1101   5.171   4.424   5.798
   68SOL     OW 1102   5.440   0.788   6.824
   68SOL    HW1 1103   5.350   0.754   6.796
   68SOL    HW2 1104   5.429   0.859   6.894
   69SOL     OW 1105   0.858   3.775   6.223
   69SOL    HW1 1106   0.918   3.842   6.179
   69SOL    HW2 1107   0.904   3.686   6.223
   70SOL     OW 1108   5.901   4.875   4.292
   70SOL    HW1 1109   5.860   4.955   4.337
   70SOL    HW2 1110   5.967   4.906   4.223
   71SOL     OW 1111   4.181   1.361   3.062
   71SOL    HW1 1112   4.110   1.309   3.014
   71SOL    HW2 1113   4.271   1.336   3.026
   72SOL     OW 1114   2.447   6.111   4.552
   72SOL    HW1 1115   2.464   6.047   4.626
   72SOL    HW2 1116   2.479   6.202   4.578
   73SOL     OW 1117   3.349   0.860   0.830
   73SOL    HW1 1118   3.446   0.880   0.814
   73SOL    HW2 1119   3.297   0.883   0.748
   74SOL     OW 1120   5.483   6.339   6.468
   74SOL    HW1 1121   5.511   6.243   6.474
   74SOL    HW2 1122   5.461   6.362   6.373
   75SOL     OW 1123   3.916   0.163   7.001
   75SOL    HW1 1124   3.985   0.101   0.019
   75SOL    HW2 1125   3.825   0.120   7.007
   76SOL     OW 1126   2.439   2.560   0.724
   76SOL    HW1 1127   2.480   2.483   0.676
   76SOL    HW2 1128   2.503   2.594   0.794
   77SOL     OW 1129   6.229   6.190   3.563
   77SOL    HW1 1130   6.158   6.141   3.614
   77SOL    HW2 1131   6.306   6.209   3.624
   78SOL     OW 1132   5.636   0.349   6.243
   78SOL    HW1 1133   5.604   0.439   6.215
   78SOL    HW2 1134   5.736   0.348   6.244
   79SOL     OW 1135   3.210   6.346   0.233
   79SOL    HW1 1136   3.155   6.417   0.278
   79SOL    HW2 1137   3.199   6.260   0.281
   80SOL     OW 1138   5.430   2.337   3.733
   80SOL    HW1 1139   5.500   2.367   3.797
   80SOL    HW2 1140   5.397   2.246   3.758
   81SOL     OW 1141   2.341   0.224   3.489
   81SOL    HW1 1142   2.392   0.236   3.574
   81SOL    HW2 1143   2.399   0.179   3.421
   82SOL     OW 1144   6.683   5.098   0.861
   82SOL    HW1 1145   6.588   5.095   0.832
   82SOL    HW2 1146   6.699   5.031   0.933
   83SOL     OW 1147   0.479   0.684   0.689
   83SOL    HW1 1148   0.536   0.618   0.640
   83SOL    HW2 1149   0.468   0.767   0.635
   84SOL     OW 1150   5.321   3.230   3.742
   84SOL    HW1 1151   5.342   3.168   3.818
   84SOL    HW2 1152   5.403   3.246   3.688
   85SOL     OW 1153   2.103   1.873   4.551
   85SOL    HW1 1154   2.154   1.791   4.527
   85SOL    HW2 1155   2.005   1.854   4.549
   86SOL     OW 1156   6.935   0.665   5.051
   86SOL    HW1 1157   6.853   0.616   5.080
   86SOL    HW2 1158   6.987   0.608   4.987
   87SOL     OW 1159   5.301   3.549   0.525
   87SOL    HW1 1160   5.263   3.641   0.519
   87SOL    HW2 1161   5.232   3.483   0.497
   88SOL     OW 1162   3.629   1.789   6.276
   88SOL    HW1 1163   3.699   1.851   6.242
   88SOL    HW2 1164   3.588   1.739   6.200
   89SOL     OW 1165   0.933   2.280   5.372
   89SOL    HW1 1166   1.022   2.316   5.400
   89SOL    HW2 1167   0.947   2.204   5.308
   90SOL     OW 1168   4.006   6.049   2.805
   90SOL    HW1 1169   3.933   6.110   2.837
   90SOL    HW2 1170   3.997   6.036   2.706
   91SOL     OW 1171   4.617   4.284   5.112
   91SOL    HW1 1172   4.661   4.199   5.083
   91SOL    HW2 1173   4.666   4.362   5.073
   92SOL     OW 1174   3.574   3.960   0.277
   92SOL    HW1 1175   3.651   3.946   0.339
   92SOL    HW2 1176   3.608   3.970   0.183
   93SOL     OW 1177   2.644   3.878   6.557
   93SOL    HW1 1178   2.624   3.820   6.636
   93SOL    HW2 1179   2.670   3.821   6.480
   94SOL     OW 1180   2.601   6.287   5.949
   94SOL    HW1 1181   2.518   6.232   5.944
   94SOL    HW2 1182   2.647   6.286   5.860
   95SOL     OW 1183   1.374   0.815   2.951
   95SOL    HW1 1184   1.302   0.752   2.981
   95SOL    HW2 1185   1.410   0.864   3.031
   96SOL     OW 1186   3.160   0.278   5.214
   96SOL    HW1 1187   3.126   0.189   5.245
   96SOL    HW2 1188   3.229   0.264   5.143
   97SOL     OW 1189   2.039   3.026   5.808
   97SOL    HW1 1190   2.090   2.954   5.760
   97SOL    HW2 1191   2.101   3.101   5.831
   98SOL     OW 1192   6.611   3.544   0.668
   98SOL    HW1 1193   6.640   3.605   0.594
   98SOL    HW2 1194   6.521   3.572   0.700
   99SOL     OW 1195   4.275   3.578   1.167
   99SOL    HW1 1196   4.195   3.614   1.120
   99SOL    HW2 1197   4.267   3.479   1.175
  100SOL     OW 1198   6.875   6.933   4.740
  100SOL    HW1 1199   6.933   6.901   4.665
  100SOL    HW2 1200   6.790   6.881   4.742
  101SOL     OW 1201   1.452   5.541   2.191
  101SOL    HW1 1202   1.396   5.472   2.238
  101SOL    HW2 1203   1.548   5.516   2.197
  102SOL     OW 1204   4.036   0.049   2.693
  102SOL    HW1 1205   4.057   0.121   2.760
  102SOL    HW2 1206   4.042   0.087   2.600
  103SOL     OW 1207   2.818   1.145   2.036
  103SOL    HW1 1208   2.780   1.089   2.110
  103SOL    HW2 1209   2.763   1.228   2.025
  104SOL     OW 1210   0.483   5.401   2.794
  104SOL    HW1 1211   0.403   5.460   2.806
  104SOL    HW2 1212   0.458   5.306   2.813
  105SOL     OW 1213   0.010   2.715   6.820
  105SOL    HW1 1214   6.935   2.703   6.786
  105SOL    HW2 1215   0.041   2.808   6.799
  106SOL     OW 1216   3.821   6.342   5.001
  106SOL    HW1 1217   3.876   6.322   5.082
  106SOL    HW2 1218   3.729   6.304   5.012
  107SOL     OW 1219   2.361   1.556   1.823
  107SOL    HW1 1220   2.408   1.608   1.753
  107SOL    HW2 1221   2.280   1.511   1.783
  108SOL     OW 1222   3.834   5.482   5.614
  108SOL    HW1 1223   3.845   5.450   5.708
  108SOL    HW2 1224   3.738   5.508   5.598
  109SOL     OW 1225   6.923   0.772   1.463
  109SOL    HW1 1226   7.006   0.828   1.450
  109SOL    HW2 1227   6.947   0.675   1.458
  110SOL     OW 1228   3.204   5.592   5.389
  110SOL    HW1 1229   3.105   5.586   5.381
  110SOL    HW2 1230   3.242   5.621   5.301
  111SOL     OW 1231   2.561   1.596   4.154
  111SOL    HW1 1232   2.536   1.501   4.175
  111SOL    HW2 1233   2.563   1.609   4.055
  112SOL     OW 1234   4.826   0.093   6.288
  112SOL    HW1 1235   4.759   0.027   6.254
  112SOL    HW2 1236   4.869   0.140   6.210
  113SOL     OW 1237   6.131   5.794   2.877
  113SOL    HW1 1238   6.082   5.759   2.797
  113SOL    HW2 1239   6.217   5.744   2.887
  114SOL     OW 1240   0.584   0.468   1.194
  114SOL    HW1 1241   0.589   0.388   1.134
  114SOL    HW2 1242   0.668   0.522   1.184
  115SOL     OW 1243   4.044   1.503   3.572
  115SOL    HW1 1244   4.059   1.600   3.591
  115SOL    HW2 1245   3.949   1.479   3.592
  116SOL     OW 1246   5.845   4.752   1.709
  116SOL    HW1 1247   5.882   4.789   1.794
  116SOL    HW2 1248   5.888   4.798   1.631
  117SOL     OW 1249   1.254   1.855   0.615
  117SOL    HW1 1250   1.330   1.905   0.573
  117SOL    HW2 1251   1.289   1.777   0.665
  118SOL     OW 1252   1.640   0.921   3.479
  118SOL    HW1 1253   1.572   0.958   3.542
  118SOL    HW2 1254   1.693   0.996   3.440
  119SOL     OW 1255   0.497   1.077   0.013
  119SOL    HW1 1256   0.433   1.116   6.965
  119SOL    HW2 1257   0.590   1.102   7.007
  120SOL     OW 1258   6.372   6.495   0.329
  120SOL    HW1 1259   6.451   6.538   0.285
  120SOL    HW2 1260   6.355   6.539   0.418
  121SOL     OW 1261   2.162   3.509   6.477
  121SOL    HW1 1262   2.255   3.472   6.479
  121SOL    HW2 1263   2.162   3.603   6.513
  122SOL     OW 1264   2.033   4.278   6.373
  122SOL    HW1 1265   2.105   4.298   6.440
  122SOL    HW2 1266   1.998   4.186   6.388
  123SOL     OW 1267   0.337   1.363   2.071
  123SOL    HW1 1268   0.434   1.384   2.057
  123SOL    HW2 1269   0.299   1.322   1.988
  124SOL     OW 1270   4.693   3.219   0.839
  124SOL    HW1 1271   4.659   3.128   0.817
  124SOL    HW2 1272   4.788   3.213   0.871
  125SOL     OW 1273   3.561   1.706   1.580
  125SOL    HW1 1274   3.495   1.762   1.631
  125SOL    HW2 1275   3.653   1.725   1.613
  126SOL     OW 1276   2.768   3.767   1.029
  126SOL    HW1 1277   2.694   3.784   1.093
  126SOL    HW2 1278   2.744   3.689   0.970
  127SOL     OW 1279   0.869   5.232   6.483
  127SOL    HW1 1280   0.796   5.173   6.517
  127SOL    HW2 1281   0.831   5.319   6.452
  128SOL     OW 1282   5.027   3.216   1.173
  128SOL    HW1 1283   5.011   3.124   1.211
  128SOL    HW2 1284   4.987   3.221   1.081
  129SOL     OW 1285   2.406   2.958   6.088
  129SOL    HW1 1286   2.498   2.935   6.120
  129SOL    HW2 1287   2.412   3.011   6.004
  130SOL     OW 1288   0.712   1.808   3.910
  130SOL    HW1 1289   0.727   1.764   3.999
  130SOL    HW2 1290   0.761   1.758   3.839
  131SOL     OW 1291   5.058   2.011   3.821
  131SOL    HW1 1292   5.009   1.947   3.879
  131SOL    HW2 1293   4.992   2.067   3.770
  132SOL     OW 1294   2.080   2.464   1.318
  132SOL    HW1 1295   2.045   2.486   1.409
  132SOL    HW2 1296   2.178   2.445   1.324
  133SOL     OW 1297   4.586   6.374   4.004
  133SOL    HW1 1298   4.627   6.427   3.929
  133SOL    HW2 1299   4.492   6.403   4.018
  134SOL     OW 1300   6.566   1.722   2.432
  134SOL    HW1 1301   6.531   1.760   2.518
  134SOL    HW2 1302   6.637   1.654   2.451
  135SOL     OW 1303   5.681   3.812   3.692
  135SOL    HW1 1304   5.753   3.851   3.748
  135SOL    HW2 1305   5.722   3.762   3.615
  136SOL     OW 1306   3.440   3.779   5.599
  136SOL    HW1 1307   3.521   3.760   5.654
  136SOL    HW2 1308   3.466   3.784   5.503
  137SOL     OW 1309   5.497   1.738   4.682
  137SOL    HW1 1310   5.436   1.755   4.604
  137SOL    HW2 1311   5.445   1.750   4.767
  138SOL     OW 1312   1.007   4.275   2.973
  138SOL    HW1 1313   1.024   4.194   3.030
  138SOL    HW2 1314   1.078   4.343   2.990
  139SOL     OW 1315   2.041   6.971   4.643
  139SOL    HW1 1316   1.976   0.021   4.609
  139SOL    HW2 1317   2.069   6.911   4.568
  140SOL     OW 1318   0.662   5.509   2.623
  140SOL    HW1 1319   0.587   5.486   2.686
  140SOL    HW2 1320   0.707   5.425   2.593
  141SOL     OW 1321   6.228   3.167   5.043
  141SOL    HW1 1322   6.133   3.154   5.014
  141SOL    HW2 1323   6.242   3.262   5.071
  142SOL     OW 1324   1.467   4.151   0.767
  142SOL    HW1 1325   1.480   4.100   0.852
  142SOL    HW2 1326   1.524   4.111   0.695
  143SOL     OW 1327   6.031   4.553   1.278
  143SOL    HW1 1328   6.079   4.468   1.300
  143SOL    HW2 1329   5.932   4.537   1.280
  144SOL     OW 1330   1.234   6.483   5.894
  144SOL    HW1 1331   1.310   6.419   5.883
  144SOL    HW2 1332   1.161   6.439   5.947
  145SOL     OW 1333   0.080   5.943   0.126
  145SOL    HW1 1334   0.138   5.862   0.132
  145SOL    HW2 1335   7.005   5.916   0.102
  146SOL     OW 1336   4.695   0.075   6.550
  146SOL    HW1 1337   4.612   0.080   6.494
  146SOL    HW2 1338   4.775   0.078   6.491
  147SOL     OW 1339   6.477   3.917   0.136
  147SOL    HW1 1340   6.400   3.949   0.082
  147SOL    HW2 1341   6.541   3.992   0.151
  148SOL     OW 1342   0.162   5.465   6.309
  148SOL    HW1 1343   0.251   5.438   6.347
  148SOL    HW2 1344   0.089   5.421   6.360
  149SOL     OW 1345   2.922   1.830   4.253
  149SOL    HW1 1346   2.829   1.820   4.288
  149SOL    HW2 1347   2.976   1.886   4.316
  150SOL     OW 1348   5.727   5.665   6.751
  150SOL    HW1 1349   5.653   5.648   6.817
  150SOL    HW2 1350   5.689   5.712   6.671
  151SOL     OW 1351   3.070   2.098   0.973
  151SOL    HW1 1352   3.110   2.090   0.882
  151SOL    HW2 1353   3.065   2.007   1.015
  152SOL     OW 1354   1.720   0.690   2.656
  152SOL    HW1 1355   1.660   0.639   2.595
  152SOL    HW2 1356   1.764   0.765   2.606
  153SOL     OW 1357   2.824   0.559   1.812
  153SOL    HW1 1358   2.850   0.645   1.768
  153SOL    HW2 1359   2.898   0.528   1.871
  154SOL     OW 1360   0.574   2.138   2.515
  154SOL    HW1 1361   0.670   2.156   2.536
  154SOL    HW2 1362   0.516   2.189   2.578
  155SOL     OW 1363   6.464   1.735   3.042
  155SOL    HW1 1364   6.491   1.799   3.114
  155SOL    HW2 1365   6.431   1.650   3.084
  156SOL     OW 1366   0.541   1.955   0.587
  156SOL    HW1 1367   0.567   1.860   0.606
  156SOL    HW2 1368   0.442   1.962   0.577
  157SOL     OW 1369   5.677   2.816   1.347
  157SOL    HW1 1370   5.652   2.874   1.270
  157SOL    HW2 1371   5.681   2.871   1.430
  158SOL     OW 1372   2.137   5.873   2.628
  158SOL    HW1 1373   2.139   5.955   2.570
  158SOL    HW2 1374   2.065   5.883   2.697
  159SOL     OW 1375   4.289   4.809   2.401
  159SOL    HW1 1376   4.316   4.741   2.468
  159SOL    HW2 1377   4.283   4.767   2.310
  160SOL     OW 1378   6.027   5.249   0.186
  160SOL    HW1 1379   5.939   5.214   0.154
  160SOL    HW2 1380   6.016   5.344   0.216
  161SOL     OW 1381   1.767   5.919   4.314
  161SOL    HW1 1382   1.730   5.946   4.225
  161SOL    HW2 1383   1.851   5.970   4.332
  162SOL     OW 1384   3.698   6.047   0.009
  162SOL    HW1 1385   3.626   6.010   0.067
  162SOL    HW2 1386   3.697   6.147   0.014
  163SOL     OW 1387   5.734   5.746   0.583
  163SOL    HW1 1388   5.719   5.775   0.678
  163SOL    HW2 1389   5.672   5.671   0.561
  164SOL     OW 1390   6.208   4.504   0.326
  164SOL    HW1 1391   6.196   4.429   0.390
  164SOL    HW2 1392   6.267   4.474   0.251
  165SOL     OW 1393   5.114   3.033   1.472
  165SOL    HW1 1394   5.063   2.987   1.544
  165SOL    HW2 1395   5.095   2.989   1.384
  166SOL     OW 1396   0.015   4.728   3.330
  166SOL    HW1 1397   0.107   4.725   3.290
  166SOL    HW2 1398   0.017   4.685   3.420
  167SOL     OW 1399   5.116   2.832   0.397
  167SOL    HW1 1400   5.193   2.776   0.366
  167SOL    HW2 1401   5.086   2.800   0.487
  168SOL     OW 1402   2.443   2.914   1.171
  168SOL    HW1 1403   2.464   2.947   1.079
  168SOL    HW2 1404   2.350   2.941   1.195
  169SOL     OW 1405   4.693   1.079   1.450
  169SOL    HW1 1406   4.679   1.034   1.538
  169SOL    HW2 1407   4.610   1.072   1.394
  170SOL     OW 1408   1.312   1.198   3.415
  170SOL    HW1 1409   1.387   1.229   3.473
  170SOL    HW2 1410   1.322   1.100   3.398
  171SOL     OW 1411   3.986   4.358   6.732
  171SOL    HW1 1412   3.989   4.259   6.735
  171SOL    HW2 1413   3.891   4.388   6.729
  172SOL     OW 1414   6.045   1.818   3.713
  172SOL    HW1 1415   6.050   1.776   3.803
  172SOL    HW2 1416   6.111   1.893   3.707
  173SOL     OW 1417   0.065   1.905   4.485
  173SOL    HW1 1418   0.024   1.875   4.399
  173SOL    HW2 1419   0.062   2.005   4.491
  174SOL     OW 1420   3.614   5.283   3.632
  174SOL    HW1 1421   3.567   5.195   3.620
  174SOL    HW2 1422   3.564   5.338   3.699
  175SOL     OW 1423   2.387   0.318   1.747
  175SOL    HW1 1424   2.388   0.261   1.665
  175SOL    HW2 1425   2.332   0.400   1.730
  176SOL     OW 1426   1.337   4.575   0.822
  176SOL    HW1 1427   1.415   4.526   0.783
  176SOL    HW2 1428   1.256   4.516   0.819
  177SOL     OW 1429   6.086   3.170   2.876
  177SOL    HW1 1430   6.024   3.092   2.865
  177SOL    HW2 1431   6.062   3.221   2.959
  178SOL     OW 1432   2.295   2.601   6.949
  178SOL    HW1 1433   2.376   2.659   6.951
  178SOL    HW2 1434   2.322   2.505   6.961
  179SOL     OW 1435   2.776   1.205   5.820
  179SOL    HW1 1436   2.723   1.122   5.807
  179SOL    HW2 1437   2.868   1.182   5.853
  180SOL     OW 1438   1.897   6.765   0.318
  180SOL    HW1 1439   1.899   6.816   0.404
  180SOL    HW2 1440   1.873   6.670   0.336
  181SOL     OW 1441   3.239   2.515   6.358
  181SOL    HW1 1442   3.257   2.612   6.344
  181SOL    HW2 1443   3.291   2.482   6.437
  182SOL     OW 1444   3.604   1.304   4.499
  182SOL    HW1 1445   3.571   1.374   4.563
  182SOL    HW2 1446   3.694   1.272   4.528
  183SOL     OW 1447   3.558   2.136   3.181
  183SOL    HW1 1448   3.522   2.117   3.272
  183SOL    HW2 1449   3.638   2.196   3.189
  184SOL     OW 1450   1.754   6.356   4.358
  184SOL    HW1 1451   1.676   6.335   4.298
  184SOL    HW2 1452   1.726   6.347   4.453
  185SOL     OW 1453   0.291   1.518   6.231
  185SOL    HW1 1454   0.269   1.447   6.164
  185SOL    HW2 1455   0.370   1.489   6.285
  186SOL     OW 1456   5.524   0.996   4.372
  186SOL    HW1 1457   5.445   0.935   4.364
  186SOL    HW2 1458   5.528   1.057   4.293
  187SOL     OW 1459   4.200   6.920   3.452
  187SOL    HW1 1460   4.231   6.891   3.362
  187SOL    HW2 1461   4.115   6.972   3.444
  188SOL     OW 1462   0.484   1.621   2.565
  188SOL    HW1 1463   0.481   1.522   2.556
  188SOL    HW2 1464   0.523   1.646   2.654
  189SOL     OW 1465   1.877   5.661   1.511
  189SOL    HW1 1466   1.977   5.664   1.511
  189SOL    HW2 1467   1.842   5.698   1.424
  190SOL     OW 1468   5.321   2.023   4.620
  190SOL    HW1 1469   5.303   2.035   4.717
  190SOL    HW2 1470   5.275   1.940   4.587
  191SOL     OW 1471   5.692   6.305   6.824
  191SOL    HW1 1472   5.604   6.345   6.799
  191SOL    HW2 1473   5.723   6.244   6.751
  192SOL     OW 1474   0.787   5.969   2.139
  192SOL    HW1 1475   0.859   6.031   2.171
  192SOL    HW2 1476   0.715   5.964   2.209
  193SOL     OW 1477   4.966   2.834   5.614
  193SOL    HW1 1478   5.034   2.778   5.661
  193SOL    HW2 1479   4.992   2.845   5.518
  194SOL     OW 1480   3.894   0.838   2.774
  194SOL    HW1 1481   3.906   0.786   2.858
  194SOL    HW2 1482   3.800   0.871   2.768
  195SOL     OW 1483   1.748   0.297   4.752
  195SOL    HW1 1484   1.682   0.247   4.696
  195SOL    HW2 1485   1.700   0.341   4.829
  196SOL     OW 1486   2.727   0.219   0.507
  196SOL    HW1 1487   2.684   0.210   0.597
  196SOL    HW2 1488   2.660   0.256   0.442
  197SOL     OW 1489   3.026   0.128   1.763
  197SOL    HW1 1490   3.073   0.050   1.805
  197SOL    HW2 1491   2.967   0.171   1.831
  198SOL     OW 1492   4.553   0.573   2.826
  198SOL    HW1 1493   4.513   0.642   2.765
  198SOL    HW2 1494   4.623   0.521   2.777
  199SOL     OW 1495   0.008   2.258   3.819
  199SOL    HW1 1496   0.031   2.197   3.895
  199SOL    HW2 1497   0.014   2.207   3.733
  200SOL     OW 1498   1.501   3.593   0.632
  200SOL    HW1 1499   1.409   3.584   0.670
  200SOL    HW2 1500   1.498   3.643   0.546
  201SOL     OW 1501   0.175   6.921   5.942
  201SOL    HW1 1502   0.115   6.996   5.971
  201SOL    HW2 1503   0.180   6.853   6.015
  202SOL     OW 1504   3.728   1.042   0.139
  202SOL    HW1 1505   3.814   1.019   0.093
  202SOL    HW2 1506   3.748   1.094   0.222
  203SOL     OW 1507   5.693   2.724   5.542
  203SOL    HW1 1508   5.609   2.768   5.509
  203SOL    HW2 1509   5.710   2.641   5.489
  204SOL     OW 1510   1.207   0.591   4.705
  204SOL    HW1 1511   1.143   0.576   4.630
  204SOL    HW2 1512   1.159   0.626   4.785
  205SOL     OW 1513   0.355   2.479   2.949
  205SOL    HW1 1514   0.283   2.427   2.994
  205SOL    HW2 1515   0.336   2.577   2.958
  206SOL     OW 1516   0.533   4.658   0.855
  206SOL    HW1 1517   0.458   4.650   0.789
  206SOL    HW2 1518   0.522   4.742   0.908
  207SOL     OW 1519   6.341   1.610   3.850
  207SOL    HW1 1520   6.432   1.575   3.828
  207SOL    HW2 1521   6.316   1.580   3.943
  208SOL     OW 1522   6.752   4.401   5.727
  208SOL    HW1 1523   6.784   4.306   5.729
  208SOL    HW2 1524   6.676   4.409   5.663
  209SOL     OW 1525   0.574   5.589   4.129
  209SOL    HW1 1526   0.475   5.579   4.114
  209SOL    HW2 1527   0.594   5.683   4.155
  210SOL     OW 1528   4.580   1.545   0.698
  210SOL    HW1 1529   4.668   1.521   0.657
  210SOL    HW2 1530   4.575   1.644   0.710
  211SOL     OW 1531   1.781   6.487   2.360
  211SOL    HW1 1532   1.704   6.426   2.376
  211SOL    HW2 1533   1.861   6.454   2.410
  212SOL     OW 1534   1.308   3.649   1.583
  212SOL    HW1 1535   1.329   3.747   1.587
  212SOL    HW2 1536   1.348   3.603   1.662
  213SOL     OW 1537   3.010   0.088   0.724
  213SOL    HW1 1538   2.964   0.174   0.744
  213SOL    HW2 1539   3.082   0.073   0.791
  214SOL     OW 1540   3.755   5.485   2.810
  214SOL    HW1 1541   3.803   5.406   2.771
  214SOL    HW2 1542   3.795   5.569   2.772
  215SOL     OW 1543   2.900   3.653   0.676
  215SOL    HW1 1544   2.914   3.751   0.692
  215SOL    HW2 1545   2.967   3.601   0.729
  216SOL     OW 1546   1.192   5.835   3.336
  216SOL    HW1 1547   1.196   5.935   3.334
  216SOL    HW2 1548   1.167   5.804   3.427
  217SOL     OW 1549   1.142   2.852   3.957
  217SOL    HW1 1550   1.069   2.898   3.908
  217SOL    HW2 1551   1.108   2.820   4.045
  218SOL     OW 1552   0.816   3.548   4.417
  218SOL    HW1 1553   0.858   3.635   4.388
  218SOL    HW2 1554   0.746   3.567   4.486
  219SOL     OW 1555   4.286   0.632   0.150
  219SOL    HW1 1556   4.383   0.639   0.126
  219SOL    HW2 1557   4.275   0.566   0.224
  220SOL     OW 1558   3.229   6.906   1.675
  220SOL    HW1 1559   3.280   6.964   1.738
  220SOL    HW2 1560   3.260   6.812   1.684
  221SOL     OW 1561   5.913   4.272   1.144
  221SOL    HW1 1562   5.829   4.307   1.103
  221SOL    HW2 1563   5.895   4.239   1.237
  222SOL     OW 1564   1.563   4.700   5.490
  222SOL    HW1 1565   1.633   4.671   5.556
  222SOL    HW2 1566   1.517   4.619   5.452
  223SOL     OW 1567   6.569   3.418   6.414
  223SOL    HW1 1568   6.491   3.455   6.364
  223SOL    HW2 1569   6.607   3.489   6.474
  224SOL     OW 1570   2.708   1.736   5.931
  224SOL    HW1 1571   2.672   1.728   6.023
  224SOL    HW2 1572   2.771   1.661   5.913
  225SOL     OW 1573   4.832   3.852   6.708
  225SOL    HW1 1574   4.765   3.888   6.643
  225SOL    HW2 1575   4.856   3.759   6.683
  226SOL     OW 1576   1.016   1.480   5.637
  226SOL    HW1 1577   0.956   1.532   5.576
  226SOL    HW2 1578   1.107   1.473   5.596
  227SOL     OW 1579   0.825   3.972   1.452
  227SOL    HW1 1580   0.729   3.970   1.480
  227SOL    HW2 1581   0.853   4.066   1.437
  228SOL     OW 1582   2.680   0.163   3.623
  228SOL    HW1 1583   2.632   0.095   3.567
  228SOL    HW2 1584   2.742   0.216   3.566
  229SOL     OW 1585   6.246   6.344   6.107
  229SOL    HW1 1586   6.221   6.441   6.112
  229SOL    HW2 1587   6.330   6.333   6.054
  230SOL     OW 1588   3.683   4.919   3.388
  230SOL    HW1 1589   3.628   4.836   3.384
  230SOL    HW2 1590   3.687   4.961   3.298
  231SOL     OW 1591   6.135   1.381   6.883
  231SOL    HW1 1592   6.216   1.411   6.933
  231SOL    HW2 1593   6.082   1.317   6.939
  232SOL     OW 1594   0.492   3.350   6.658
  232SOL    HW1 1595   0.553   3.347   6.580
  232SOL    HW2 1596   0.427   3.273   6.653
  233SOL     OW 1597   3.358   1.339   2.981
  233SOL    HW1 1598   3.404   1.416   3.025
  233SOL    HW2 1599   3.323   1.277   3.050
  234SOL     OW 1600   5.207   0.775   6.366
  234SOL    HW1 1601   5.269   0.822   6.302
  234SOL    HW2 1602   5.113   0.784   6.334
  235SOL     OW 1603   4.685   2.728   1.739
  235SOL    HW1 1604   4.773   2.712   1.783
  235SOL    HW2 1605   4.620   2.763   1.806
  236SOL     OW 1606   5.871   2.810   6.808
  236SOL    HW1 1607   5.836   2.830   6.717
  236SOL    HW2 1608   5.950   2.870   6.827
  237SOL     OW 1609   6.975   4.643   1.743
  237SOL    HW1 1610   6.883   4.603   1.747
  237SOL    HW2 1611   0.018   4.579   1.696
  238SOL     OW 1612   5.398   0.857   0.341
  238SOL    HW1 1613   5.475   0.799   0.367
  238SOL    HW2 1614   5.386   0.929   0.409
  239SOL     OW 1615   1.155   4.664   6.443
  239SOL    HW1 1616   1.141   4.664   6.542
  239SOL    HW2 1617   1.104   4.740   6.402
  240SOL     OW 1618   6.602   2.679   3.183
  240SOL    HW1 1619   6.518   2.711   3.140
  240SOL    HW2 1620   6.608   2.717   3.276
  241SOL     OW 1621   2.852   2.226   4.992
  241SOL    HW1 1622   2.951   2.233   5.005
  241SOL    HW2 1623   2.807   2.222   5.081
  242SOL     OW 1624   3.843   3.964   4.242
  242SOL    HW1 1625   3.775   3.922   4.182
  242SOL    HW2 1626   3.875   3.897   4.309
  243SOL     OW 1627   4.375   0.908   6.534
  243SOL    HW1 1628   4.281   0.936   6.518
  243SOL    HW2 1629   4.385   0.874   6.627
  244SOL     OW 1630   6.068   3.316   5.535
  244SOL    HW1 1631   6.055   3.220   5.561
  244SOL    HW2 1632   6.025   3.375   5.603
  245SOL     OW 1633   5.087   2.321   4.258
  245SOL    HW1 1634   5.141   2.383   4.315
  245SOL    HW2 1635   5.148   2.268   4.199
  246SOL     OW 1636   4.973   2.087   3.208
  246SOL    HW1 1637   5.008   2.174   3.173
  246SOL    HW2 1638   4.892   2.103   3.264
  247SOL     OW 1639   2.856   1.448   0.055
  247SOL    HW1 1640   2.872   1.535   0.101
  247SOL    HW2 1641   2.761   1.420   0.071
  248SOL     OW 1642   3.952   1.413   2.682
  248SOL    HW1 1643   3.970   1.314   2.677
  248SOL    HW2 1644   3.906   1.443   2.599
  249SOL     OW 1645   4.283   0.564   4.571
  249SOL    HW1 1646   4.219   0.502   4.525
  249SOL    HW2 1647   4.237   0.649   4.593
  250SOL     OW 1648   5.062   3.375   0.505
  250SOL    HW1 1649   5.092   3.281   0.487
  250SOL    HW2 1650   4.973   3.390   0.461
  251SOL     OW 1651   4.809   3.776   5.651
  251SOL    HW1 1652   4.763   3.689   5.668
  251SOL    HW2 1653   4.838   3.816   5.738
  252SOL     OW 1654   0.061   6.107   5.256
  252SOL    HW1 1655   7.000   6.048   5.246
  252SOL    HW2 1656   0.116   6.078   5.334
  253SOL     OW 1657   2.831   4.968   6.474
  253SOL    HW1 1658   2.834   5.067   6.488
  253SOL    HW2 1659   2.899   4.943   6.405
  254SOL     OW 1660   6.201   2.089   3.800
  254SOL    HW1 1661   6.267   2.115   3.871
  254SOL    HW2 1662   6.115   2.062   3.843
  255SOL     OW 1663   1.699   4.854   5.310
  255SOL    HW1 1664   1.646   4.924   5.264
  255SOL    HW2 1665   1.638   4.798   5.366
  256SOL     OW 1666   6.246   3.845   6.221
  256SOL    HW1 1667   6.207   3.756   6.196
  256SOL    HW2 1668   6.278   3.892   6.139
  257SOL     OW 1669   4.973   0.418   3.940
  257SOL    HW1 1670   4.978   0.335   3.995
  257SOL    HW2 1671   5.014   0.402   3.851
  258SOL     OW 1672   2.330   5.069   5.092
  258SOL    HW1 1673   2.310   5.153   5.042
  258SOL    HW2 1674   2.245   5.028   5.124
  259SOL     OW 1675   6.626   2.254   2.972
  259SOL    HW1 1676   6.587   2.343   2.948
  259SOL    HW2 1677   6.568   2.181   2.935
  260SOL     OW 1678   4.220   0.029   1.605
  260SOL    HW1 1679   4.211   0.066   1.697
  260SOL    HW2 1680   4.131   7.018   1.572
  261SOL     OW 1681   6.619   3.254   0.500
  261SOL    HW1 1682   6.707   3.254   0.547
  261SOL    HW2 1683   6.606   3.168   0.451
  262SOL     OW 1684   0.640   3.625   6.907
  262SOL    HW1 1685   0.566   3.564   6.937
  262SOL    HW2 1686   0.636   3.637   6.808
  263SOL     OW 1687   2.391   0.790   4.565
  263SOL    HW1 1688   2.344   0.876   4.545
  263SOL    HW2 1689   2.423   0.791   4.660
  264SOL     OW 1690   5.898   3.167   7.006
  264SOL    HW1 1691   5.816   3.222   6.992
  264SOL    HW2 1692   5.972   3.225   0.022
  265SOL     OW 1693   5.196   6.541   2.852
  265SOL    HW1 1694   5.239   6.491   2.927
  265SOL    HW2 1695   5.255   6.538   2.771
  266SOL     OW 1696   3.620   2.499   5.940
  266SOL    HW1 1697   3.618   2.405   5.973
  266SOL    HW2 1698   3.529   2.526   5.909
  267SOL     OW 1699   0.879   1.432   6.502
  267SOL    HW1 1700   0.855   1.378   6.582
  267SOL    HW2 1701   0.835   1.393   6.421
  268SOL     OW 1702   3.890   1.528   6.157
  268SOL    HW1 1703   3.806   1.491   6.118
  268SOL    HW2 1704   3.906   1.486   6.246
  269SOL     OW 1705   1.845   3.389   1.218
  269SOL    HW1 1706   1.935   3.352   1.241
  269SOL    HW2 1707   1.849   3.488   1.214
  270SOL     OW 1708   1.227   6.776   0.448
  270SOL    HW1 1709   1.240   6.874   0.436
  270SOL    HW2 1710   1.169   6.759   0.527
  271SOL     OW 1711   6.845   1.809   6.934
  271SOL    HW1 1712   6.812   1.883   6.876
  271SOL    HW2 1713   6.771   1.777   6.993
  272SOL     OW 1714   3.720   5.389   4.077
  272SOL    HW1 1715   3.626   5.414   4.053
  272SOL    HW2 1716   3.731   5.392   4.176
  273SOL     OW 1717   2.300   4.516   4.419
  273SOL    HW1 1718   2.362   4.552   4.489
  273SOL    HW2 1719   2.215   4.569   4.418
  274SOL     OW 1720   3.948   1.907   3.225
  274SOL    HW1 1721   3.926   1.810   3.241
  274SOL    HW2 1722   4.010   1.939   3.297
  275SOL     OW 1723   6.219   5.094   3.668
  275SOL    HW1 1724   6.256   5.150   3.593
  275SOL    HW2 1725   6.282   5.097   3.746
  276SOL     OW 1726   6.480   6.718   2.788
  276SOL    HW1 1727   6.432   6.801   2.817
  276SOL    HW2 1728   6.415   6.656   2.744
  277SOL     OW 1729   1.622   4.152   0.204
  277SOL    HW1 1730   1.705   4.206   0.192
  277SOL    HW2 1731   1.568   4.155   0.120
  278SOL     OW 1732   6.897   4.900   1.678
  278SOL    HW1 1733   6.955   4.821   1.696
  278SOL    HW2 1734   6.953   4.975   1.643
  279SOL     OW 1735   6.035   3.627   4.255
  279SOL    HW1 1736   6.107   3.662   4.314
  279SOL    HW2 1737   5.987   3.552   4.301
  280SOL     OW 1738   3.032   6.696   3.521
  280SOL    HW1 1739   3.074   6.651   3.442
  280SOL    HW2 1740   3.095   6.694   3.599
  281SOL     OW 1741   2.799   4.207   1.709
  281SOL    HW1 1742   2.811   4.197   1.610
  281SOL    HW2 1743   2.853   4.285   1.741
  282SOL     OW 1744   3.157   1.285   6.027
  282SOL    HW1 1745   3.083   1.220   6.040
  282SOL    HW2 1746   3.195   1.275   5.935
  283SOL     OW 1747   6.443   1.662   6.479
  283SOL    HW1 1748   6.414   1.662   6.383
  283SOL    HW2 1749   6.363   1.664   6.538
  284SOL     OW 1750   1.508   4.180   3.554
  284SOL    HW1 1751   1.424   4.186   3.500
  284SOL    HW2 1752   1.489   4.205   3.649
  285SOL     OW 1753   5.962   4.787   4.752
  285SOL    HW1 1754   6.018   4.707   4.730
  285SOL    HW2 1755   5.884   4.758   4.808
  286SOL     OW 1756   3.228   5.459   5.977
  286SOL    HW1 1757   3.160   5.464   5.904
  286SOL    HW2 1758   3.279   5.544   5.980
  287SOL     OW 1759   0.870   3.746   0.574
  287SOL    HW1 1760   0.856   3.647   0.585
  287SOL    HW2 1761   0.950   3.775   0.626
  288SOL     OW 1762   3.781   1.412   6.508
  288SOL    HW1 1763   3.818   1.473   6.578
  288SOL    HW2 1764   3.688   1.442   6.485
  289SOL     OW 1765   0.693   4.103   5.300
  289SOL    HW1 1766   0.726   4.195   5.316
  289SOL    HW2 1767   0.707   4.078   5.204
  290SOL     OW 1768   6.188   2.134   5.075
  290SOL    HW1 1769   6.279   2.094   5.059
  290SOL    HW2 1770   6.128   2.065   5.116
  291SOL     OW 1771   1.688   2.244   4.448
  291SOL    HW1 1772   1.717   2.177   4.380
  291SOL    HW2 1773   1.762   2.308   4.467
  292SOL     OW 1774   1.304   2.842   3.414
  292SOL    HW1 1775   1.400   2.838   3.387
  292SOL    HW2 1776   1.249   2.876   3.338
  293SOL     OW 1777   4.295   5.794   2.408
  293SOL    HW1 1778   4.275   5.783   2.506
  293SOL    HW2 1779   4.284   5.889   2.382
  294SOL     OW 1780   1.297   5.357   6.432
  294SOL    HW1 1781   1.242   5.426   6.384
  294SOL    HW2 1782   1.244   5.274   6.443
  295SOL     OW 1783   3.470   1.703   3.548
  295SOL    HW1 1784   3.532   1.753   3.488
  295SOL    HW2 1785   3.456   1.610   3.513
  296SOL     OW 1786   3.828   2.158   3.122
  296SOL    HW1 1787   3.881   2.201   3.050
  296SOL    HW2 1788   3.856   2.063   3.133
  297SOL     OW 1789   2.452   4.662   3.658
  297SOL    HW1 1790   2.549   4.678   3.639
  297SOL    HW2 1791   2.409   4.746   3.689
  298SOL     OW 1792   3.502   5.944   1.362
  298SOL    HW1 1793   3.528   6.004   1.286
  298SOL    HW2 1794   3.551   5.857   1.354
  299SOL     OW 1795   5.460   3.091   6.315
  299SOL    HW1 1796   5.410   3.047   6.389
  299SOL    HW2 1797   5.524   3.025   6.274
  300SOL     OW 1798   6.488   0.997   2.626
  300SOL    HW1 1799   6.398   0.953   2.627
  300SOL    HW2 1800   6.507   1.034   2.535
  301SOL     OW 1801   4.662   3.441   1.333
  301SOL    HW1 1802   4.707   3.466   1.248
  301SOL    HW2 1803   4.731   3.418   1.402
  302SOL     OW 1804   0.976   0.665   3.167
  302SOL    HW1 1805   0.912   0.725   3.215
  302SOL    HW2 1806   0.970   0.573   3.206
  303SOL     OW 1807   5.782   0.697   2.147
  303SOL    HW1 1808   5.834   0.615   2.123
  303SOL    HW2 1809   5.709   0.711   2.080
  304SOL     OW 1810   2.552   0.270   4.039
  304SOL    HW1 1811   2.559   0.367   4.063
  304SOL    HW2 1812   2.626   0.246   3.976
  305SOL     OW 1813   0.778   3.310   0.345
  305SOL    HW1 1814   0.770   3.385   0.279
  305SOL    HW2 1815   0.839   3.337   0.420
  306SOL     OW 1816   1.719   1.430   3.533
  306SOL    HW1 1817   1.740   1.497   3.462
  306SOL    HW2 1818   1.751   1.465   3.621
  307SOL     OW 1819   4.664   6.779   0.775
  307SOL    HW1 1820   4.756   6.817   0.777
  307SOL    HW2 1821   4.623   6.787   0.866
  308SOL     OW 1822   6.428   3.724   5.354
  308SOL    HW1 1823   6.436   3.734   5.255
  308SOL    HW2 1824   6.510   3.678   5.390
  309SOL     OW 1825   3.615   4.463   6.475
  309SOL    HW1 1826   3.538   4.400   6.467
  309SOL    HW2 1827   3.664   4.468   6.388
  310SOL     OW 1828   6.500   6.515   5.809
  310SOL    HW1 1829   6.580   6.563   5.844
  310SOL    HW2 1830   6.473   6.555   5.721
  311SOL     OW 1831   6.062   5.435   1.525
  311SOL    HW1 1832   6.022   5.438   1.433
  311SOL    HW2 1833   6.158   5.464   1.520
  312SOL     OW 1834   4.261   1.605   5.549
  312SOL    HW1 1835   4.295   1.699   5.552
  312SOL    HW2 1836   4.209   1.585   5.632
  313SOL     OW 1837   2.975   4.019   1.826
  313SOL    HW1 1838   3.067   4.036   1.792
  313SOL    HW2 1839   2.915   4.094   1.797
  314SOL     OW 1840   3.387   5.128   6.708
  314SOL    HW1 1841   3.304   5.075   6.695
  314SOL    HW2 1842   3.465   5.066   6.719
  315SOL     OW 1843   0.936   3.323   3.294
  315SOL    HW1 1844   0.921   3.264   3.373
  315SOL    HW2 1845   0.888   3.410   3.307
  316SOL     OW 1846   2.458   2.529   3.861
  316SOL    HW1 1847   2.407   2.443   3.869
  316SOL    HW2 1848   2.555   2.510   3.853
  317SOL     OW 1849   0.855   0.409   1.356
  317SOL    HW1 1850   0.861   0.382   1.453
  317SOL    HW2 1851   0.808   0.337   1.304
  318SOL     OW 1852   0.784   6.194   6.885
  318SOL    HW1 1853   0.686   6.206   6.900
  318SOL    HW2 1854   0.811   6.101   6.911
  319SOL     OW 1855   0.100   0.783   3.082
  319SOL    HW1 1856   0.059   0.703   3.039
  319SOL    HW2 1857   0.094   0.862   3.021
  320SOL     OW 1858   5.661   2.210   6.956
  320SOL    HW1 1859   5.656   2.133   0.001
  320SOL    HW2 1860   5.571   2.251   6.944
  321SOL     OW 1861   2.962   1.473   1.545
  321SOL    HW1 1862   3.019   1.513   1.616
  321SOL    HW2 1863   2.940   1.542   1.477
  322SOL     OW 1864   3.377   3.652   4.752
  322SOL    HW1 1865   3.319   3.688   4.679
  322SOL    HW2 1866   3.321   3.598   4.816
  323SOL     OW 1867   0.463   3.409   6.933
  323SOL    HW1 1868   0.388   3.356   6.972
  323SOL    HW2 1869   0.471   3.390   6.835
  324SOL     OW 1870   2.252   2.932   4.039
  324SOL    HW1 1871   2.183   2.859   4.033
  324SOL    HW2 1872   2.229   3.005   3.975
  325SOL     OW 1873   1.828   3.079   1.960
  325SOL    HW1 1874   1.889   3.015   1.913
  325SOL    HW2 1875   1.878   3.163   1.979
  326SOL     OW 1876   1.886   5.467   6.327
  326SOL    HW1 1877   1.941   5.439   6.248
  326SOL    HW2 1878   1.927   5.430   6.410
  327SOL     OW 1879   1.664   5.503   3.835
  327SOL    HW1 1880   1.613   5.449   3.767
  327SOL    HW2 1881   1.624   5.489   3.925
  328SOL     OW 1882   3.089   5.204   2.265
  328SOL    HW1 1883   3.158   5.173   2.330
  328SOL    HW2 1884   3.126   5.199   2.172
  329SOL     OW 1885   3.061   3.897   4.349
  329SOL    HW1 1886   3.094   3.902   4.255
  329SOL    HW2 1887   3.110   3.964   4.405
  330SOL     OW 1888   3.545   6.510   1.804
  330SOL    HW1 1889   3.517   6.509   1.900
  330SOL    HW2 1890   3.586   6.598   1.783
  331SOL     OW 1891   4.330   5.004   6.732
  331SOL    HW1 1892   4.296   5.082   6.679
  331SOL    HW2 1893   4.417   4.973   6.695
  332SOL     OW 1894   3.536   2.120   4.541
  332SOL    HW1 1895   3.448   2.156   4.508
  332SOL    HW2 1896   3.531   2.020   4.544
  333SOL     OW 1897   3.194   6.846   6.672
  333SOL    HW1 1898   3.166   6.774   6.736
  333SOL    HW2 1899   3.290   6.832   6.647
  334SOL     OW 1900   2.560   0.205   1.004
  334SOL    HW1 1901   2.488   0.209   1.073
  334SOL    HW2 1902   2.594   0.298   0.986
  335SOL     OW 1903   3.779   6.482   4.344
  335SOL    HW1 1904   3.828   6.396   4.329
  335SOL    HW2 1905   3.814   6.526   4.427
  336SOL     OW 1906   2.597   1.202   4.043
  336SOL    HW1 1907   2.609   1.222   4.140
  336SOL    HW2 1908   2.528   1.263   4.004
  337SOL     OW 1909   0.232   3.650   1.018
  337SOL    HW1 1910   0.262   3.564   0.978
  337SOL    HW2 1911   0.210   3.715   0.945
  338SOL     OW 1912   2.751   2.250   0.895
  338SOL    HW1 1913   2.681   2.241   0.823
  338SOL    HW2 1914   2.841   2.253   0.852
  339SOL     OW 1915   3.880   6.609   4.558
  339SOL    HW1 1916   3.957   6.611   4.622
  339SOL    HW2 1917   3.795   6.629   4.608
  340SOL     OW 1918   4.964   4.295   4.745
  340SOL    HW1 1919   4.864   4.302   4.746
  340SOL    HW2 1920   4.991   4.207   4.783
  341SOL     OW 1921   6.320   6.893   4.285
  341SOL    HW1 1922   6.234   6.843   4.283
  341SOL    HW2 1923   6.377   6.866   4.207
  342SOL     OW 1924   5.669   3.804   0.360
  342SOL    HW1 1925   5.661   3.750   0.276
  342SOL    HW2 1926   5.582   3.849   0.379
  343SOL     OW 1927   1.881   5.835   0.775
  343SOL    HW1 1928   1.848   5.870   0.862
  343SOL    HW2 1929   1.919   5.744   0.788
  344SOL     OW 1930   1.721   5.197   1.669
  344SOL    HW1 1931   1.641   5.203   1.728
  344SOL    HW2 1932   1.789   5.265   1.699
  345SOL     OW 1933   6.494   1.020   5.552
  345SOL    HW1 1934   6.472   0.930   5.590
  345SOL    HW2 1935   6.430   1.088   5.588
  346SOL     OW 1936   1.908   0.789   1.708
  346SOL    HW1 1937   1.898   0.826   1.800
  346SOL    HW2 1938   1.997   0.745   1.698
  347SOL     OW 1939   4.042   6.531   6.413
  347SOL    HW1 1940   3.961   6.509   6.468
  347SOL    HW2 1941   4.017   6.598   6.344
  348SOL     OW 1942   5.002   5.230   1.089
  348SOL    HW1 1943   4.938   5.211   1.163
  348SOL    HW2 1944   5.091   5.190   1.111
  349SOL     OW 1945   6.748   4.471   1.665
  349SOL    HW1 1946   6.703   4.386   1.638
  349SOL    HW2 1947   6.686   4.523   1.724
  350SOL     OW 1948   3.800   3.304   1.707
  350SOL    HW1 1949   3.778   3.209   1.731
  350SOL    HW2 1950   3.899   3.313   1.693
  351SOL     OW 1951   2.545   2.111   0.262
  351SOL    HW1 1952   2.491   2.186   0.299
  351SOL    HW2 1953   2.628   2.148   0.220
  352SOL     OW 1954   3.564   6.945   4.801
  352SOL    HW1 1955   3.472   6.939   4.839
  352SOL    HW2 1956   3.598   0.020   4.812
  353SOL     OW 1957   2.807   0.078   1.062
  353SOL    HW1 1958   2.710   0.100   1.048
  353SOL    HW2 1959   2.827   7.006   1.025
  354SOL     OW 1960   4.660   2.199   0.364
  354SOL    HW1 1961   4.751   2.213   0.402
  354SOL    HW2 1962   4.613   2.287   0.358
  355SOL     OW 1963   6.886   3.012   3.089
  355SOL    HW1 1964   6.870   2.924   3.044
  355SOL    HW2 1965   6.942   3.071   3.031
  356SOL     OW 1966   4.414   5.514   4.565
  356SOL    HW1 1967   4.457   5.604   4.565
  356SOL    HW2 1968   4.471   5.449   4.514
  357SOL     OW 1969   6.739   0.030   5.603
  357SOL    HW1 1970   6.712   7.014   5.513
  357SOL    HW2 1971   6.838   0.031   5.610
  358SOL     OW 1972   5.192   0.296   2.073
  358SOL    HW1 1973   5.279   0.335   2.041
  358SOL    HW2 1974   5.206   0.253   2.163
  359SOL     OW 1975   1.723   1.891   2.634
  359SOL    HW1 1976   1.692   1.827   2.704
  359SOL    HW2 1977   1.770   1.968   2.677
  360SOL     OW 1978   2.183   6.264   6.405
  360SOL    HW1 1979   2.165   6.167   6.424
  360SOL    HW2 1980   2.280   6.283   6.419
  361SOL     OW 1981   5.470   5.527   2.929
  361SOL    HW1 1982   5.391   5.501   2.875
  361SOL    HW2 1983   5.552   5.480   2.894
  362SOL     OW 1984   3.631   3.749   0.657
  362SOL    HW1 1985   3.707   3.695   0.693
  362SOL    HW2 1986   3.659   3.845   0.649
  363SOL     OW 1987   4.516   4.884   3.576
  363SOL    HW1 1988   4.586   4.814   3.570
  363SOL    HW2 1989   4.500   4.923   3.485
  364SOL     OW 1990   0.332   5.597   5.385
  364SOL    HW1 1991   0.300   5.529   5.319
  364SOL    HW2 1992   0.349   5.553   5.473
  365SOL     OW 1993   4.863   5.460   2.489
  365SOL    HW1 1994   4.920   5.448   2.408
  365SOL    HW2 1995   4.775   5.501   2.463
  366SOL     OW 1996   5.688   1.022   0.487
  366SOL    HW1 1997   5.631   1.089   0.534
  366SOL    HW2 1998   5.778   1.018   0.531
  367SOL     OW 1999   5.300   2.763   0.806
  367SOL    HW1 2000   5.385   2.813   0.821
  367SOL    HW2 2001   5.267   2.726   0.893
  368SOL     OW 2002   0.764   4.004   4.676
  368SOL    HW1 2003   0.831   3.961   4.736
  368SOL    HW2 2004   0.672   3.984   4.708
  369SOL     OW 2005   6.479   4.815   1.681
  369SOL    HW1 2006   6.546   4.800   1.609
  369SOL    HW2 2007   6.417   4.736   1.685
  370SOL     OW 2008   3.363   1.916   5.626
  370SOL    HW1 2009   3.319   1.861   5.555
  370SOL    HW2 2010   3.396   2.001   5.586
  371SOL     OW 2011   2.474   3.611   6.502
  371SOL    HW1 2012   2.424   3.687   6.459
  371SOL    HW2 2013   2.486   3.631   6.600
  372SOL     OW 2014   6.461   0.748   5.099
  372SOL    HW1 2015   6.426   0.806   5.026
  372SOL    HW2 2016   6.387   0.694   5.138
  373SOL     OW 2017   6.261   6.701   5.267
  373SOL    HW1 2018   6.221   6.774   5.322
  373SOL    HW2 2019   6.225   6.613   5.299
  374SOL     OW 2020   4.262   6.829   2.579
  374SOL    HW1 2021   4.294   6.807   2.671
  374SOL    HW2 2022   4.268   6.928   2.565
  375SOL     OW 2023   0.219   5.112   3.730
  375SOL    HW1 2024   0.298   5.051   3.724
  375SOL    HW2 2025   0.139   5.060   3.757
  376SOL     OW 2026   1.735   3.220   3.802
  376SOL    HW1 2027   1.777   3.163   3.731
  376SOL    HW2 2028   1.643   3.185   3.823
  377SOL     OW 2029   6.201   2.686   1.961
  377SOL    HW1 2030   6.184   2.606   1.904
  377SOL    HW2 2031   6.267   2.746   1.916
  378SOL     OW 2032   3.549   2.501   5.493
  378SOL    HW1 2033   3.565   2.410   5.530
  378SOL    HW2 2034   3.473   2.544   5.543
  379SOL     OW 2035   6.081   4.270   1.697
  379SOL    HW1 2036   5.994   4.319   1.695
  379SOL    HW2 2037   6.109   4.249   1.603
  380SOL     OW 2038   2.668   1.800   1.779
  380SOL    HW1 2039   2.595   1.785   1.712
  380SOL    HW2 2040   2.727   1.719   1.782
  381SOL     OW 2041   1.913   4.694   1.704
  381SOL    HW1 2042   1.900   4.652   1.614
  381SOL    HW2 2043   1.909   4.624   1.775
  382SOL     OW 2044   4.887   5.775   6.436
  382SOL    HW1 2045   4.917   5.697   6.491
  382SOL    HW2 2046   4.953   5.850   6.446
  383SOL     OW 2047   6.173   3.245   6.404
  383SOL    HW1 2048   6.253   3.221   6.460
  383SOL    HW2 2049   6.169   3.184   6.324
  384SOL     OW 2050   0.976   3.920   4.919
  384SOL    HW1 2051   1.030   3.941   4.837
  384SOL    HW2 2052   0.933   3.831   4.908
  385SOL     OW 2053   4.736   6.245   0.070
  385SOL    HW1 2054   4.805   6.236   7.017
  385SOL    HW2 2055   4.646   6.219   0.034
  386SOL     OW 2056   3.781   6.992   5.147
  386SOL    HW1 2057   3.797   6.956   5.055
  386SOL    HW2 2058   3.862   6.977   5.203
  387SOL     OW 2059   0.169   6.077   3.460
  387SOL    HW1 2060   0.207   6.125   3.381
  387SOL    HW2 2061   0.073   6.102   3.472
  388SOL     OW 2062   0.656   1.982   4.458
  388SOL    HW1 2063   0.559   1.958   4.456
  388SOL    HW2 2064   0.691   1.971   4.551
  389SOL     OW 2065   4.292   4.132   1.661
  389SOL    HW1 2066   4.252   4.051   1.705
  389SOL    HW2 2067   4.355   4.177   1.724
  390SOL     OW 2068   3.531   1.030   6.981
  390SOL    HW1 2069   3.613   1.036   0.019
  390SOL    HW2 2070   3.463   1.096   7.013
  391SOL     OW 2071   2.253   4.137   5.340
  391SOL    HW1 2072   2.171   4.166   5.291
  391SOL    HW2 2073   2.317   4.096   5.276
  392SOL     OW 2074   1.793   3.097   2.289
  392SOL    HW1 2075   1.729   3.164   2.251
  392SOL    HW2 2076   1.887   3.129   2.275
  393SOL     OW 2077   1.547   5.597   0.334
  393SOL    HW1 2078   1.573   5.675   0.392
  393SOL    HW2 2079   1.616   5.585   0.263
  394SOL     OW 2080   0.867   3.080   6.653
  394SOL    HW1 2081   0.785   3.046   6.607
  394SOL    HW2 2082   0.841   3.130   6.735
  395SOL     OW 2083   5.157   4.235   2.155
  395SOL    HW1 2084   5.173   4.137   2.165
  395SOL    HW2 2085   5.193   4.266   2.067
  396SOL     OW 2086   2.174   2.043   2.350
  396SOL    HW1 2087   2.078   2.032   2.322
  396SOL    HW2 2088   2.226   1.963   2.320
  397SOL     OW 2089   5.448   1.349   5.703
  397SOL    HW1 2090   5.452   1.258   5.744
  397SOL    HW2 2091   5.509   1.353   5.623
  398SOL     OW 2092   1.084   6.290   4.580
  398SOL    HW1 2093   1.033   6.305   4.496
  398SOL    HW2 2094   1.169   6.342   4.578
  399SOL     OW 2095   6.341   5.678   4.212
  399SOL    HW1 2096   6.319   5.706   4.305
  399SOL    HW2 2097   6.388   5.753   4.165
  400SOL     OW 2098   6.823   6.571   5.190
  400SOL    HW1 2099   6.755   6.562   5.117
  400SOL    HW2 2100   6.801   6.650   5.247
  401SOL     OW 2101   6.062   0.264   6.451
  401SOL    HW1 2102   6.033   0.352   6.415
  401SOL    HW2 2103   6.008   0.240   6.531
  402SOL     OW 2104   6.382   0.352   2.346
  402SOL    HW1 2105   6.421   0.440   2.317
  402SOL    HW2 2106   6.456   0.293   2.379
  403SOL     OW 2107   3.263   0.132   6.814
  403SOL    HW1 2108   3.225   0.047   6.852
  403SOL    HW2 2109   3.202   0.208   6.834
  404SOL     OW 2110   3.015   5.896   5.487
  404SOL    HW1 2111   2.947   5.857   5.426
  404SOL    HW2 2112   2.978   5.902   5.580
  405SOL     OW 2113   2.337   4.265   3.587
  405SOL    HW1 2114   2.331   4.301   3.494
  405SOL    HW2 2115   2.262   4.201   3.603
  406SOL     OW 2116   0.691   4.805   5.303
  406SOL    HW1 2117   0.637   4.723   5.282
  406SOL    HW2 2118   0.734   4.839   5.219
  407SOL     OW 2119   1.355   3.026   3.762
  407SOL    HW1 2120   1.377   2.935   3.726
  407SOL    HW2 2121   1.315   3.017   3.853
  408SOL     OW 2122   3.488   2.108   2.926
  408SOL    HW1 2123   3.508   2.131   3.021
  408SOL    HW2 2124   3.574   2.093   2.877
  409SOL     OW 2125   6.810   3.779   1.933
  409SOL    HW1 2126   6.771   3.851   1.990
  409SOL    HW2 2127   6.895   3.812   1.891
  410SOL     OW 2128   1.592   2.068   1.417
  410SOL    HW1 2129   1.637   2.130   1.483
  410SOL    HW2 2130   1.650   1.988   1.403
  411SOL     OW 2131   6.787   2.089   1.996
  411SOL    HW1 2132   6.733   2.005   1.986
  411SOL    HW2 2133   6.876   2.066   2.037
  412SOL     OW 2134   2.877   5.240   2.915
  412SOL    HW1 2135   2.906   5.173   2.983
  412SOL    HW2 2136   2.807   5.200   2.857
  413SOL     OW 2137   3.464   5.231   1.886
  413SOL    HW1 2138   3.462   5.228   1.986
  413SOL    HW2 2139   3.518   5.154   1.852
  414SOL     OW 2140   3.376   0.451   3.846
  414SOL    HW1 2141   3.337   0.532   3.802
  414SOL    HW2 2142   3.425   0.396   3.778
  415SOL     OW 2143   0.152   1.653   0.552
  415SOL    HW1 2144   0.121   1.694   0.466
  415SOL    HW2 2145   0.167   1.555   0.539
  416SOL     OW 2146   5.087   4.428   4.493
  416SOL    HW1 2147   5.164   4.365   4.493
  416SOL    HW2 2148   5.039   4.422   4.581
  417SOL     OW 2149   2.099   1.231   6.522
  417SOL    HW1 2150   2.054   1.304   6.471
  417SOL    HW2 2151   2.196   1.252   6.532
  418SOL     OW 2152   3.091   0.022   5.287
  418SOL    HW1 2153   3.102   6.961   5.227
  418SOL    HW2 2154   3.177   0.041   5.334
  419SOL     OW 2155   6.852   6.783   3.032
  419SOL    HW1 2156   6.872   6.862   2.974
  419SOL    HW2 2157   6.794   6.719   2.983
  420SOL     OW 2158   5.507   0.967   6.540
  420SOL    HW1 2159   5.592   0.959   6.488
  420SOL    HW2 2160   5.492   0.882   6.593
  421SOL     OW 2161   5.962   4.146   5.639
  421SOL    HW1 2162   5.998   4.237   5.619
  421SOL    HW2 2163   5.863   4.149   5.647
  422SOL     OW 2164   5.066   1.766   0.852
  422SOL    HW1 2165   5.098   1.708   0.927
  422SOL    HW2 2166   4.973   1.798   0.872
  423SOL     OW 2167   2.772   0.591   6.487
  423SOL    HW1 2168   2.692   0.617   6.432
  423SOL    HW2 2169   2.742   0.552   6.574
  424SOL     OW 2170   1.930   5.423   3.204
  424SOL    HW1 2171   1.861   5.356   3.179
  424SOL    HW2 2172   1.913   5.509   3.156
  425SOL     OW 2173   4.797   1.102   5.147
  425SOL    HW1 2174   4.764   1.033   5.083
  425SOL    HW2 2175   4.784   1.070   5.241
  426SOL     OW 2176   2.348   2.648   5.160
  426SOL    HW1 2177   2.371   2.731   5.212
  426SOL    HW2 2178   2.324   2.673   5.067
  427SOL     OW 2179   4.949   1.151   4.280
  427SOL    HW1 2180   4.919   1.195   4.364
  427SOL    HW2 2181   4.967   1.221   4.210
  428SOL     OW 2182   2.242   1.028   4.552
  428SOL    HW1 2183   2.198   1.056   4.637
  428SOL    HW2 2184   2.259   1.109   4.496
  429SOL     OW 2185   0.812   5.465   4.172
  429SOL    HW1 2186   0.724   5.512   4.171
  429SOL    HW2 2187   0.808   5.387   4.235
  430SOL     OW 2188   1.592   0.276   3.613
  430SOL    HW1 2189   1.634   0.187   3.628
  430SOL    HW2 2190   1.500   0.264   3.574
  431SOL     OW 2191   2.545   2.007   0.908
  431SOL    HW1 2192   2.491   1.935   0.952
  431SOL    HW2 2193   2.517   2.096   0.944
  432SOL     OW 2194   5.669   1.752   1.146
  432SOL    HW1 2195   5.658   1.821   1.216
  432SOL    HW2 2196   5.717   1.791   1.067
  433SOL     OW 2197   3.499   6.210   6.047
  433SOL    HW1 2198   3.434   6.136   6.068
  433SOL    HW2 2199   3.582   6.197   6.101
  434SOL     OW 2200   3.907   6.446   3.710
  434SOL    HW1 2201   3.873   6.540   3.712
  434SOL    HW2 2202   3.956   6.430   3.624
  435SOL     OW 2203   3.851   1.635   5.575
  435SOL    HW1 2204   3.846   1.625   5.674
  435SOL    HW2 2205   3.850   1.732   5.551
  436SOL     OW 2206   3.447   6.075   3.091
  436SOL    HW1 2207   3.503   6.003   3.050
  436SOL    HW2 2208   3.447   6.064   3.191
  437SOL     OW 2209   0.247   1.301   4.563
  437SOL    HW1 2210   0.328   1.284   4.506
  437SOL    HW2 2211   0.165   1.286   4.508
  438SOL     OW 2212   1.363   4.654   3.071
  438SOL    HW1 2213   1.374   4.707   2.987
  438SOL    HW2 2214   1.439   4.673   3.133
  439SOL     OW 2215   5.962   1.022   2.945
  439SOL    HW1 2216   5.939   1.073   3.028
  439SOL    HW2 2217   5.904   1.053   2.870
  440SOL     OW 2218   3.670   1.047   6.694
  440SOL    HW1 2219   3.725   0.964   6.695
  440SOL    HW2 2220   3.621   1.056   6.781
  441SOL     OW 2221   6.543   4.288   2.785
  441SOL    HW1 2222   6.506   4.324   2.871
  441SOL    HW2 2223   6.615   4.349   2.752
  442SOL     OW 2224   4.767   4.094   5.964
  442SOL    HW1 2225   4.803   4.154   5.893
  442SOL    HW2 2226   4.761   4.000   5.930
  443SOL     OW 2227   5.099   4.653   2.968
  443SOL    HW1 2228   5.050   4.566   2.963
  443SOL    HW2 2229   5.163   4.651   3.044
  444SOL     OW 2230   3.842   1.319   6.961
  444SOL    HW1 2231   3.906   1.259   7.008
  444SOL    HW2 2232   3.759   1.328   7.016
  445SOL     OW 2233   2.911   6.183   2.560
  445SOL    HW1 2234   2.829   6.175   2.503
  445SOL    HW2 2235   2.903   6.124   2.640
  446SOL     OW 2236   4.854   5.834   2.689
  446SOL    HW1 2237   4.953   5.822   2.680
  446SOL    HW2 2238   4.835   5.899   2.763
  447SOL     OW 2239   6.132   3.641   6.069
  447SOL    HW1 2240   6.050   3.601   6.111
  447SOL    HW2 2241   6.109   3.678   5.979
  448SOL     OW 2242   2.247   1.509   2.594
  448SOL    HW1 2243   2.172   1.463   2.642
  448SOL    HW2 2244   2.319   1.531   2.660
  449SOL     OW 2245   2.013   2.836   3.550
  449SOL    HW1 2246   2.112   2.836   3.535
  449SOL    HW2 2247   1.983   2.745   3.580
  450SOL     OW 2248   0.583   4.628   3.352
  450SOL    HW1 2249   0.665   4.579   3.383
  450SOL    HW2 2250   0.609   4.722   3.327
  451SOL     OW 2251   0.112   2.162   3.581
  451SOL    HW1 2252   0.058   2.135   3.501
  451SOL    HW2 2253   0.183   2.227   3.552
  452SOL     OW 2254   3.544   6.548   2.581
  452SOL    HW1 2255   3.535   6.481   2.507
  452SOL    HW2 2256   3.595   6.506   2.657
  453SOL     OW 2257   4.341   0.377   6.820
  453SOL    HW1 2258   4.426   0.328   6.844
  453SOL    HW2 2259   4.277   0.313   6.777
  454SOL     OW 2260   6.843   4.147   6.571
  454SOL    HW1 2261   6.801   4.174   6.485
  454SOL    HW2 2262   6.942   4.152   6.564
  455SOL     OW 2263   0.034   4.304   5.482
  455SOL    HW1 2264   0.003   4.301   5.387
  455SOL    HW2 2265   6.990   4.250   5.539
  456SOL     OW 2266   1.552   1.057   3.883
  456SOL    HW1 2267   1.646   1.090   3.890
  456SOL    HW2 2268   1.489   1.128   3.915
  457SOL     OW 2269   1.828   5.836   5.692
  457SOL    HW1 2270   1.886   5.841   5.610
  457SOL    HW2 2271   1.822   5.741   5.723
  458SOL     OW 2272   2.783   1.121   3.040
  458SOL    HW1 2273   2.818   1.042   2.991
  458SOL    HW2 2274   2.832   1.132   3.126
  459SOL     OW 2275   2.184   0.484   4.996
  459SOL    HW1 2276   2.192   0.499   5.095
  459SOL    HW2 2277   2.201   0.571   4.949
  460SOL     OW 2278   1.161   1.564   5.131
  460SOL    HW1 2279   1.251   1.581   5.171
  460SOL    HW2 2280   1.164   1.481   5.076
  461SOL     OW 2281   6.580   4.774   5.544
  461SOL    HW1 2282   6.638   4.777   5.626
  461SOL    HW2 2283   6.600   4.852   5.486
  462SOL     OW 2284   3.200   3.708   4.569
  462SOL    HW1 2285   3.103   3.730   4.581
  462SOL    HW2 2286   3.243   3.778   4.513
  463SOL     OW 2287   5.696   6.801   2.643
  463SOL    HW1 2288   5.747   6.734   2.589
  463SOL    HW2 2289   5.646   6.753   2.715
  464SOL     OW 2290   3.408   5.975   5.848
  464SOL    HW1 2291   3.362   6.059   5.878
  464SOL    HW2 2292   3.370   5.947   5.759
  465SOL     OW 2293   1.296   2.190   0.741
  465SOL    HW1 2294   1.232   2.253   0.697
  465SOL    HW2 2295   1.248   2.135   0.809
  466SOL     OW 2296   3.516   6.039   4.810
  466SOL    HW1 2297   3.576   6.079   4.740
  466SOL    HW2 2298   3.521   6.094   4.894
  467SOL     OW 2299   0.500   1.855   2.403
  467SOL    HW1 2300   0.478   1.769   2.450
  467SOL    HW2 2301   0.417   1.895   2.366
  468SOL     OW 2302   4.760   0.319   6.676
  468SOL    HW1 2303   4.698   0.390   6.644
  468SOL    HW2 2304   4.722   0.229   6.652
  469SOL     OW 2305   3.099   4.336   5.557
  469SOL    HW1 2306   3.086   4.293   5.467
  469SOL    HW2 2307   3.037   4.415   5.565
  470SOL     OW 2308   2.867   5.734   3.085
  470SOL    HW1 2309   2.787   5.779   3.125
  470SOL    HW2 2310   2.860   5.635   3.100
  471SOL     OW 2311   2.683   2.361   3.760
  471SOL    HW1 2312   2.641   2.310   3.685
  471SOL    HW2 2313   2.779   2.334   3.769
  472SOL     OW 2314   6.042   4.162   6.562
  472SOL    HW1 2315   5.994   4.075   6.552
  472SOL    HW2 2316   6.008   4.211   6.642
  473SOL     OW 2317   6.661   2.184   2.334
  473SOL    HW1 2318   6.701   2.110   2.280
  473SOL    HW2 2319   6.632   2.147   2.423
  474SOL     OW 2320   5.997   6.057   4.962
  474SOL    HW1 2321   6.032   6.056   5.056
  474SOL    HW2 2322   6.046   5.989   4.908
  475SOL     OW 2323   5.586   2.767   0.903
  475SOL    HW1 2324   5.658   2.794   0.968
  475SOL    HW2 2325   5.624   2.768   0.810
  476SOL     OW 2326   0.568   4.111   1.810
  476SOL    HW1 2327   0.519   4.068   1.886
  476SOL    HW2 2328   0.616   4.041   1.757
  477SOL     OW 2329   2.834   6.030   4.080
  477SOL    HW1 2330   2.758   6.084   4.043
  477SOL    HW2 2331   2.870   5.970   4.009
  478SOL     OW 2332   4.675   5.655   2.778
  478SOL    HW1 2333   4.645   5.696   2.864
  478SOL    HW2 2334   4.740   5.717   2.733
  479SOL     OW 2335   3.935   3.150   4.134
  479SOL    HW1 2336   3.844   3.190   4.136
  479SOL    HW2 2337   4.004   3.222   4.129
  480SOL     OW 2338   1.546   0.170   3.111
  480SOL    HW1 2339   1.578   0.253   3.066
  480SOL    HW2 2340   1.480   0.123   3.052
  481SOL     OW 2341   0.921   6.057   1.304
  481SOL    HW1 2342   0.894   5.983   1.242
  481SOL    HW2 2343   0.840   6.100   1.343
  482SOL     OW 2344   5.588   4.265   2.733
  482SOL    HW1 2345   5.523   4.195   2.764
  482SOL    HW2 2346   5.651   4.287   2.808
  483SOL     OW 2347   5.693   2.186   2.642
  483SOL    HW1 2348   5.616   2.213   2.699
  483SOL    HW2 2349   5.723   2.263   2.586
  484SOL     OW 2350   1.976   4.516   4.378
  484SOL    HW1 2351   1.959   4.426   4.417
  484SOL    HW2 2352   1.962   4.512   4.279
  485SOL     OW 2353   5.483   3.407   2.456
  485SOL    HW1 2354   5.463   3.326   2.402
  485SOL    HW2 2355   5.517   3.479   2.396
  486SOL     OW 2356   6.062   0.031   6.768
  486SOL    HW1 2357   5.974   0.059   6.729
  486SOL    HW2 2358   6.115   7.002   6.697
  487SOL     OW 2359   0.233   6.968   3.389
  487SOL    HW1 2360   0.299   7.016   3.447
  487SOL    HW2 2361   0.164   6.925   3.447
  488SOL     OW 2362   2.074   6.818   3.537
  488SOL    HW1 2363   2.104   6.773   3.453
  488SOL    HW2 2364   2.150   6.871   3.576
  489SOL     OW 2365   6.452   6.250   4.648
  489SOL    HW1 2366   6.388   6.259   4.571
  489SOL    HW2 2367   6.545   6.240   4.613
  490SOL     OW 2368   1.788   5.601   5.909
  490SOL    HW1 2369   1.787   5.611   6.008
  490SOL    HW2 2370   1.876   5.562   5.880
  491SOL     OW 2371   6.987   2.686   0.151
  491SOL    HW1 2372   6.906   2.722   0.105
  491SOL    HW2 2373   7.007   2.594   0.117
  492SOL     OW 2374   1.553   1.657   5.625
  492SOL    HW1 2375   1.582   1.582   5.566
  492SOL    HW2 2376   1.603   1.653   5.711
  493SOL     OW 2377   2.557   6.714   5.198
  493SOL    HW1 2378   2.648   6.739   5.164
  493SOL    HW2 2379   2.518   6.643   5.139
  494SOL     OW 2380   2.405   0.568   5.518
  494SOL    HW1 2381   2.323   0.576   5.574
  494SOL    HW2 2382   2.438   0.473   5.521
  495SOL     OW 2383   4.341   6.196   5.792
  495SOL    HW1 2384   4.243   6.201   5.814
  495SOL    HW2 2385   4.374   6.102   5.807
  496SOL     OW 2386   6.461   2.053   2.872
  496SOL    HW1 2387   6.398   2.131   2.864
  496SOL    HW2 2388   6.414   1.976   2.915
  497SOL     OW 2389   3.523   1.109   5.974
  497SOL    HW1 2390   3.519   1.019   6.017
  497SOL    HW2 2391   3.430   1.146   5.965
  498SOL     OW 2392   0.179   5.707   2.085
  498SOL    HW1 2393   0.128   5.789   2.111
  498SOL    HW2 2394   0.268   5.733   2.048
  499SOL     OW 2395   3.442   4.933   6.202
  499SOL    HW1 2396   3.393   4.919   6.289
  499SOL    HW2 2397   3.377   4.959   6.131
  500SOL     OW 2398   5.721   2.938   6.544
  500SOL    HW1 2399   5.627   2.906   6.534
  500SOL    HW2 2400   5.776   2.906   6.467
  501SOL     OW 2401   1.832   6.988   2.890
  501SOL    HW1 2402   1.810   0.066   2.876
  501SOL    HW2 2403   1.753   6.932   2.865
  502SOL     OW 2404   1.778   4.873   5.978
  502SOL    HW1 2405   1.767   4.779   6.008
  502SOL    HW2 2406   1.810   4.929   6.054
  503SOL     OW 2407   3.289   4.450   6.499
  503SOL    HW1 2408   3.210   4.464   6.439
  503SOL    HW2 2409   3.354   4.389   6.456
  504SOL     OW 2410   6.654   6.347   1.985
  504SOL    HW1 2411   6.685   6.432   1.942
  504SOL    HW2 2412   6.710   6.328   2.065
  505SOL     OW 2413   4.022   6.960   5.255
  505SOL    HW1 2414   4.016   6.980   5.353
  505SOL    HW2 2415   4.094   6.892   5.240
  506SOL     OW 2416   3.239   5.859   2.813
  506SOL    HW1 2417   3.332   5.839   2.781
  506SOL    HW2 2418   3.227   5.958   2.819
  507SOL     OW 2419   4.179   1.064   1.754
  507SOL    HW1 2420   4.128   1.000   1.811
  507SOL    HW2 2421   4.223   1.014   1.678
  508SOL     OW 2422   0.021   3.828   4.022
  508SOL    HW1 2423   0.065   3.788   4.103
  508SOL    HW2 2424   6.943   3.847   4.042
  509SOL     OW 2425   4.811   0.623   6.879
  509SOL    HW1 2426   4.716   0.619   6.849
  509SOL    HW2 2427   4.819   0.678   6.961
  510SOL     OW 2428   6.522   4.542   6.245
  510SOL    HW1 2429   6.569   4.512   6.328
  510SOL    HW2 2430   6.466   4.467   6.209
  511SOL     OW 2431   1.376   1.376   6.645
  511SOL    HW1 2432   1.284   1.355   6.678
  511SOL    HW2 2433   1.436   1.396   6.722
  512SOL     OW 2434   5.499   2.432   6.941
  512SOL    HW1 2435   5.455   2.522   6.933
  512SOL    HW2 2436   5.506   2.407   0.019
  513SOL     OW 2437   5.763   7.004   2.366
  513SOL    HW1 2438   5.803   6.913   2.379
  513SOL    HW2 2439   5.836   0.051   2.343
  514SOL     OW 2440   6.626   6.689   3.750
  514SOL    HW1 2441   6.659   6.711   3.842
  514SOL    HW2 2442   6.577   6.768   3.713
  515SOL     OW 2443   3.082   0.546   6.427
  515SOL    HW1 2444   3.150   0.591   6.484
  515SOL    HW2 2445   2.990   0.568   6.461
  516SOL     OW 2446   2.501   4.314   1.466
  516SOL    HW1 2447   2.529   4.306   1.562
  516SOL    HW2 2448   2.404   4.338   1.463
  517SOL     OW 2449   2.975   5.377   2.703
  517SOL    HW1 2450   3.034   5.451   2.735
  517SOL    HW2 2451   2.936   5.329   2.782
  518SOL     OW 2452   2.142   3.419   3.602
  518SOL    HW1 2453   2.174   3.426   3.696
  518SOL    HW2 2454   2.128   3.323   3.577
  519SOL     OW 2455   6.407   6.281   4.022
  519SOL    HW1 2456   6.414   6.361   4.082
  519SOL    HW2 2457   6.484   6.219   4.040
  520SOL     OW 2458   1.144   3.107   6.679
  520SOL    HW1 2459   1.052   3.140   6.658
  520SOL    HW2 2460   1.140   3.053   6.763
  521SOL     OW 2461   4.725   4.893   4.293
  521SOL    HW1 2462   4.664   4.910   4.371
  521SOL    HW2 2463   4.751   4.980   4.252
  522SOL     OW 2464   4.374   3.657   1.420
  522SOL    HW1 2465   4.342   3.620   1.333
  522SOL    HW2 2466   4.439   3.594   1.461
  523SOL     OW 2467   6.977   6.666   1.824
  523SOL    HW1 2468   6.879   6.684   1.821
  523SOL    HW2 2469   0.009   6.750   1.800
  524SOL     OW 2470   0.461   3.199   2.108
  524SOL    HW1 2471   0.528   3.164   2.044
  524SOL    HW2 2472   0.417   3.123   2.156
  525SOL     OW 2473   0.831   3.339   6.806
  525SOL    HW1 2474   0.741   3.298   6.816
  525SOL    HW2 2475   0.883   3.328   6.891
  526SOL     OW 2476   3.425   6.973   4.499
  526SOL    HW1 2477   3.390   6.884   4.529
  526SOL    HW2 2478   3.360   0.026   4.524
  527SOL     OW 2479   1.354   2.236   6.974
  527SOL    HW1 2480   1.338   2.215   6.878
  527SOL    HW2 2481   1.306   2.169   0.013
  528SOL     OW 2482   0.274   3.562   3.498
  528SOL    HW1 2483   0.346   3.506   3.458
  528SOL    HW2 2484   0.277   3.653   3.457
  529SOL     OW 2485   2.989   0.343   5.581
  529SOL    HW1 2486   2.924   0.402   5.533
  529SOL    HW2 2487   2.951   0.251   5.588
  530SOL     OW 2488   3.487   3.080   2.029
  530SOL    HW1 2489   3.421   3.011   2.060
  530SOL    HW2 2490   3.453   3.171   2.052
  531SOL     OW 2491   2.364   0.735   2.907
  531SOL    HW1 2492   2.302   0.720   2.984
  531SOL    HW2 2493   2.414   0.821   2.920
  532SOL     OW 2494   1.977   3.486   0.440
  532SOL    HW1 2495   1.983   3.528   0.530
  532SOL    HW2 2496   2.009   3.391   0.445
  533SOL     OW 2497   5.011   0.285   3.670
  533SOL    HW1 2498   4.947   0.262   3.597
  533SOL    HW2 2499   5.034   0.202   3.721
  534SOL     OW 2500   1.026   5.774   1.444
  534SOL    HW1 2501   0.956   5.828   1.492
  534SOL    HW2 2502   1.114   5.787   1.489
  535SOL     OW 2503   6.457   4.110   3.428
  535SOL    HW1 2504   6.486   4.201   3.398
  535SOL    HW2 2505   6.401   4.068   3.357
  536SOL     OW 2506   6.510   5.749   3.137
  536SOL    HW1 2507   6.455   5.815   3.188
  536SOL    HW2 2508   6.604   5.783   3.129
  537SOL     OW 2509   3.756   0.019   4.212
  537SOL    HW1 2510   3.674   0.006   4.156
  537SOL    HW2 2511   3.729   0.039   4.306
  538SOL     OW 2512   1.513   5.117   5.686
  538SOL    HW1 2513   1.586   5.181   5.711
  538SOL    HW2 2514   1.513   5.040   5.749
  539SOL     OW 2515   1.278   5.850   1.525
  539SOL    HW1 2516   1.339   5.805   1.591
  539SOL    HW2 2517   1.252   5.940   1.561
  540SOL     OW 2518   1.785   1.259   4.174
  540SOL    HW1 2519   1.833   1.173   4.194
  540SOL    HW2 2520   1.760   1.262   4.078
  541SOL     OW 2521   4.251   5.884   3.493
  541SOL    HW1 2522   4.252   5.831   3.408
  541SOL    HW2 2523   4.198   5.835   3.562
  542SOL     OW 2524   3.981   5.666   6.426
  542SOL    HW1 2525   3.962   5.569   6.444
  542SOL    HW2 2526   3.906   5.721   6.462
  543SOL     OW 2527   5.690   3.791   4.048
  543SOL    HW1 2528   5.654   3.723   3.985
  543SOL    HW2 2529   5.615   3.843   4.089
  544SOL     OW 2530   0.535   4.852   0.035
  544SOL    HW1 2531   0.558   4.889   0.125
  544SOL    HW2 2532   0.435   4.849   0.025
  545SOL     OW 2533   5.244   1.309   1.257
  545SOL    HW1 2534   5.277   1.403   1.264
  545SOL    HW2 2535   5.219   1.276   1.348
  546SOL     OW 2536   0.572   4.541   1.747
  546SOL    HW1 2537   0.478   4.572   1.733
  546SOL    HW2 2538   0.587   4.524   1.845
  547SOL     OW 2539   3.582   2.056   0.245
  547SOL    HW1 2540   3.655   2.072   0.179
  547SOL    HW2 2541   3.621   2.028   0.333
  548SOL     OW 2542   3.070   3.325   0.515
  548SOL    HW1 2543   3.124   3.253   0.560
  548SOL    HW2 2544   2.995   3.353   0.574
  549SOL     OW 2545   4.973   2.488   0.784
  549SOL    HW1 2546   4.894   2.427   0.792
  549SOL    HW2 2547   5.029   2.483   0.867
  550SOL     OW 2548   6.773   4.515   3.564
  550SOL    HW1 2549   6.768   4.614   3.576
  550SOL    HW2 2550   6.705   4.470   3.622
  551SOL     OW 2551   6.664   1.032   0.998
  551SOL    HW1 2552   6.596   1.076   0.939
  551SOL    HW2 2553   6.738   1.096   1.018
  552SOL     OW 2554   5.373   5.012   5.128
  552SOL    HW1 2555   5.304   4.961   5.076
  552SOL    HW2 2556   5.330   5.090   5.173
  553SOL     OW 2557   3.567   0.867   4.185
  553SOL    HW1 2558   3.638   0.810   4.226
  553SOL    HW2 2559   3.494   0.807   4.150
  554SOL     OW 2560   5.551   5.654   7.013
  554SOL    HW1 2561   5.514   5.563   0.012
  554SOL    HW2 2562   5.500   5.722   0.048
  555SOL     OW 2563   3.496   5.584   5.079
  555SOL    HW1 2564   3.491   5.485   5.068
  555SOL    HW2 2565   3.580   5.618   5.036
  556SOL     OW 2566   5.220   1.757   4.541
  556SOL    HW1 2567   5.162   1.692   4.589
  556SOL    HW2 2568   5.242   1.721   4.450
  557SOL     OW 2569   6.970   5.009   6.122
  557SOL    HW1 2570   6.888   5.054   6.089
  557SOL    HW2 2571   6.972   4.914   6.089
  558SOL     OW 2572   4.105   3.237   3.841
  558SOL    HW1 2573   4.077   3.332   3.826
  558SOL    HW2 2574   4.164   3.207   3.765
  559SOL     OW 2575   6.255   6.129   5.430
  559SOL    HW1 2576   6.326   6.060   5.416
  559SOL    HW2 2577   6.272   6.179   5.515
  560SOL     OW 2578   6.562   3.373   3.657
  560SOL    HW1 2579   6.467   3.353   3.684
  560SOL    HW2 2580   6.615   3.289   3.657
  561SOL     OW 2581   6.785   2.828   6.260
  561SOL    HW1 2582   6.863   2.790   6.308
  561SOL    HW2 2583   6.815   2.872   6.175
  562SOL     OW 2584   4.775   0.015   5.329
  562SOL    HW1 2585   4.722   0.097   5.350
  562SOL    HW2 2586   4.719   6.970   5.276
  563SOL     OW 2587   1.865   1.481   3.764
  563SOL    HW1 2588   1.962   1.487   3.740
  563SOL    HW2 2589   1.839   1.560   3.819
  564SOL     OW 2590   0.132   1.553   6.511
  564SOL    HW1 2591   0.152   1.478   6.574
  564SOL    HW2 2592   0.212   1.573   6.456
  565SOL     OW 2593   2.991   3.357   3.979
  565SOL    HW1 2594   3.018   3.375   4.073
  565SOL    HW2 2595   3.010   3.262   3.956
  566SOL     OW 2596   2.299   4.768   2.749
  566SOL    HW1 2597   2.224   4.727   2.697
  566SOL    HW2 2598   2.337   4.845   2.699
  567SOL     OW 2599   2.786   2.368   0.424
  567SOL    HW1 2600   2.741   2.409   0.345
  567SOL    HW2 2601   2.857   2.430   0.457
  568SOL     OW 2602   5.702   6.824   0.882
  568SOL    HW1 2603   5.642   6.799   0.806
  568SOL    HW2 2604   5.733   6.919   0.870
  569SOL     OW 2605   1.066   2.779   1.095
  569SOL    HW1 2606   0.994   2.823   1.040
  569SOL    HW2 2607   1.053   2.802   1.191
  570SOL     OW 2608   3.128   0.011   6.494
  570SOL    HW1 2609   3.149   6.959   6.562
  570SOL    HW2 2610   3.164   0.099   6.525
  571SOL     OW 2611   2.680   4.838   3.819
  571SOL    HW1 2612   2.627   4.908   3.772
  571SOL    HW2 2613   2.720   4.776   3.751
  572SOL     OW 2614   1.859   5.654   4.872
  572SOL    HW1 2615   1.914   5.736   4.853
  572SOL    HW2 2616   1.891   5.579   4.815
  573SOL     OW 2617   6.226   1.473   5.676
  573SOL    HW1 2618   6.164   1.396   5.663
  573SOL    HW2 2619   6.188   1.537   5.743
  574SOL     OW 2620   3.394   0.594   5.215
  574SOL    HW1 2621   3.420   0.618   5.121
  574SOL    HW2 2622   3.432   0.504   5.237
  575SOL     OW 2623   4.368   2.750   1.095
  575SOL    HW1 2624   4.287   2.691   1.097
  575SOL    HW2 2625   4.357   2.823   1.163
  576SOL     OW 2626   1.718   3.113   2.937
  576SOL    HW1 2627   1.685   3.155   3.021
  576SOL    HW2 2628   1.649   3.122   2.865
  577SOL     OW 2629   0.984   0.653   2.343
  577SOL    HW1 2630   1.000   0.725   2.410
  577SOL    HW2 2631   1.054   0.582   2.353
  578SOL     OW 2632   2.074   5.655   6.557
  578SOL    HW1 2633   2.063   5.670   6.458
  578SOL    HW2 2634   2.167   5.678   6.583
  579SOL     OW 2635   1.862   4.862   2.638
  579SOL    HW1 2636   1.811   4.782   2.670
  579SOL    HW2 2637   1.869   4.929   2.712
  580SOL     OW 2638   4.381   4.807   5.428
  580SOL    HW1 2639   4.423   4.792   5.517
  580SOL    HW2 2640   4.406   4.732   5.367
  581SOL     OW 2641   0.938   3.146   3.537
  581SOL    HW1 2642   1.012   3.192   3.586
  581SOL    HW2 2643   0.852   3.160   3.587
  582SOL     OW 2644   4.806   5.566   3.381
  582SOL    HW1 2645   4.861   5.518   3.450
  582SOL    HW2 2646   4.832   5.534   3.290
  583SOL     OW 2647   2.639   5.373   5.085
  583SOL    HW1 2648   2.643   5.278   5.116
  583SOL    HW2 2649   2.546   5.394   5.053
  584SOL     OW 2650   3.321   6.965   6.072
  584SOL    HW1 2651   3.272   0.027   6.105
  584SOL    HW2 2652   3.303   6.888   6.132
  585SOL     OW 2653   4.237   0.222   1.130
  585SOL    HW1 2654   4.151   0.272   1.118
  585SOL    HW2 2655   4.249   0.159   1.052
  586SOL     OW 2656   3.700   0.551   1.014
  586SOL    HW1 2657   3.685   0.597   1.102
  586SOL    HW2 2658   3.638   0.589   0.946
  587SOL     OW 2659   5.407   1.841   2.328
  587SOL    HW1 2660   5.466   1.884   2.260
  587SOL    HW2 2661   5.390   1.746   2.303
  588SOL     OW 2662   1.932   5.325   1.196
  588SOL    HW1 2663   1.995   5.397   1.168
  588SOL    HW2 2664   1.940   5.248   1.134
  589SOL     OW 2665   3.085   5.794   1.471
  589SOL    HW1 2666   3.125   5.821   1.384
  589SOL    HW2 2667   3.029   5.869   1.507
  590SOL     OW 2668   5.597   1.154   0.804
  590SOL    HW1 2669   5.549   1.178   0.719
  590SOL    HW2 2670   5.640   1.065   0.793
  591SOL     OW 2671   4.222   6.156   3.526
  591SOL    HW1 2672   4.294   6.208   3.572
  591SOL    HW2 2673   4.248   6.060   3.520
  592SOL     OW 2674   4.562   0.437   3.311
  592SOL    HW1 2675   4.601   0.484   3.232
  592SOL    HW2 2676   4.498   0.498   3.357
  593SOL     OW 2677   4.413   2.086   4.979
  593SOL    HW1 2678   4.404   2.128   5.069
  593SOL    HW2 2679   4.486   2.131   4.927
  594SOL     OW 2680   5.919   0.987   0.639
  594SOL    HW1 2681   5.993   0.926   0.610
  594SOL    HW2 2682   5.945   1.034   0.723
  595SOL     OW 2683   5.768   6.338   3.417
  595SOL    HW1 2684   5.816   6.421   3.390
  595SOL    HW2 2685   5.804   6.260   3.366
  596SOL     OW 2686   0.182   5.163   3.407
  596SOL    HW1 2687   0.193   5.127   3.500
  596SOL    HW2 2688   0.091   5.204   3.397
  597SOL     OW 2689   2.892   0.124   6.148
  597SOL    HW1 2690   2.990   0.103   6.142
  597SOL    HW2 2691   2.867   0.184   6.072
  598SOL     OW 2692   3.316   4.156   4.756
  598SOL    HW1 2693   3.345   4.200   4.840
  598SOL    HW2 2694   3.397   4.137   4.699
  599SOL     OW 2695   2.021   6.227   2.288
  599SOL    HW1 2696   1.956   6.176   2.231
  599SOL    HW2 2697   2.034   6.318   2.251
  600SOL     OW 2698   0.068   3.344   6.061
  600SOL    HW1 2699   0.082   3.408   6.137
  600SOL    HW2 2700   7.005   3.371   6.010
  601SOL     OW 2701   1.595   1.381   4.743
  601SOL    HW1 2702   1.587   1.308   4.675
  601SOL    HW2 2703   1.516   1.378   4.804
  602SOL     OW 2704   3.088   0.445   6.152
  602SOL    HW1 2705   2.991   0.428   6.133
  602SOL    HW2 2706   3.099   0.472   6.247
  603SOL     OW 2707   1.668   1.902   5.493
  603SOL    HW1 2708   1.614   1.823   5.522
  603SOL    HW2 2709   1.761   1.873   5.470
  604SOL     OW 2710   0.205   2.423   1.659
  604SOL    HW1 2711   0.294   2.468   1.643
  604SOL    HW2 2712   0.153   2.422   1.575
  605SOL     OW 2713   0.087   4.775   1.944
  605SOL    HW1 2714   0.177   4.799   1.909
  605SOL    HW2 2715   0.036   4.725   1.873
  606SOL     OW 2716   4.322   6.783   5.862
  606SOL    HW1 2717   4.345   6.687   5.850
  606SOL    HW2 2718   4.366   6.837   5.791
  607SOL     OW 2719   0.476   4.855   5.590
  607SOL    HW1 2720   0.470   4.919   5.667
  607SOL    HW2 2721   0.568   4.858   5.551
  608SOL     OW 2722   3.681   0.034   7.003
  608SOL    HW1 2723   3.586   0.058   0.000
  608SOL    HW2 2724   3.689   6.954   6.988
  609SOL     OW 2725   3.699   2.460   1.664
  609SOL    HW1 2726   3.673   2.555   1.680
  609SOL    HW2 2727   3.714   2.414   1.752
  610SOL     OW 2728   4.397   2.251   0.163
  610SOL    HW1 2729   4.368   2.338   0.203
  610SOL    HW2 2730   4.496   2.250   0.153
  611SOL     OW 2731   3.689   6.921   2.837
  611SOL    HW1 2732   3.677   6.895   2.741
  611SOL    HW2 2733   3.673   0.001   2.847
  612SOL     OW 2734   2.787   5.371   4.757
  612SOL    HW1 2735   2.865   5.310   4.773
  612SOL    HW2 2736   2.704   5.328   4.792
  613SOL     OW 2737   5.455   4.699   4.948
  613SOL    HW1 2738   5.413   4.704   4.858
  613SOL    HW2 2739   5.398   4.645   5.010
  614SOL     OW 2740   5.385   5.130   4.709
  614SOL    HW1 2741   5.457   5.065   4.685
  614SOL    HW2 2742   5.296   5.089   4.690
  615SOL     OW 2743   6.995   3.028   1.149
  615SOL    HW1 2744   0.049   2.959   1.137
  615SOL    HW2 2745   6.936   3.000   1.224
  616SOL     OW 2746   6.204   2.450   2.741
  616SOL    HW1 2747   6.175   2.539   2.776
  616SOL    HW2 2748   6.135   2.414   2.678
  617SOL     OW 2749   1.782   4.937   6.893
  617SOL    HW1 2750   1.872   4.924   6.935
  617SOL    HW2 2751   1.711   4.920   6.962
  618SOL     OW 2752   1.701   2.478   1.648
  618SOL    HW1 2753   1.665   2.406   1.707
  618SOL    HW2 2754   1.649   2.481   1.563
  619SOL     OW 2755   2.014   1.888   0.683
  619SOL    HW1 2756   2.112   1.904   0.677
  619SOL    HW2 2757   1.965   1.975   0.677
  620SOL     OW 2758   4.402   1.921   0.215
  620SOL    HW1 2759   4.484   1.949   0.164
  620SOL    HW2 2760   4.360   2.001   0.257
  621SOL     OW 2761   5.692   4.935   6.754
  621SOL    HW1 2762   5.685   5.034   6.763
  621SOL    HW2 2763   5.770   4.902   6.809
  622SOL     OW 2764   1.490   1.368   6.893
  622SOL    HW1 2765   1.403   1.395   6.934
  622SOL    HW2 2766   1.501   1.269   6.902
  623SOL     OW 2767   0.524   5.914   5.528
  623SOL    HW1 2768   0.528   5.828   5.579
  623SOL    HW2 2769   0.605   5.922   5.470
  624SOL     OW 2770   0.295   3.018   2.230
  624SOL    HW1 2771   0.374   2.957   2.234
  624SOL    HW2 2772   0.240   2.996   2.150
  625SOL     OW 2773   2.746   2.101   1.330
  625SOL    HW1 2774   2.668   2.052   1.371
  625SOL    HW2 2775   2.718   2.195   1.308
  626SOL     OW 2776   2.372   5.723   3.622
  626SOL    HW1 2777   2.471   5.738   3.618
  626SOL    HW2 2778   2.340   5.684   3.536
  627SOL     OW 2779   4.926   6.854   0.866
  627SOL    HW1 2780   4.939   6.947   0.901
  627SOL    HW2 2781   4.896   6.794   0.940
  628SOL     OW 2782   4.743   4.931   4.851
  628SOL    HW1 2783   4.777   4.865   4.784
  628SOL    HW2 2784   4.817   4.957   4.913
  629SOL     OW 2785   0.312   0.261   0.993
  629SOL    HW1 2786   0.295   0.168   1.024
  629SOL    HW2 2787   0.238   0.321   1.024
  630SOL     OW 2788   5.429   2.085   2.512
  630SOL    HW1 2789   5.505   2.073   2.577
  630SOL    HW2 2790   5.420   2.002   2.457
  631SOL     OW 2791   3.114   0.519   5.291
  631SOL    HW1 2792   3.203   0.559   5.267
  631SOL    HW2 2793   3.107   0.428   5.252
  632SOL     OW 2794   2.488   1.216   0.258
  632SOL    HW1 2795   2.522   1.241   0.348
  632SOL    HW2 2796   2.484   1.117   0.249
  633SOL     OW 2797   3.490   5.268   0.016
  633SOL    HW1 2798   3.421   5.333   0.046
  633SOL    HW2 2799   3.556   5.315   6.976
  634SOL     OW 2800   4.123   4.748   1.814
  634SOL    HW1 2801   4.161   4.663   1.776
  634SOL    HW2 2802   4.024   4.748   1.805
  635SOL     OW 2803   4.735   6.578   3.083
  635SOL    HW1 2804   4.714   6.592   3.180
  635SOL    HW2 2805   4.818   6.629   3.059
  636SOL     OW 2806   5.066   5.588   6.523
  636SOL    HW1 2807   5.106   5.514   6.470
  636SOL    HW2 2808   5.130   5.665   6.526
  637SOL     OW 2809   5.203   4.962   1.980
  637SOL    HW1 2810   5.279   4.951   1.916
  637SOL    HW2 2811   5.196   4.880   2.038
  638SOL     OW 2812   4.951   1.414   2.453
  638SOL    HW1 2813   4.975   1.438   2.547
  638SOL    HW2 2814   5.020   1.451   2.390
  639SOL     OW 2815   4.932   4.821   2.223
  639SOL    HW1 2816   4.918   4.860   2.314
  639SOL    HW2 2817   4.962   4.726   2.232
  640SOL     OW 2818   2.241   4.754   5.686
  640SOL    HW1 2819   2.302   4.706   5.622
  640SOL    HW2 2820   2.295   4.789   5.762
  641SOL     OW 2821   0.463   5.481   4.480
  641SOL    HW1 2822   0.459   5.388   4.444
  641SOL    HW2 2823   0.511   5.479   4.568
  642SOL     OW 2824   0.391   3.723   4.064
  642SOL    HW1 2825   0.375   3.624   4.058
  642SOL    HW2 2826   0.476   3.741   4.113
  643SOL     OW 2827   5.985   5.254   5.154
  643SOL    HW1 2828   6.022   5.308   5.078
  643SOL    HW2 2829   5.948   5.168   5.118
  644SOL     OW 2830   0.592   5.804   2.810
  644SOL    HW1 2831   0.544   5.769   2.891
  644SOL    HW2 2832   0.592   5.734   2.739
  645SOL     OW 2833   4.944   2.711   4.523
  645SOL    HW1 2834   5.001   2.633   4.498
  645SOL    HW2 2835   4.854   2.702   4.480
  646SOL     OW 2836   2.013   2.176   3.445
  646SOL    HW1 2837   1.992   2.262   3.397
  646SOL    HW2 2838   1.929   2.122   3.454
  647SOL     OW 2839   5.936   2.489   6.332
  647SOL    HW1 2840   5.849   2.479   6.284
  647SOL    HW2 2841   6.011   2.488   6.266
  648SOL     OW 2842   5.868   3.785   2.937
  648SOL    HW1 2843   5.858   3.874   2.892
  648SOL    HW2 2844   5.965   3.760   2.940
  649SOL     OW 2845   4.190   4.405   0.410
  649SOL    HW1 2846   4.145   4.488   0.443
  649SOL    HW2 2847   4.125   4.351   0.356
  650SOL     OW 2848   4.719   4.177   0.431
  650SOL    HW1 2849   4.717   4.085   0.470
  650SOL    HW2 2850   4.641   4.229   0.467
  651SOL     OW 2851   0.669   6.501   0.571
  651SOL    HW1 2852   0.707   6.575   0.515
  651SOL    HW2 2853   0.702   6.413   0.538
  652SOL     OW 2854   4.672   6.555   3.797
  652SOL    HW1 2855   4.747   6.583   3.738
  652SOL    HW2 2856   4.586   6.595   3.765
  653SOL     OW 2857   3.540   5.380   5.379
  653SOL    HW1 2858   3.547   5.429   5.466
  653SOL    HW2 2859   3.630   5.376   5.335
  654SOL     OW 2860   6.986   4.783   6.000
  654SOL    HW1 2861   6.989   4.726   5.918
  654SOL    HW2 2862   6.994   4.725   6.081
  655SOL     OW 2863   0.590   0.134   2.119
  655SOL    HW1 2864   0.689   0.126   2.120
  655SOL    HW2 2865   0.562   0.218   2.165
  656SOL     OW 2866   2.138   5.955   1.654
  656SOL    HW1 2867   2.147   6.044   1.700
  656SOL    HW2 2868   2.189   5.886   1.705
  657SOL     OW 2869   2.247   2.209   1.591
  657SOL    HW1 2870   2.338   2.193   1.629
  657SOL    HW2 2871   2.206   2.288   1.637
  658SOL     OW 2872   3.230   3.038   6.784
  658SOL    HW1 2873   3.233   3.112   6.851
  658SOL    HW2 2874   3.237   3.076   6.692
  659SOL     OW 2875   3.180   6.168   6.038
  659SOL    HW1 2876   3.203   6.173   6.136
  659SOL    HW2 2877   3.130   6.251   6.012
  660SOL     OW 2878   3.665   5.876   1.626
  660SOL    HW1 2879   3.676   5.974   1.643
  660SOL    HW2 2880   3.658   5.860   1.527
  661SOL     OW 2881   4.320   6.409   3.770
  661SOL    HW1 2882   4.248   6.377   3.831
  661SOL    HW2 2883   4.279   6.462   3.696
  662SOL     OW 2884   3.478   1.024   5.631
  662SOL    HW1 2885   3.487   1.091   5.704
  662SOL    HW2 2886   3.567   0.979   5.616
  663SOL     OW 2887   2.255   3.648   5.514
  663SOL    HW1 2888   2.277   3.708   5.437
  663SOL    HW2 2889   2.167   3.605   5.499
  664SOL     OW 2890   0.294   6.305   6.060
  664SOL    HW1 2891   0.328   6.400   6.059
  664SOL    HW2 2892   0.371   6.243   6.073
  665SOL     OW 2893   3.542   5.284   2.711
  665SOL    HW1 2894   3.625   5.326   2.675
  665SOL    HW2 2895   3.557   5.255   2.805
  666SOL     OW 2896   4.471   0.750   1.955
  666SOL    HW1 2897   4.547   0.686   1.946
  666SOL    HW2 2898   4.428   0.764   1.866
  667SOL     OW 2899   1.273   5.342   1.996
  667SOL    HW1 2900   1.372   5.342   1.981
  667SOL    HW2 2901   1.237   5.250   1.982
  668SOL     OW 2902   5.129   5.982   5.590
  668SOL    HW1 2903   5.119   6.016   5.683
  668SOL    HW2 2904   5.041   5.990   5.543
  669SOL     OW 2905   5.890   1.024   3.323
  669SOL    HW1 2906   5.963   0.956   3.329
  669SOL    HW2 2907   5.817   1.000   3.387
  670SOL     OW 2908   2.621   1.787   2.072
  670SOL    HW1 2909   2.648   1.788   1.976
  670SOL    HW2 2910   2.691   1.833   2.127
  671SOL     OW 2911   3.234   5.937   1.292
  671SOL    HW1 2912   3.333   5.936   1.307
  671SOL    HW2 2913   3.215   5.929   1.194
  672SOL     OW 2914   6.919   5.610   1.726
  672SOL    HW1 2915   6.874   5.692   1.762
  672SOL    HW2 2916   6.868   5.529   1.755
  673SOL     OW 2917   5.913   0.062   1.439
  673SOL    HW1 2918   5.990   0.123   1.421
  673SOL    HW2 2919   5.924   6.997   1.384
  674SOL     OW 2920   0.602   1.362   4.614
  674SOL    HW1 2921   0.602   1.462   4.618
  674SOL    HW2 2922   0.532   1.331   4.549
  675SOL     OW 2923   5.341   2.454   2.673
  675SOL    HW1 2924   5.429   2.500   2.661
  675SOL    HW2 2925   5.326   2.390   2.598
  676SOL     OW 2926   2.284   5.217   4.431
  676SOL    HW1 2927   2.246   5.132   4.468
  676SOL    HW2 2928   2.354   5.252   4.493
  677SOL     OW 2929   5.061   0.798   1.628
  677SOL    HW1 2930   5.106   0.788   1.540
  677SOL    HW2 2931   5.089   0.884   1.670
  678SOL     OW 2932   2.323   5.150   4.693
  678SOL    HW1 2933   2.326   5.249   4.707
  678SOL    HW2 2934   2.254   5.110   4.753
  679SOL     OW 2935   5.147   1.419   5.066
  679SOL    HW1 2936   5.050   1.443   5.066
  679SOL    HW2 2937   5.159   1.333   5.016
  680SOL     OW 2938   4.346   5.935   4.428
  680SOL    HW1 2939   4.435   5.905   4.392
  680SOL    HW2 2940   4.280   5.861   4.418
  681SOL     OW 2941   4.138   6.140   1.864
  681SOL    HW1 2942   4.214   6.164   1.803
  681SOL    HW2 2943   4.079   6.072   1.819
  682SOL     OW 2944   6.248   1.239   2.026
  682SOL    HW1 2945   6.168   1.279   2.070
  682SOL    HW2 2946   6.328   1.251   2.084
  683SOL     OW 2947   4.591   2.994   0.744
  683SOL    HW1 2948   4.623   2.937   0.669
  683SOL    HW2 2949   4.517   2.947   0.792
  684SOL     OW 2950   6.323   0.769   0.229
  684SOL    HW1 2951   6.300   0.808   0.140
  684SOL    HW2 2952   6.358   0.841   0.289
  685SOL     OW 2953   2.950   2.243   3.796
  685SOL    HW1 2954   2.942   2.150   3.760
  685SOL    HW2 2955   3.039   2.281   3.770
  686SOL     OW 2956   4.663   1.981   4.270
  686SOL    HW1 2957   4.687   1.958   4.175
  686SOL    HW2 2958   4.746   2.010   4.318
  687SOL     OW 2959   0.944   2.055   4.531
  687SOL    HW1 2960   0.944   1.968   4.581
  687SOL    HW2 2961   1.038   2.088   4.521
  688SOL     OW 2962   6.948   1.428   6.242
  688SOL    HW1 2963   0.007   1.476   6.282
  688SOL    HW2 2964   6.863   1.473   6.271
  689SOL     OW 2965   2.039   4.324   5.871
  689SOL    HW1 2966   2.114   4.309   5.935
  689SOL    HW2 2967   2.031   4.422   5.851
  690SOL     OW 2968   6.789   4.025   3.372
  690SOL    HW1 2969   6.790   3.926   3.390
  690SOL    HW2 2970   6.858   4.070   3.428
  691SOL     OW 2971   3.319   1.531   1.148
  691SOL    HW1 2972   3.390   1.460   1.148
  691SOL    HW2 2973   3.319   1.578   1.059
  692SOL     OW 2974   4.259   1.870   4.978
  692SOL    HW1 2975   4.312   1.955   4.969
  692SOL    HW2 2976   4.163   1.893   4.993
  693SOL     OW 2977   4.787   6.715   4.043
  693SOL    HW1 2978   4.745   6.645   3.985
  693SOL    HW2 2979   4.854   6.672   4.103
  694SOL     OW 2980   4.261   6.203   4.520
  694SOL    HW1 2981   4.195   6.207   4.595
  694SOL    HW2 2982   4.286   6.108   4.502
  695SOL     OW 2983   3.861   5.752   4.125
  695SOL    HW1 2984   3.791   5.815   4.159
  695SOL    HW2 2985   3.905   5.707   4.203
  696SOL     OW 2986   4.805   4.332   3.517
  696SOL    HW1 2987   4.881   4.377   3.565
  696SOL    HW2 2988   4.824   4.233   3.513
  697SOL     OW 2989   1.542   3.722   2.605
  697SOL    HW1 2990   1.448   3.754   2.611
  697SOL    HW2 2991   1.600   3.794   2.568
  698SOL     OW 2992   4.905   6.335   0.746
  698SOL    HW1 2993   4.852   6.250   0.740
  698SOL    HW2 2994   4.889   6.378   0.834
  699SOL     OW 2995   2.004   3.072   6.298
  699SOL    HW1 2996   2.057   3.120   6.228
  699SOL    HW2 2997   1.917   3.040   6.259
  700SOL     OW 2998   3.595   0.093   2.095
  700SOL    HW1 2999   3.580   0.091   2.194
  700SOL    HW2 3000   3.689   0.066   2.076
  701SOL     OW 3001   0.204   4.351   0.253
  701SOL    HW1 3002   0.224   4.447   0.270
  701SOL    HW2 3003   0.279   4.309   0.201
  702SOL     OW 3004   2.236   6.826   4.170
  702SOL    HW1 3005   2.264   6.921   4.183
  702SOL    HW2 3006   2.171   6.820   4.094
  703SOL     OW 3007   3.536   3.029   5.598
  703SOL    HW1 3008   3.556   3.079   5.514
  703SOL    HW2 3009   3.486   3.088   5.661
  704SOL     OW 3010   2.151   2.274   6.285
  704SOL    HW1 3011   2.220   2.280   6.213
  704SOL    HW2 3012   2.147   2.181   6.321
  705SOL     OW 3013   6.314   5.619   2.976
  705SOL    HW1 3014   6.245   5.573   3.032
  705SOL    HW2 3015   6.382   5.661   3.036
  706SOL     OW 3016   4.563   1.766   5.586
  706SOL    HW1 3017   4.472   1.800   5.609
  706SOL    HW2 3018   4.621   1.843   5.557
  707SOL     OW 3019   3.912   4.911   3.105
  707SOL    HW1 3020   4.005   4.900   3.141
  707SOL    HW2 3021   3.914   4.905   3.005
  708SOL     OW 3022   2.755   1.498   3.315
  708SOL    HW1 3023   2.841   1.519   3.268
  708SOL    HW2 3024   2.682   1.554   3.277
  709SOL     OW 3025   1.243   6.447   1.393
  709SOL    HW1 3026   1.187   6.516   1.439
  709SOL    HW2 3027   1.183   6.386   1.340
  710SOL     OW 3028   4.839   2.399   1.689
  710SOL    HW1 3029   4.878   2.419   1.778
  710SOL    HW2 3030   4.740   2.414   1.692
  711SOL     OW 3031   0.066   2.807   6.478
  711SOL    HW1 3032   0.095   2.711   6.470
  711SOL    HW2 3033   0.090   2.841   6.569
  712SOL     OW 3034   4.854   2.092   0.723
  712SOL    HW1 3035   4.905   2.145   0.790
  712SOL    HW2 3036   4.825   2.005   0.764
  713SOL     OW 3037   4.218   2.797   5.340
  713SOL    HW1 3038   4.146   2.865   5.336
  713SOL    HW2 3039   4.210   2.734   5.262
  714SOL     OW 3040   5.883   5.630   4.168
  714SOL    HW1 3041   5.965   5.604   4.118
  714SOL    HW2 3042   5.807   5.640   4.104
  715SOL     OW 3043   6.081   5.394   6.304
  715SOL    HW1 3044   6.071   5.420   6.400
  715SOL    HW2 3045   6.174   5.359   6.288
  716SOL     OW 3046   1.449   1.325   3.194
  716SOL    HW1 3047   1.412   1.313   3.286
  716SOL    HW2 3048   1.383   1.373   3.137
  717SOL     OW 3049   6.671   4.520   4.519
  717SOL    HW1 3050   6.692   4.423   4.509
  717SOL    HW2 3051   6.723   4.559   4.595
  718SOL     OW 3052   5.081   2.776   4.773
  718SOL    HW1 3053   5.163   2.833   4.765
  718SOL    HW2 3054   5.046   2.755   4.682
  719SOL     OW 3055   5.616   0.567   2.735
  719SOL    HW1 3056   5.651   0.511   2.810
  719SOL    HW2 3057   5.537   0.620   2.766
  720SOL     OW 3058   2.246   0.192   6.173
  720SOL    HW1 3059   2.331   0.155   6.135
  720SOL    HW2 3060   2.225   0.146   6.259
  721SOL     OW 3061   1.745   1.160   2.352
  721SOL    HW1 3062   1.825   1.219   2.351
  721SOL    HW2 3063   1.731   1.121   2.261
  722SOL     OW 3064   2.849   0.595   5.730
  722SOL    HW1 3065   2.930   0.538   5.735
  722SOL    HW2 3066   2.871   0.680   5.681
  723SOL     OW 3067   1.742   5.973   3.844
  723SOL    HW1 3068   1.824   5.998   3.793
  723SOL    HW2 3069   1.662   5.986   3.786
  724SOL     OW 3070   0.069   1.077   3.684
  724SOL    HW1 3071   6.992   1.107   3.677
  724SOL    HW2 3072   0.130   1.156   3.675
  725SOL     OW 3073   2.069   4.559   2.724
  725SOL    HW1 3074   2.093   4.471   2.766
  725SOL    HW2 3075   2.125   4.572   2.642
  726SOL     OW 3076   2.302   5.078   1.031
  726SOL    HW1 3077   2.277   5.052   1.124
  726SOL    HW2 3078   2.339   4.998   0.983
  727SOL     OW 3079   4.913   4.475   6.719
  727SOL    HW1 3080   4.913   4.421   6.804
  727SOL    HW2 3081   4.921   4.414   6.641
  728SOL     OW 3082   6.743   3.275   4.310
  728SOL    HW1 3083   6.808   3.320   4.248
  728SOL    HW2 3084   6.700   3.198   4.263
  729SOL     OW 3085   0.553   2.805   1.160
  729SOL    HW1 3086   0.518   2.717   1.194
  729SOL    HW2 3087   0.482   2.874   1.167
  730SOL     OW 3088   5.731   0.711   3.616
  730SOL    HW1 3089   5.716   0.802   3.579
  730SOL    HW2 3090   5.772   0.652   3.546
  731SOL     OW 3091   5.071   4.868   6.797
  731SOL    HW1 3092   5.148   4.809   6.820
  731SOL    HW2 3093   5.057   4.934   6.871
  732SOL     OW 3094   5.649   2.767   2.369
  732SOL    HW1 3095   5.630   2.758   2.467
  732SOL    HW2 3096   5.720   2.702   2.342
  733SOL     OW 3097   6.188   0.630   4.374
  733SOL    HW1 3098   6.144   0.544   4.401
  733SOL    HW2 3099   6.129   0.679   4.310
  734SOL     OW 3100   6.200   4.744   2.754
  734SOL    HW1 3101   6.175   4.732   2.850
  734SOL    HW2 3102   6.294   4.713   2.739
  735SOL     OW 3103   4.467   1.004   1.032
  735SOL    HW1 3104   4.370   1.018   1.011
  735SOL    HW2 3105   4.487   0.906   1.030
  736SOL     OW 3106   1.365   1.727   3.604
  736SOL    HW1 3107   1.404   1.716   3.513
  736SOL    HW2 3108   1.273   1.766   3.597
  737SOL     OW 3109   6.173   1.505   6.283
  737SOL    HW1 3110   6.184   1.475   6.377
  737SOL    HW2 3111   6.116   1.587   6.280
  738SOL     OW 3112   2.574   3.914   1.633
  738SOL    HW1 3113   2.669   3.896   1.660
  738SOL    HW2 3114   2.516   3.909   1.714
  739SOL     OW 3115   3.695   0.613   5.057
  739SOL    HW1 3116   3.696   0.682   5.130
  739SOL    HW2 3117   3.788   0.600   5.023
  740SOL     OW 3118   5.730   1.776   2.976
  740SOL    HW1 3119   5.646   1.813   2.936
  740SOL    HW2 3120   5.749   1.821   3.063
  741SOL     OW 3121   1.735   0.939   4.257
  741SOL    HW1 3122   1.666   0.970   4.323
  741SOL    HW2 3123   1.753   0.841   4.271
  742SOL     OW 3124   2.539   5.961   1.314
  742SOL    HW1 3125   2.470   5.903   1.271
  742SOL    HW2 3126   2.601   5.996   1.244
  743SOL     OW 3127   0.360   5.861   3.291
  743SOL    HW1 3128   0.405   5.897   3.209
  743SOL    HW2 3129   0.263   5.845   3.271
  744SOL     OW 3130   6.207   0.619   0.763
  744SOL    HW1 3131   6.304   0.644   0.765
  744SOL    HW2 3132   6.156   0.679   0.824
  745SOL     OW 3133   2.196   5.581   5.231
  745SOL    HW1 3134   2.240   5.663   5.268
  745SOL    HW2 3135   2.111   5.607   5.184
  746SOL     OW 3136   6.191   4.129   5.800
  746SOL    HW1 3137   6.102   4.105   5.760
  746SOL    HW2 3138   6.199   4.228   5.807
  747SOL     OW 3139   4.294   5.809   4.139
  747SOL    HW1 3140   4.256   5.783   4.228
  747SOL    HW2 3141   4.391   5.786   4.136
  748SOL     OW 3142   5.130   5.445   1.974
  748SOL    HW1 3143   5.081   5.492   1.901
  748SOL    HW2 3144   5.166   5.358   1.939
  749SOL     OW 3145   5.982   3.781   4.043
  749SOL    HW1 3146   6.018   3.725   4.118
  749SOL    HW2 3147   5.883   3.771   4.038
  750SOL     OW 3148   2.686   0.919   0.829
  750SOL    HW1 3149   2.763   0.979   0.809
  750SOL    HW2 3150   2.637   0.898   0.745
  751SOL     OW 3151   4.814   1.304   1.256
  751SOL    HW1 3152   4.738   1.322   1.319
  751SOL    HW2 3153   4.900   1.299   1.308
  752SOL     OW 3154   2.961   2.324   6.621
  752SOL    HW1 3155   2.878   2.272   6.643
  752SOL    HW2 3156   3.036   2.261   6.603
  753SOL     OW 3157   2.838   3.622   5.520
  753SOL    HW1 3158   2.761   3.681   5.494
  753SOL    HW2 3159   2.829   3.534   5.473
  754SOL     OW 3160   4.147   1.147   0.494
  754SOL    HW1 3161   4.236   1.128   0.452
  754SOL    HW2 3162   4.107   1.228   0.453
  755SOL     OW 3163   2.861   4.623   5.387
  755SOL    HW1 3164   2.937   4.621   5.451
  755SOL    HW2 3165   2.876   4.557   5.314
  756SOL     OW 3166   3.267   4.488   6.885
  756SOL    HW1 3167   3.241   4.530   6.971
  756SOL    HW2 3168   3.295   4.393   6.901
  757SOL     OW 3169   2.331   6.335   2.387
  757SOL    HW1 3170   2.309   6.425   2.349
  757SOL    HW2 3171   2.401   6.345   2.458
  758SOL     OW 3172   3.665   1.248   4.233
  758SOL    HW1 3173   3.606   1.258   4.313
  758SOL    HW2 3174   3.702   1.338   4.207
  759SOL     OW 3175   6.830   3.245   2.636
  759SOL    HW1 3176   6.832   3.252   2.536
  759SOL    HW2 3177   6.804   3.152   2.663
  760SOL     OW 3178   6.072   6.749   4.225
  760SOL    HW1 3179   5.992   6.762   4.166
  760SOL    HW2 3180   6.115   6.661   4.206
  761SOL     OW 3181   5.605   4.443   6.050
  761SOL    HW1 3182   5.584   4.530   6.005
  761SOL    HW2 3183   5.574   4.446   6.145
  762SOL     OW 3184   2.503   6.891   5.614
  762SOL    HW1 3185   2.488   6.986   5.639
  762SOL    HW2 3186   2.502   6.882   5.514
  763SOL     OW 3187   4.853   6.666   6.779
  763SOL    HW1 3188   4.946   6.629   6.777
  763SOL    HW2 3189   4.806   6.634   6.861
  764SOL     OW 3190   5.887   1.191   5.485
  764SOL    HW1 3191   5.881   1.097   5.449
  764SOL    HW2 3192   5.926   1.251   5.416
  765SOL     OW 3193   1.504   6.617   0.524
  765SOL    HW1 3194   1.533   6.595   0.617
  765SOL    HW2 3195   1.408   6.643   0.524
  766SOL     OW 3196   3.005   2.314   5.351
  766SOL    HW1 3197   3.009   2.218   5.380
  766SOL    HW2 3198   3.071   2.330   5.278
  767SOL     OW 3199   6.428   6.273   3.739
  767SOL    HW1 3200   6.498   6.340   3.716
  767SOL    HW2 3201   6.409   6.276   3.837
  768SOL     OW 3202   2.008   6.458   3.441
  768SOL    HW1 3203   1.913   6.430   3.453
  768SOL    HW2 3204   2.046   6.414   3.360
  769SOL     OW 3205   3.336   1.656   5.091
  769SOL    HW1 3206   3.327   1.567   5.047
  769SOL    HW2 3207   3.377   1.721   5.028
  770SOL     OW 3208   2.150   4.740   3.921
  770SOL    HW1 3209   2.145   4.838   3.938
  770SOL    HW2 3210   2.120   4.691   4.003
  771SOL     OW 3211   1.130   5.088   3.327
  771SOL    HW1 3212   1.045   5.104   3.377
  771SOL    HW2 3213   1.149   4.990   3.325
  772SOL     OW 3214   5.876   4.574   5.875
  772SOL    HW1 3215   5.786   4.553   5.838
  772SOL    HW2 3216   5.934   4.493   5.868
  773SOL     OW 3217   1.102   4.125   2.673
  773SOL    HW1 3218   1.036   4.088   2.607
  773SOL    HW2 3219   1.135   4.213   2.641
  774SOL     OW 3220   2.233   1.154   2.714
  774SOL    HW1 3221   2.185   1.231   2.757
  774SOL    HW2 3222   2.265   1.091   2.785
  775SOL     OW 3223   1.816   2.089   4.243
  775SOL    HW1 3224   1.890   2.157   4.249
  775SOL    HW2 3225   1.849   2.009   4.193
  776SOL     OW 3226   0.136   0.156   6.635
  776SOL    HW1 3227   0.223   0.206   6.642
  776SOL    HW2 3228   0.113   0.116   6.723
  777SOL     OW 3229   1.734   3.720   1.180
  777SOL    HW1 3230   1.701   3.793   1.241
  777SOL    HW2 3231   1.656   3.674   1.138
  778SOL     OW 3232   2.431   0.179   1.528
  778SOL    HW1 3233   2.383   0.101   1.488
  778SOL    HW2 3234   2.491   0.220   1.459
  779SOL     OW 3235   6.850   2.315   1.600
  779SOL    HW1 3236   6.812   2.354   1.684
  779SOL    HW2 3237   6.787   2.244   1.566
  780SOL     OW 3238   0.574   2.733   4.432
  780SOL    HW1 3239   0.622   2.645   4.425
  780SOL    HW2 3240   0.485   2.718   4.475
  781SOL     OW 3241   6.877   5.140   0.435
  781SOL    HW1 3242   6.830   5.071   0.490
  781SOL    HW2 3243   6.843   5.136   0.341
  782SOL     OW 3244   2.326   3.764   5.267
  782SOL    HW1 3245   2.365   3.854   5.245
  782SOL    HW2 3246   2.272   3.732   5.189
  783SOL     OW 3247   5.969   5.035   1.179
  783SOL    HW1 3248   5.978   4.958   1.241
  783SOL    HW2 3249   6.043   5.033   1.112
  784SOL     OW 3250   3.025   5.895   1.843
  784SOL    HW1 3251   3.102   5.833   1.828
  784SOL    HW2 3252   3.056   5.974   1.896
  785SOL     OW 3253   0.448   1.489   3.660
  785SOL    HW1 3254   0.383   1.563   3.676
  785SOL    HW2 3255   0.510   1.514   3.586
  786SOL     OW 3256   6.568   1.171   2.837
  786SOL    HW1 3257   6.639   1.121   2.886
  786SOL    HW2 3258   6.500   1.107   2.801
  787SOL     OW 3259   2.232   6.888   6.869
  787SOL    HW1 3260   2.218   6.790   6.857
  787SOL    HW2 3261   2.256   6.906   6.965
  788SOL     OW 3262   4.043   2.698   1.682
  788SOL    HW1 3263   4.050   2.600   1.701
  788SOL    HW2 3264   3.949   2.728   1.696
  789SOL     OW 3265   4.472   5.567   2.655
  789SOL    HW1 3266   4.395   5.592   2.713
  789SOL    HW2 3267   4.557   5.600   2.696
  790SOL     OW 3268   1.637   1.321   1.967
  790SOL    HW1 3269   1.722   1.370   1.990
  790SOL    HW2 3270   1.588   1.372   1.895
  791SOL     OW 3271   2.695   6.275   5.431
  791SOL    HW1 3272   2.731   6.193   5.476
  791SOL    HW2 3273   2.654   6.335   5.500
  792SOL     OW 3274   0.405   1.540   1.527
  792SOL    HW1 3275   0.474   1.470   1.510
  792SOL    HW2 3276   0.438   1.602   1.599
  793SOL     OW 3277   4.837   6.066   5.135
  793SOL    HW1 3278   4.855   6.162   5.157
  793SOL    HW2 3279   4.739   6.051   5.126
  794SOL     OW 3280   3.471   3.522   5.440
  794SOL    HW1 3281   3.528   3.566   5.371
  794SOL    HW2 3282   3.510   3.433   5.465
  795SOL     OW 3283   3.707   0.675   5.849
  795SOL    HW1 3284   3.759   0.597   5.813
  795SOL    HW2 3285   3.717   0.753   5.787
  796SOL     OW 3286   1.752   2.808   0.122
  796SOL    HW1 3287   1.821   2.846   0.061
  796SOL    HW2 3288   1.745   2.865   0.204
  797SOL     OW 3289   4.114   0.148   0.649
  797SOL    HW1 3290   4.125   0.248   0.653
  797SOL    HW2 3291   4.075   0.122   0.561
  798SOL     OW 3292   3.119   6.232   1.511
  798SOL    HW1 3293   3.064   6.190   1.438
  798SOL    HW2 3294   3.189   6.290   1.470
  799SOL     OW 3295   0.331   1.780   6.250
  799SOL    HW1 3296   0.248   1.829   6.225
  799SOL    HW2 3297   0.321   1.683   6.226
  800SOL     OW 3298   6.879   1.915   2.439
  800SOL    HW1 3299   6.909   1.978   2.367
  800SOL    HW2 3300   6.796   1.868   2.409
  801SOL     OW 3301   1.797   4.470   5.148
  801SOL    HW1 3302   1.805   4.570   5.140
  801SOL    HW2 3303   1.745   4.435   5.070
  802SOL     OW 3304   3.982   2.628   6.711
  802SOL    HW1 3305   4.005   2.540   6.753
  802SOL    HW2 3306   3.938   2.686   6.779
  803SOL     OW 3307   2.188   0.054   5.891
  803SOL    HW1 3308   2.095   0.059   5.928
  803SOL    HW2 3309   2.253   0.038   5.966
  804SOL     OW 3310   6.567   6.447   1.585
  804SOL    HW1 3311   6.485   6.430   1.639
  804SOL    HW2 3312   6.638   6.380   1.609
  805SOL     OW 3313   1.370   0.351   3.866
  805SOL    HW1 3314   1.398   0.413   3.793
  805SOL    HW2 3315   1.331   0.403   3.941
  806SOL     OW 3316   6.602   0.370   5.926
  806SOL    HW1 3317   6.690   0.399   5.964
  806SOL    HW2 3318   6.617   0.331   5.835
  807SOL     OW 3319   0.562   6.912   4.093
  807SOL    HW1 3320   0.523   6.846   4.029
  807SOL    HW2 3321   0.556   7.004   4.054
  808SOL     OW 3322   5.532   2.764   0.273
  808SOL    HW1 3323   5.549   2.862   0.271
  808SOL    HW2 3324   5.607   2.718   0.319
  809SOL     OW 3325   1.022   5.206   0.358
  809SOL    HW1 3326   1.059   5.139   0.294
  809SOL    HW2 3327   1.049   5.182   0.451
  810SOL     OW 3328   2.709   3.129   0.502
  810SOL    HW1 3329   2.713   3.158   0.598
  810SOL    HW2 3330   2.769   3.050   0.489
  811SOL     OW 3331   5.798   5.222   4.839
  811SOL    HW1 3332   5.749   5.163   4.904
  811SOL    HW2 3333   5.881   5.258   4.882
  812SOL     OW 3334   0.467   2.188   2.260
  812SOL    HW1 3335   0.524   2.161   2.338
  812SOL    HW2 3336   0.392   2.123   2.251
  813SOL     OW 3337   2.790   0.096   4.416
  813SOL    HW1 3338   2.727   0.026   4.450
  813SOL    HW2 3339   2.877   0.055   4.393
  814SOL     OW 3340   6.308   5.698   2.201
  814SOL    HW1 3341   6.348   5.744   2.122
  814SOL    HW2 3342   6.262   5.766   2.259
  815SOL     OW 3343   5.045   2.776   3.640
  815SOL    HW1 3344   5.031   2.875   3.644
  815SOL    HW2 3345   5.070   2.750   3.546
  816SOL     OW 3346   4.730   4.450   0.338
  816SOL    HW1 3347   4.801   4.478   0.273
  816SOL    HW2 3348   4.724   4.351   0.340
  817SOL     OW 3349   1.090   5.547   1.847
  817SOL    HW1 3350   1.132   5.585   1.929
  817SOL    HW2 3351   1.102   5.447   1.847
  818SOL     OW 3352   5.513   2.861   4.203
  818SOL    HW1 3353   5.476   2.881   4.294
  818SOL    HW2 3354   5.510   2.944   4.147
  819SOL     OW 3355   5.755   2.891   1.780
  819SOL    HW1 3356   5.774   2.970   1.839
  819SOL    HW2 3357   5.727   2.924   1.689
  820SOL     OW 3358   3.284   2.172   4.462
  820SOL    HW1 3359   3.203   2.213   4.421
  820SOL    HW2 3360   3.277   2.176   4.561
  821SOL     OW 3361   6.189   4.754   5.586
  821SOL    HW1 3362   6.211   4.693   5.510
  821SOL    HW2 3363   6.198   4.849   5.556
  822SOL     OW 3364   0.566   4.174   3.072
  822SOL    HW1 3365   0.555   4.195   3.170
  822SOL    HW2 3366   0.651   4.215   3.039
  823SOL     OW 3367   6.873   4.165   5.742
  823SOL    HW1 3368   6.935   4.087   5.736
  823SOL    HW2 3369   6.884   4.209   5.831
  824SOL     OW 3370   5.343   1.031   5.585
  824SOL    HW1 3371   5.418   1.016   5.521
  824SOL    HW2 3372   5.381   1.054   5.675
  825SOL     OW 3373   6.219   5.928   0.598
  825SOL    HW1 3374   6.264   5.859   0.541
  825SOL    HW2 3375   6.146   5.971   0.546
  826SOL     OW 3376   3.841   2.370   5.796
  826SOL    HW1 3377   3.922   2.406   5.842
  826SOL    HW2 3378   3.759   2.408   5.839
  827SOL     OW 3379   2.957   4.237   5.345
  827SOL    HW1 3380   2.865   4.219   5.379
  827SOL    HW2 3381   2.956   4.318   5.287
  828SOL     OW 3382   5.943   5.503   5.746
  828SOL    HW1 3383   5.853   5.469   5.773
  828SOL    HW2 3384   5.977   5.565   5.817
  829SOL     OW 3385   3.107   3.124   2.068
  829SOL    HW1 3386   3.072   3.181   2.143
  829SOL    HW2 3387   3.185   3.170   2.025
  830SOL     OW 3388   5.952   4.802   6.787
  830SOL    HW1 3389   6.031   4.774   6.842
  830SOL    HW2 3390   5.983   4.836   6.698
  831SOL     OW 3391   6.083   6.840   1.369
  831SOL    HW1 3392   6.152   6.898   1.410
  831SOL    HW2 3393   6.084   6.852   1.269
  832SOL     OW 3394   4.500   1.199   4.335
  832SOL    HW1 3395   4.452   1.239   4.413
  832SOL    HW2 3396   4.579   1.256   4.311
  833SOL     OW 3397   1.713   3.610   6.667
  833SOL    HW1 3398   1.652   3.619   6.747
  833SOL    HW2 3399   1.674   3.543   6.604
  834SOL     OW 3400   5.162   3.116   0.382
  834SOL    HW1 3401   5.257   3.132   0.409
  834SOL    HW2 3402   5.138   3.020   0.398
  835SOL     OW 3403   1.788   0.295   5.254
  835SOL    HW1 3404   1.868   0.329   5.303
  835SOL    HW2 3405   1.790   0.196   5.249
  836SOL     OW 3406   3.142   1.221   5.391
  836SOL    HW1 3407   3.112   1.279   5.467
  836SOL    HW2 3408   3.081   1.142   5.383
  837SOL     OW 3409   1.152   0.019   1.346
  837SOL    HW1 3410   1.218   7.018   1.273
  837SOL    HW2 3411   1.069   6.983   1.332
  838SOL     OW 3412   2.031   6.230   4.589
  838SOL    HW1 3413   2.004   6.164   4.519
  838SOL    HW2 3414   2.073   6.309   4.546
  839SOL     OW 3415   2.365   1.602   1.298
  839SOL    HW1 3416   2.461   1.619   1.273
  839SOL    HW2 3417   2.311   1.589   1.215
  840SOL     OW 3418   6.529   5.387   6.775
  840SOL    HW1 3419   6.449   5.388   6.835
  840SOL    HW2 3420   6.505   5.343   6.689
  841SOL     OW 3421   3.922   5.742   6.167
  841SOL    HW1 3422   3.921   5.670   6.098
  841SOL    HW2 3423   3.945   5.703   6.256
  842SOL     OW 3424   3.530   6.444   6.845
  842SOL    HW1 3425   3.451   6.436   6.906
  842SOL    HW2 3426   3.576   6.356   6.838
  843SOL     OW 3427   2.495   2.074   2.026
  843SOL    HW1 3428   2.403   2.081   1.987
  843SOL    HW2 3429   2.509   1.982   2.062
  844SOL     OW 3430   0.309   6.447   1.280
  844SOL    HW1 3431   0.235   6.434   1.215
  844SOL    HW2 3432   0.291   6.528   1.337
  845SOL     OW 3433   5.071   2.610   3.137
  845SOL    HW1 3434   5.075   2.585   3.040
  845SOL    HW2 3435   4.992   2.565   3.179
  846SOL     OW 3436   3.235   0.670   6.596
  846SOL    HW1 3437   3.177   0.685   6.675
  846SOL    HW2 3438   3.320   0.722   6.607
  847SOL     OW 3439   1.938   3.312   2.031
  847SOL    HW1 3440   2.020   3.327   2.087
  847SOL    HW2 3441   1.887   3.398   2.023
  848SOL     OW 3442   6.681   6.752   5.662
  848SOL    HW1 3443   6.582   6.741   5.651
  848SOL    HW2 3444   6.701   6.784   5.755
  849SOL     OW 3445   6.321   4.083   6.988
  849SOL    HW1 3446   6.347   4.173   0.002
  849SOL    HW2 3447   6.349   4.072   6.892
  850SOL     OW 3448   0.627   6.963   4.773
  850SOL    HW1 3449   0.557   0.014   4.791
  850SOL    HW2 3450   0.652   6.966   4.676
  851SOL     OW 3451   6.524   2.588   6.792
  851SOL    HW1 3452   6.611   2.548   6.821
  851SOL    HW2 3453   6.520   2.591   6.692
  852SOL     OW 3454   0.565   4.865   0.624
  852SOL    HW1 3455   0.583   4.890   0.719
  852SOL    HW2 3456   0.619   4.923   0.564
  853SOL     OW 3457   1.882   4.078   6.462
  853SOL    HW1 3458   1.863   4.020   6.382
  853SOL    HW2 3459   1.796   4.115   6.496
  854SOL     OW 3460   5.374   6.613   0.425
  854SOL    HW1 3461   5.449   6.594   0.362
  854SOL    HW2 3462   5.357   6.712   0.427
  855SOL     OW 3463   5.856   0.307   0.440
  855SOL    HW1 3464   5.822   0.230   0.386
  855SOL    HW2 3465   5.951   0.325   0.415
  856SOL     OW 3466   1.052   6.882   5.745
  856SOL    HW1 3467   0.963   6.890   5.790
  856SOL    HW2 3468   1.107   6.813   5.792
  857SOL     OW 3469   6.780   5.456   2.120
  857SOL    HW1 3470   6.870   5.436   2.158
  857SOL    HW2 3471   6.778   5.430   2.023
  858SOL     OW 3472   3.001   3.901   1.032
  858SOL    HW1 3473   3.015   3.969   0.961
  858SOL    HW2 3474   2.906   3.868   1.029
  859SOL     OW 3475   5.316   5.777   5.517
  859SOL    HW1 3476   5.249   5.842   5.552
  859SOL    HW2 3477   5.290   5.748   5.424
  860SOL     OW 3478   5.745   3.197   6.649
  860SOL    HW1 3479   5.721   3.107   6.613
  860SOL    HW2 3480   5.661   3.247   6.673
  861SOL     OW 3481   2.312   5.590   3.392
  861SOL    HW1 3482   2.286   5.575   3.296
  861SOL    HW2 3483   2.242   5.552   3.452
  862SOL     OW 3484   1.834   5.141   3.383
  862SOL    HW1 3485   1.922   5.115   3.344
  862SOL    HW2 3486   1.840   5.232   3.423
  863SOL     OW 3487   5.901   0.945   5.913
  863SOL    HW1 3488   5.875   0.955   6.009
  863SOL    HW2 3489   5.935   0.852   5.898
  864SOL     OW 3490   4.052   0.085   5.019
  864SOL    HW1 3491   3.995   0.026   4.961
  864SOL    HW2 3492   4.069   0.040   5.106
  865SOL     OW 3493   1.712   0.381   6.110
  865SOL    HW1 3494   1.798   0.335   6.134
  865SOL    HW2 3495   1.705   0.467   6.161
  866SOL     OW 3496   3.453   6.763   0.868
  866SOL    HW1 3497   3.365   6.811   0.869
  866SOL    HW2 3498   3.502   6.782   0.953
  867SOL     OW 3499   5.419   3.139   0.506
  867SOL    HW1 3500   5.482   3.086   0.450
  867SOL    HW2 3501   5.468   3.212   0.553
  868SOL     OW 3502   0.067   1.809   2.550
  868SOL    HW1 3503   0.139   1.879   2.553
  868SOL    HW2 3504   7.002   1.849   2.512
  869SOL     OW 3505   6.761   3.755   3.372
  869SOL    HW1 3506   6.782   3.702   3.290
  869SOL    HW2 3507   6.680   3.718   3.416
  870SOL     OW 3508   3.859   4.219   1.244
  870SOL    HW1 3509   3.933   4.285   1.247
  870SOL    HW2 3510   3.789   4.243   1.311
  871SOL     OW 3511   5.385   2.437   4.141
  871SOL    HW1 3512   5.357   2.341   4.150
  871SOL    HW2 3513   5.319   2.485   4.084
  872SOL     OW 3514   0.362   1.968   4.416
  872SOL    HW1 3515   0.264   1.955   4.430
  872SOL    HW2 3516   0.377   2.051   4.361
  873SOL     OW 3517   4.150   6.069   5.313
  873SOL    HW1 3518   4.174   6.070   5.216
  873SOL    HW2 3519   4.159   6.162   5.350
  874SOL     OW 3520   6.034   4.105   0.506
  874SOL    HW1 3521   6.042   4.043   0.584
  874SOL    HW2 3522   6.039   4.200   0.537
  875SOL     OW 3523   5.267   5.532   0.890
  875SOL    HW1 3524   5.180   5.547   0.937
  875SOL    HW2 3525   5.250   5.483   0.804
  876SOL     OW 3526   0.379   5.498   1.772
  876SOL    HW1 3527   0.296   5.500   1.828
  876SOL    HW2 3528   0.446   5.562   1.809
  877SOL     OW 3529   3.140   4.303   5.841
  877SOL    HW1 3530   3.067   4.348   5.893
  877SOL    HW2 3531   3.120   4.311   5.743
  878SOL     OW 3532   4.525   0.015   3.758
  878SOL    HW1 3533   4.512   0.022   3.659
  878SOL    HW2 3534   4.500   6.941   3.789
  879SOL     OW 3535   3.767   0.557   1.440
  879SOL    HW1 3536   3.705   0.605   1.502
  879SOL    HW2 3537   3.789   0.467   1.478
  880SOL     OW 3538   3.984   3.902   3.850
  880SOL    HW1 3539   4.031   3.819   3.880
  880SOL    HW2 3540   3.994   3.912   3.751
  881SOL     OW 3541   5.262   2.965   4.784
  881SOL    HW1 3542   5.294   3.035   4.848
  881SOL    HW2 3543   5.221   3.009   4.704
  882SOL     OW 3544   0.684   3.209   3.683
  882SOL    HW1 3545   0.594   3.204   3.640
  882SOL    HW2 3546   0.687   3.148   3.762
  883SOL     OW 3547   3.284   0.782   1.501
  883SOL    HW1 3548   3.221   0.718   1.545
  883SOL    HW2 3549   3.244   0.874   1.502
  884SOL     OW 3550   5.413   3.386   5.898
  884SOL    HW1 3551   5.377   3.333   5.975
  884SOL    HW2 3552   5.389   3.341   5.813
  885SOL     OW 3553   3.276   0.828   5.331
  885SOL    HW1 3554   3.343   0.757   5.313
  885SOL    HW2 3555   3.323   0.914   5.353
  886SOL     OW 3556   3.313   0.294   0.181
  886SOL    HW1 3557   3.303   0.365   0.111
  886SOL    HW2 3558   3.341   0.335   0.267
  887SOL     OW 3559   3.817   6.752   3.591
  887SOL    HW1 3560   3.913   6.763   3.618
  887SOL    HW2 3561   3.798   6.809   3.512
  888SOL     OW 3562   6.985   6.455   3.485
  888SOL    HW1 3563   6.983   6.518   3.562
  888SOL    HW2 3564   0.060   6.450   3.448
  889SOL     OW 3565   0.018   3.008   0.670
  889SOL    HW1 3566   0.025   3.024   0.571
  889SOL    HW2 3567   6.987   3.083   0.713
  890SOL     OW 3568   1.213   5.082   2.884
  890SOL    HW1 3569   1.248   5.109   2.974
  890SOL    HW2 3570   1.272   5.010   2.845
  891SOL     OW 3571   5.685   4.935   0.948
  891SOL    HW1 3572   5.762   4.979   0.901
  891SOL    HW2 3573   5.673   4.977   1.039
  892SOL     OW 3574   2.566   3.768   5.395
  892SOL    HW1 3575   2.634   3.801   5.330
  892SOL    HW2 3576   2.493   3.721   5.346
  893SOL     OW 3577   2.188   6.373   3.228
  893SOL    HW1 3578   2.126   6.420   3.164
  893SOL    HW2 3579   2.280   6.410   3.218
  894SOL     OW 3580   0.727   2.948   1.636
  894SOL    HW1 3581   0.779   2.866   1.610
  894SOL    HW2 3582   0.756   3.025   1.579
  895SOL     OW 3583   0.903   5.165   3.758
  895SOL    HW1 3584   0.947   5.224   3.826
  895SOL    HW2 3585   0.970   5.099   3.724
  896SOL     OW 3586   5.195   4.921   1.183
  896SOL    HW1 3587   5.159   4.842   1.233
  896SOL    HW2 3588   5.290   4.904   1.158
  897SOL     OW 3589   4.165   1.438   6.568
  897SOL    HW1 3590   4.252   1.390   6.554
  897SOL    HW2 3591   4.131   1.419   6.660
  898SOL     OW 3592   3.612   6.481   2.913
  898SOL    HW1 3593   3.574   6.571   2.932
  898SOL    HW2 3594   3.552   6.410   2.950
  899SOL     OW 3595   0.223   6.885   0.248
  899SOL    HW1 3596   0.213   6.928   0.337
  899SOL    HW2 3597   0.277   6.802   0.257
  900SOL     OW 3598   5.689   6.895   0.252
  900SOL    HW1 3599   5.762   6.949   0.210
  900SOL    HW2 3600   5.600   6.930   0.223
  901SOL     OW 3601   2.412   6.854   3.212
  901SOL    HW1 3602   2.402   6.794   3.133
  901SOL    HW2 3603   2.501   6.841   3.254
  902SOL     OW 3604   0.538   1.716   0.756
  902SOL    HW1 3605   0.623   1.674   0.788
  902SOL    HW2 3606   0.476   1.729   0.833
  903SOL     OW 3607   0.265   2.301   6.423
  903SOL    HW1 3608   0.352   2.347   6.434
  903SOL    HW2 3609   0.257   2.225   6.488
  904SOL     OW 3610   2.316   2.292   2.818
  904SOL    HW1 3611   2.398   2.349   2.809
  904SOL    HW2 3612   2.339   2.197   2.798
  905SOL     OW 3613   4.931   1.932   6.693
  905SOL    HW1 3614   4.895   1.839   6.693
  905SOL    HW2 3615   5.011   1.937   6.754
  906SOL     OW 3616   0.198   1.829   6.649
  906SOL    HW1 3617   0.177   1.768   6.725
  906SOL    HW2 3618   0.260   1.784   6.585
  907SOL     OW 3619   5.577   3.216   0.737
  907SOL    HW1 3620   5.669   3.181   0.724
  907SOL    HW2 3621   5.545   3.195   0.829
  908SOL     OW 3622   2.795   4.747   2.886
  908SOL    HW1 3623   2.762   4.682   2.955
  908SOL    HW2 3624   2.881   4.788   2.918
  909SOL     OW 3625   4.422   5.911   1.541
  909SOL    HW1 3626   4.402   6.002   1.506
  909SOL    HW2 3627   4.475   5.860   1.473
  910SOL     OW 3628   3.190   1.837   1.042
  910SOL    HW1 3629   3.277   1.847   1.090
  910SOL    HW2 3630   3.207   1.822   0.945
  911SOL     OW 3631   0.943   6.214   6.358
  911SOL    HW1 3632   0.982   6.277   6.425
  911SOL    HW2 3633   1.004   6.136   6.345
  912SOL     OW 3634   6.245   2.278   2.978
  912SOL    HW1 3635   6.202   2.298   2.891
  912SOL    HW2 3636   6.325   2.337   2.990
  913SOL     OW 3637   4.280   0.071   2.949
  913SOL    HW1 3638   4.313   0.005   2.881
  913SOL    HW2 3639   4.354   0.134   2.973
  914SOL     OW 3640   2.610   0.180   6.126
  914SOL    HW1 3641   2.531   0.129   6.092
  914SOL    HW2 3642   2.685   0.116   6.145
  915SOL     OW 3643   6.106   4.287   0.094
  915SOL    HW1 3644   6.068   4.199   0.064
  915SOL    HW2 3645   6.147   4.334   0.016
  916SOL     OW 3646   1.802   2.673   1.805
  916SOL    HW1 3647   1.742   2.668   1.886
  916SOL    HW2 3648   1.765   2.615   1.733
  917SOL     OW 3649   0.554   6.639   0.974
  917SOL    HW1 3650   0.457   6.617   0.965
  917SOL    HW2 3651   0.582   6.697   0.897
  918SOL     OW 3652   3.373   0.615   0.596
  918SOL    HW1 3653   3.418   0.657   0.518
  918SOL    HW2 3654   3.275   0.634   0.592
  919SOL     OW 3655   5.814   1.591   2.783
  919SOL    HW1 3656   5.847   1.622   2.694
  919SOL    HW2 3657   5.822   1.665   2.850
  920SOL     OW 3658   2.509   4.222   1.754
  920SOL    HW1 3659   2.608   4.208   1.755
  920SOL    HW2 3660   2.463   4.134   1.762
  921SOL     OW 3661   4.597   6.090   4.030
  921SOL    HW1 3662   4.580   6.188   4.016
  921SOL    HW2 3663   4.511   6.045   4.052
  922SOL     OW 3664   3.711   3.547   4.510
  922SOL    HW1 3665   3.758   3.619   4.457
  922SOL    HW2 3666   3.725   3.459   4.465
  923SOL     OW 3667   2.117   3.028   6.786
  923SOL    HW1 3668   2.070   3.009   6.700
  923SOL    HW2 3669   2.188   2.960   6.801
  924SOL     OW 3670   6.110   3.909   1.445
  924SOL    HW1 3671   6.096   3.920   1.347
  924SOL    HW2 3672   6.101   3.812   1.469
  925SOL     OW 3673   0.022   2.161   0.235
  925SOL    HW1 3674   7.016   2.253   0.265
  925SOL    HW2 3675   0.024   2.100   0.314
  926SOL     OW 3676   6.347   0.746   1.410
  926SOL    HW1 3677   6.350   0.839   1.444
  926SOL    HW2 3678   6.264   0.701   1.443
  927SOL     OW 3679   5.552   3.549   3.791
  927SOL    HW1 3680   5.496   3.517   3.715
  927SOL    HW2 3681   5.563   3.648   3.786
  928SOL     OW 3682   2.047   5.972   0.498
  928SOL    HW1 3683   1.958   5.985   0.542
  928SOL    HW2 3684   2.120   5.992   0.564
  929SOL     OW 3685   0.060   0.835   6.964
  929SOL    HW1 3686   6.979   0.823   6.960
  929SOL    HW2 3687   0.092   0.874   6.878
  930SOL     OW 3688   5.203   6.125   6.287
  930SOL    HW1 3689   5.161   6.066   6.356
  930SOL    HW2 3690   5.254   6.199   6.333
  931SOL     OW 3691   6.826   1.238   4.569
  931SOL    HW1 3692   6.911   1.289   4.573
  931SOL    HW2 3693   6.845   1.141   4.551
  932SOL     OW 3694   2.412   1.736   3.114
  932SOL    HW1 3695   2.395   1.753   3.017
  932SOL    HW2 3696   2.506   1.703   3.126
  933SOL     OW 3697   1.322   5.117   3.136
  933SOL    HW1 3698   1.407   5.096   3.186
  933SOL    HW2 3699   1.245   5.118   3.200
  934SOL     OW 3700   2.612   5.898   6.115
  934SOL    HW1 3701   2.603   5.799   6.121
  934SOL    HW2 3702   2.707   5.922   6.094
  935SOL     OW 3703   5.536   4.612   4.107
  935SOL    HW1 3704   5.474   4.558   4.163
  935SOL    HW2 3705   5.540   4.574   4.015
  936SOL     OW 3706   0.765   6.398   6.021
  936SOL    HW1 3707   0.721   6.415   6.109
  936SOL    HW2 3708   0.764   6.481   5.966
  937SOL     OW 3709   5.660   1.635   6.115
  937SOL    HW1 3710   5.634   1.731   6.100
  937SOL    HW2 3711   5.579   1.583   6.142
  938SOL     OW 3712   6.221   5.442   4.637
  938SOL    HW1 3713   6.281   5.368   4.665
  938SOL    HW2 3714   6.273   5.528   4.633
  939SOL     OW 3715   0.077   6.860   3.569
  939SOL    HW1 3716   0.061   6.774   3.617
  939SOL    HW2 3717   0.043   6.936   3.625
  940SOL     OW 3718   0.621   3.750   0.425
  940SOL    HW1 3719   0.714   3.742   0.462
  940SOL    HW2 3720   0.579   3.834   0.459
  941SOL     OW 3721   4.994   0.422   0.123
  941SOL    HW1 3722   4.977   0.393   0.029
  941SOL    HW2 3723   5.091   0.412   0.144
  942SOL     OW 3724   5.781   6.992   1.900
  942SOL    HW1 3725   5.822   6.980   1.810
  942SOL    HW2 3726   5.764   6.902   1.941
  943SOL     OW 3727   1.440   4.921   2.538
  943SOL    HW1 3728   1.518   4.869   2.502
  943SOL    HW2 3729   1.357   4.891   2.491
  944SOL     OW 3730   0.548   5.644   4.885
  944SOL    HW1 3731   0.619   5.689   4.940
  944SOL    HW2 3732   0.521   5.705   4.810
  945SOL     OW 3733   0.252   4.863   5.415
  945SOL    HW1 3734   0.245   4.770   5.379
  945SOL    HW2 3735   0.325   4.868   5.482
  946SOL     OW 3736   4.852   4.770   4.631
  946SOL    HW1 3737   4.952   4.771   4.629
  946SOL    HW2 3738   4.818   4.715   4.555
  947SOL     OW 3739   3.477   3.519   3.665
  947SOL    HW1 3740   3.480   3.428   3.623
  947SOL    HW2 3741   3.408   3.520   3.738
  948SOL     OW 3742   4.434   1.231   3.213
  948SOL    HW1 3743   4.342   1.201   3.236
  948SOL    HW2 3744   4.445   1.232   3.113
  949SOL     OW 3745   3.008   6.091   0.232
  949SOL    HW1 3746   2.915   6.055   0.239
  949SOL    HW2 3747   3.074   6.016   0.230
  950SOL     OW 3748   6.064   5.441   2.558
  950SOL    HW1 3749   5.981   5.415   2.607
  950SOL    HW2 3750   6.044   5.516   2.495
  951SOL     OW 3751   0.878   0.101   3.201
  951SOL    HW1 3752   0.951   0.033   3.199
  951SOL    HW2 3753   0.811   0.077   3.271
  952SOL     OW 3754   4.306   2.177   2.541
  952SOL    HW1 3755   4.339   2.271   2.541
  952SOL    HW2 3756   4.254   2.159   2.458
  953SOL     OW 3757   6.055   5.375   4.864
  953SOL    HW1 3758   6.151   5.382   4.888
  953SOL    HW2 3759   6.034   5.439   4.790
  954SOL     OW 3760   3.885   6.222   2.127
  954SOL    HW1 3761   3.786   6.236   2.131
  954SOL    HW2 3762   3.905   6.125   2.137
  955SOL     OW 3763   2.262   4.283   0.087
  955SOL    HW1 3764   2.233   4.270   7.010
  955SOL    HW2 3765   2.205   4.353   0.130
  956SOL     OW 3766   6.849   0.701   1.768
  956SOL    HW1 3767   6.927   0.748   1.811
  956SOL    HW2 3768   6.857   0.708   1.669
  957SOL     OW 3769   6.167   1.804   1.521
  957SOL    HW1 3770   6.161   1.858   1.605
  957SOL    HW2 3771   6.129   1.713   1.536
  958SOL     OW 3772   4.098   6.593   1.559
  958SOL    HW1 3773   4.164   6.664   1.585
  958SOL    HW2 3774   4.148   6.513   1.525
  959SOL     OW 3775   3.286   6.659   5.128
  959SOL    HW1 3776   3.364   6.714   5.157
  959SOL    HW2 3777   3.286   6.651   5.028
  960SOL     OW 3778   1.798   0.144   1.503
  960SOL    HW1 3779   1.842   0.155   1.592
  960SOL    HW2 3780   1.704   0.114   1.515
  961SOL     OW 3781   4.424   6.405   3.060
  961SOL    HW1 3782   4.433   6.479   2.993
  961SOL    HW2 3783   4.387   6.442   3.146
  962SOL     OW 3784   6.724   0.624   4.275
  962SOL    HW1 3785   6.646   0.571   4.242
  962SOL    HW2 3786   6.704   0.722   4.264
  963SOL     OW 3787   4.377   1.093   0.299
  963SOL    HW1 3788   4.461   1.056   0.338
  963SOL    HW2 3789   4.391   1.190   0.276
  964SOL     OW 3790   4.807   4.953   5.415
  964SOL    HW1 3791   4.730   4.915   5.466
  964SOL    HW2 3792   4.818   5.049   5.438
  965SOL     OW 3793   6.041   1.686   2.453
  965SOL    HW1 3794   6.092   1.766   2.423
  965SOL    HW2 3795   6.090   1.641   2.528
  966SOL     OW 3796   5.575   2.860   3.524
  966SOL    HW1 3797   5.627   2.796   3.581
  966SOL    HW2 3798   5.586   2.953   3.558
  967SOL     OW 3799   2.970   4.763   6.806
  967SOL    HW1 3800   2.962   4.780   6.904
  967SOL    HW2 3801   2.972   4.664   6.790
  968SOL     OW 3802   3.938   6.631   1.278
  968SOL    HW1 3803   4.021   6.593   1.318
  968SOL    HW2 3804   3.939   6.730   1.285
  969SOL     OW 3805   2.089   4.970   5.663
  969SOL    HW1 3806   2.151   4.892   5.668
  969SOL    HW2 3807   2.004   4.950   5.713
  970SOL     OW 3808   5.232   0.035   6.224
  970SOL    HW1 3809   5.308   0.049   6.160
  970SOL    HW2 3810   5.166   0.109   6.214
  971SOL     OW 3811   6.853   3.322   2.374
  971SOL    HW1 3812   6.943   3.330   2.332
  971SOL    HW2 3813   6.784   3.311   2.303
  972SOL     OW 3814   6.702   2.630   1.587
  972SOL    HW1 3815   6.758   2.644   1.505
  972SOL    HW2 3816   6.747   2.674   1.665
  973SOL     OW 3817   1.345   5.369   6.870
  973SOL    HW1 3818   1.404   5.448   6.856
  973SOL    HW2 3819   1.330   5.323   6.782
  974SOL     OW 3820   0.486   5.502   2.214
  974SOL    HW1 3821   0.417   5.433   2.191
  974SOL    HW2 3822   0.574   5.457   2.229
  975SOL     OW 3823   2.544   6.948   0.514
  975SOL    HW1 3824   2.601   7.000   0.451
  975SOL    HW2 3825   2.600   6.913   0.589
  976SOL     OW 3826   6.847   3.623   1.247
  976SOL    HW1 3827   6.832   3.524   1.235
  976SOL    HW2 3828   6.809   3.651   1.336
  977SOL     OW 3829   0.631   1.066   2.096
  977SOL    HW1 3830   0.646   1.065   1.997
  977SOL    HW2 3831   0.535   1.086   2.115
  978SOL     OW 3832   5.116   1.665   1.099
  978SOL    HW1 3833   5.188   1.641   1.164
  978SOL    HW2 3834   5.027   1.659   1.145
  979SOL     OW 3835   0.593   3.086   6.581
  979SOL    HW1 3836   0.559   3.061   6.671
  979SOL    HW2 3837   0.637   3.176   6.586
  980SOL     OW 3838   4.881   1.569   4.878
  980SOL    HW1 3839   4.888   1.474   4.846
  980SOL    HW2 3840   4.851   1.570   4.973
  981SOL     OW 3841   0.435   0.822   4.764
  981SOL    HW1 3842   0.371   0.821   4.687
  981SOL    HW2 3843   0.495   0.902   4.757
  982SOL     OW 3844   0.869   1.644   5.190
  982SOL    HW1 3845   0.891   1.742   5.181
  982SOL    HW2 3846   0.935   1.590   5.138
  983SOL     OW 3847   6.914   3.829   2.664
  983SOL    HW1 3848   6.847   3.903   2.676
  983SOL    HW2 3849   6.946   3.799   2.753
  984SOL     OW 3850   1.528   2.462   2.991
  984SOL    HW1 3851   1.529   2.431   3.086
  984SOL    HW2 3852   1.509   2.384   2.931
  985SOL     OW 3853   6.602   3.734   4.505
  985SOL    HW1 3854   6.612   3.641   4.468
  985SOL    HW2 3855   6.613   3.801   4.431
  986SOL     OW 3856   4.397   5.578   1.458
  986SOL    HW1 3857   4.415   5.483   1.485
  986SOL    HW2 3858   4.301   5.586   1.430
  987SOL     OW 3859   5.419   6.400   2.273
  987SOL    HW1 3860   5.384   6.493   2.286
  987SOL    HW2 3861   5.347   6.334   2.293
  988SOL     OW 3862   3.251   4.054   2.044
  988SOL    HW1 3863   3.164   4.005   2.041
  988SOL    HW2 3864   3.272   4.079   2.139
  989SOL     OW 3865   6.576   1.485   0.104
  989SOL    HW1 3866   6.569   1.389   0.132
  989SOL    HW2 3867   6.541   1.494   0.011
  990SOL     OW 3868   3.416   0.367   2.426
  990SOL    HW1 3869   3.384   0.392   2.335
  990SOL    HW2 3870   3.515   0.357   2.425
  991SOL     OW 3871   0.568   4.178   4.086
  991SOL    HW1 3872   0.487   4.236   4.082
  991SOL    HW2 3873   0.650   4.235   4.087
  992SOL     OW 3874   0.432   3.342   1.111
  992SOL    HW1 3875   0.412   3.373   1.018
  992SOL    HW2 3876   0.446   3.422   1.170
  993SOL     OW 3877   0.438   3.870   0.792
  993SOL    HW1 3878   0.505   3.927   0.744
  993SOL    HW2 3879   0.453   3.876   0.890
  994SOL     OW 3880   3.649   5.333   1.334
  994SOL    HW1 3881   3.591   5.292   1.405
  994SOL    HW2 3882   3.653   5.272   1.255
  995SOL     OW 3883   4.348   3.011   5.977
  995SOL    HW1 3884   4.377   2.976   6.066
  995SOL    HW2 3885   4.427   3.013   5.915
  996SOL     OW 3886   3.588   5.370   4.912
  996SOL    HW1 3887   3.612   5.275   4.891
  996SOL    HW2 3888   3.670   5.421   4.933
  997SOL     OW 3889   1.274   6.913   3.365
  997SOL    HW1 3890   1.276   6.849   3.441
  997SOL    HW2 3891   1.354   6.973   3.369
  998SOL     OW 3892   6.777   0.153   6.299
  998SOL    HW1 3893   6.708   0.160   6.371
  998SOL    HW2 3894   6.861   0.199   6.329
  999SOL     OW 3895   4.943   3.720   1.576
  999SOL    HW1 3896   4.927   3.687   1.669
  999SOL    HW2 3897   5.017   3.667   1.534
 1000SOL     OW 3898   4.285   1.656   1.368
 1000SOL    HW1 3899   4.336   1.732   1.327
 1000SOL    HW2 3900   4.247   1.599   1.295
 1001SOL     OW 3901   3.946   5.962   2.154
 1001SOL    HW1 3902   3.890   5.923   2.227
 1001SOL    HW2 3903   3.906   5.940   2.066
 1002SOL     OW 3904   5.488   2.025   1.261
 1002SOL    HW1 3905   5.448   1.957   1.323
 1002SOL    HW2 3906   5.567   2.068   1.305
 1003SOL     OW 3907   1.944   6.011   2.822
 1003SOL    HW1 3908   1.898   5.927   2.849
 1003SOL    HW2 3909   1.891   6.056   2.750
 1004SOL     OW 3910   7.005   1.143   2.437
 1004SOL    HW1 3911   6.912   1.178   2.424
 1004SOL    HW2 3912   0.004   1.070   2.370
 1005SOL     OW 3913   1.599   4.331   4.108
 1005SOL    HW1 3914   1.595   4.324   4.008
 1005SOL    HW2 3915   1.689   4.363   4.136
 1006SOL     OW 3916   1.652   4.128   0.514
 1006SOL    HW1 3917   1.555   4.132   0.490
 1006SOL    HW2 3918   1.706   4.175   0.444
 1007SOL     OW 3919   4.826   0.925   5.858
 1007SOL    HW1 3920   4.829   1.019   5.892
 1007SOL    HW2 3921   4.911   0.904   5.811
 1008SOL     OW 3922   6.947   3.556   5.173
 1008SOL    HW1 3923   0.008   3.572   5.115
 1008SOL    HW2 3924   6.960   3.472   5.225
 1009SOL     OW 3925   6.369   3.964   5.937
 1009SOL    HW1 3926   6.304   3.978   5.862
 1009SOL    HW2 3927   6.402   4.053   5.969
 1010SOL     OW 3928   2.945   2.548   1.241
 1010SOL    HW1 3929   2.918   2.605   1.318
 1010SOL    HW2 3930   2.864   2.501   1.205
 1011SOL     OW 3931   0.547   5.481   3.601
 1011SOL    HW1 3932   0.461   5.494   3.552
 1011SOL    HW2 3933   0.604   5.416   3.551
 1012SOL     OW 3934   6.786   6.519   2.486
 1012SOL    HW1 3935   6.862   6.550   2.429
 1012SOL    HW2 3936   6.758   6.593   2.547
 1013SOL     OW 3937   6.673   1.369   6.496
 1013SOL    HW1 3938   6.671   1.432   6.418
 1013SOL    HW2 3939   6.671   1.422   6.581
 1014SOL     OW 3940   0.800   3.705   4.930
 1014SOL    HW1 3941   0.823   3.709   5.028
 1014SOL    HW2 3942   0.723   3.642   4.917
 1015SOL     OW 3943   2.791   0.463   6.135
 1015SOL    HW1 3944   2.749   0.540   6.087
 1015SOL    HW2 3945   2.720   0.411   6.183
 1016SOL     OW 3946   4.483   4.826   1.324
 1016SOL    HW1 3947   4.425   4.756   1.365
 1016SOL    HW2 3948   4.541   4.867   1.395
 1017SOL     OW 3949   2.909   1.473   1.064
 1017SOL    HW1 3950   2.911   1.573   1.071
 1017SOL    HW2 3951   2.829   1.445   1.011
 1018SOL     OW 3952   0.468   4.984   3.815
 1018SOL    HW1 3953   0.522   5.050   3.867
 1018SOL    HW2 3954   0.480   4.893   3.856
 1019SOL     OW 3955   0.009   5.359   0.606
 1019SOL    HW1 3956   6.980   5.273   0.587
 1019SOL    HW2 3957   0.026   5.366   0.705
 1020SOL     OW 3958   6.113   0.863   1.236
 1020SOL    HW1 3959   6.096   0.912   1.321
 1020SOL    HW2 3960   6.212   0.860   1.219
 1021SOL     OW 3961   6.772   6.310   2.230
 1021SOL    HW1 3962   6.773   6.211   2.216
 1021SOL    HW2 3963   6.832   6.334   2.307
 1022SOL     OW 3964   2.595   5.530   5.677
 1022SOL    HW1 3965   2.545   5.608   5.639
 1022SOL    HW2 3966   2.543   5.492   5.754
 1023SOL     OW 3967   0.166   1.012   2.925
 1023SOL    HW1 3968   0.144   1.108   2.940
 1023SOL    HW2 3969   0.141   0.987   2.831
 1024SOL     OW 3970   0.730   1.718   4.172
 1024SOL    HW1 3971   0.803   1.651   4.164
 1024SOL    HW2 3972   0.762   1.795   4.228
 1025SOL     OW 3973   4.819   2.905   0.520
 1025SOL    HW1 3974   4.862   2.815   0.513
 1025SOL    HW2 3975   4.755   2.917   0.444
 1026SOL     OW 3976   2.760   2.645   1.459
 1026SOL    HW1 3977   2.819   2.621   1.536
 1026SOL    HW2 3978   2.695   2.570   1.443
 1027SOL     OW 3979   2.027   0.039   2.145
 1027SOL    HW1 3980   2.023   0.099   2.225
 1027SOL    HW2 3981   2.056   0.092   2.065
 1028SOL     OW 3982   1.309   6.796   2.847
 1028SOL    HW1 3983   1.304   6.734   2.925
 1028SOL    HW2 3984   1.258   6.880   2.867
 1029SOL     OW 3985   0.986   1.877   5.876
 1029SOL    HW1 3986   1.084   1.888   5.865
 1029SOL    HW2 3987   0.949   1.830   5.796
 1030SOL     OW 3988   3.553   3.047   1.633
 1030SOL    HW1 3989   3.613   3.024   1.557
 1030SOL    HW2 3990   3.608   3.061   1.716
 1031SOL     OW 3991   4.570   3.206   1.243
 1031SOL    HW1 3992   4.645   3.142   1.258
 1031SOL    HW2 3993   4.598   3.298   1.270
 1032SOL     OW 3994   2.194   1.220   5.237
 1032SOL    HW1 3995   2.261   1.288   5.206
 1032SOL    HW2 3996   2.210   1.199   5.333
 1033SOL     OW 3997   1.567   5.938   2.192
 1033SOL    HW1 3998   1.569   5.861   2.257
 1033SOL    HW2 3999   1.480   5.938   2.143
 1034SOL     OW 4000   1.288   6.179   4.039
 1034SOL    HW1 4001   1.253   6.251   3.979
 1034SOL    HW2 4002   1.256   6.196   4.133
 1035SOL     OW 4003   6.936   2.340   6.555
 1035SOL    HW1 4004   6.956   2.298   6.467
 1035SOL    HW2 4005   6.956   2.438   6.550
 1036SOL     OW 4006   4.290   0.934   1.536
 1036SOL    HW1 4007   4.230   0.982   1.471
 1036SOL    HW2 4008   4.345   0.868   1.486
 1037SOL     OW 4009   1.476   2.322   3.287
 1037SOL    HW1 4010   1.554   2.260   3.281
 1037SOL    HW2 4011   1.394   2.277   3.251
 1038SOL     OW 4012   1.294   0.932   5.703
 1038SOL    HW1 4013   1.330   0.969   5.789
 1038SOL    HW2 4014   1.287   1.005   5.635
 1039SOL     OW 4015   3.308   3.431   4.132
 1039SOL    HW1 4016   3.326   3.340   4.169
 1039SOL    HW2 4017   3.215   3.459   4.155
 1040SOL     OW 4018   5.149   1.157   2.140
 1040SOL    HW1 4019   5.217   1.194   2.077
 1040SOL    HW2 4020   5.195   1.111   2.216
 1041SOL     OW 4021   0.230   6.522   3.437
 1041SOL    HW1 4022   0.227   6.606   3.383
 1041SOL    HW2 4023   0.299   6.460   3.399
 1042SOL     OW 4024   4.758   5.329   2.820
 1042SOL    HW1 4025   4.695   5.401   2.850
 1042SOL    HW2 4026   4.716   5.240   2.836
 1043SOL     OW 4027   4.176   2.032   3.371
 1043SOL    HW1 4028   4.230   2.090   3.310
 1043SOL    HW2 4029   4.236   1.982   3.433
 1044SOL     OW 4030   6.167   5.745   1.564
 1044SOL    HW1 4031   6.172   5.687   1.483
 1044SOL    HW2 4032   6.221   5.828   1.550
 1045SOL     OW 4033   3.513   0.566   2.982
 1045SOL    HW1 4034   3.467   0.504   3.046
 1045SOL    HW2 4035   3.469   0.656   2.985
 1046SOL     OW 4036   1.691   1.646   6.906
 1046SOL    HW1 4037   1.659   1.740   6.914
 1046SOL    HW2 4038   1.613   1.583   6.914
 1047SOL     OW 4039   3.370   0.783   4.025
 1047SOL    HW1 4040   3.350   0.729   3.944
 1047SOL    HW2 4041   3.326   0.872   4.017
 1048SOL     OW 4042   3.472   5.385   2.255
 1048SOL    HW1 4043   3.478   5.292   2.218
 1048SOL    HW2 4044   3.385   5.397   2.301
 1049SOL     OW 4045   5.090   6.920   3.688
 1049SOL    HW1 4046   5.137   6.833   3.705
 1049SOL    HW2 4047   5.143   6.995   3.729
 1050SOL     OW 4048   3.500   5.916   2.451
 1050SOL    HW1 4049   3.540   5.915   2.359
 1050SOL    HW2 4050   3.476   5.823   2.478
 1051SOL     OW 4051   0.349   5.877   6.944
 1051SOL    HW1 4052   0.302   5.792   6.918
 1051SOL    HW2 4053   0.370   5.874   0.023
 1052SOL     OW 4054   4.844   1.015   5.426
 1052SOL    HW1 4055   4.874   1.105   5.459
 1052SOL    HW2 4056   4.919   0.950   5.433
 1053SOL     OW 4057   5.838   4.040   2.823
 1053SOL    HW1 4058   5.822   4.135   2.850
 1053SOL    HW2 4059   5.935   4.026   2.806
 1054SOL     OW 4060   2.876   3.315   0.718
 1054SOL    HW1 4061   2.817   3.236   0.736
 1054SOL    HW2 4062   2.893   3.364   0.803
 1055SOL     OW 4063   4.619   6.223   5.906
 1055SOL    HW1 4064   4.545   6.229   5.840
 1055SOL    HW2 4065   4.587   6.253   5.996
 1056SOL     OW 4066   1.014   3.988   0.055
 1056SOL    HW1 4067   0.946   3.938   0.001
 1056SOL    HW2 4068   1.042   3.932   0.134
 1057SOL     OW 4069   3.813   2.156   1.404
 1057SOL    HW1 4070   3.759   2.116   1.478
 1057SOL    HW2 4071   3.871   2.229   1.441
 1058SOL     OW 4072   5.112   2.766   3.365
 1058SOL    HW1 4073   5.014   2.789   3.366
 1058SOL    HW2 4074   5.139   2.740   3.273
 1059SOL     OW 4075   2.119   6.820   2.297
 1059SOL    HW1 4076   2.180   6.828   2.376
 1059SOL    HW2 4077   2.132   6.899   2.237
 1060SOL     OW 4078   0.506   5.128   4.147
 1060SOL    HW1 4079   0.550   5.160   4.063
 1060SOL    HW2 4080   0.522   5.194   4.221
 1061SOL     OW 4081   6.604   3.810   6.477
 1061SOL    HW1 4082   6.588   3.719   6.515
 1061SOL    HW2 4083   6.668   3.860   6.537
 1062SOL     OW 4084   3.876   5.888   5.302
 1062SOL    HW1 4085   3.871   5.974   5.252
 1062SOL    HW2 4086   3.896   5.906   5.398
 1063SOL     OW 4087   0.195   6.684   0.598
 1063SOL    HW1 4088   0.272   6.622   0.585
 1063SOL    HW2 4089   0.230   6.777   0.614
 1064SOL     OW 4090   0.688   4.258   1.568
 1064SOL    HW1 4091   0.685   4.236   1.666
 1064SOL    HW2 4092   0.686   4.358   1.557
 1065SOL     OW 4093   3.392   0.829   3.569
 1065SOL    HW1 4094   3.406   0.927   3.585
 1065SOL    HW2 4095   3.445   0.800   3.490
 1066SOL     OW 4096   4.585   6.675   2.372
 1066SOL    HW1 4097   4.634   6.741   2.428
 1066SOL    HW2 4098   4.649   6.628   2.312
 1067SOL     OW 4099   2.051   1.069   6.755
 1067SOL    HW1 4100   2.041   0.976   6.719
 1067SOL    HW2 4101   2.039   1.135   6.680
 1068SOL     OW 4102   5.973   3.725   1.658
 1068SOL    HW1 4103   5.921   3.809   1.642
 1068SOL    HW2 4104   5.916   3.659   1.708
 1069SOL     OW 4105   5.346   5.754   0.550
 1069SOL    HW1 4106   5.412   5.680   0.560
 1069SOL    HW2 4107   5.395   5.840   0.533
 1070SOL     OW 4108   2.271   6.842   2.533
 1070SOL    HW1 4109   2.278   6.750   2.571
 1070SOL    HW2 4110   2.264   6.909   2.608
 1071SOL     OW 4111   1.599   2.083   4.082
 1071SOL    HW1 4112   1.688   2.111   4.118
 1071SOL    HW2 4113   1.590   1.984   4.092
 1072SOL     OW 4114   2.298   1.062   1.766
 1072SOL    HW1 4115   2.366   1.130   1.738
 1072SOL    HW2 4116   2.314   1.035   1.861
 1073SOL     OW 4117   5.238   2.047   3.465
 1073SOL    HW1 4118   5.161   2.029   3.404
 1073SOL    HW2 4119   5.289   2.127   3.432
 1074SOL     OW 4120   2.623   5.095   2.012
 1074SOL    HW1 4121   2.667   5.041   1.940
 1074SOL    HW2 4122   2.685   5.103   2.090
 1075SOL     OW 4123   5.758   1.353   3.654
 1075SOL    HW1 4124   5.694   1.310   3.590
 1075SOL    HW2 4125   5.706   1.402   3.724
 1076SOL     OW 4126   0.613   2.950   5.363
 1076SOL    HW1 4127   0.701   2.942   5.410
 1076SOL    HW2 4128   0.590   2.863   5.321
 1077SOL     OW 4129   0.053   6.683   0.364
 1077SOL    HW1 4130   0.133   6.659   0.309
 1077SOL    HW2 4131   0.079   6.688   0.460
 1078SOL     OW 4132   6.464   0.465   2.990
 1078SOL    HW1 4133   6.450   0.494   3.084
 1078SOL    HW2 4134   6.556   0.426   2.980
 1079SOL     OW 4135   1.639   4.954   2.069
 1079SOL    HW1 4136   1.570   5.006   2.118
 1079SOL    HW2 4137   1.596   4.878   2.020
 1080SOL     OW 4138   2.578   5.895   4.247
 1080SOL    HW1 4139   2.637   5.957   4.195
 1080SOL    HW2 4140   2.567   5.930   4.340
 1081SOL     OW 4141   6.626   5.210   5.126
 1081SOL    HW1 4142   6.630   5.271   5.206
 1081SOL    HW2 4143   6.705   5.149   5.127
 1082SOL     OW 4144   5.611   1.897   6.109
 1082SOL    HW1 4145   5.679   1.970   6.116
 1082SOL    HW2 4146   5.519   1.937   6.109
 1083SOL     OW 4147   4.944   3.004   6.764
 1083SOL    HW1 4148   4.923   3.046   6.675
 1083SOL    HW2 4149   4.866   2.951   6.795
 1084SOL     OW 4150   6.711   6.669   6.842
 1084SOL    HW1 4151   6.804   6.693   6.871
 1084SOL    HW2 4152   6.678   6.737   6.777
 1085SOL     OW 4153   2.103   3.375   3.892
 1085SOL    HW1 4154   2.092   3.399   3.988
 1085SOL    HW2 4155   2.109   3.276   3.883
 1086SOL     OW 4156   7.013   5.290   6.448
 1086SOL    HW1 4157   6.988   5.270   6.543
 1086SOL    HW2 4158   6.941   5.260   6.387
 1087SOL     OW 4159   0.952   1.654   5.432
 1087SOL    HW1 4160   1.030   1.715   5.444
 1087SOL    HW2 4161   0.925   1.653   5.336
 1088SOL     OW 4162   0.182   4.723   3.090
 1088SOL    HW1 4163   0.191   4.819   3.119
 1088SOL    HW2 4164   0.261   4.671   3.124
 1089SOL     OW 4165   1.223   6.060   5.044
 1089SOL    HW1 4166   1.191   6.154   5.030
 1089SOL    HW2 4167   1.144   5.999   5.050
 1090SOL     OW 4168   4.331   2.042   2.941
 1090SOL    HW1 4169   4.417   2.034   2.891
 1090SOL    HW2 4170   4.345   2.014   3.036
 1091SOL     OW 4171   2.173   3.666   3.482
 1091SOL    HW1 4172   2.263   3.660   3.437
 1091SOL    HW2 4173   2.139   3.574   3.499
 1092SOL     OW 4174   1.029   5.373   0.637
 1092SOL    HW1 4175   0.990   5.290   0.597
 1092SOL    HW2 4176   0.992   5.386   0.729
 1093SOL     OW 4177   2.283   6.737   1.681
 1093SOL    HW1 4178   2.263   6.807   1.749
 1093SOL    HW2 4179   2.289   6.648   1.726
 1094SOL     OW 4180   0.775   6.779   2.565
 1094SOL    HW1 4181   0.771   6.874   2.594
 1094SOL    HW2 4182   0.683   6.748   2.539
 1095SOL     OW 4183   0.518   2.326   6.828
 1095SOL    HW1 4184   0.558   2.393   6.766
 1095SOL    HW2 4185   0.468   2.373   6.901
 1096SOL     OW 4186   3.721   4.369   1.455
 1096SOL    HW1 4187   3.781   4.448   1.447
 1096SOL    HW2 4188   3.663   4.378   1.535
 1097SOL     OW 4189   2.204   5.088   2.900
 1097SOL    HW1 4190   2.176   4.997   2.931
 1097SOL    HW2 4191   2.240   5.082   2.807
 1098SOL     OW 4192   6.463   4.028   6.435
 1098SOL    HW1 4193   6.512   3.943   6.451
 1098SOL    HW2 4194   6.396   4.042   6.509
 1099SOL     OW 4195   4.555   1.098   6.444
 1099SOL    HW1 4196   4.628   1.100   6.513
 1099SOL    HW2 4197   4.489   1.027   6.469
 1100SOL     OW 4198   4.173   1.306   4.077
 1100SOL    HW1 4199   4.258   1.253   4.070
 1100SOL    HW2 4200   4.099   1.255   4.034
 1101SOL     OW 4201   5.552   4.231   5.384
 1101SOL    HW1 4202   5.608   4.295   5.332
 1101SOL    HW2 4203   5.469   4.210   5.332
 1102SOL     OW 4204   2.438   1.287   4.749
 1102SOL    HW1 4205   2.339   1.290   4.765
 1102SOL    HW2 4206   2.482   1.237   4.823
 1103SOL     OW 4207   2.305   1.662   0.223
 1103SOL    HW1 4208   2.326   1.660   0.321
 1103SOL    HW2 4209   2.214   1.622   0.208
 1104SOL     OW 4210   1.819   3.920   3.835
 1104SOL    HW1 4211   1.777   3.834   3.807
 1104SOL    HW2 4212   1.796   3.991   3.768
 1105SOL     OW 4213   5.471   3.291   4.558
 1105SOL    HW1 4214   5.537   3.340   4.500
 1105SOL    HW2 4215   5.468   3.195   4.531
 1106SOL     OW 4216   0.083   1.453   0.989
 1106SOL    HW1 4217   0.153   1.464   0.919
 1106SOL    HW2 4218   0.124   1.413   1.071
 1107SOL     OW 4219   0.819   0.765   0.154
 1107SOL    HW1 4220   0.898   0.796   0.101
 1107SOL    HW2 4221   0.843   0.762   0.251
 1108SOL     OW 4222   3.627   6.672   5.308
 1108SOL    HW1 4223   3.692   6.644   5.238
 1108SOL    HW2 4224   3.590   6.762   5.286
 1109SOL     OW 4225   5.561   1.193   4.182
 1109SOL    HW1 4226   5.512   1.280   4.189
 1109SOL    HW2 4227   5.573   1.169   4.086
 1110SOL     OW 4228   3.686   1.025   3.500
 1110SOL    HW1 4229   3.782   1.046   3.521
 1110SOL    HW2 4230   3.628   1.100   3.530
 1111SOL     OW 4231   5.601   4.357   6.515
 1111SOL    HW1 4232   5.672   4.427   6.502
 1111SOL    HW2 4233   5.636   4.285   6.574
 1112SOL     OW 4234   6.393   0.569   3.263
 1112SOL    HW1 4235   6.463   0.546   3.330
 1112SOL    HW2 4236   6.320   0.621   3.307
 1113SOL     OW 4237   6.109   4.334   1.395
 1113SOL    HW1 4238   6.205   4.309   1.399
 1113SOL    HW2 4239   6.052   4.253   1.407
 1114SOL     OW 4240   3.221   1.787   6.277
 1114SOL    HW1 4241   3.122   1.774   6.276
 1114SOL    HW2 4242   3.253   1.811   6.186
 1115SOL     OW 4243   4.164   3.877   5.241
 1115SOL    HW1 4244   4.123   3.968   5.254
 1115SOL    HW2 4245   4.263   3.885   5.239
 1116SOL     OW 4246   5.957   0.115   0.217
 1116SOL    HW1 4247   6.034   0.169   0.252
 1116SOL    HW2 4248   5.961   0.112   0.117
 1117SOL     OW 4249   0.359   1.824   1.483
 1117SOL    HW1 4250   0.290   1.751   1.479
 1117SOL    HW2 4251   0.419   1.809   1.561
 1118SOL     OW 4252   2.351   5.443   0.501
 1118SOL    HW1 4253   2.285   5.509   0.538
 1118SOL    HW2 4254   2.443   5.471   0.529
 1119SOL     OW 4255   4.256   4.453   1.701
 1119SOL    HW1 4256   4.187   4.401   1.649
 1119SOL    HW2 4257   4.328   4.391   1.731
 1120SOL     OW 4258   6.347   5.811   1.132
 1120SOL    HW1 4259   6.297   5.893   1.102
 1120SOL    HW2 4260   6.391   5.768   1.054
 1121SOL     OW 4261   0.357   4.610   4.905
 1121SOL    HW1 4262   0.303   4.630   4.824
 1121SOL    HW2 4263   0.313   4.537   4.957
 1122SOL     OW 4264   5.968   2.907   2.047
 1122SOL    HW1 4265   5.941   2.829   1.990
 1122SOL    HW2 4266   6.054   2.886   2.094
 1123SOL     OW 4267   4.829   2.364   3.829
 1123SOL    HW1 4268   4.784   2.316   3.754
 1123SOL    HW2 4269   4.926   2.372   3.810
 1124SOL     OW 4270   0.806   3.949   5.976
 1124SOL    HW1 4271   0.901   3.921   5.984
 1124SOL    HW2 4272   0.747   3.883   6.023
 1125SOL     OW 4273   1.817   2.648   3.952
 1125SOL    HW1 4274   1.865   2.659   4.039
 1125SOL    HW2 4275   1.718   2.658   3.967
 1126SOL     OW 4276   5.549   5.941   5.349
 1126SOL    HW1 4277   5.589   5.996   5.423
 1126SOL    HW2 4278   5.461   5.905   5.379
 1127SOL     OW 4279   5.725   6.309   4.676
 1127SOL    HW1 4280   5.667   6.354   4.744
 1127SOL    HW2 4281   5.671   6.291   4.594
 1128SOL     OW 4282   6.203   1.689   4.986
 1128SOL    HW1 4283   6.220   1.784   5.013
 1128SOL    HW2 4284   6.289   1.640   4.977
 1129SOL     OW 4285   1.811   6.650   0.917
 1129SOL    HW1 4286   1.856   6.740   0.914
 1129SOL    HW2 4287   1.812   6.617   1.011
 1130SOL     OW 4288   1.846   4.999   1.478
 1130SOL    HW1 4289   1.811   5.080   1.527
 1130SOL    HW2 4290   1.800   4.991   1.390
 1131SOL     OW 4291   1.818   0.563   5.185
 1131SOL    HW1 4292   1.913   0.589   5.200
 1131SOL    HW2 4293   1.808   0.465   5.202
 1132SOL     OW 4294   3.913   0.414   3.187
 1132SOL    HW1 4295   4.001   0.462   3.177
 1132SOL    HW2 4296   3.852   0.469   3.245
 1133SOL     OW 4297   0.592   1.047   0.500
 1133SOL    HW1 4298   0.678   1.097   0.509
 1133SOL    HW2 4299   0.546   1.075   0.416
 1134SOL     OW 4300   5.426   6.912   2.988
 1134SOL    HW1 4301   5.486   6.977   2.942
 1134SOL    HW2 4302   5.453   6.904   3.084
 1135SOL     OW 4303   2.362   6.560   3.945
 1135SOL    HW1 4304   2.404   6.618   4.016
 1135SOL    HW2 4305   2.351   6.613   3.861
 1136SOL     OW 4306   3.512   4.876   2.961
 1136SOL    HW1 4307   3.422   4.855   2.924
 1136SOL    HW2 4308   3.567   4.920   2.891
 1137SOL     OW 4309   0.941   5.974   0.156
 1137SOL    HW1 4310   0.979   5.982   0.248
 1137SOL    HW2 4311   0.849   6.013   0.153
 1138SOL     OW 4312   1.044   1.734   4.940
 1138SOL    HW1 4313   1.100   1.782   4.872
 1138SOL    HW2 4314   1.103   1.676   4.997
 1139SOL     OW 4315   2.616   4.805   4.077
 1139SOL    HW1 4316   2.650   4.821   3.984
 1139SOL    HW2 4317   2.586   4.711   4.086
 1140SOL     OW 4318   2.577   0.293   2.589
 1140SOL    HW1 4319   2.660   0.337   2.556
 1140SOL    HW2 4320   2.592   0.195   2.598
 1141SOL     OW 4321   6.721   5.935   6.837
 1141SOL    HW1 4322   6.693   5.840   6.821
 1141SOL    HW2 4323   6.640   5.994   6.834
 1142SOL     OW 4324   3.014   0.019   3.822
 1142SOL    HW1 4325   2.982   0.111   3.840
 1142SOL    HW2 4326   3.064   0.017   3.735
 1143SOL     OW 4327   1.448   3.177   2.735
 1143SOL    HW1 4328   1.396   3.193   2.819
 1143SOL    HW2 4329   1.482   3.264   2.700
 1144SOL     OW 4330   5.530   4.249   3.207
 1144SOL    HW1 4331   5.447   4.289   3.166
 1144SOL    HW2 4332   5.611   4.292   3.168
 1145SOL     OW 4333   1.414   2.857   0.541
 1145SOL    HW1 4334   1.455   2.946   0.521
 1145SOL    HW2 4335   1.476   2.804   0.600
 1146SOL     OW 4336   0.767   1.756   1.218
 1146SOL    HW1 4337   0.864   1.778   1.206
 1146SOL    HW2 4338   0.758   1.679   1.281
 1147SOL     OW 4339   2.910   5.996   0.846
 1147SOL    HW1 4340   2.909   5.899   0.821
 1147SOL    HW2 4341   2.880   6.051   0.768
 1148SOL     OW 4342   3.907   6.324   0.822
 1148SOL    HW1 4343   3.908   6.422   0.843
 1148SOL    HW2 4344   3.889   6.310   0.725
 1149SOL     OW 4345   5.440   2.758   1.825
 1149SOL    HW1 4346   5.502   2.741   1.902
 1149SOL    HW2 4347   5.396   2.672   1.799
 1150SOL     OW 4348   0.316   3.892   0.018
 1150SOL    HW1 4349   0.348   3.873   0.111
 1150SOL    HW2 4350   0.392   3.923   6.980
 1151SOL     OW 4351   6.287   4.783   4.525
 1151SOL    HW1 4352   6.213   4.762   4.460
 1151SOL    HW2 4353   6.260   4.860   4.582
 1152SOL     OW 4354   5.247   6.449   6.297
 1152SOL    HW1 4355   5.271   6.544   6.315
 1152SOL    HW2 4356   5.185   6.417   6.369
 1153SOL     OW 4357   6.707   6.967   1.502
 1153SOL    HW1 4358   6.732   6.879   1.543
 1153SOL    HW2 4359   6.616   6.994   1.534
 1154SOL     OW 4360   0.703   3.927   0.711
 1154SOL    HW1 4361   0.766   3.863   0.666
 1154SOL    HW2 4362   0.756   4.002   0.752
 1155SOL     OW 4363   2.869   5.645   5.771
 1155SOL    HW1 4364   2.945   5.580   5.763
 1155SOL    HW2 4365   2.787   5.604   5.732
 1156SOL     OW 4366   4.654   2.038   4.680
 1156SOL    HW1 4367   4.653   2.119   4.738
 1156SOL    HW2 4368   4.564   2.028   4.635
 1157SOL     OW 4369   5.216   0.866   6.038
 1157SOL    HW1 4370   5.221   0.928   5.960
 1157SOL    HW2 4371   5.151   0.902   6.105
 1158SOL     OW 4372   6.426   5.732   4.553
 1158SOL    HW1 4373   6.399   5.822   4.520
 1158SOL    HW2 4374   6.421   5.730   4.653
 1159SOL     OW 4375   5.768   6.784   3.212
 1159SOL    HW1 4376   5.730   6.874   3.190
 1159SOL    HW2 4377   5.815   6.789   3.301
 1160SOL     OW 4378   4.124   5.377   2.009
 1160SOL    HW1 4379   4.054   5.440   2.044
 1160SOL    HW2 4380   4.079   5.303   1.959
 1161SOL     OW 4381   0.549   5.725   6.616
 1161SOL    HW1 4382   0.637   5.679   6.627
 1161SOL    HW2 4383   0.536   5.750   6.521
 1162SOL     OW 4384   2.482   2.637   5.547
 1162SOL    HW1 4385   2.510   2.715   5.491
 1162SOL    HW2 4386   2.405   2.590   5.503
 1163SOL     OW 4387   5.883   4.542   1.982
 1163SOL    HW1 4388   5.871   4.508   1.889
 1163SOL    HW2 4389   5.941   4.624   1.980
 1164SOL     OW 4390   5.044   2.828   5.361
 1164SOL    HW1 4391   5.049   2.910   5.304
 1164SOL    HW2 4392   5.135   2.787   5.367
 1165SOL     OW 4393   4.231   5.650   3.340
 1165SOL    HW1 4394   4.173   5.568   3.334
 1165SOL    HW2 4395   4.318   5.632   3.294
 1166SOL     OW 4396   2.300   5.952   6.775
 1166SOL    HW1 4397   2.268   6.023   6.712
 1166SOL    HW2 4398   2.398   5.964   6.792
 1167SOL     OW 4399   4.935   4.954   0.668
 1167SOL    HW1 4400   5.011   5.017   0.688
 1167SOL    HW2 4401   4.877   4.945   0.749
 1168SOL     OW 4402   6.779   2.611   1.326
 1168SOL    HW1 4403   6.730   2.684   1.278
 1168SOL    HW2 4404   6.799   2.537   1.262
 1169SOL     OW 4405   5.323   2.050   5.333
 1169SOL    HW1 4406   5.378   2.133   5.322
 1169SOL    HW2 4407   5.359   1.978   5.273
 1170SOL     OW 4408   5.692   0.047   3.097
 1170SOL    HW1 4409   5.712   0.082   3.188
 1170SOL    HW2 4410   5.624   0.106   3.052
 1171SOL     OW 4411   2.818   6.659   0.281
 1171SOL    HW1 4412   2.803   6.750   0.320
 1171SOL    HW2 4413   2.906   6.658   0.233
 1172SOL     OW 4414   5.299   4.263   1.169
 1172SOL    HW1 4415   5.213   4.309   1.145
 1172SOL    HW2 4416   5.279   4.182   1.224
 1173SOL     OW 4417   3.131   1.330   1.078
 1173SOL    HW1 4418   3.193   1.368   1.147
 1173SOL    HW2 4419   3.050   1.388   1.070
 1174SOL     OW 4420   3.736   4.047   1.913
 1174SOL    HW1 4421   3.768   4.008   1.999
 1174SOL    HW2 4422   3.641   4.077   1.923
 1175SOL     OW 4423   4.955   3.684   6.235
 1175SOL    HW1 4424   4.948   3.604   6.295
 1175SOL    HW2 4425   4.865   3.705   6.197
 1176SOL     OW 4426   5.113   3.428   0.172
 1176SOL    HW1 4427   5.118   3.384   0.261
 1176SOL    HW2 4428   5.018   3.444   0.147
 1177SOL     OW 4429   6.747   3.606   5.002
 1177SOL    HW1 4430   6.835   3.595   5.048
 1177SOL    HW2 4431   6.763   3.623   4.905
 1178SOL     OW 4432   2.683   4.081   0.558
 1178SOL    HW1 4433   2.681   4.179   0.542
 1178SOL    HW2 4434   2.627   4.035   0.489
 1179SOL     OW 4435   2.320   5.805   0.580
 1179SOL    HW1 4436   2.394   5.782   0.644
 1179SOL    HW2 4437   2.351   5.788   0.487
 1180SOL     OW 4438   2.883   6.340   3.994
 1180SOL    HW1 4439   2.859   6.361   3.899
 1180SOL    HW2 4440   2.801   6.347   4.051
 1181SOL     OW 4441   0.663   5.196   5.760
 1181SOL    HW1 4442   0.598   5.122   5.743
 1181SOL    HW2 4443   0.707   5.182   5.849
 1182SOL     OW 4444   4.098   4.976   3.346
 1182SOL    HW1 4445   4.040   4.975   3.428
 1182SOL    HW2 4446   4.116   4.882   3.318
 1183SOL     OW 4447   2.172   3.854   7.005
 1183SOL    HW1 4448   2.254   3.797   7.005
 1183SOL    HW2 4449   2.097   3.805   6.961
 1184SOL     OW 4450   6.760   0.925   4.702
 1184SOL    HW1 4451   6.665   0.904   4.679
 1184SOL    HW2 4452   6.766   0.955   4.797
 1185SOL     OW 4453   0.649   1.432   0.830
 1185SOL    HW1 4454   0.707   1.497   0.880
 1185SOL    HW2 4455   0.636   1.350   0.885
 1186SOL     OW 4456   5.738   6.706   6.010
 1186SOL    HW1 4457   5.743   6.709   5.910
 1186SOL    HW2 4458   5.754   6.798   6.047
 1187SOL     OW 4459   6.322   6.590   6.926
 1187SOL    HW1 4460   6.270   6.604   7.010
 1187SOL    HW2 4461   6.405   6.539   6.947
 1188SOL     OW 4462   3.884   6.088   5.568
 1188SOL    HW1 4463   3.817   6.059   5.637
 1188SOL    HW2 4464   3.961   6.025   5.569
 1189SOL     OW 4465   6.243   2.601   1.453
 1189SOL    HW1 4466   6.162   2.630   1.504
 1189SOL    HW2 4467   6.309   2.560   1.516
 1190SOL     OW 4468   2.667   5.394   3.784
 1190SOL    HW1 4469   2.647   5.361   3.876
 1190SOL    HW2 4470   2.751   5.449   3.786
 1191SOL     OW 4471   4.577   5.343   3.907
 1191SOL    HW1 4472   4.634   5.381   3.979
 1191SOL    HW2 4473   4.575   5.243   3.915
 1192SOL     OW 4474   4.162   5.369   2.629
 1192SOL    HW1 4475   4.217   5.285   2.625
 1192SOL    HW2 4476   4.065   5.345   2.641
 1193SOL     OW 4477   6.209   2.871   5.482
 1193SOL    HW1 4478   6.169   2.781   5.498
 1193SOL    HW2 4479   6.152   2.923   5.419
 1194SOL     OW 4480   5.907   6.967   1.669
 1194SOL    HW1 4481   5.908   0.008   1.588
 1194SOL    HW2 4482   5.857   6.883   1.648
 1195SOL     OW 4483   6.851   4.098   0.859
 1195SOL    HW1 4484   6.812   4.034   0.793
 1195SOL    HW2 4485   6.785   4.113   0.934
 1196SOL     OW 4486   0.262   5.567   2.814
 1196SOL    HW1 4487   0.271   5.633   2.739
 1196SOL    HW2 4488   0.174   5.521   2.806
 1197SOL     OW 4489   4.514   0.777   4.725
 1197SOL    HW1 4490   4.489   0.847   4.658
 1197SOL    HW2 4491   4.435   0.757   4.783
 1198SOL     OW 4492   1.246   2.778   2.156
 1198SOL    HW1 4493   1.195   2.711   2.210
 1198SOL    HW2 4494   1.327   2.807   2.207
 1199SOL     OW 4495   3.935   3.848   1.307
 1199SOL    HW1 4496   3.993   3.827   1.386
 1199SOL    HW2 4497   3.860   3.781   1.302
 1200SOL     OW 4498   3.475   3.864   4.011
 1200SOL    HW1 4499   3.470   3.944   4.071
 1200SOL    HW2 4500   3.563   3.817   4.024
 1201SOL     OW 4501   0.740   0.906   4.265
 1201SOL    HW1 4502   0.700   0.816   4.281
 1201SOL    HW2 4503   0.705   0.972   4.331
 1202SOL     OW 4504   0.505   5.680   5.672
 1202SOL    HW1 4505   0.594   5.656   5.711
 1202SOL    HW2 4506   0.440   5.605   5.689
 1203SOL     OW 4507   6.238   5.876   6.792
 1203SOL    HW1 4508   6.167   5.809   6.769
 1203SOL    HW2 4509   6.269   5.921   6.708
 1204SOL     OW 4510   3.331   6.380   1.438
 1204SOL    HW1 4511   3.426   6.356   1.457
 1204SOL    HW2 4512   3.326   6.432   1.353
 1205SOL     OW 4513   4.480   3.709   1.035
 1205SOL    HW1 4514   4.430   3.639   1.087
 1205SOL    HW2 4515   4.500   3.787   1.095
 1206SOL     OW 4516   2.814   2.663   5.335
 1206SOL    HW1 4517   2.846   2.582   5.384
 1206SOL    HW2 4518   2.888   2.729   5.328
 1207SOL     OW 4519   2.034   6.161   1.076
 1207SOL    HW1 4520   1.952   6.104   1.066
 1207SOL    HW2 4521   2.046   6.217   0.994
 1208SOL     OW 4522   3.256   3.977   1.411
 1208SOL    HW1 4523   3.276   3.912   1.484
 1208SOL    HW2 4524   3.170   3.951   1.367
 1209SOL     OW 4525   4.757   1.290   4.767
 1209SOL    HW1 4526   4.795   1.199   4.749
 1209SOL    HW2 4527   4.720   1.293   4.860
 1210SOL     OW 4528   3.115   0.525   3.449
 1210SOL    HW1 4529   3.049   0.529   3.374
 1210SOL    HW2 4530   3.069   0.491   3.532
 1211SOL     OW 4531   1.035   3.664   1.617
 1211SOL    HW1 4532   1.014   3.719   1.698
 1211SOL    HW2 4533   1.134   3.652   1.609
 1212SOL     OW 4534   6.181   0.574   0.002
 1212SOL    HW1 4535   6.176   0.671   6.997
 1212SOL    HW2 4536   6.098   0.547   0.052
 1213SOL     OW 4537   0.007   1.787   0.349
 1213SOL    HW1 4538   6.931   1.759   0.331
 1213SOL    HW2 4539   0.007   1.868   0.407
 1214SOL     OW 4540   0.854   2.569   6.492
 1214SOL    HW1 4541   0.941   2.593   6.535
 1214SOL    HW2 4542   0.851   2.608   6.400
 1215SOL     OW 4543   0.794   4.452   3.428
 1215SOL    HW1 4544   0.829   4.359   3.435
 1215SOL    HW2 4545   0.754   4.480   3.515
 1216SOL     OW 4546   4.918   0.758   1.099
 1216SOL    HW1 4547   5.008   0.724   1.070
 1216SOL    HW2 4548   4.872   0.799   1.020
 1217SOL     OW 4549   2.423   4.875   0.243
 1217SOL    HW1 4550   2.491   4.945   0.219
 1217SOL    HW2 4551   2.336   4.898   0.201
 1218SOL     OW 4552   2.329   4.252   4.580
 1218SOL    HW1 4553   2.347   4.331   4.521
 1218SOL    HW2 4554   2.322   4.170   4.524
 1219SOL     OW 4555   5.885   6.268   1.862
 1219SOL    HW1 4556   5.826   6.289   1.940
 1219SOL    HW2 4557   5.981   6.269   1.892
 1220SOL     OW 4558   1.170   4.830   3.357
 1220SOL    HW1 4559   1.236   4.789   3.421
 1220SOL    HW2 4560   1.108   4.760   3.324
 1221SOL     OW 4561   5.960   3.947   6.019
 1221SOL    HW1 4562   5.876   3.946   5.965
 1221SOL    HW2 4563   6.022   3.875   5.987
 1222SOL     OW 4564   6.528   6.814   6.684
 1222SOL    HW1 4565   6.510   6.786   6.589
 1222SOL    HW2 4566   6.441   6.819   6.734
 1223SOL     OW 4567   4.233   0.677   0.906
 1223SOL    HW1 4568   4.170   0.604   0.934
 1223SOL    HW2 4569   4.192   0.766   0.927
 1224SOL     OW 4570   2.936   5.394   0.244
 1224SOL    HW1 4571   2.928   5.373   0.146
 1224SOL    HW2 4572   2.868   5.464   0.268
 1225SOL     OW 4573   3.309   3.197   6.985
 1225SOL    HW1 4574   3.301   3.205   0.066
 1225SOL    HW2 4575   3.281   3.284   6.943
 1226SOL     OW 4576   2.406   5.354   1.229
 1226SOL    HW1 4577   2.465   5.410   1.288
 1226SOL    HW2 4578   2.336   5.310   1.284
 1227SOL     OW 4579   6.887   3.664   0.265
 1227SOL    HW1 4580   6.849   3.756   0.272
 1227SOL    HW2 4581   6.813   3.597   0.273
 1228SOL     OW 4582   4.478   2.225   6.425
 1228SOL    HW1 4583   4.458   2.128   6.416
 1228SOL    HW2 4584   4.516   2.243   6.516
 1229SOL     OW 4585   3.839   5.148   6.051
 1229SOL    HW1 4586   3.904   5.189   6.115
 1229SOL    HW2 4587   3.776   5.088   6.101
 1230SOL     OW 4588   4.728   0.249   3.058
 1230SOL    HW1 4589   4.778   0.206   3.133
 1230SOL    HW2 4590   4.785   0.318   3.015
 1231SOL     OW 4591   1.647   3.580   4.064
 1231SOL    HW1 4592   1.641   3.504   3.999
 1231SOL    HW2 4593   1.558   3.625   4.071
 1232SOL     OW 4594   0.168   2.470   5.633
 1232SOL    HW1 4595   0.199   2.473   5.728
 1232SOL    HW2 4596   0.177   2.377   5.598
 1233SOL     OW 4597   1.271   3.708   3.862
 1233SOL    HW1 4598   1.187   3.762   3.871
 1233SOL    HW2 4599   1.319   3.735   3.779
 1234SOL     OW 4600   6.480   3.860   4.716
 1234SOL    HW1 4601   6.517   3.806   4.641
 1234SOL    HW2 4602   6.384   3.880   4.699
 1235SOL     OW 4603   6.868   5.756   2.282
 1235SOL    HW1 4604   6.920   5.671   2.271
 1235SOL    HW2 4605   6.816   5.752   2.367
 1236SOL     OW 4606   5.097   1.050   0.283
 1236SOL    HW1 4607   5.041   1.132   0.276
 1236SOL    HW2 4608   5.191   1.072   0.258
 1237SOL     OW 4609   1.829   4.909   5.708
 1237SOL    HW1 4610   1.794   4.836   5.649
 1237SOL    HW2 4611   1.799   4.894   5.802
 1238SOL     OW 4612   2.369   0.591   0.155
 1238SOL    HW1 4613   2.315   0.674   0.141
 1238SOL    HW2 4614   2.413   0.594   0.245
 1239SOL     OW 4615   6.863   6.609   6.356
 1239SOL    HW1 4616   6.946   6.609   6.412
 1239SOL    HW2 4617   6.848   6.701   6.321
 1240SOL     OW 4618   5.475   5.979   1.686
 1240SOL    HW1 4619   5.565   6.018   1.705
 1240SOL    HW2 4620   5.485   5.885   1.652
 1241SOL     OW 4621   6.371   4.403   3.925
 1241SOL    HW1 4622   6.348   4.453   4.009
 1241SOL    HW2 4623   6.295   4.411   3.861
 1242SOL     OW 4624   0.095   3.590   1.697
 1242SOL    HW1 4625   0.048   3.506   1.724
 1242SOL    HW2 4626   0.031   3.667   1.701
 1243SOL     OW 4627   0.370   6.780   5.067
 1243SOL    HW1 4628   0.274   6.788   5.039
 1243SOL    HW2 4629   0.427   6.764   4.986
 1244SOL     OW 4630   6.539   6.959   3.468
 1244SOL    HW1 4631   6.630   6.953   3.509
 1244SOL    HW2 4632   6.531   6.891   3.395
 1245SOL     OW 4633   4.870   4.299   6.247
 1245SOL    HW1 4634   4.813   4.381   6.251
 1245SOL    HW2 4635   4.953   4.318   6.196
 1246SOL     OW 4636   2.234   5.947   1.387
 1246SOL    HW1 4637   2.211   5.945   1.484
 1246SOL    HW2 4638   2.236   6.042   1.355
 1247SOL     OW 4639   2.586   0.025   6.646
 1247SOL    HW1 4640   2.600   0.079   6.564
 1247SOL    HW2 4641   2.561   0.085   6.722
 1248SOL     OW 4642   2.514   0.070   4.221
 1248SOL    HW1 4643   2.521   0.150   4.161
 1248SOL    HW2 4644   2.490   0.100   4.314
 1249SOL     OW 4645   5.718   2.309   2.095
 1249SOL    HW1 4646   5.640   2.294   2.034
 1249SOL    HW2 4647   5.802   2.279   2.049
 1250SOL     OW 4648   6.780   4.692   4.704
 1250SOL    HW1 4649   6.691   4.727   4.676
 1250SOL    HW2 4650   6.852   4.743   4.658
 1251SOL     OW 4651   2.688   6.742   4.260
 1251SOL    HW1 4652   2.723   6.796   4.183
 1251SOL    HW2 4653   2.682   6.801   4.341
 1252SOL     OW 4654   3.769   3.390   5.779
 1252SOL    HW1 4655   3.826   3.311   5.758
 1252SOL    HW2 4656   3.704   3.366   5.851
 1253SOL     OW 4657   3.127   5.195   1.443
 1253SOL    HW1 4658   3.079   5.129   1.500
 1253SOL    HW2 4659   3.205   5.233   1.493
 1254SOL     OW 4660   6.454   3.331   2.661
 1254SOL    HW1 4661   6.483   3.311   2.567
 1254SOL    HW2 4662   6.529   3.372   2.712
 1255SOL     OW 4663   6.657   1.783   4.716
 1255SOL    HW1 4664   6.627   1.878   4.722
 1255SOL    HW2 4665   6.750   1.776   4.753
 1256SOL     OW 4666   6.581   6.764   3.259
 1256SOL    HW1 4667   6.588   6.675   3.214
 1256SOL    HW2 4668   6.671   6.792   3.293
 1257SOL     OW 4669   6.421   6.929   3.735
 1257SOL    HW1 4670   6.347   6.990   3.763
 1257SOL    HW2 4671   6.457   6.958   3.647
 1258SOL     OW 4672   1.550   5.151   3.834
 1258SOL    HW1 4673   1.583   5.090   3.762
 1258SOL    HW2 4674   1.582   5.119   3.923
 1259SOL     OW 4675   3.574   1.569   4.303
 1259SOL    HW1 4676   3.643   1.574   4.231
 1259SOL    HW2 4677   3.583   1.483   4.352
 1260SOL     OW 4678   1.565   1.354   6.346
 1260SOL    HW1 4679   1.477   1.320   6.312
 1260SOL    HW2 4680   1.549   1.419   6.420
 1261SOL     OW 4681   0.141   5.687   6.604
 1261SOL    HW1 4682   0.160   5.603   6.553
 1261SOL    HW2 4683   0.222   5.745   6.604
 1262SOL     OW 4684   5.465   5.286   1.178
 1262SOL    HW1 4685   5.371   5.261   1.203
 1262SOL    HW2 4686   5.502   5.349   1.246
 1263SOL     OW 4687   0.174   1.220   2.625
 1263SOL    HW1 4688   0.121   1.194   2.544
 1263SOL    HW2 4689   0.249   1.155   2.638
 1264SOL     OW 4690   0.351   4.200   6.288
 1264SOL    HW1 4691   0.425   4.268   6.289
 1264SOL    HW2 4692   0.290   4.217   6.211
 1265SOL     OW 4693   6.093   5.157   4.713
 1265SOL    HW1 4694   6.078   5.241   4.765
 1265SOL    HW2 4695   6.007   5.129   4.670
 1266SOL     OW 4696   0.578   0.680   4.199
 1266SOL    HW1 4697   0.495   0.703   4.148
 1266SOL    HW2 4698   0.640   0.630   4.139
 1267SOL     OW 4699   4.996   1.373   1.472
 1267SOL    HW1 4700   4.964   1.466   1.489
 1267SOL    HW2 4701   4.979   1.317   1.554
 1268SOL     OW 4702   2.727   2.727   6.841
 1268SOL    HW1 4703   2.811   2.782   6.840
 1268SOL    HW2 4704   2.734   2.655   6.772
 1269SOL     OW 4705   6.001   2.895   3.923
 1269SOL    HW1 4706   6.080   2.877   3.983
 1269SOL    HW2 4707   5.925   2.836   3.949
 1270SOL     OW 4708   2.257   4.587   2.521
 1270SOL    HW1 4709   2.275   4.502   2.473
 1270SOL    HW2 4710   2.344   4.630   2.546
 1271SOL     OW 4711   3.007   1.335   1.987
 1271SOL    HW1 4712   2.969   1.243   1.999
 1271SOL    HW2 4713   3.098   1.340   2.028
 1272SOL     OW 4714   6.364   4.408   6.664
 1272SOL    HW1 4715   6.320   4.431   6.751
 1272SOL    HW2 4716   6.294   4.402   6.592
 1273SOL     OW 4717   1.376   3.860   5.150
 1273SOL    HW1 4718   1.336   3.776   5.187
 1273SOL    HW2 4719   1.447   3.837   5.083
 1274SOL     OW 4720   0.601   4.327   0.939
 1274SOL    HW1 4721   0.504   4.303   0.945
 1274SOL    HW2 4722   0.616   4.419   0.974
 1275SOL     OW 4723   3.107   0.980   3.473
 1275SOL    HW1 4724   3.056   1.064   3.490
 1275SOL    HW2 4725   3.054   0.902   3.505
 1276SOL     OW 4726   5.454   5.348   4.910
 1276SOL    HW1 4727   5.468   5.285   4.834
 1276SOL    HW2 4728   5.436   5.440   4.875
 1277SOL     OW 4729   1.630   5.328   0.003
 1277SOL    HW1 4730   1.550   5.267   0.008
 1277SOL    HW2 4731   1.641   5.361   6.928
 1278SOL     OW 4732   1.570   0.260   4.077
 1278SOL    HW1 4733   1.641   0.191   4.065
 1278SOL    HW2 4734   1.598   0.345   4.033
 1279SOL     OW 4735   2.469   4.529   6.110
 1279SOL    HW1 4736   2.472   4.517   6.011
 1279SOL    HW2 4737   2.526   4.606   6.136
 1280SOL     OW 4738   4.208   0.256   3.849
 1280SOL    HW1 4739   4.201   0.304   3.937
 1280SOL    HW2 4740   4.298   0.215   3.840
 1281SOL     OW 4741   2.738   6.058   3.721
 1281SOL    HW1 4742   2.818   6.086   3.774
 1281SOL    HW2 4743   2.744   6.096   3.629
 1282SOL     OW 4744   0.114   2.516   6.989
 1282SOL    HW1 4745   0.068   2.593   6.946
 1282SOL    HW2 4746   0.090   2.431   6.942
 1283SOL     OW 4747   6.341   3.526   5.556
 1283SOL    HW1 4748   6.418   3.474   5.591
 1283SOL    HW2 4749   6.372   3.589   5.485
 1284SOL     OW 4750   4.041   0.533   1.027
 1284SOL    HW1 4751   4.058   0.587   1.110
 1284SOL    HW2 4752   3.952   0.489   1.034
 1285SOL     OW 4753   4.569   1.196   5.325
 1285SOL    HW1 4754   4.626   1.213   5.406
 1285SOL    HW2 4755   4.496   1.264   5.321
 1286SOL     OW 4756   4.449   2.353   0.989
 1286SOL    HW1 4757   4.508   2.273   0.975
 1286SOL    HW2 4758   4.504   2.433   1.011
 1287SOL     OW 4759   5.216   4.782   5.428
 1287SOL    HW1 4760   5.221   4.834   5.514
 1287SOL    HW2 4761   5.122   4.781   5.396
 1288SOL     OW 4762   4.093   4.847   5.454
 1288SOL    HW1 4763   4.193   4.840   5.444
 1288SOL    HW2 4764   4.066   4.943   5.456
 1289SOL     OW 4765   0.372   1.017   1.951
 1289SOL    HW1 4766   0.366   0.924   1.913
 1289SOL    HW2 4767   0.334   1.018   2.044
 1290SOL     OW 4768   1.534   0.056   1.249
 1290SOL    HW1 4769   1.438   0.060   1.221
 1290SOL    HW2 4770   1.590   0.037   1.168
 1291SOL     OW 4771   0.186   4.846   4.456
 1291SOL    HW1 4772   0.219   4.775   4.394
 1291SOL    HW2 4773   0.218   4.936   4.425
 1292SOL     OW 4774   0.738   5.448   2.298
 1292SOL    HW1 4775   0.805   5.496   2.241
 1292SOL    HW2 4776   0.778   5.430   2.388
 1293SOL     OW 4777   2.966   1.957   0.163
 1293SOL    HW1 4778   2.881   1.916   0.131
 1293SOL    HW2 4779   3.041   1.892   0.147
 1294SOL     OW 4780   1.460   4.227   6.232
 1294SOL    HW1 4781   1.398   4.160   6.191
 1294SOL    HW2 4782   1.475   4.302   6.167
 1295SOL     OW 4783   0.538   2.970   0.830
 1295SOL    HW1 4784   0.608   2.917   0.782
 1295SOL    HW2 4785   0.468   3.000   0.765
 1296SOL     OW 4786   4.629   6.821   5.233
 1296SOL    HW1 4787   4.536   6.854   5.217
 1296SOL    HW2 4788   4.627   6.748   5.302
 1297SOL     OW 4789   0.706   6.480   1.686
 1297SOL    HW1 4790   0.741   6.543   1.616
 1297SOL    HW2 4791   0.616   6.448   1.658
 1298SOL     OW 4792   5.184   6.022   3.483
 1298SOL    HW1 4793   5.211   6.021   3.579
 1298SOL    HW2 4794   5.115   5.952   3.466
 1299SOL     OW 4795   2.033   2.764   3.868
 1299SOL    HW1 4796   2.045   2.776   3.770
 1299SOL    HW2 4797   1.940   2.732   3.887
 1300SOL     OW 4798   1.833   3.251   1.604
 1300SOL    HW1 4799   1.860   3.347   1.595
 1300SOL    HW2 4800   1.912   3.193   1.589
 1301SOL     OW 4801   0.954   6.900   2.010
 1301SOL    HW1 4802   0.927   6.938   2.099
 1301SOL    HW2 4803   0.899   6.820   1.990
 1302SOL     OW 4804   5.341   0.440   5.644
 1302SOL    HW1 4805   5.368   0.458   5.549
 1302SOL    HW2 4806   5.326   0.526   5.692
 1303SOL     OW 4807   3.988   0.867   1.868
 1303SOL    HW1 4808   3.937   0.953   1.871
 1303SOL    HW2 4809   3.994   0.829   1.960
 1304SOL     OW 4810   1.931   1.284   1.562
 1304SOL    HW1 4811   1.993   1.272   1.639
 1304SOL    HW2 4812   1.858   1.216   1.567
 1305SOL     OW 4813   5.655   4.129   6.677
 1305SOL    HW1 4814   5.586   4.146   6.747
 1305SOL    HW2 4815   5.643   4.037   6.640
 1306SOL     OW 4816   1.614   5.810   4.648
 1306SOL    HW1 4817   1.638   5.732   4.591
 1306SOL    HW2 4818   1.587   5.887   4.589
 1307SOL     OW 4819   2.071   3.445   4.160
 1307SOL    HW1 4820   2.089   3.413   4.253
 1307SOL    HW2 4821   2.046   3.542   4.162
 1308SOL     OW 4822   6.950   7.004   5.982
 1308SOL    HW1 4823   6.983   0.035   6.062
 1308SOL    HW2 4824   6.850   6.995   5.988
 1309SOL     OW 4825   5.399   4.591   5.655
 1309SOL    HW1 4826   5.414   4.538   5.572
 1309SOL    HW2 4827   5.383   4.687   5.632
 1310SOL     OW 4828   0.379   4.554   3.165
 1310SOL    HW1 4829   0.458   4.588   3.215
 1310SOL    HW2 4830   0.410   4.496   3.089
 1311SOL     OW 4831   6.724   5.908   6.471
 1311SOL    HW1 4832   6.819   5.878   6.475
 1311SOL    HW2 4833   6.664   5.828   6.478
 1312SOL     OW 4834   1.800   0.133   0.124
 1312SOL    HW1 4835   1.822   0.054   0.068
 1312SOL    HW2 4836   1.842   0.215   0.085
 1313SOL     OW 4837   6.594   5.126   2.275
 1313SOL    HW1 4838   6.495   5.139   2.283
 1313SOL    HW2 4839   6.641   5.188   2.338
 1314SOL     OW 4840   3.150   1.867   4.611
 1314SOL    HW1 4841   3.243   1.897   4.592
 1314SOL    HW2 4842   3.086   1.915   4.551
 1315SOL     OW 4843   6.851   0.710   3.557
 1315SOL    HW1 4844   6.930   0.771   3.554
 1315SOL    HW2 4845   6.863   0.637   3.489
 1316SOL     OW 4846   3.599   0.352   5.051
 1316SOL    HW1 4847   3.653   0.430   5.021
 1316SOL    HW2 4848   3.568   0.367   5.145
 1317SOL     OW 4849   1.446   4.252   4.918
 1317SOL    HW1 4850   1.412   4.267   5.011
 1317SOL    HW2 4851   1.372   4.267   4.853
 1318SOL     OW 4852   1.398   2.645   6.818
 1318SOL    HW1 4853   1.320   2.605   6.866
 1318SOL    HW2 4854   1.471   2.665   6.883
 1319SOL     OW 4855   0.288   5.445   0.034
 1319SOL    HW1 4856   0.370   5.438   6.996
 1319SOL    HW2 4857   0.226   5.512   7.012
 1320SOL     OW 4858   2.962   2.889   6.856
 1320SOL    HW1 4859   2.883   2.945   6.882
 1320SOL    HW2 4860   3.044   2.946   6.855
 1321SOL     OW 4861   4.941   2.250   6.552
 1321SOL    HW1 4862   4.896   2.259   6.640
 1321SOL    HW2 4863   4.922   2.331   6.496
 1322SOL     OW 4864   4.165   1.699   4.336
 1322SOL    HW1 4865   4.248   1.725   4.387
 1322SOL    HW2 4866   4.189   1.681   4.241
 1323SOL     OW 4867   3.547   6.263   0.366
 1323SOL    HW1 4868   3.619   6.211   0.412
 1323SOL    HW2 4869   3.582   6.354   0.343
 1324SOL     OW 4870   0.546   3.476   0.427
 1324SOL    HW1 4871   0.621   3.413   0.409
 1324SOL    HW2 4872   0.576   3.570   0.409
 1325SOL     OW 4873   4.169   6.251   5.057
 1325SOL    HW1 4874   4.090   6.292   5.102
 1325SOL    HW2 4875   4.238   6.321   5.039
 1326SOL     OW 4876   4.829   3.963   5.290
 1326SOL    HW1 4877   4.923   3.958   5.255
 1326SOL    HW2 4878   4.802   3.873   5.324
 1327SOL     OW 4879   1.031   6.431   1.045
 1327SOL    HW1 4880   1.001   6.464   1.134
 1327SOL    HW2 4881   0.986   6.344   1.024
 1328SOL     OW 4882   2.325   2.849   6.758
 1328SOL    HW1 4883   2.398   2.827   6.822
 1328SOL    HW2 4884   2.363   2.899   6.680
 1329SOL     OW 4885   6.939   2.509   2.597
 1329SOL    HW1 4886   0.001   2.513   2.656
 1329SOL    HW2 4887   6.923   2.415   2.567
 1330SOL     OW 4888   1.197   1.936   0.877
 1330SOL    HW1 4889   1.100   1.950   0.899
 1330SOL    HW2 4890   1.205   1.875   0.799
 1331SOL     OW 4891   4.671   2.568   2.885
 1331SOL    HW1 4892   4.690   2.611   2.974
 1331SOL    HW2 4893   4.711   2.477   2.884
 1332SOL     OW 4894   2.790   6.948   0.668
 1332SOL    HW1 4895   2.875   6.976   0.712
 1332SOL    HW2 4896   2.763   6.858   0.702
 1333SOL     OW 4897   3.035   3.792   3.312
 1333SOL    HW1 4898   2.962   3.767   3.376
 1333SOL    HW2 4899   3.051   3.717   3.249
 1334SOL     OW 4900   6.581   1.498   3.768
 1334SOL    HW1 4901   6.636   1.572   3.807
 1334SOL    HW2 4902   6.638   1.418   3.754
 1335SOL     OW 4903   2.118   2.334   2.009
 1335SOL    HW1 4904   2.174   2.251   2.012
 1335SOL    HW2 4905   2.151   2.399   2.078
 1336SOL     OW 4906   4.080   1.525   5.359
 1336SOL    HW1 4907   3.998   1.525   5.415
 1336SOL    HW2 4908   4.160   1.539   5.417
 1337SOL     OW 4909   6.874   1.661   3.256
 1337SOL    HW1 4910   6.840   1.749   3.289
 1337SOL    HW2 4911   6.885   1.665   3.157
 1338SOL     OW 4912   0.280   3.960   4.024
 1338SOL    HW1 4913   0.346   3.886   4.038
 1338SOL    HW2 4914   0.196   3.923   3.986
 1339SOL     OW 4915   6.827   1.091   0.127
 1339SOL    HW1 4916   6.830   1.107   0.226
 1339SOL    HW2 4917   6.833   0.993   0.109
 1340SOL     OW 4918   5.517   1.114   2.629
 1340SOL    HW1 4919   5.590   1.157   2.576
 1340SOL    HW2 4920   5.430   1.121   2.579
 1341SOL     OW 4921   4.256   6.237   0.258
 1341SOL    HW1 4922   4.243   6.287   0.344
 1341SOL    HW2 4923   4.325   6.285   0.202
 1342SOL     OW 4924   2.743   5.502   6.486
 1342SOL    HW1 4925   2.828   5.520   6.536
 1342SOL    HW2 4926   2.696   5.588   6.466
 1343SOL     OW 4927   5.435   5.231   2.829
 1343SOL    HW1 4928   5.362   5.203   2.890
 1343SOL    HW2 4929   5.396   5.260   2.741
 1344SOL     OW 4930   0.364   6.474   4.093
 1344SOL    HW1 4931   0.445   6.427   4.126
 1344SOL    HW2 4932   0.291   6.467   4.161
 1345SOL     OW 4933   0.739   4.971   2.005
 1345SOL    HW1 4934   0.723   5.044   2.070
 1345SOL    HW2 4935   0.656   4.956   1.950
 1346SOL     OW 4936   2.218   5.669   5.816
 1346SOL    HW1 4937   2.188   5.762   5.797
 1346SOL    HW2 4938   2.288   5.643   5.750
 1347SOL     OW 4939   0.677   6.726   6.980
 1347SOL    HW1 4940   0.739   6.736   6.903
 1347SOL    HW2 4941   0.585   6.757   6.954
 1348SOL     OW 4942   6.720   6.479   5.522
 1348SOL    HW1 4943   6.712   6.574   5.553
 1348SOL    HW2 4944   6.645   6.458   5.460
 1349SOL     OW 4945   5.176   2.563   4.454
 1349SOL    HW1 4946   5.175   2.640   4.390
 1349SOL    HW2 4947   5.260   2.567   4.508
 1350SOL     OW 4948   4.562   5.136   5.959
 1350SOL    HW1 4949   4.513   5.183   5.887
 1350SOL    HW2 4950   4.503   5.127   6.040
 1351SOL     OW 4951   5.573   2.611   4.252
 1351SOL    HW1 4952   5.486   2.563   4.248
 1351SOL    HW2 4953   5.560   2.705   4.221
 1352SOL     OW 4954   6.611   6.106   4.117
 1352SOL    HW1 4955   6.689   6.165   4.096
 1352SOL    HW2 4956   6.612   6.082   4.214
 1353SOL     OW 4957   1.079   2.075   0.470
 1353SOL    HW1 4958   1.033   2.110   0.552
 1353SOL    HW2 4959   1.143   2.003   0.497
 1354SOL     OW 4960   6.699   4.164   1.825
 1354SOL    HW1 4961   6.669   4.177   1.730
 1354SOL    HW2 4962   6.799   4.175   1.829
 1355SOL     OW 4963   6.112   4.035   4.233
 1355SOL    HW1 4964   6.181   4.045   4.305
 1355SOL    HW2 4965   6.031   3.990   4.270
 1356SOL     OW 4966   3.718   3.056   1.857
 1356SOL    HW1 4967   3.811   3.050   1.893
 1356SOL    HW2 4968   3.653   3.050   1.933
 1357SOL     OW 4969   0.131   4.822   6.566
 1357SOL    HW1 4970   0.104   4.895   6.503
 1357SOL    HW2 4971   0.231   4.809   6.561
 1358SOL     OW 4972   6.380   6.255   0.454
 1358SOL    HW1 4973   6.382   6.344   0.409
 1358SOL    HW2 4974   6.286   6.231   0.476
 1359SOL     OW 4975   6.232   4.426   2.276
 1359SOL    HW1 4976   6.215   4.486   2.354
 1359SOL    HW2 4977   6.180   4.342   2.286
 1360SOL     OW 4978   2.599   2.728   0.214
 1360SOL    HW1 4979   2.694   2.717   0.243
 1360SOL    HW2 4980   2.547   2.772   0.287
 1361SOL     OW 4981   6.649   4.238   4.580
 1361SOL    HW1 4982   6.743   4.213   4.558
 1361SOL    HW2 4983   6.611   4.170   4.643
 1362SOL     OW 4984   3.866   3.767   2.845
 1362SOL    HW1 4985   3.788   3.704   2.845
 1362SOL    HW2 4986   3.951   3.714   2.842
 1363SOL     OW 4987   0.267   5.564   4.242
 1363SOL    HW1 4988   0.306   5.529   4.327
 1363SOL    HW2 4989   0.172   5.592   4.257
 1364SOL     OW 4990   4.863   4.186   0.131
 1364SOL    HW1 4991   4.828   4.164   0.221
 1364SOL    HW2 4992   4.955   4.224   0.139
 1365SOL     OW 4993   1.017   4.398   6.649
 1365SOL    HW1 4994   1.116   4.409   6.657
 1365SOL    HW2 4995   0.974   4.487   6.639
 1366SOL     OW 4996   1.423   6.953   6.182
 1366SOL    HW1 4997   1.498   6.911   6.232
 1366SOL    HW2 4998   1.430   6.931   6.085
 1367SOL     OW 4999   1.951   0.647   2.288
 1367SOL    HW1 5000   1.948   0.552   2.320
 1367SOL    HW2 5001   2.037   0.663   2.239
 1368SOL     OW 5002   5.433   6.736   5.004
 1368SOL    HW1 5003   5.453   6.648   5.047
 1368SOL    HW2 5004   5.488   6.808   5.046
 1369SOL     OW 5005   2.014   6.502   3.070
 1369SOL    HW1 5006   2.023   6.520   2.972
 1369SOL    HW2 5007   1.969   6.580   3.114
 1370SOL     OW 5008   3.341   0.827   2.190
 1370SOL    HW1 5009   3.363   0.863   2.100
 1370SOL    HW2 5010   3.393   0.742   2.205
 1371SOL     OW 5011   4.558   1.457   4.634
 1371SOL    HW1 5012   4.534   1.532   4.696
 1371SOL    HW2 5013   4.629   1.400   4.676
 1372SOL     OW 5014   2.038   3.189   1.021
 1372SOL    HW1 5015   1.990   3.174   0.934
 1372SOL    HW2 5016   2.093   3.272   1.015
 1373SOL     OW 5017   6.489   4.194   0.805
 1373SOL    HW1 5018   6.507   4.228   0.897
 1373SOL    HW2 5019   6.542   4.247   0.739
 1374SOL     OW 5020   4.417   2.121   0.741
 1374SOL    HW1 5021   4.470   2.107   0.658
 1374SOL    HW2 5022   4.476   2.110   0.821
 1375SOL     OW 5023   0.129   5.395   6.044
 1375SOL    HW1 5024   0.132   5.418   6.141
 1375SOL    HW2 5025   0.190   5.317   6.026
 1376SOL     OW 5026   4.807   2.849   3.383
 1376SOL    HW1 5027   4.728   2.802   3.420
 1376SOL    HW2 5028   4.821   2.936   3.432
 1377SOL     OW 5029   0.098   4.173   6.156
 1377SOL    HW1 5030   0.046   4.252   6.126
 1377SOL    HW2 5031   0.082   4.096   6.093
 1378SOL     OW 5032   0.383   2.410   5.165
 1378SOL    HW1 5033   0.407   2.327   5.215
 1378SOL    HW2 5034   0.376   2.389   5.067
 1379SOL     OW 5035   3.360   6.769   2.653
 1379SOL    HW1 5036   3.437   6.704   2.647
 1379SOL    HW2 5037   3.392   6.853   2.697
 1380SOL     OW 5038   6.801   0.371   2.688
 1380SOL    HW1 5039   6.865   0.307   2.646
 1380SOL    HW2 5040   6.764   0.432   2.618
 1381SOL     OW 5041   5.148   2.485   0.166
 1381SOL    HW1 5042   5.054   2.479   0.201
 1381SOL    HW2 5043   5.206   2.531   0.233
 1382SOL     OW 5044   6.311   4.712   6.233
 1382SOL    HW1 5045   6.389   4.649   6.235
 1382SOL    HW2 5046   6.340   4.800   6.195
 1383SOL     OW 5047   0.650   1.359   0.168
 1383SOL    HW1 5048   0.703   1.365   0.252
 1383SOL    HW2 5049   0.705   1.393   0.092
 1384SOL     OW 5050   3.157   1.619   3.596
 1384SOL    HW1 5051   3.226   1.691   3.604
 1384SOL    HW2 5052   3.134   1.584   3.687
 1385SOL     OW 5053   6.786   2.759   2.971
 1385SOL    HW1 5054   6.722   2.718   3.037
 1385SOL    HW2 5055   6.735   2.790   2.891
 1386SOL     OW 5056   2.337   2.836   4.651
 1386SOL    HW1 5057   2.418   2.882   4.614
 1386SOL    HW2 5058   2.336   2.741   4.621
 1387SOL     OW 5059   3.461   0.369   4.714
 1387SOL    HW1 5060   3.475   0.428   4.793
 1387SOL    HW2 5061   3.548   0.351   4.669
 1388SOL     OW 5062   6.078   0.061   4.328
 1388SOL    HW1 5063   6.171   0.028   4.313
 1388SOL    HW2 5064   6.056   0.057   4.425
 1389SOL     OW 5065   6.761   0.014   4.355
 1389SOL    HW1 5066   6.667   7.016   4.383
 1389SOL    HW2 5067   6.782   0.111   4.363
 1390SOL     OW 5068   4.091   1.371   0.359
 1390SOL    HW1 5069   4.025   1.417   0.419
 1390SOL    HW2 5070   4.053   1.364   0.267
 1391SOL     OW 5071   6.176   1.020   5.690
 1391SOL    HW1 5072   6.106   0.958   5.726
 1391SOL    HW2 5073   6.139   1.112   5.681
 1392SOL     OW 5074   4.791   5.974   5.747
 1392SOL    HW1 5075   4.833   6.051   5.796
 1392SOL    HW2 5076   4.717   5.936   5.802
 1393SOL     OW 5077   6.694   1.789   6.469
 1393SOL    HW1 5078   6.605   1.747   6.483
 1393SOL    HW2 5079   6.745   1.789   6.555
 1394SOL     OW 5080   3.784   6.165   3.158
 1394SOL    HW1 5081   3.685   6.176   3.166
 1394SOL    HW2 5082   3.815   6.097   3.225
 1395SOL     OW 5083   0.698   3.924   2.717
 1395SOL    HW1 5084   0.609   3.968   2.703
 1395SOL    HW2 5085   0.745   3.967   2.793
 1396SOL     OW 5086   1.793   1.192   4.554
 1396SOL    HW1 5087   1.811   1.094   4.546
 1396SOL    HW2 5088   1.880   1.241   4.564
 1397SOL     OW 5089   0.196   5.359   4.914
 1397SOL    HW1 5090   0.184   5.399   4.823
 1397SOL    HW2 5091   0.269   5.406   4.963
 1398SOL     OW 5092   2.101   1.163   0.158
 1398SOL    HW1 5093   2.070   1.245   0.206
 1398SOL    HW2 5094   2.155   1.189   0.079
 1399SOL     OW 5095   3.918   6.982   0.706
 1399SOL    HW1 5096   4.004   0.015   0.701
 1399SOL    HW2 5097   3.881   6.970   0.614
 1400SOL     OW 5098   6.829   0.319   4.428
 1400SOL    HW1 5099   6.866   0.340   4.519
 1400SOL    HW2 5100   6.778   0.397   4.394
 1401SOL     OW 5101   5.450   0.075   4.290
 1401SOL    HW1 5102   5.532   0.033   4.329
 1401SOL    HW2 5103   5.371   0.052   4.347
 1402SOL     OW 5104   5.374   4.066   1.349
 1402SOL    HW1 5105   5.363   3.980   1.300
 1402SOL    HW2 5106   5.329   4.060   1.438
 1403SOL     OW 5107   3.346   3.288   0.197
 1403SOL    HW1 5108   3.386   3.378   0.177
 1403SOL    HW2 5109   3.406   3.238   0.258
 1404SOL     OW 5110   4.915   0.374   1.247
 1404SOL    HW1 5111   4.854   0.398   1.323
 1404SOL    HW2 5112   4.913   0.275   1.233
 1405SOL     OW 5113   2.046   3.627   0.665
 1405SOL    HW1 5114   2.079   3.711   0.622
 1405SOL    HW2 5115   1.955   3.643   0.703
 1406SOL     OW 5116   2.655   3.546   1.458
 1406SOL    HW1 5117   2.562   3.526   1.428
 1406SOL    HW2 5118   2.720   3.486   1.411
 1407SOL     OW 5119   0.742   3.611   1.670
 1407SOL    HW1 5120   0.746   3.516   1.700
 1407SOL    HW2 5121   0.806   3.625   1.595
 1408SOL     OW 5122   6.104   5.815   6.480
 1408SOL    HW1 5123   6.151   5.901   6.497
 1408SOL    HW2 5124   6.121   5.786   6.385
 1409SOL     OW 5125   0.161   1.041   5.780
 1409SOL    HW1 5126   0.092   1.028   5.709
 1409SOL    HW2 5127   0.236   1.096   5.743
 1410SOL     OW 5128   2.798   2.662   5.889
 1410SOL    HW1 5129   2.857   2.700   5.817
 1410SOL    HW2 5130   2.702   2.680   5.865
 1411SOL     OW 5131   3.866   5.673   0.045
 1411SOL    HW1 5132   3.867   5.772   0.031
 1411SOL    HW2 5133   3.885   5.627   6.976
 1412SOL     OW 5134   1.597   2.733   0.716
 1412SOL    HW1 5135   1.673   2.791   0.745
 1412SOL    HW2 5136   1.529   2.729   0.789
 1413SOL     OW 5137   1.996   1.873   5.215
 1413SOL    HW1 5138   2.064   1.946   5.218
 1413SOL    HW2 5139   1.990   1.829   5.305
 1414SOL     OW 5140   0.767   3.525   2.343
 1414SOL    HW1 5141   0.696   3.455   2.356
 1414SOL    HW2 5142   0.825   3.528   2.425
 1415SOL     OW 5143   2.324   2.289   4.365
 1415SOL    HW1 5144   2.309   2.260   4.459
 1415SOL    HW2 5145   2.420   2.273   4.340
 1416SOL     OW 5146   4.161   0.119   5.727
 1416SOL    HW1 5147   4.120   0.046   5.781
 1416SOL    HW2 5148   4.261   0.106   5.724
 1417SOL     OW 5149   2.892   2.993   6.097
 1417SOL    HW1 5150   2.957   2.917   6.088
 1417SOL    HW2 5151   2.907   3.058   6.023
 1418SOL     OW 5152   3.450   3.735   0.012
 1418SOL    HW1 5153   3.368   3.777   6.992
 1418SOL    HW2 5154   3.523   3.803   0.018
 1419SOL     OW 5155   1.878   4.823   3.711
 1419SOL    HW1 5156   1.806   4.777   3.659
 1419SOL    HW2 5157   1.845   4.911   3.744
 1420SOL     OW 5158   3.840   5.324   2.600
 1420SOL    HW1 5159   3.853   5.372   2.513
 1420SOL    HW2 5160   3.859   5.226   2.587
 1421SOL     OW 5161   0.970   4.713   5.324
 1421SOL    HW1 5162   0.981   4.665   5.411
 1421SOL    HW2 5163   0.967   4.812   5.340
 1422SOL     OW 5164   2.592   4.121   6.019
 1422SOL    HW1 5165   2.584   4.125   5.920
 1422SOL    HW2 5166   2.687   4.138   6.046
 1423SOL     OW 5167   4.482   1.699   4.745
 1423SOL    HW1 5168   4.527   1.761   4.809
 1423SOL    HW2 5169   4.409   1.747   4.697
 1424SOL     OW 5170   6.295   2.813   6.689
 1424SOL    HW1 5171   6.250   2.728   6.718
 1424SOL    HW2 5172   6.366   2.792   6.622
 1425SOL     OW 5173   3.768   6.048   4.569
 1425SOL    HW1 5174   3.709   6.069   4.491
 1425SOL    HW2 5175   3.797   5.953   4.564
 1426SOL     OW 5176   2.408   1.586   6.338
 1426SOL    HW1 5177   2.452   1.599   6.427
 1426SOL    HW2 5178   2.375   1.492   6.331
 1427SOL     OW 5179   1.068   1.246   3.037
 1427SOL    HW1 5180   1.044   1.171   3.098
 1427SOL    HW2 5181   1.014   1.239   2.953
 1428SOL     OW 5182   7.016   2.950   2.542
 1428SOL    HW1 5183   0.038   2.867   2.503
 1428SOL    HW2 5184   0.031   3.030   2.493
 1429SOL     OW 5185   6.262   1.539   0.547
 1429SOL    HW1 5186   6.217   1.558   0.460
 1429SOL    HW2 5187   6.240   1.447   0.577
 1430SOL     OW 5188   2.163   4.235   3.854
 1430SOL    HW1 5189   2.169   4.142   3.890
 1430SOL    HW2 5190   2.253   4.263   3.820
 1431SOL     OW 5191   2.411   1.093   5.787
 1431SOL    HW1 5192   2.416   1.065   5.883
 1431SOL    HW2 5193   2.455   1.024   5.730
 1432SOL     OW 5194   2.282   1.134   1.118
 1432SOL    HW1 5195   2.187   1.165   1.113
 1432SOL    HW2 5196   2.304   1.110   1.212
 1433SOL     OW 5197   3.343   0.539   4.240
 1433SOL    HW1 5198   3.403   0.603   4.289
 1433SOL    HW2 5199   3.253   0.581   4.229
 1434SOL     OW 5200   0.115   2.554   6.413
 1434SOL    HW1 5201   0.183   2.597   6.354
 1434SOL    HW2 5202   0.160   2.493   6.478
 1435SOL     OW 5203   0.219   0.374   3.431
 1435SOL    HW1 5204   0.255   0.426   3.508
 1435SOL    HW2 5205   0.191   0.438   3.359
 1436SOL     OW 5206   5.845   2.376   0.585
 1436SOL    HW1 5207   5.785   2.456   0.585
 1436SOL    HW2 5208   5.897   2.374   0.670
 1437SOL     OW 5209   4.669   1.249   6.243
 1437SOL    HW1 5210   4.624   1.175   6.293
 1437SOL    HW2 5211   4.759   1.218   6.213
 1438SOL     OW 5212   2.878   0.781   1.673
 1438SOL    HW1 5213   2.936   0.857   1.703
 1438SOL    HW2 5214   2.832   0.805   1.588
 1439SOL     OW 5215   0.146   5.633   6.873
 1439SOL    HW1 5216   0.073   5.650   6.939
 1439SOL    HW2 5217   0.120   5.670   6.784
 1440SOL     OW 5218   3.196   3.007   4.115
 1440SOL    HW1 5219   3.130   3.057   4.171
 1440SOL    HW2 5220   3.161   2.999   4.022
 1441SOL     OW 5221   6.412   3.059   4.387
 1441SOL    HW1 5222   6.417   3.111   4.472
 1441SOL    HW2 5223   6.408   2.961   4.408
 1442SOL     OW 5224   5.338   4.437   0.629
 1442SOL    HW1 5225   5.387   4.431   0.542
 1442SOL    HW2 5226   5.396   4.404   0.703
 1443SOL     OW 5227   1.092   1.182   3.610
 1443SOL    HW1 5228   1.121   1.136   3.694
 1443SOL    HW2 5229   1.172   1.210   3.558
 1444SOL     OW 5230   4.571   0.114   3.286
 1444SOL    HW1 5231   4.585   0.213   3.290
 1444SOL    HW2 5232   4.554   0.086   3.192
 1445SOL     OW 5233   0.202   2.638   1.345
 1445SOL    HW1 5234   0.164   2.565   1.402
 1445SOL    HW2 5235   0.288   2.608   1.304
 1446SOL     OW 5236   4.037   1.997   1.460
 1446SOL    HW1 5237   4.059   2.047   1.543
 1446SOL    HW2 5238   3.966   2.046   1.408
 1447SOL     OW 5239   6.691   0.806   5.209
 1447SOL    HW1 5240   6.608   0.772   5.166
 1447SOL    HW2 5241   6.744   0.859   5.142
 1448SOL     OW 5242   5.490   1.185   0.579
 1448SOL    HW1 5243   5.473   1.282   0.559
 1448SOL    HW2 5244   5.407   1.133   0.562
 1449SOL     OW 5245   5.136   6.423   0.649
 1449SOL    HW1 5246   5.046   6.380   0.656
 1449SOL    HW2 5247   5.190   6.376   0.579
 1450SOL     OW 5248   5.660   2.823   2.705
 1450SOL    HW1 5249   5.626   2.891   2.639
 1450SOL    HW2 5250   5.645   2.858   2.798
 1451SOL     OW 5251   2.059   6.814   2.815
 1451SOL    HW1 5252   2.080   6.844   2.722
 1451SOL    HW2 5253   2.009   6.885   2.863
 1452SOL     OW 5254   5.057   0.473   4.952
 1452SOL    HW1 5255   5.110   0.504   5.032
 1452SOL    HW2 5256   5.086   0.381   4.927
 1453SOL     OW 5257   5.294   4.018   4.737
 1453SOL    HW1 5258   5.299   4.118   4.729
 1453SOL    HW2 5259   5.358   3.987   4.808
 1454SOL     OW 5260   5.250   2.949   1.831
 1454SOL    HW1 5261   5.229   2.977   1.925
 1454SOL    HW2 5262   5.327   2.885   1.832
 1455SOL     OW 5263   1.030   0.685   1.858
 1455SOL    HW1 5264   1.123   0.658   1.880
 1455SOL    HW2 5265   0.980   0.707   1.942
 1456SOL     OW 5266   6.992   6.947   4.483
 1456SOL    HW1 5267   6.917   7.003   4.447
 1456SOL    HW2 5268   0.061   6.994   4.468
 1457SOL     OW 5269   1.380   0.523   3.646
 1457SOL    HW1 5270   1.475   0.536   3.619
 1457SOL    HW2 5271   1.331   0.476   3.573
 1458SOL     OW 5272   4.985   6.901   6.007
 1458SOL    HW1 5273   4.906   6.866   5.957
 1458SOL    HW2 5274   4.973   6.885   6.105
 1459SOL     OW 5275   3.062   6.344   6.737
 1459SOL    HW1 5276   3.143   6.391   6.701
 1459SOL    HW2 5277   3.012   6.301   6.662
 1460SOL     OW 5278   0.995   6.378   6.974
 1460SOL    HW1 5279   0.955   6.310   6.912
 1460SOL    HW2 5280   1.047   6.331   0.027
 1461SOL     OW 5281   5.807   4.344   3.193
 1461SOL    HW1 5282   5.795   4.286   3.274
 1461SOL    HW2 5283   5.898   4.384   3.194
 1462SOL     OW 5284   6.295   0.994   1.017
 1462SOL    HW1 5285   6.375   0.970   1.072
 1462SOL    HW2 5286   6.255   1.079   1.052
 1463SOL     OW 5287   0.677   0.544   5.036
 1463SOL    HW1 5288   0.702   0.448   5.024
 1463SOL    HW2 5289   0.749   0.603   4.999
 1464SOL     OW 5290   0.397   6.505   0.505
 1464SOL    HW1 5291   0.497   6.508   0.512
 1464SOL    HW2 5292   0.368   6.553   0.422
 1465SOL     OW 5293   0.122   0.274   3.906
 1465SOL    HW1 5294   0.180   0.355   3.909
 1465SOL    HW2 5295   0.041   0.293   3.851
 1466SOL     OW 5296   6.481   5.609   2.428
 1466SOL    HW1 5297   6.418   5.629   2.352
 1466SOL    HW2 5298   6.431   5.563   2.501
 1467SOL     OW 5299   1.719   1.253   3.086
 1467SOL    HW1 5300   1.711   1.213   3.177
 1467SOL    HW2 5301   1.724   1.353   3.093
 1468SOL     OW 5302   5.586   5.460   3.560
 1468SOL    HW1 5303   5.557   5.551   3.531
 1468SOL    HW2 5304   5.674   5.438   3.519
 1469SOL     OW 5305   0.300   0.533   2.490
 1469SOL    HW1 5306   0.355   0.604   2.534
 1469SOL    HW2 5307   0.206   0.538   2.523
 1470SOL     OW 5308   1.252   1.036   2.834
 1470SOL    HW1 5309   1.272   0.941   2.811
 1470SOL    HW2 5310   1.327   1.075   2.887
 1471SOL     OW 5311   0.050   0.367   0.276
 1471SOL    HW1 5312   0.053   0.398   0.371
 1471SOL    HW2 5313   0.006   0.278   0.272
 1472SOL     OW 5314   4.578   0.249   5.339
 1472SOL    HW1 5315   4.550   0.298   5.257
 1472SOL    HW2 5316   4.652   0.298   5.383
 1473SOL     OW 5317   6.395   5.379   2.865
 1473SOL    HW1 5318   6.357   5.421   2.948
 1473SOL    HW2 5319   6.495   5.383   2.868
 1474SOL     OW 5320   6.155   5.624   4.011
 1474SOL    HW1 5321   6.162   5.557   3.938
 1474SOL    HW2 5322   6.246   5.637   4.053
 1475SOL     OW 5323   0.040   0.451   2.562
 1475SOL    HW1 5324   0.058   0.392   2.640
 1475SOL    HW2 5325   7.002   0.402   2.495
 1476SOL     OW 5326   1.644   1.057   2.061
 1476SOL    HW1 5327   1.554   1.013   2.051
 1476SOL    HW2 5328   1.632   1.157   2.056
 1477SOL     OW 5329   3.312   0.352   5.502
 1477SOL    HW1 5330   3.303   0.272   5.561
 1477SOL    HW2 5331   3.232   0.360   5.443
 1478SOL     OW 5332   6.361   5.317   1.015
 1478SOL    HW1 5333   6.341   5.400   0.963
 1478SOL    HW2 5334   6.446   5.277   0.982
 1479SOL     OW 5335   1.845   4.712   0.322
 1479SOL    HW1 5336   1.833   4.613   0.318
 1479SOL    HW2 5337   1.827   4.745   0.414
 1480SOL     OW 5338   1.964   1.424   6.369
 1480SOL    HW1 5339   2.027   1.482   6.317
 1480SOL    HW2 5340   1.871   1.458   6.358
 1481SOL     OW 5341   6.031   2.196   5.899
 1481SOL    HW1 5342   6.123   2.171   5.927
 1481SOL    HW2 5343   6.015   2.293   5.916
 1482SOL     OW 5344   5.206   0.859   0.724
 1482SOL    HW1 5345   5.117   0.838   0.685
 1482SOL    HW2 5346   5.198   0.936   0.787
 1483SOL     OW 5347   6.537   2.289   0.341
 1483SOL    HW1 5348   6.465   2.222   0.324
 1483SOL    HW2 5349   6.502   2.381   0.322
 1484SOL     OW 5350   6.747   4.295   2.271
 1484SOL    HW1 5351   6.705   4.210   2.302
 1484SOL    HW2 5352   6.690   4.337   2.201
 1485SOL     OW 5353   5.526   2.908   2.956
 1485SOL    HW1 5354   5.502   2.907   3.053
 1485SOL    HW2 5355   5.448   2.878   2.902
 1486SOL     OW 5356   4.772   2.286   3.140
 1486SOL    HW1 5357   4.795   2.330   3.053
 1486SOL    HW2 5358   4.680   2.247   3.133
 1487SOL     OW 5359   5.775   1.301   6.331
 1487SOL    HW1 5360   5.781   1.275   6.427
 1487SOL    HW2 5361   5.700   1.367   6.319
 1488SOL     OW 5362   4.717   1.154   3.108
 1488SOL    HW1 5363   4.808   1.112   3.104
 1488SOL    HW2 5364   4.679   1.142   3.200
 1489SOL     OW 5365   3.896   4.967   4.813
 1489SOL    HW1 5366   3.955   5.007   4.743
 1489SOL    HW2 5367   3.879   4.871   4.792
 1490SOL     OW 5368   1.066   1.233   0.317
 1490SOL    HW1 5369   1.125   1.231   0.398
 1490SOL    HW2 5370   1.115   1.276   0.242
 1491SOL     OW 5371   6.959   3.798   3.165
 1491SOL    HW1 5372   6.964   3.873   3.231
 1491SOL    HW2 5373   6.991   3.714   3.209
 1492SOL     OW 5374   5.194   2.138   1.387
 1492SOL    HW1 5375   5.155   2.121   1.477
 1492SOL    HW2 5376   5.178   2.060   1.328
 1493SOL     OW 5377   4.262   0.561   4.856
 1493SOL    HW1 5378   4.251   0.653   4.818
 1493SOL    HW2 5379   4.287   0.498   4.783
 1494SOL     OW 5380   3.610   2.672   6.167
 1494SOL    HW1 5381   3.609   2.627   6.078
 1494SOL    HW2 5382   3.516   2.683   6.199
 1495SOL     OW 5383   0.765   3.559   2.922
 1495SOL    HW1 5384   0.742   3.468   2.957
 1495SOL    HW2 5385   0.710   3.579   2.841
 1496SOL     OW 5386   6.562   7.014   2.082
 1496SOL    HW1 5387   6.538   6.984   2.175
 1496SOL    HW2 5388   6.613   0.081   2.088
 1497SOL     OW 5389   0.014   5.376   4.090
 1497SOL    HW1 5390   0.083   5.419   4.033
 1497SOL    HW2 5391   0.030   5.277   4.093
 1498SOL     OW 5392   2.584   4.775   6.189
 1498SOL    HW1 5393   2.604   4.850   6.126
 1498SOL    HW2 5394   2.669   4.730   6.217
 1499SOL     OW 5395   1.121   3.681   5.043
 1499SOL    HW1 5396   1.149   3.703   5.136
 1499SOL    HW2 5397   1.024   3.655   5.043
 1500SOL     OW 5398   5.372   6.896   0.401
 1500SOL    HW1 5399   5.345   6.951   0.322
 1500SOL    HW2 5400   5.402   6.955   0.475
 1501SOL     OW 5401   4.109   0.326   6.558
 1501SOL    HW1 5402   4.086   0.277   6.642
 1501SOL    HW2 5403   4.101   0.424   6.573
 1502SOL     OW 5404   6.626   6.212   0.071
 1502SOL    HW1 5405   6.603   6.308   0.055
 1502SOL    HW2 5406   6.555   6.154   0.032
 1503SOL     OW 5407   2.000   2.540   0.153
 1503SOL    HW1 5408   2.004   2.593   0.069
 1503SOL    HW2 5409   2.036   2.448   0.138
 1504SOL     OW 5410   3.020   6.932   4.607
 1504SOL    HW1 5411   3.070   6.991   4.543
 1504SOL    HW2 5412   2.982   6.988   4.681
 1505SOL     OW 5413   5.713   0.198   5.233
 1505SOL    HW1 5414   5.714   0.098   5.230
 1505SOL    HW2 5415   5.763   0.229   5.314
 1506SOL     OW 5416   1.009   5.390   3.513
 1506SOL    HW1 5417   1.058   5.360   3.595
 1506SOL    HW2 5418   1.074   5.425   3.446
 1507SOL     OW 5419   1.683   1.984   4.685
 1507SOL    HW1 5420   1.593   2.019   4.657
 1507SOL    HW2 5421   1.751   2.057   4.678
 1508SOL     OW 5422   4.278   6.936   0.690
 1508SOL    HW1 5423   4.352   6.898   0.634
 1508SOL    HW2 5424   4.233   7.009   0.640
 1509SOL     OW 5425   4.652   3.325   6.249
 1509SOL    HW1 5426   4.697   3.250   6.200
 1509SOL    HW2 5427   4.573   3.290   6.299
 1510SOL     OW 5428   6.924   2.125   4.324
 1510SOL    HW1 5429   6.855   2.129   4.395
 1510SOL    HW2 5430   6.984   2.205   4.331
 1511SOL     OW 5431   2.756   1.739   6.824
 1511SOL    HW1 5432   2.731   1.813   6.761
 1511SOL    HW2 5433   2.835   1.690   6.788
 1512SOL     OW 5434   0.104   0.529   1.648
 1512SOL    HW1 5435   0.039   0.498   1.579
 1512SOL    HW2 5436   0.127   0.625   1.632
 1513SOL     OW 5437   3.385   0.197   3.967
 1513SOL    HW1 5438   3.391   0.283   3.918
 1513SOL    HW2 5439   3.441   0.128   3.921
 1514SOL     OW 5440   5.650   1.834   5.409
 1514SOL    HW1 5441   5.694   1.924   5.404
 1514SOL    HW2 5442   5.711   1.770   5.454
 1515SOL     OW 5443   0.412   4.319   5.201
 1515SOL    HW1 5444   0.509   4.318   5.178
 1515SOL    HW2 5445   0.392   4.243   5.263
 1516SOL     OW 5446   0.802   1.645   0.933
 1516SOL    HW1 5447   0.774   1.681   1.022
 1516SOL    HW2 5448   0.862   1.712   0.887
 1517SOL     OW 5449   4.472   5.083   3.334
 1517SOL    HW1 5450   4.552   5.118   3.285
 1517SOL    HW2 5451   4.397   5.149   3.328
 1518SOL     OW 5452   6.790   4.207   0.536
 1518SOL    HW1 5453   6.824   4.116   0.513
 1518SOL    HW2 5454   6.801   4.223   0.634
 1519SOL     OW 5455   6.737   4.859   0.984
 1519SOL    HW1 5456   6.832   4.838   1.005
 1519SOL    HW2 5457   6.678   4.825   1.057
 1520SOL     OW 5458   2.080   3.440   2.256
 1520SOL    HW1 5459   2.127   3.435   2.168
 1520SOL    HW2 5460   2.074   3.349   2.297
 1521SOL     OW 5461   1.610   3.125   0.137
 1521SOL    HW1 5462   1.512   3.135   0.152
 1521SOL    HW2 5463   1.647   3.056   0.199
 1522SOL     OW 5464   6.908   1.740   6.286
 1522SOL    HW1 5465   6.860   1.769   6.368
 1522SOL    HW2 5466   6.999   1.781   6.284
 1523SOL     OW 5467   6.375   2.870   0.248
 1523SOL    HW1 5468   6.288   2.898   0.289
 1523SOL    HW2 5469   6.360   2.843   0.153
 1524SOL     OW 5470   0.292   1.557   1.798
 1524SOL    HW1 5471   0.384   1.573   1.761
 1524SOL    HW2 5472   0.280   1.612   1.881
 1525SOL     OW 5473   4.162   1.274   5.724
 1525SOL    HW1 5474   4.079   1.231   5.687
 1525SOL    HW2 5475   4.147   1.297   5.820
 1526SOL     OW 5476   0.061   1.841   1.514
 1526SOL    HW1 5477   0.087   1.819   1.608
 1526SOL    HW2 5478   0.063   1.758   1.458
 1527SOL     OW 5479   3.670   1.515   4.942
 1527SOL    HW1 5480   3.584   1.481   4.982
 1527SOL    HW2 5481   3.668   1.615   4.939
 1528SOL     OW 5482   4.742   6.307   2.541
 1528SOL    HW1 5483   4.762   6.359   2.624
 1528SOL    HW2 5484   4.644   6.315   2.520
 1529SOL     OW 5485   4.242   0.758   5.858
 1529SOL    HW1 5486   4.295   0.681   5.893
 1529SOL    HW2 5487   4.156   0.724   5.818
 1530SOL     OW 5488   2.771   6.509   1.880
 1530SOL    HW1 5489   2.733   6.577   1.818
 1530SOL    HW2 5490   2.798   6.428   1.827
 1531SOL     OW 5491   6.549   0.399   4.065
 1531SOL    HW1 5492   6.628   0.429   4.011
 1531SOL    HW2 5493   6.489   0.477   4.083
 1532SOL     OW 5494   3.360   2.138   5.310
 1532SOL    HW1 5495   3.309   2.219   5.279
 1532SOL    HW2 5496   3.360   2.136   5.410
 1533SOL     OW 5497   6.403   3.427   0.179
 1533SOL    HW1 5498   6.378   3.352   0.117
 1533SOL    HW2 5499   6.455   3.496   0.129
 1534SOL     OW 5500   1.781   6.030   0.612
 1534SOL    HW1 5501   1.787   6.114   0.665
 1534SOL    HW2 5502   1.804   5.952   0.670
 1535SOL     OW 5503   5.397   4.823   4.432
 1535SOL    HW1 5504   5.378   4.776   4.519
 1535SOL    HW2 5505   5.375   4.762   4.356
 1536SOL     OW 5506   2.328   5.809   4.144
 1536SOL    HW1 5507   2.350   5.804   4.047
 1536SOL    HW2 5508   2.413   5.822   4.196
 1537SOL     OW 5509   2.851   5.674   3.655
 1537SOL    HW1 5510   2.863   5.640   3.748
 1537SOL    HW2 5511   2.912   5.752   3.640
 1538SOL     OW 5512   2.711   4.477   6.888
 1538SOL    HW1 5513   2.692   4.504   6.793
 1538SOL    HW2 5514   2.644   4.408   6.917
 1539SOL     OW 5515   3.553   4.418   1.734
 1539SOL    HW1 5516   3.563   4.358   1.813
 1539SOL    HW2 5517   3.597   4.506   1.754
 1540SOL     OW 5518   0.887   0.374   4.584
 1540SOL    HW1 5519   0.971   0.422   4.560
 1540SOL    HW2 5520   0.903   0.316   4.664
 1541SOL     OW 5521   3.792   2.802   1.108
 1541SOL    HW1 5522   3.694   2.788   1.094
 1541SOL    HW2 5523   3.814   2.787   1.205
 1542SOL     OW 5524   0.264   6.111   1.550
 1542SOL    HW1 5525   0.342   6.142   1.605
 1542SOL    HW2 5526   0.292   6.034   1.492
 1543SOL     OW 5527   3.325   3.585   3.891
 1543SOL    HW1 5528   3.362   3.672   3.924
 1543SOL    HW2 5529   3.347   3.513   3.957
 1544SOL     OW 5530   3.082   3.980   2.389
 1544SOL    HW1 5531   3.165   4.035   2.391
 1544SOL    HW2 5532   3.045   3.977   2.297
 1545SOL     OW 5533   6.021   0.798   5.323
 1545SOL    HW1 5534   6.094   0.805   5.391
 1545SOL    HW2 5535   6.061   0.795   5.232
 1546SOL     OW 5536   6.445   7.015   6.407
 1546SOL    HW1 5537   6.483   0.032   6.322
 1546SOL    HW2 5538   6.472   0.055   6.484
 1547SOL     OW 5539   2.854   5.060   2.530
 1547SOL    HW1 5540   2.946   5.071   2.491
 1547SOL    HW2 5541   2.794   5.131   2.494
 1548SOL     OW 5542   4.010   4.735   5.216
 1548SOL    HW1 5543   4.056   4.786   5.289
 1548SOL    HW2 5544   4.008   4.638   5.240
 1549SOL     OW 5545   6.621   2.117   1.520
 1549SOL    HW1 5546   6.600   2.028   1.477
 1549SOL    HW2 5547   6.536   2.169   1.532
 1550SOL     OW 5548   2.270   6.387   5.148
 1550SOL    HW1 5549   2.172   6.376   5.166
 1550SOL    HW2 5550   2.297   6.330   5.070
 1551SOL     OW 5551   1.725   2.808   1.155
 1551SOL    HW1 5552   1.740   2.841   1.249
 1551SOL    HW2 5553   1.707   2.885   1.095
 1552SOL     OW 5554   1.547   0.313   1.386
 1552SOL    HW1 5555   1.549   0.243   1.315
 1552SOL    HW2 5556   1.577   0.400   1.347
 1553SOL     OW 5557   6.035   1.680   6.953
 1553SOL    HW1 5558   6.127   1.712   6.928
 1553SOL    HW2 5559   6.024   1.585   6.926
 1554SOL     OW 5560   4.214   2.301   3.000
 1554SOL    HW1 5561   4.266   2.381   2.971
 1554SOL    HW2 5562   4.262   2.218   2.972
 1555SOL     OW 5563   5.059   1.809   4.961
 1555SOL    HW1 5564   5.029   1.801   5.055
 1555SOL    HW2 5565   5.027   1.730   4.908
 1556SOL     OW 5566   3.801   0.492   0.629
 1556SOL    HW1 5567   3.763   0.584   0.634
 1556SOL    HW2 5568   3.732   0.429   0.593
 1557SOL     OW 5569   1.995   2.417   1.042
 1557SOL    HW1 5570   1.935   2.480   0.993
 1557SOL    HW2 5571   1.999   2.443   1.138
 1558SOL     OW 5572   6.450   2.960   5.572
 1558SOL    HW1 5573   6.356   2.932   5.555
 1558SOL    HW2 5574   6.458   2.999   5.663
 1559SOL     OW 5575   1.035   4.086   2.256
 1559SOL    HW1 5576   1.012   4.040   2.342
 1559SOL    HW2 5577   0.963   4.070   2.189
 1560SOL     OW 5578   3.854   1.455   0.453
 1560SOL    HW1 5579   3.856   1.530   0.519
 1560SOL    HW2 5580   3.778   1.467   0.390
 1561SOL     OW 5581   5.707   6.374   2.075
 1561SOL    HW1 5582   5.669   6.314   2.146
 1561SOL    HW2 5583   5.637   6.438   2.044
 1562SOL     OW 5584   3.138   6.971   2.310
 1562SOL    HW1 5585   3.083   6.888   2.322
 1562SOL    HW2 5586   3.149   6.990   2.212
 1563SOL     OW 5587   3.256   2.168   4.740
 1563SOL    HW1 5588   3.294   2.171   4.832
 1563SOL    HW2 5589   3.159   2.142   4.745
 1564SOL     OW 5590   1.507   2.052   2.204
 1564SOL    HW1 5591   1.502   1.956   2.229
 1564SOL    HW2 5592   1.574   2.064   2.131
 1565SOL     OW 5593   3.990   6.316   3.954
 1565SOL    HW1 5594   4.007   6.225   3.914
 1565SOL    HW2 5595   3.958   6.378   3.882
 1566SOL     OW 5596   5.242   4.625   3.644
 1566SOL    HW1 5597   5.259   4.712   3.691
 1566SOL    HW2 5598   5.199   4.643   3.555
 1567SOL     OW 5599   5.628   5.765   6.538
 1567SOL    HW1 5600   5.560   5.693   6.554
 1567SOL    HW2 5601   5.692   5.735   6.468
 1568SOL     OW 5602   1.962   6.567   3.746
 1568SOL    HW1 5603   1.867   6.547   3.768
 1568SOL    HW2 5604   1.971   6.586   3.648
 1569SOL     OW 5605   3.228   0.210   3.046
 1569SOL    HW1 5606   3.246   0.300   3.007
 1569SOL    HW2 5607   3.203   0.147   2.972
 1570SOL     OW 5608   3.147   6.917   6.982
 1570SOL    HW1 5609   3.228   6.934   0.020
 1570SOL    HW2 5610   3.126   6.820   6.982
 1571SOL     OW 5611   0.932   2.446   3.483
 1571SOL    HW1 5612   0.976   2.511   3.545
 1571SOL    HW2 5613   0.941   2.478   3.389
 1572SOL     OW 5614   2.032   4.941   1.686
 1572SOL    HW1 5615   1.994   4.855   1.720
 1572SOL    HW2 5616   1.981   4.970   1.604
 1573SOL     OW 5617   5.087   5.368   1.400
 1573SOL    HW1 5618   5.112   5.378   1.497
 1573SOL    HW2 5619   4.990   5.388   1.389
 1574SOL     OW 5620   6.452   3.393   2.179
 1574SOL    HW1 5621   6.464   3.484   2.220
 1574SOL    HW2 5622   6.360   3.385   2.143
 1575SOL     OW 5623   1.261   0.916   1.661
 1575SOL    HW1 5624   1.239   0.822   1.637
 1575SOL    HW2 5625   1.219   0.939   1.749
 1576SOL     OW 5626   0.232   6.236   2.766
 1576SOL    HW1 5627   0.196   6.143   2.766
 1576SOL    HW2 5628   0.331   6.233   2.750
 1577SOL     OW 5629   3.215   0.295   6.463
 1577SOL    HW1 5630   3.301   0.343   6.447
 1577SOL    HW2 5631   3.146   0.360   6.495
 1578SOL     OW 5632   3.897   1.062   0.566
 1578SOL    HW1 5633   3.988   1.055   0.525
 1578SOL    HW2 5634   3.872   0.973   0.604
 1579SOL     OW 5635   1.264   2.704   1.521
 1579SOL    HW1 5636   1.358   2.712   1.552
 1579SOL    HW2 5637   1.230   2.612   1.540
 1580SOL     OW 5638   3.510   3.738   3.220
 1580SOL    HW1 5639   3.504   3.648   3.262
 1580SOL    HW2 5640   3.422   3.762   3.179
 1581SOL     OW 5641   0.461   4.483   6.293
 1581SOL    HW1 5642   0.530   4.469   6.222
 1581SOL    HW2 5643   0.369   4.471   6.254
 1582SOL     OW 5644   4.481   6.294   5.565
 1582SOL    HW1 5645   4.428   6.277   5.648
 1582SOL    HW2 5646   4.577   6.273   5.581
 1583SOL     OW 5647   0.890   6.237   5.103
 1583SOL    HW1 5648   0.817   6.252   5.036
 1583SOL    HW2 5649   0.978   6.260   5.062
 1584SOL     OW 5650   1.522   5.457   6.577
 1584SOL    HW1 5651   1.463   5.402   6.518
 1584SOL    HW2 5652   1.541   5.545   6.534
 1585SOL     OW 5653   3.949   1.076   3.621
 1585SOL    HW1 5654   3.979   1.082   3.716
 1585SOL    HW2 5655   3.983   1.155   3.570
 1586SOL     OW 5656   2.846   5.411   3.553
 1586SOL    HW1 5657   2.791   5.389   3.633
 1586SOL    HW2 5658   2.866   5.509   3.551
 1587SOL     OW 5659   2.005   6.044   6.018
 1587SOL    HW1 5660   1.951   6.091   5.949
 1587SOL    HW2 5661   2.091   6.094   6.033
 1588SOL     OW 5662   4.488   0.551   2.428
 1588SOL    HW1 5663   4.404   0.520   2.472
 1588SOL    HW2 5664   4.506   0.496   2.346
 1589SOL     OW 5665   6.167   3.745   2.647
 1589SOL    HW1 5666   6.146   3.651   2.676
 1589SOL    HW2 5667   6.257   3.747   2.604
 1590SOL     OW 5668   5.362   1.946   3.087
 1590SOL    HW1 5669   5.272   1.911   3.114
 1590SOL    HW2 5670   5.403   1.994   3.164
 1591SOL     OW 5671   6.877   5.797   1.525
 1591SOL    HW1 5672   6.885   5.720   1.588
 1591SOL    HW2 5673   6.868   5.763   1.431
 1592SOL     OW 5674   1.715   4.387   6.574
 1592SOL    HW1 5675   1.663   4.313   6.532
 1592SOL    HW2 5676   1.696   4.390   6.672
 1593SOL     OW 5677   1.130   0.285   6.473
 1593SOL    HW1 5678   1.170   0.195   6.456
 1593SOL    HW2 5679   1.107   0.293   6.570
 1594SOL     OW 5680   6.906   0.345   2.049
 1594SOL    HW1 5681   6.813   0.377   2.036
 1594SOL    HW2 5682   6.964   0.381   1.976
 1595SOL     OW 5683   1.962   3.689   6.987
 1595SOL    HW1 5684   1.958   3.617   6.918
 1595SOL    HW2 5685   1.983   3.649   0.057
 1596SOL     OW 5686   6.088   4.078   3.414
 1596SOL    HW1 5687   6.008   4.042   3.365
 1596SOL    HW2 5688   6.164   4.089   3.351
 1597SOL     OW 5689   2.661   5.575   0.836
 1597SOL    HW1 5690   2.681   5.483   0.802
 1597SOL    HW2 5691   2.634   5.570   0.932
 1598SOL     OW 5692   1.718   5.761   6.685
 1598SOL    HW1 5693   1.775   5.681   6.670
 1598SOL    HW2 5694   1.708   5.777   6.784
 1599SOL     OW 5695   3.733   5.371   4.349
 1599SOL    HW1 5696   3.693   5.430   4.419
 1599SOL    HW2 5697   3.800   5.310   4.392
 1600SOL     OW 5698   3.640   0.914   2.835
 1600SOL    HW1 5699   3.641   1.014   2.830
 1600SOL    HW2 5700   3.547   0.881   2.820
 1601SOL     OW 5701   6.138   6.254   3.955
 1601SOL    HW1 5702   6.228   6.298   3.958
 1601SOL    HW2 5703   6.150   6.155   3.952
 1602SOL     OW 5704   4.754   5.461   4.105
 1602SOL    HW1 5705   4.796   5.536   4.155
 1602SOL    HW2 5706   4.824   5.397   4.076
 1603SOL     OW 5707   2.910   5.704   4.132
 1603SOL    HW1 5708   2.936   5.729   4.226
 1603SOL    HW2 5709   2.979   5.739   4.069
 1604SOL     OW 5710   4.010   4.807   2.274
 1604SOL    HW1 5711   4.029   4.901   2.245
 1604SOL    HW2 5712   3.952   4.808   2.355
 1605SOL     OW 5713   5.742   5.341   1.831
 1605SOL    HW1 5714   5.792   5.256   1.845
 1605SOL    HW2 5715   5.808   5.416   1.821
 1606SOL     OW 5716   4.078   5.707   4.740
 1606SOL    HW1 5717   4.039   5.723   4.831
 1606SOL    HW2 5718   4.124   5.619   4.738
 1607SOL     OW 5719   4.213   0.219   2.285
 1607SOL    HW1 5720   4.184   0.174   2.200
 1607SOL    HW2 5721   4.268   0.156   2.340
 1608SOL     OW 5722   0.020   0.993   3.261
 1608SOL    HW1 5723   0.065   0.923   3.205
 1608SOL    HW2 5724   0.026   1.081   3.214
 1609SOL     OW 5725   3.310   6.147   0.456
 1609SOL    HW1 5726   3.282   6.060   0.415
 1609SOL    HW2 5727   3.386   6.185   0.403
 1610SOL     OW 5728   4.595   6.018   0.592
 1610SOL    HW1 5729   4.615   6.055   0.501
 1610SOL    HW2 5730   4.662   6.051   0.657
 1611SOL     OW 5731   1.500   3.937   1.085
 1611SOL    HW1 5732   1.498   3.867   1.014
 1611SOL    HW2 5733   1.527   4.025   1.045
 1612SOL     OW 5734   2.924   5.793   1.159
 1612SOL    HW1 5735   2.935   5.693   1.154
 1612SOL    HW2 5736   2.999   5.836   1.110
 1613SOL     OW 5737   0.831   6.128   2.459
 1613SOL    HW1 5738   0.866   6.076   2.537
 1613SOL    HW2 5739   0.897   6.124   2.384
 1614SOL     OW 5740   5.540   2.195   6.536
 1614SOL    HW1 5741   5.454   2.223   6.495
 1614SOL    HW2 5742   5.533   2.101   6.569
 1615SOL     OW 5743   0.304   5.024   6.779
 1615SOL    HW1 5744   0.321   4.927   6.798
 1615SOL    HW2 5745   0.311   5.076   6.864
 1616SOL     OW 5746   3.721   0.774   5.292
 1616SOL    HW1 5747   3.819   0.754   5.298
 1616SOL    HW2 5748   3.705   0.869   5.317
 1617SOL     OW 5749   4.881   0.196   3.270
 1617SOL    HW1 5750   4.824   0.224   3.347
 1617SOL    HW2 5751   4.960   0.257   3.263
 1618SOL     OW 5752   1.530   6.052   2.544
 1618SOL    HW1 5753   1.562   5.969   2.500
 1618SOL    HW2 5754   1.605   6.097   2.592
 1619SOL     OW 5755   1.350   5.316   0.323
 1619SOL    HW1 5756   1.273   5.253   0.313
 1619SOL    HW2 5757   1.436   5.265   0.315
 1620SOL     OW 5758   2.647   5.189   0.892
 1620SOL    HW1 5759   2.738   5.200   0.931
 1620SOL    HW2 5760   2.652   5.198   0.792
 1621SOL     OW 5761   5.897   6.190   1.381
 1621SOL    HW1 5762   5.887   6.248   1.299
 1621SOL    HW2 5763   5.818   6.129   1.388
 1622SOL     OW 5764   0.690   4.187   6.147
 1622SOL    HW1 5765   0.696   4.105   6.090
 1622SOL    HW2 5766   0.714   4.267   6.091
 1623SOL     OW 5767   0.667   2.291   4.682
 1623SOL    HW1 5768   0.658   2.192   4.677
 1623SOL    HW2 5769   0.753   2.315   4.727
 1624SOL     OW 5770   3.473   1.155   0.346
 1624SOL    HW1 5771   3.427   1.238   0.315
 1624SOL    HW2 5772   3.571   1.162   0.324
 1625SOL     OW 5773   1.912   5.248   0.358
 1625SOL    HW1 5774   1.937   5.240   0.454
 1625SOL    HW2 5775   1.992   5.276   0.304
 1626SOL     OW 5776   2.913   1.912   2.516
 1626SOL    HW1 5777   2.923   1.833   2.577
 1626SOL    HW2 5778   2.877   1.989   2.567
 1627SOL     OW 5779   5.248   2.745   4.236
 1627SOL    HW1 5780   5.245   2.671   4.168
 1627SOL    HW2 5781   5.314   2.814   4.207
 1628SOL     OW 5782   5.046   6.011   6.544
 1628SOL    HW1 5783   5.075   6.107   6.551
 1628SOL    HW2 5784   5.020   5.978   6.635
 1629SOL     OW 5785   2.804   1.982   3.134
 1629SOL    HW1 5786   2.804   1.937   3.224
 1629SOL    HW2 5787   2.711   2.013   3.113
 1630SOL     OW 5788   0.082   4.200   6.552
 1630SOL    HW1 5789   0.163   4.194   6.494
 1630SOL    HW2 5790   0.110   4.220   6.646
 1631SOL     OW 5791   6.698   3.318   1.040
 1631SOL    HW1 5792   6.778   3.318   1.101
 1631SOL    HW2 5793   6.726   3.344   0.948
 1632SOL     OW 5794   5.219   4.283   2.798
 1632SOL    HW1 5795   5.137   4.293   2.743
 1632SOL    HW2 5796   5.300   4.289   2.739
 1633SOL     OW 5797   4.732   4.219   3.955
 1633SOL    HW1 5798   4.649   4.212   4.011
 1633SOL    HW2 5799   4.789   4.138   3.969
 1634SOL     OW 5800   3.632   0.595   4.426
 1634SOL    HW1 5801   3.722   0.600   4.383
 1634SOL    HW2 5802   3.600   0.500   4.425
 1635SOL     OW 5803   2.827   5.245   6.445
 1635SOL    HW1 5804   2.814   5.344   6.450
 1635SOL    HW2 5805   2.921   5.225   6.420
 1636SOL     OW 5806   3.850   6.061   0.917
 1636SOL    HW1 5807   3.870   6.158   0.908
 1636SOL    HW2 5808   3.917   6.008   0.865
 1637SOL     OW 5809   6.857   6.822   3.298
 1637SOL    HW1 5810   6.852   6.813   3.198
 1637SOL    HW2 5811   6.948   6.798   3.329
 1638SOL     OW 5812   0.437   2.907   1.402
 1638SOL    HW1 5813   0.394   2.967   1.334
 1638SOL    HW2 5814   0.516   2.861   1.361
 1639SOL     OW 5815   6.446   3.813   1.474
 1639SOL    HW1 5816   6.399   3.850   1.554
 1639SOL    HW2 5817   6.396   3.735   1.438
 1640SOL     OW 5818   6.439   6.869   1.239
 1640SOL    HW1 5819   6.538   6.865   1.249
 1640SOL    HW2 5820   6.416   6.901   1.147
 1641SOL     OW 5821   6.836   1.877   3.694
 1641SOL    HW1 5822   6.760   1.817   3.668
 1641SOL    HW2 5823   6.804   1.972   3.694
 1642SOL     OW 5824   6.771   2.480   6.802
 1642SOL    HW1 5825   6.798   2.389   6.833
 1642SOL    HW2 5826   6.830   2.508   6.726
 1643SOL     OW 5827   3.409   5.226   3.365
 1643SOL    HW1 5828   3.372   5.148   3.314
 1643SOL    HW2 5829   3.408   5.307   3.306
 1644SOL     OW 5830   6.071   2.639   0.254
 1644SOL    HW1 5831   5.992   2.700   0.264
 1644SOL    HW2 5832   6.100   2.636   0.159
 1645SOL     OW 5833   2.883   0.145   6.434
 1645SOL    HW1 5834   2.874   0.178   6.340
 1645SOL    HW2 5835   2.977   0.116   6.450
 1646SOL     OW 5836   1.721   6.366   6.370
 1646SOL    HW1 5837   1.692   6.450   6.416
 1646SOL    HW2 5838   1.691   6.287   6.423
 1647SOL     OW 5839   5.578   2.905   3.845
 1647SOL    HW1 5840   5.661   2.857   3.871
 1647SOL    HW2 5841   5.501   2.841   3.843
 1648SOL     OW 5842   5.426   6.238   0.253
 1648SOL    HW1 5843   5.516   6.206   0.282
 1648SOL    HW2 5844   5.432   6.273   0.160
 1649SOL     OW 5845   3.265   0.688   3.752
 1649SOL    HW1 5846   3.166   0.694   3.755
 1649SOL    HW2 5847   3.301   0.760   3.692
 1650SOL     OW 5848   1.537   5.265   6.268
 1650SOL    HW1 5849   1.456   5.297   6.317
 1650SOL    HW2 5850   1.619   5.290   6.319
 1651SOL     OW 5851   0.046   2.397   3.195
 1651SOL    HW1 5852   6.973   2.383   3.158
 1651SOL    HW2 5853   0.045   2.384   3.294
 1652SOL     OW 5854   0.990   3.287   1.765
 1652SOL    HW1 5855   0.993   3.283   1.665
 1652SOL    HW2 5856   0.902   3.324   1.794
 1653SOL     OW 5857   0.123   5.552   2.282
 1653SOL    HW1 5858   0.146   5.613   2.206
 1653SOL    HW2 5859   0.164   5.462   2.266
 1654SOL     OW 5860   0.731   3.314   1.453
 1654SOL    HW1 5861   0.801   3.364   1.403
 1654SOL    HW2 5862   0.691   3.244   1.394
 1655SOL     OW 5863   0.134   0.951   4.472
 1655SOL    HW1 5864   0.198   0.976   4.400
 1655SOL    HW2 5865   0.153   0.858   4.503
 1656SOL     OW 5866   2.373   5.748   3.898
 1656SOL    HW1 5867   2.356   5.746   3.799
 1656SOL    HW2 5868   2.393   5.656   3.930
 1657SOL     OW 5869   6.371   1.217   4.877
 1657SOL    HW1 5870   6.288   1.228   4.823
 1657SOL    HW2 5871   6.446   1.266   4.834
 1658SOL     OW 5872   0.050   0.287   0.567
 1658SOL    HW1 5873   0.138   0.274   0.521
 1658SOL    HW2 5874   0.004   0.199   0.576
 1659SOL     OW 5875   4.188   0.225   0.090
 1659SOL    HW1 5876   4.246   0.181   0.022
 1659SOL    HW2 5877   4.137   0.155   0.141
 1660SOL     OW 5878   1.779   6.939   2.181
 1660SOL    HW1 5879   1.875   6.955   2.158
 1660SOL    HW2 5880   1.763   6.963   2.277
 1661SOL     OW 5881   2.854   5.061   2.155
 1661SOL    HW1 5882   2.905   5.129   2.209
 1661SOL    HW2 5883   2.900   4.973   2.160
 1662SOL     OW 5884   6.770   0.861   5.484
 1662SOL    HW1 5885   6.754   0.798   5.408
 1662SOL    HW2 5886   6.689   0.919   5.496
 1663SOL     OW 5887   5.130   5.017   2.612
 1663SOL    HW1 5888   5.178   4.958   2.547
 1663SOL    HW2 5889   5.115   4.967   2.698
 1664SOL     OW 5890   1.265   0.581   5.155
 1664SOL    HW1 5891   1.320   0.624   5.226
 1664SOL    HW2 5892   1.208   0.510   5.196
 1665SOL     OW 5893   1.080   3.368   1.508
 1665SOL    HW1 5894   1.054   3.447   1.564
 1665SOL    HW2 5895   1.122   3.401   1.423
 1666SOL     OW 5896   5.468   6.420   6.729
 1666SOL    HW1 5897   5.398   6.491   6.737
 1666SOL    HW2 5898   5.474   6.390   6.634
 1667SOL     OW 5899   6.973   6.659   1.090
 1667SOL    HW1 5900   6.961   6.600   1.011
 1667SOL    HW2 5901   7.002   6.605   1.169
 1668SOL     OW 5902   4.977   5.152   3.649
 1668SOL    HW1 5903   4.951   5.114   3.738
 1668SOL    HW2 5904   4.911   5.123   3.579
 1669SOL     OW 5905   0.127   4.528   5.616
 1669SOL    HW1 5906   0.226   4.535   5.633
 1669SOL    HW2 5907   0.107   4.440   5.573
 1670SOL     OW 5908   1.311   4.849   5.643
 1670SOL    HW1 5909   1.292   4.827   5.548
 1670SOL    HW2 5910   1.409   4.868   5.654
 1671SOL     OW 5911   5.013   1.596   3.117
 1671SOL    HW1 5912   5.085   1.529   3.104
 1671SOL    HW2 5913   4.943   1.559   3.178
 1672SOL     OW 5914   1.077   3.617   6.921
 1672SOL    HW1 5915   1.153   3.609   6.857
 1672SOL    HW2 5916   1.009   3.681   6.884
 1673SOL     OW 5917   2.357   1.801   4.842
 1673SOL    HW1 5918   2.295   1.752   4.903
 1673SOL    HW2 5919   2.391   1.739   4.772
 1674SOL     OW 5920   6.038   2.514   2.256
 1674SOL    HW1 5921   6.001   2.563   2.334
 1674SOL    HW2 5922   6.132   2.486   2.276
 1675SOL     OW 5923   4.748   0.127   1.013
 1675SOL    HW1 5924   4.653   0.116   0.984
 1675SOL    HW2 5925   4.758   0.099   1.108
 1676SOL     OW 5926   1.844   2.132   2.719
 1676SOL    HW1 5927   1.832   2.221   2.675
 1676SOL    HW2 5928   1.936   2.097   2.701
 1677SOL     OW 5929   3.809   4.066   2.901
 1677SOL    HW1 5930   3.801   4.089   2.804
 1677SOL    HW2 5931   3.863   3.982   2.911
 1678SOL     OW 5932   0.567   6.052   1.471
 1678SOL    HW1 5933   0.504   5.979   1.498
 1678SOL    HW2 5934   0.577   6.053   1.372
 1679SOL     OW 5935   1.313   1.223   5.298
 1679SOL    HW1 5936   1.387   1.230   5.230
 1679SOL    HW2 5937   1.267   1.135   5.286
 1680SOL     OW 5938   5.403   3.346   4.833
 1680SOL    HW1 5939   5.376   3.342   4.737
 1680SOL    HW2 5940   5.323   3.329   4.891
 1681SOL     OW 5941   1.620   5.552   4.943
 1681SOL    HW1 5942   1.700   5.590   4.898
 1681SOL    HW2 5943   1.540   5.565   4.884
 1682SOL     OW 5944   2.423   0.644   5.826
 1682SOL    HW1 5945   2.497   0.673   5.765
 1682SOL    HW2 5946   2.336   0.645   5.776
 1683SOL     OW 5947   5.446   6.026   2.924
 1683SOL    HW1 5948   5.447   6.096   2.996
 1683SOL    HW2 5949   5.432   5.936   2.965
 1684SOL     OW 5950   0.999   4.475   1.702
 1684SOL    HW1 5951   1.063   4.540   1.743
 1684SOL    HW2 5952   0.935   4.442   1.771
 1685SOL     OW 5953   2.188   2.146   5.658
 1685SOL    HW1 5954   2.250   2.209   5.704
 1685SOL    HW2 5955   2.130   2.101   5.726
 1686SOL     OW 5956   4.096   5.464   3.592
 1686SOL    HW1 5957   4.168   5.416   3.643
 1686SOL    HW2 5958   4.085   5.556   3.629
 1687SOL     OW 5959   0.401   4.245   1.611
 1687SOL    HW1 5960   0.438   4.188   1.684
 1687SOL    HW2 5961   0.425   4.341   1.628
 1688SOL     OW 5962   1.665   2.396   3.699
 1688SOL    HW1 5963   1.565   2.395   3.709
 1688SOL    HW2 5964   1.693   2.478   3.649
 1689SOL     OW 5965   6.704   1.151   2.403
 1689SOL    HW1 5966   6.666   1.100   2.326
 1689SOL    HW2 5967   6.714   1.247   2.377
 1690SOL     OW 5968   1.270   3.341   4.221
 1690SOL    HW1 5969   1.316   3.281   4.286
 1690SOL    HW2 5970   1.313   3.333   4.131
 1691SOL     OW 5971   4.869   3.726   4.198
 1691SOL    HW1 5972   4.842   3.822   4.199
 1691SOL    HW2 5973   4.871   3.691   4.292
 1692SOL     OW 5974   5.609   5.219   1.600
 1692SOL    HW1 5975   5.666   5.250   1.676
 1692SOL    HW2 5976   5.664   5.220   1.516
 1693SOL     OW 5977   0.130   1.648   4.513
 1693SOL    HW1 5978   0.137   1.746   4.497
 1693SOL    HW2 5979   0.156   1.598   4.430
 1694SOL     OW 5980   6.341   0.993   4.502
 1694SOL    HW1 5981   6.252   0.993   4.547
 1694SOL    HW2 5982   6.341   1.057   4.426
 1695SOL     OW 5983   3.595   0.593   6.655
 1695SOL    HW1 5984   3.581   0.656   6.731
 1695SOL    HW2 5985   3.662   0.523   6.680
 1696SOL     OW 5986   3.945   5.680   0.692
 1696SOL    HW1 5987   3.954   5.760   0.752
 1696SOL    HW2 5988   3.849   5.652   0.689
 1697SOL     OW 5989   5.887   2.257   0.891
 1697SOL    HW1 5990   5.822   2.327   0.923
 1697SOL    HW2 5991   5.980   2.289   0.908
 1698SOL     OW 5992   3.541   0.746   1.577
 1698SOL    HW1 5993   3.559   0.704   1.666
 1698SOL    HW2 5994   3.443   0.761   1.567
 1699SOL     OW 5995   2.377   1.963   5.989
 1699SOL    HW1 5996   2.387   2.058   6.018
 1699SOL    HW2 5997   2.404   1.902   6.063
 1700SOL     OW 5998   5.655   3.313   3.801
 1700SOL    HW1 5999   5.612   3.404   3.801
 1700SOL    HW2 6000   5.747   3.319   3.762
 1701SOL     OW 6001   6.161   4.993   4.901
 1701SOL    HW1 6002   6.123   5.027   4.815
 1701SOL    HW2 6003   6.086   4.972   4.965
 1702SOL     OW 6004   1.342   1.009   5.956
 1702SOL    HW1 6005   1.279   1.064   6.012
 1702SOL    HW2 6006   1.388   0.942   6.014
 1703SOL     OW 6007   3.767   1.562   5.823
 1703SOL    HW1 6008   3.751   1.464   5.838
 1703SOL    HW2 6009   3.701   1.615   5.875
 1704SOL     OW 6010   1.444   1.800   6.784
 1704SOL    HW1 6011   1.508   1.845   6.847
 1704SOL    HW2 6012   1.491   1.727   6.735
 1705SOL     OW 6013   3.962   1.916   1.954
 1705SOL    HW1 6014   3.936   1.951   2.044
 1705SOL    HW2 6015   3.880   1.885   1.906
 1706SOL     OW 6016   4.057   1.613   0.814
 1706SOL    HW1 6017   4.080   1.521   0.844
 1706SOL    HW2 6018   4.020   1.666   0.891
 1707SOL     OW 6019   4.664   1.821   3.019
 1707SOL    HW1 6020   4.614   1.876   2.952
 1707SOL    HW2 6021   4.609   1.741   3.043
 1708SOL     OW 6022   3.798   5.602   2.027
 1708SOL    HW1 6023   3.892   5.623   2.054
 1708SOL    HW2 6024   3.779   5.644   1.938
 1709SOL     OW 6025   4.437   6.545   0.835
 1709SOL    HW1 6026   4.469   6.544   0.740
 1709SOL    HW2 6027   4.360   6.609   0.844
 1710SOL     OW 6028   4.443   4.843   3.186
 1710SOL    HW1 6029   4.432   4.922   3.247
 1710SOL    HW2 6030   4.402   4.763   3.228
 1711SOL     OW 6031   2.694   5.019   5.747
 1711SOL    HW1 6032   2.792   5.024   5.730
 1711SOL    HW2 6033   2.644   5.030   5.660
 1712SOL     OW 6034   0.332   2.345   4.879
 1712SOL    HW1 6035   0.315   2.251   4.847
 1712SOL    HW2 6036   0.395   2.391   4.817
 1713SOL     OW 6037   3.581   1.085   2.065
 1713SOL    HW1 6038   3.524   1.143   2.124
 1713SOL    HW2 6039   3.532   1.001   2.043
 1714SOL     OW 6040   3.327   1.902   6.937
 1714SOL    HW1 6041   3.295   1.838   6.867
 1714SOL    HW2 6042   3.416   1.939   6.910
 1715SOL     OW 6043   2.051   5.773   2.120
 1715SOL    HW1 6044   2.008   5.859   2.147
 1715SOL    HW2 6045   2.149   5.788   2.105
 1716SOL     OW 6046   4.739   0.168   4.166
 1716SOL    HW1 6047   4.735   0.167   4.066
 1716SOL    HW2 6048   4.825   0.208   4.195
 1717SOL     OW 6049   3.971   5.643   5.279
 1717SOL    HW1 6050   3.957   5.742   5.288
 1717SOL    HW2 6051   4.041   5.626   5.210
 1718SOL     OW 6052   2.435   2.182   2.385
 1718SOL    HW1 6053   2.490   2.216   2.309
 1718SOL    HW2 6054   2.356   2.133   2.349
 1719SOL     OW 6055   1.462   4.576   1.068
 1719SOL    HW1 6056   1.479   4.672   1.087
 1719SOL    HW2 6057   1.410   4.567   0.983
 1720SOL     OW 6058   6.966   3.023   6.046
 1720SOL    HW1 6059   7.013   3.101   6.005
 1720SOL    HW2 6060   0.005   2.985   6.120
 1721SOL     OW 6061   1.358   0.302   2.327
 1721SOL    HW1 6062   1.380   0.392   2.291
 1721SOL    HW2 6063   1.293   0.257   2.267
 1722SOL     OW 6064   3.018   1.865   2.938
 1722SOL    HW1 6065   3.073   1.944   2.910
 1722SOL    HW2 6066   2.941   1.896   2.994
 1723SOL     OW 6067   4.639   1.780   6.912
 1723SOL    HW1 6068   4.688   1.781   6.999
 1723SOL    HW2 6069   4.611   1.873   6.888
 1724SOL     OW 6070   6.348   2.166   1.363
 1724SOL    HW1 6071   6.414   2.212   1.304
 1724SOL    HW2 6072   6.324   2.077   1.323
 1725SOL     OW 6073   1.937   4.516   6.663
 1725SOL    HW1 6074   2.022   4.503   6.611
 1725SOL    HW2 6075   1.864   4.462   6.622
 1726SOL     OW 6076   5.892   4.149   3.672
 1726SOL    HW1 6077   5.935   4.078   3.728
 1726SOL    HW2 6078   5.962   4.206   3.629
 1727SOL     OW 6079   3.612   3.493   3.330
 1727SOL    HW1 6080   3.518   3.457   3.325
 1727SOL    HW2 6081   3.664   3.441   3.398
 1728SOL     OW 6082   4.754   4.452   5.816
 1728SOL    HW1 6083   4.660   4.446   5.783
 1728SOL    HW2 6084   4.813   4.394   5.760
 1729SOL     OW 6085   1.212   3.993   2.087
 1729SOL    HW1 6086   1.150   4.029   2.157
 1729SOL    HW2 6087   1.168   3.916   2.041
 1730SOL     OW 6088   2.706   6.263   5.157
 1730SOL    HW1 6089   2.747   6.172   5.155
 1730SOL    HW2 6090   2.668   6.280   5.248
 1731SOL     OW 6091   5.612   4.962   3.486
 1731SOL    HW1 6092   5.622   5.059   3.463
 1731SOL    HW2 6093   5.691   4.932   3.540
 1732SOL     OW 6094   2.195   4.274   6.117
 1732SOL    HW1 6095   2.281   4.303   6.160
 1732SOL    HW2 6096   2.122   4.275   6.186
 1733SOL     OW 6097   2.715   4.257   0.207
 1733SOL    HW1 6098   2.653   4.262   0.129
 1733SOL    HW2 6099   2.806   4.290   0.180
 1734SOL     OW 6100   6.496   3.132   1.399
 1734SOL    HW1 6101   6.418   3.187   1.428
 1734SOL    HW2 6102   6.469   3.036   1.394
 1735SOL     OW 6103   4.483   5.383   6.753
 1735SOL    HW1 6104   4.542   5.303   6.751
 1735SOL    HW2 6105   4.532   5.459   6.797
 1736SOL     OW 6106   4.146   3.837   1.478
 1736SOL    HW1 6107   4.170   3.872   1.569
 1736SOL    HW2 6108   4.216   3.773   1.447
 1737SOL     OW 6109   5.428   0.919   4.019
 1737SOL    HW1 6110   5.393   0.885   4.107
 1737SOL    HW2 6111   5.463   0.842   3.965
 1738SOL     OW 6112   2.113   3.709   4.440
 1738SOL    HW1 6113   2.014   3.698   4.438
 1738SOL    HW2 6114   2.147   3.688   4.532
 1739SOL     OW 6115   5.824   0.016   3.870
 1739SOL    HW1 6116   5.822   0.056   3.962
 1739SOL    HW2 6117   5.919   7.018   3.843
 1740SOL     OW 6118   6.920   1.786   4.745
 1740SOL    HW1 6119   6.966   1.832   4.821
 1740SOL    HW2 6120   6.960   1.816   4.659
 1741SOL     OW 6121   1.398   2.044   3.492
 1741SOL    HW1 6122   1.359   2.021   3.581
 1741SOL    HW2 6123   1.454   2.126   3.500
 1742SOL     OW 6124   6.013   0.403   6.009
 1742SOL    HW1 6125   6.039   0.328   6.070
 1742SOL    HW2 6126   5.913   0.411   6.006
 1743SOL     OW 6127   1.155   1.924   3.003
 1743SOL    HW1 6128   1.070   1.962   2.966
 1743SOL    HW2 6129   1.163   1.828   2.977
 1744SOL     OW 6130   5.042   2.319   3.475
 1744SOL    HW1 6131   4.982   2.369   3.413
 1744SOL    HW2 6132   5.129   2.369   3.486
 1745SOL     OW 6133   6.102   6.112   0.976
 1745SOL    HW1 6134   6.106   6.099   0.877
 1745SOL    HW2 6135   6.087   6.209   0.996
 1746SOL     OW 6136   2.004   3.613   3.876
 1746SOL    HW1 6137   1.931   3.616   3.808
 1746SOL    HW2 6138   2.056   3.528   3.866
 1747SOL     OW 6139   3.531   1.673   2.066
 1747SOL    HW1 6140   3.590   1.593   2.061
 1747SOL    HW2 6141   3.469   1.664   2.144
 1748SOL     OW 6142   6.606   1.535   4.153
 1748SOL    HW1 6143   6.616   1.440   4.125
 1748SOL    HW2 6144   6.623   1.543   4.251
 1749SOL     OW 6145   3.126   6.308   0.610
 1749SOL    HW1 6146   3.174   6.246   0.548
 1749SOL    HW2 6147   3.163   6.401   0.599
 1750SOL     OW 6148   3.856   0.872   4.842
 1750SOL    HW1 6149   3.897   0.960   4.866
 1750SOL    HW2 6150   3.757   0.883   4.828
 1751SOL     OW 6151   6.139   2.780   5.177
 1751SOL    HW1 6152   6.058   2.830   5.209
 1751SOL    HW2 6153   6.221   2.834   5.195
 1752SOL     OW 6154   6.569   1.145   1.452
 1752SOL    HW1 6155   6.546   1.048   1.457
 1752SOL    HW2 6156   6.516   1.195   1.521
 1753SOL     OW 6157   6.950   1.527   1.721
 1753SOL    HW1 6158   6.857   1.498   1.743
 1753SOL    HW2 6159   6.987   1.580   1.798
 1754SOL     OW 6160   2.944   5.903   5.736
 1754SOL    HW1 6161   2.986   5.921   5.825
 1754SOL    HW2 6162   2.898   5.814   5.738
 1755SOL     OW 6163   6.429   6.735   5.043
 1755SOL    HW1 6164   6.513   6.681   5.047
 1755SOL    HW2 6165   6.370   6.712   5.120
 1756SOL     OW 6166   5.101   0.320   6.272
 1756SOL    HW1 6167   5.085   0.391   6.341
 1756SOL    HW2 6168   5.025   0.318   6.208
 1757SOL     OW 6169   2.374   5.252   4.152
 1757SOL    HW1 6170   2.339   5.288   4.239
 1757SOL    HW2 6171   2.400   5.157   4.163
 1758SOL     OW 6172   1.816   6.745   5.210
 1758SOL    HW1 6173   1.875   6.667   5.233
 1758SOL    HW2 6174   1.801   6.747   5.111
 1759SOL     OW 6175   1.392   6.145   6.251
 1759SOL    HW1 6176   1.327   6.130   6.176
 1759SOL    HW2 6177   1.372   6.231   6.296
 1760SOL     OW 6178   6.126   0.604   5.018
 1760SOL    HW1 6179   6.172   0.617   4.930
 1760SOL    HW2 6180   6.058   0.677   5.031
 1761SOL     OW 6181   6.879   1.558   1.454
 1761SOL    HW1 6182   6.906   1.521   1.542
 1761SOL    HW2 6183   6.818   1.637   1.467
 1762SOL     OW 6184   0.559   1.461   5.157
 1762SOL    HW1 6185   0.617   1.404   5.100
 1762SOL    HW2 6186   0.616   1.515   5.220
 1763SOL     OW 6187   1.171   4.288   4.768
 1763SOL    HW1 6188   1.099   4.317   4.831
 1763SOL    HW2 6189   1.204   4.368   4.716
 1764SOL     OW 6190   1.444   4.107   2.138
 1764SOL    HW1 6191   1.471   4.178   2.073
 1764SOL    HW2 6192   1.354   4.070   2.112
 1765SOL     OW 6193   4.978   2.653   1.616
 1765SOL    HW1 6194   4.904   2.595   1.653
 1765SOL    HW2 6195   4.961   2.748   1.642
 1766SOL     OW 6196   4.416   4.525   3.601
 1766SOL    HW1 6197   4.338   4.477   3.642
 1766SOL    HW2 6198   4.500   4.497   3.648
 1767SOL     OW 6199   6.887   5.328   2.525
 1767SOL    HW1 6200   6.985   5.344   2.509
 1767SOL    HW2 6201   6.872   5.312   2.623
 1768SOL     OW 6202   4.382   6.160   1.414
 1768SOL    HW1 6203   4.347   6.109   1.335
 1768SOL    HW2 6204   4.443   6.233   1.382
 1769SOL     OW 6205   5.918   0.501   6.692
 1769SOL    HW1 6206   5.873   0.435   6.752
 1769SOL    HW2 6207   5.851   0.542   6.630
 1770SOL     OW 6208   1.303   4.827   5.365
 1770SOL    HW1 6209   1.219   4.853   5.317
 1770SOL    HW2 6210   1.320   4.730   5.350
 1771SOL     OW 6211   1.305   4.460   6.690
 1771SOL    HW1 6212   1.318   4.545   6.741
 1771SOL    HW2 6213   1.284   4.386   6.753
 1772SOL     OW 6214   3.474   5.165   4.000
 1772SOL    HW1 6215   3.485   5.245   3.942
 1772SOL    HW2 6216   3.452   5.085   3.944
 1773SOL     OW 6217   0.838   0.702   4.892
 1773SOL    HW1 6218   0.865   0.653   4.809
 1773SOL    HW2 6219   0.766   0.768   4.870
 1774SOL     OW 6220   6.060   6.578   1.870
 1774SOL    HW1 6221   6.003   6.531   1.802
 1774SOL    HW2 6222   6.068   6.674   1.846
 1775SOL     OW 6223   2.301   5.127   6.418
 1775SOL    HW1 6224   2.359   5.047   6.398
 1775SOL    HW2 6225   2.235   5.140   6.344
 1776SOL     OW 6226   5.114   1.185   5.586
 1776SOL    HW1 6227   5.080   1.236   5.507
 1776SOL    HW2 6228   5.199   1.139   5.562
 1777SOL     OW 6229   4.302   6.558   6.488
 1777SOL    HW1 6230   4.311   6.608   6.574
 1777SOL    HW2 6231   4.206   6.535   6.472
 1778SOL     OW 6232   5.453   1.467   4.159
 1778SOL    HW1 6233   5.519   1.537   4.187
 1778SOL    HW2 6234   5.411   1.494   4.073
 1779SOL     OW 6235   4.837   0.180   5.107
 1779SOL    HW1 6236   4.877   0.109   5.164
 1779SOL    HW2 6237   4.872   0.269   5.136
 1780SOL     OW 6238   1.386   5.267   4.516
 1780SOL    HW1 6239   1.427   5.320   4.590
 1780SOL    HW2 6240   1.436   5.181   4.504
 1781SOL     OW 6241   4.578   0.182   4.413
 1781SOL    HW1 6242   4.653   0.198   4.350
 1781SOL    HW2 6243   4.612   0.138   4.496
 1782SOL     OW 6244   1.783   1.535   3.059
 1782SOL    HW1 6245   1.788   1.634   3.051
 1782SOL    HW2 6246   1.876   1.497   3.061
 1783SOL     OW 6247   2.164   3.500   5.773
 1783SOL    HW1 6248   2.068   3.525   5.762
 1783SOL    HW2 6249   2.219   3.544   5.702
 1784SOL     OW 6250   2.386   0.488   1.196
 1784SOL    HW1 6251   2.455   0.434   1.245
 1784SOL    HW2 6252   2.297   0.441   1.202
 1785SOL     OW 6253   0.531   6.397   4.477
 1785SOL    HW1 6254   0.609   6.350   4.519
 1785SOL    HW2 6255   0.520   6.365   4.383
 1786SOL     OW 6256   1.990   5.563   0.880
 1786SOL    HW1 6257   2.039   5.523   0.958
 1786SOL    HW2 6258   1.892   5.549   0.892
 1787SOL     OW 6259   1.550   2.748   5.488
 1787SOL    HW1 6260   1.638   2.794   5.481
 1787SOL    HW2 6261   1.544   2.701   5.577
 1788SOL     OW 6262   4.324   4.035   0.345
 1788SOL    HW1 6263   4.324   3.947   0.393
 1788SOL    HW2 6264   4.361   4.106   0.404
 1789SOL     OW 6265   6.510   3.303   1.893
 1789SOL    HW1 6266   6.533   3.339   1.983
 1789SOL    HW2 6267   6.437   3.358   1.853
 1790SOL     OW 6268   2.999   2.008   4.444
 1790SOL    HW1 6269   3.021   2.087   4.386
 1790SOL    HW2 6270   2.927   2.034   4.509
 1791SOL     OW 6271   6.376   0.917   3.848
 1791SOL    HW1 6272   6.443   0.973   3.798
 1791SOL    HW2 6273   6.420   0.879   3.930
 1792SOL     OW 6274   6.999   2.285   5.336
 1792SOL    HW1 6275   0.068   2.295   5.384
 1792SOL    HW2 6276   6.934   2.354   5.370
 1793SOL     OW 6277   0.159   1.260   5.229
 1793SOL    HW1 6278   0.203   1.334   5.279
 1793SOL    HW2 6279   0.159   1.177   5.285
 1794SOL     OW 6280   6.559   0.365   6.315
 1794SOL    HW1 6281   6.649   0.385   6.355
 1794SOL    HW2 6282   6.502   0.447   6.321
 1795SOL     OW 6283   5.816   4.695   0.436
 1795SOL    HW1 6284   5.726   4.724   0.404
 1795SOL    HW2 6285   5.885   4.761   0.407
 1796SOL     OW 6286   1.398   0.261   5.361
 1796SOL    HW1 6287   1.471   0.275   5.429
 1796SOL    HW2 6288   1.331   0.335   5.369
 1797SOL     OW 6289   1.832   6.307   4.854
 1797SOL    HW1 6290   1.901   6.376   4.834
 1797SOL    HW2 6291   1.820   6.247   4.774
 1798SOL     OW 6292   3.396   3.465   4.509
 1798SOL    HW1 6293   3.406   3.528   4.586
 1798SOL    HW2 6294   3.314   3.410   4.521
 1799SOL     OW 6295   3.428   0.469   6.489
 1799SOL    HW1 6296   3.512   0.508   6.526
 1799SOL    HW2 6297   3.353   0.534   6.498
 1800SOL     OW 6298   5.214   4.195   3.872
 1800SOL    HW1 6299   5.156   4.159   3.799
 1800SOL    HW2 6300   5.309   4.170   3.854
 1801SOL     OW 6301   1.178   1.277   1.838
 1801SOL    HW1 6302   1.231   1.271   1.923
 1801SOL    HW2 6303   1.228   1.333   1.772
 1802SOL     OW 6304   6.341   4.680   3.537
 1802SOL    HW1 6305   6.310   4.771   3.509
 1802SOL    HW2 6306   6.411   4.689   3.608
 1803SOL     OW 6307   6.917   6.469   2.824
 1803SOL    HW1 6308   6.829   6.486   2.869
 1803SOL    HW2 6309   6.905   6.401   2.751
 1804SOL     OW 6310   3.269   3.667   6.177
 1804SOL    HW1 6311   3.171   3.673   6.197
 1804SOL    HW2 6312   3.282   3.625   6.087
 1805SOL     OW 6313   0.929   6.667   6.317
 1805SOL    HW1 6314   1.007   6.605   6.329
 1805SOL    HW2 6315   0.902   6.669   6.220
 1806SOL     OW 6316   6.612   2.436   2.153
 1806SOL    HW1 6317   6.645   2.379   2.228
 1806SOL    HW2 6318   6.532   2.393   2.111
 1807SOL     OW 6319   6.755   3.985   1.431
 1807SOL    HW1 6320   6.711   3.905   1.472
 1807SOL    HW2 6321   6.786   3.962   1.339
 1808SOL     OW 6322   4.820   2.539   5.537
 1808SOL    HW1 6323   4.831   2.440   5.549
 1808SOL    HW2 6324   4.907   2.579   5.509
 1809SOL     OW 6325   3.944   2.177   5.178
 1809SOL    HW1 6326   3.864   2.136   5.134
 1809SOL    HW2 6327   4.020   2.179   5.113
 1810SOL     OW 6328   6.997   0.062   3.707
 1810SOL    HW1 6329   6.922   0.123   3.683
 1810SOL    HW2 6330   0.047   0.111   3.761
 1811SOL     OW 6331   3.908   5.129   2.373
 1811SOL    HW1 6332   4.002   5.133   2.340
 1811SOL    HW2 6333   3.855   5.202   2.329
 1812SOL     OW 6334   4.337   6.959   6.386
 1812SOL    HW1 6335   4.271   6.997   6.321
 1812SOL    HW2 6336   4.416   0.002   6.393
 1813SOL     OW 6337   4.523   4.844   2.647
 1813SOL    HW1 6338   4.582   4.815   2.572
 1813SOL    HW2 6339   4.516   4.944   2.647
 1814SOL     OW 6340   0.593   6.801   0.771
 1814SOL    HW1 6341   0.637   6.773   0.686
 1814SOL    HW2 6342   0.554   6.892   0.761
 1815SOL     OW 6343   5.626   5.764   2.448
 1815SOL    HW1 6344   5.578   5.751   2.361
 1815SOL    HW2 6345   5.614   5.859   2.478
 1816SOL     OW 6346   4.123   5.946   5.544
 1816SOL    HW1 6347   4.213   5.954   5.586
 1816SOL    HW2 6348   4.127   5.979   5.450
 1817SOL     OW 6349   2.798   1.512   2.984
 1817SOL    HW1 6350   2.804   1.445   2.910
 1817SOL    HW2 6351   2.857   1.484   3.059
 1818SOL     OW 6352   1.848   6.885   0.062
 1818SOL    HW1 6353   1.886   6.853   0.149
 1818SOL    HW2 6354   1.893   6.837   7.005
 1819SOL     OW 6355   0.886   4.551   2.819
 1819SOL    HW1 6356   0.933   4.486   2.760
 1819SOL    HW2 6357   0.853   4.628   2.765
 1820SOL     OW 6358   4.036   0.133   3.478
 1820SOL    HW1 6359   4.122   0.183   3.479
 1820SOL    HW2 6360   4.000   0.127   3.571
 1821SOL     OW 6361   3.409   0.906   1.920
 1821SOL    HW1 6362   3.400   0.807   1.909
 1821SOL    HW2 6363   3.349   0.953   1.854
 1822SOL     OW 6364   0.870   3.461   1.946
 1822SOL    HW1 6365   0.779   3.480   1.908
 1822SOL    HW2 6366   0.898   3.538   2.003
 1823SOL     OW 6367   4.048   6.284   2.372
 1823SOL    HW1 6368   4.104   6.366   2.380
 1823SOL    HW2 6369   4.017   6.274   2.278
 1824SOL     OW 6370   4.114   4.321   1.282
 1824SOL    HW1 6371   4.113   4.222   1.272
 1824SOL    HW2 6372   4.122   4.344   1.379
 1825SOL     OW 6373   1.706   2.378   4.835
 1825SOL    HW1 6374   1.750   2.298   4.796
 1825SOL    HW2 6375   1.624   2.400   4.782
 1826SOL     OW 6376   3.454   1.878   1.770
 1826SOL    HW1 6377   3.527   1.879   1.839
 1826SOL    HW2 6378   3.410   1.967   1.767
 1827SOL     OW 6379   5.567   4.903   0.574
 1827SOL    HW1 6380   5.472   4.932   0.587
 1827SOL    HW2 6381   5.588   4.828   0.637
 1828SOL     OW 6382   1.429   3.624   5.886
 1828SOL    HW1 6383   1.464   3.581   5.969
 1828SOL    HW2 6384   1.493   3.695   5.856
 1829SOL     OW 6385   3.845   0.687   4.050
 1829SOL    HW1 6386   3.832   0.589   4.067
 1829SOL    HW2 6387   3.865   0.733   4.136
 1830SOL     OW 6388   5.924   0.028   4.809
 1830SOL    HW1 6389   5.966   0.014   4.898
 1830SOL    HW2 6390   5.851   0.097   4.818
 1831SOL     OW 6391   5.299   5.040   3.025
 1831SOL    HW1 6392   5.267   5.050   3.119
 1831SOL    HW2 6393   5.221   5.024   2.964
 1832SOL     OW 6394   2.409   3.744   0.533
 1832SOL    HW1 6395   2.428   3.660   0.482
 1832SOL    HW2 6396   2.360   3.808   0.475
 1833SOL     OW 6397   5.164   0.052   1.944
 1833SOL    HW1 6398   5.218   7.010   2.002
 1833SOL    HW2 6399   5.134   0.131   1.998
 1834SOL     OW 6400   2.775   2.190   0.178
 1834SOL    HW1 6401   2.841   2.116   0.162
 1834SOL    HW2 6402   2.793   2.233   0.266
 1835SOL     OW 6403   0.288   5.071   1.291
 1835SOL    HW1 6404   0.214   5.129   1.258
 1835SOL    HW2 6405   0.338   5.032   1.213
 1836SOL     OW 6406   5.785   1.778   1.929
 1836SOL    HW1 6407   5.867   1.786   1.986
 1836SOL    HW2 6408   5.734   1.696   1.956
 1837SOL     OW 6409   2.613   0.902   5.974
 1837SOL    HW1 6410   2.535   0.948   6.018
 1837SOL    HW2 6411   2.619   0.808   6.006
 1838SOL     OW 6412   6.058   0.757   0.526
 1838SOL    HW1 6413   5.978   0.699   0.544
 1838SOL    HW2 6414   6.136   0.700   0.500
 1839SOL     OW 6415   5.842   1.423   0.504
 1839SOL    HW1 6416   5.929   1.472   0.495
 1839SOL    HW2 6417   5.831   1.391   0.598
 1840SOL     OW 6418   3.844   0.301   2.949
 1840SOL    HW1 6419   3.873   0.327   3.041
 1840SOL    HW2 6420   3.922   0.263   2.899
 1841SOL     OW 6421   2.230   0.502   2.118
 1841SOL    HW1 6422   2.287   0.500   2.201
 1841SOL    HW2 6423   2.263   0.575   2.058
 1842SOL     OW 6424   2.017   4.673   0.908
 1842SOL    HW1 6425   1.951   4.616   0.957
 1842SOL    HW2 6426   2.078   4.717   0.973
 1843SOL     OW 6427   3.537   1.476   4.709
 1843SOL    HW1 6428   3.458   1.536   4.721
 1843SOL    HW2 6429   3.596   1.480   4.790
 1844SOL     OW 6430   5.246   1.418   6.255
 1844SOL    HW1 6431   5.264   1.426   6.353
 1844SOL    HW2 6432   5.212   1.505   6.220
 1845SOL     OW 6433   2.259   1.087   3.185
 1845SOL    HW1 6434   2.172   1.132   3.206
 1845SOL    HW2 6435   2.286   1.029   3.262
 1846SOL     OW 6436   4.611   0.986   2.903
 1846SOL    HW1 6437   4.666   1.051   2.956
 1846SOL    HW2 6438   4.668   0.946   2.831
 1847SOL     OW 6439   2.226   0.554   4.488
 1847SOL    HW1 6440   2.298   0.503   4.439
 1847SOL    HW2 6441   2.268   0.629   4.540
 1848SOL     OW 6442   1.997   6.061   4.367
 1848SOL    HW1 6443   1.998   6.124   4.290
 1848SOL    HW2 6444   2.035   5.973   4.340
 1849SOL     OW 6445   4.500   2.393   2.490
 1849SOL    HW1 6446   4.542   2.483   2.481
 1849SOL    HW2 6447   4.567   2.328   2.525
 1850SOL     OW 6448   5.406   2.423   2.178
 1850SOL    HW1 6449   5.351   2.505   2.160
 1850SOL    HW2 6450   5.422   2.375   2.091
 1851SOL     OW 6451   0.104   2.961   6.251
 1851SOL    HW1 6452   0.083   2.905   6.331
 1851SOL    HW2 6453   0.160   3.039   6.278
 1852SOL     OW 6454   1.513   4.331   2.333
 1852SOL    HW1 6455   1.465   4.281   2.261
 1852SOL    HW2 6456   1.449   4.350   2.408
 1853SOL     OW 6457   0.412   3.157   4.540
 1853SOL    HW1 6458   0.394   3.157   4.441
 1853SOL    HW2 6459   0.401   3.250   4.575
 1854SOL     OW 6460   0.673   5.699   3.331
 1854SOL    HW1 6461   0.706   5.775   3.275
 1854SOL    HW2 6462   0.689   5.719   3.428
 1855SOL     OW 6463   4.914   3.363   4.583
 1855SOL    HW1 6464   4.901   3.329   4.676
 1855SOL    HW2 6465   4.916   3.287   4.519
 1856SOL     OW 6466   3.838   3.402   7.002
 1856SOL    HW1 6467   3.876   3.311   0.003
 1856SOL    HW2 6468   3.796   3.439   0.066
 1857SOL     OW 6469   5.156   0.781   0.247
 1857SOL    HW1 6470   5.109   0.856   0.295
 1857SOL    HW2 6471   5.255   0.788   0.261
 1858SOL     OW 6472   4.423   2.113   4.225
 1858SOL    HW1 6473   4.496   2.053   4.257
 1858SOL    HW2 6474   4.432   2.125   4.126
 1859SOL     OW 6475   5.779   1.841   5.102
 1859SOL    HW1 6476   5.729   1.756   5.117
 1859SOL    HW2 6477   5.736   1.892   5.027
 1860SOL     OW 6478   0.757   1.759   4.856
 1860SOL    HW1 6479   0.695   1.758   4.935
 1860SOL    HW2 6480   0.849   1.737   4.886
 1861SOL     OW 6481   6.099   0.910   2.473
 1861SOL    HW1 6482   6.166   0.888   2.544
 1861SOL    HW2 6483   6.070   1.005   2.484
 1862SOL     OW 6484   2.038   6.425   6.992
 1862SOL    HW1 6485   1.961   6.400   6.933
 1862SOL    HW2 6486   2.004   6.443   0.066
 1863SOL     OW 6487   0.387   3.059   1.163
 1863SOL    HW1 6488   0.302   3.011   1.139
 1863SOL    HW2 6489   0.377   3.156   1.142
 1864SOL     OW 6490   3.001   6.146   3.677
 1864SOL    HW1 6491   3.090   6.170   3.716
 1864SOL    HW2 6492   2.984   6.048   3.691
 1865SOL     OW 6493   4.829   1.284   6.881
 1865SOL    HW1 6494   4.777   1.328   6.954
 1865SOL    HW2 6495   4.870   1.200   6.916
 1866SOL     OW 6496   0.802   4.428   4.140
 1866SOL    HW1 6497   0.805   4.457   4.235
 1866SOL    HW2 6498   0.885   4.376   4.118
 1867SOL     OW 6499   2.516   2.031   1.446
 1867SOL    HW1 6500   2.455   1.976   1.389
 1867SOL    HW2 6501   2.502   2.007   1.542
 1868SOL     OW 6502   5.685   4.171   5.611
 1868SOL    HW1 6503   5.631   4.174   5.695
 1868SOL    HW2 6504   5.630   4.205   5.535
 1869SOL     OW 6505   4.503   2.201   3.971
 1869SOL    HW1 6506   4.599   2.176   3.981
 1869SOL    HW2 6507   4.495   2.299   3.952
 1870SOL     OW 6508   1.380   4.421   4.255
 1870SOL    HW1 6509   1.322   4.341   4.237
 1870SOL    HW2 6510   1.462   4.415   4.198
 1871SOL     OW 6511   0.834   6.877   0.328
 1871SOL    HW1 6512   0.847   6.818   0.407
 1871SOL    HW2 6513   0.909   6.864   0.263
 1872SOL     OW 6514   3.352   1.924   0.522
 1872SOL    HW1 6515   3.342   1.968   0.433
 1872SOL    HW2 6516   3.430   1.963   0.570
 1873SOL     OW 6517   6.413   0.612   6.768
 1873SOL    HW1 6518   6.458   0.572   6.848
 1873SOL    HW2 6519   6.356   0.543   6.724
 1874SOL     OW 6520   1.033   6.340   6.009
 1874SOL    HW1 6521   0.936   6.355   6.028
 1874SOL    HW2 6522   1.046   6.248   5.973
 1875SOL     OW 6523   6.601   5.678   6.833
 1875SOL    HW1 6524   6.529   5.729   6.880
 1875SOL    HW2 6525   6.585   5.580   6.845
 1876SOL     OW 6526   5.754   6.498   6.205
 1876SOL    HW1 6527   5.731   6.586   6.164
 1876SOL    HW2 6528   5.674   6.437   6.199
 1877SOL     OW 6529   0.371   1.613   2.242
 1877SOL    HW1 6530   0.338   1.589   2.334
 1877SOL    HW2 6531   0.376   1.531   2.186
 1878SOL     OW 6532   0.593   4.199   3.367
 1878SOL    HW1 6533   0.687   4.231   3.355
 1878SOL    HW2 6534   0.541   4.266   3.421
 1879SOL     OW 6535   2.996   5.197   4.859
 1879SOL    HW1 6536   3.026   5.283   4.901
 1879SOL    HW2 6537   3.024   5.120   4.915
 1880SOL     OW 6538   0.067   2.458   3.504
 1880SOL    HW1 6539   0.136   2.439   3.574
 1880SOL    HW2 6540   0.104   2.522   3.437
 1881SOL     OW 6541   0.749   2.364   4.068
 1881SOL    HW1 6542   0.717   2.291   4.008
 1881SOL    HW2 6543   0.788   2.325   4.151
 1882SOL     OW 6544   1.166   5.917   0.010
 1882SOL    HW1 6545   1.078   5.954   0.041
 1882SOL    HW2 6546   1.166   5.912   6.928
 1883SOL     OW 6547   1.357   4.032   2.759
 1883SOL    HW1 6548   1.286   4.071   2.700
 1883SOL    HW2 6549   1.341   4.060   2.854
 1884SOL     OW 6550   3.141   1.140   0.500
 1884SOL    HW1 6551   3.082   1.107   0.426
 1884SOL    HW2 6552   3.234   1.151   0.466
 1885SOL     OW 6553   6.983   2.617   0.643
 1885SOL    HW1 6554   0.019   2.533   0.631
 1885SOL    HW2 6555   6.997   2.652   0.735
 1886SOL     OW 6556   2.088   1.641   6.642
 1886SOL    HW1 6557   2.158   1.569   6.648
 1886SOL    HW2 6558   1.998   1.600   6.651
 1887SOL     OW 6559   0.895   5.667   5.771
 1887SOL    HW1 6560   0.936   5.729   5.704
 1887SOL    HW2 6561   0.803   5.699   5.794
 1888SOL     OW 6562   1.958   1.812   5.498
 1888SOL    HW1 6563   1.972   1.863   5.583
 1888SOL    HW2 6564   1.960   1.714   5.517
 1889SOL     OW 6565   4.471   2.850   0.280
 1889SOL    HW1 6566   4.490   2.799   0.364
 1889SOL    HW2 6567   4.506   2.799   0.201
 1890SOL     OW 6568   0.888   5.706   6.348
 1890SOL    HW1 6569   0.862   5.756   6.265
 1890SOL    HW2 6570   0.824   5.631   6.364
 1891SOL     OW 6571   5.666   3.433   5.665
 1891SOL    HW1 6572   5.632   3.495   5.594
 1891SOL    HW2 6573   5.757   3.462   5.693
 1892SOL     OW 6574   3.698   5.713   0.986
 1892SOL    HW1 6575   3.659   5.804   0.969
 1892SOL    HW2 6576   3.624   5.649   1.006
 1893SOL     OW 6577   3.582   2.134   3.723
 1893SOL    HW1 6578   3.647   2.100   3.654
 1893SOL    HW2 6579   3.628   2.145   3.810
 1894SOL     OW 6580   4.493   3.779   1.646
 1894SOL    HW1 6581   4.534   3.702   1.695
 1894SOL    HW2 6582   4.430   3.745   1.576
 1895SOL     OW 6583   6.234   0.909   2.214
 1895SOL    HW1 6584   6.188   0.876   2.297
 1895SOL    HW2 6585   6.184   0.879   2.133
 1896SOL     OW 6586   6.004   1.666   4.777
 1896SOL    HW1 6587   6.062   1.680   4.857
 1896SOL    HW2 6588   6.062   1.661   4.695
 1897SOL     OW 6589   6.181   4.910   3.414
 1897SOL    HW1 6590   6.186   4.975   3.490
 1897SOL    HW2 6591   6.246   4.936   3.343
 1898SOL     OW 6592   5.698   5.785   0.851
 1898SOL    HW1 6593   5.749   5.832   0.922
 1898SOL    HW2 6594   5.614   5.747   0.891
 1899SOL     OW 6595   0.397   3.048   3.153
 1899SOL    HW1 6596   0.402   3.021   3.057
 1899SOL    HW2 6597   0.441   2.979   3.209
 1900SOL     OW 6598   1.601   6.258   6.134
 1900SOL    HW1 6599   1.669   6.278   6.205
 1900SOL    HW2 6600   1.515   6.230   6.177
 1901SOL     OW 6601   1.922   0.338   7.016
 1901SOL    HW1 6602   1.879   0.422   6.983
 1901SOL    HW2 6603   1.971   0.293   6.941
 1902SOL     OW 6604   0.874   3.193   4.040
 1902SOL    HW1 6605   0.908   3.146   4.122
 1902SOL    HW2 6606   0.814   3.268   4.068
 1903SOL     OW 6607   6.509   4.368   3.341
 1903SOL    HW1 6608   6.580   4.335   3.279
 1903SOL    HW2 6609   6.546   4.443   3.397
 1904SOL     OW 6610   0.341   0.139   4.314
 1904SOL    HW1 6611   0.369   0.233   4.295
 1904SOL    HW2 6612   0.422   0.082   4.325
 1905SOL     OW 6613   6.983   2.432   4.140
 1905SOL    HW1 6614   6.985   2.458   4.236
 1905SOL    HW2 6615   0.047   2.380   4.117
 1906SOL     OW 6616   2.416   0.007   6.055
 1906SOL    HW1 6617   2.484   6.973   6.004
 1906SOL    HW2 6618   2.394   6.978   6.140
 1907SOL     OW 6619   3.194   6.590   3.332
 1907SOL    HW1 6620   3.150   6.501   3.327
 1907SOL    HW2 6621   3.203   6.628   3.241
 1908SOL     OW 6622   4.461   0.597   5.992
 1908SOL    HW1 6623   4.454   0.506   6.031
 1908SOL    HW2 6624   4.471   0.664   6.065
 1909SOL     OW 6625   2.442   4.504   4.866
 1909SOL    HW1 6626   2.374   4.431   4.869
 1909SOL    HW2 6627   2.442   4.546   4.775
 1910SOL     OW 6628   5.239   2.376   6.645
 1910SOL    HW1 6629   5.159   2.316   6.639
 1910SOL    HW2 6630   5.320   2.321   6.669
 1911SOL     OW 6631   6.552   2.407   5.277
 1911SOL    HW1 6632   6.603   2.359   5.206
 1911SOL    HW2 6633   6.555   2.505   5.261
 1912SOL     OW 6634   3.188   6.592   2.443
 1912SOL    HW1 6635   3.185   6.628   2.350
 1912SOL    HW2 6636   3.272   6.622   2.488
 1913SOL     OW 6637   2.059   6.032   5.156
 1913SOL    HW1 6638   1.986   6.027   5.224
 1913SOL    HW2 6639   2.075   6.127   5.131
 1914SOL     OW 6640   2.497   2.554   6.185
 1914SOL    HW1 6641   2.450   2.619   6.125
 1914SOL    HW2 6642   2.596   2.559   6.169
 1915SOL     OW 6643   3.965   0.702   6.220
 1915SOL    HW1 6644   3.888   0.638   6.222
 1915SOL    HW2 6645   4.051   0.651   6.226
 1916SOL     OW 6646   3.923   5.746   1.270
 1916SOL    HW1 6647   3.900   5.649   1.273
 1916SOL    HW2 6648   3.979   5.770   1.349
 1917SOL     OW 6649   3.228   4.064   4.477
 1917SOL    HW1 6650   3.291   4.097   4.407
 1917SOL    HW2 6651   3.255   4.097   4.567
 1918SOL     OW 6652   5.860   6.348   5.858
 1918SOL    HW1 6653   5.922   6.419   5.891
 1918SOL    HW2 6654   5.904   6.259   5.864
 1919SOL     OW 6655   0.834   6.356   2.576
 1919SOL    HW1 6656   0.812   6.269   2.532
 1919SOL    HW2 6657   0.797   6.431   2.520
 1920SOL     OW 6658   0.338   4.982   3.295
 1920SOL    HW1 6659   0.364   4.942   3.383
 1920SOL    HW2 6660   0.281   5.062   3.310
 1921SOL     OW 6661   1.388   6.041   6.978
 1921SOL    HW1 6662   1.454   6.033   0.035
 1921SOL    HW2 6663   1.299   6.009   7.009
 1922SOL     OW 6664   4.041   3.271   1.366
 1922SOL    HW1 6665   3.996   3.344   1.316
 1922SOL    HW2 6666   3.991   3.186   1.353
 1923SOL     OW 6667   2.378   1.050   0.890
 1923SOL    HW1 6668   2.452   1.110   0.858
 1923SOL    HW2 6669   2.341   1.086   0.976
 1924SOL     OW 6670   6.633   4.633   1.861
 1924SOL    HW1 6671   6.604   4.712   1.807
 1924SOL    HW2 6672   6.561   4.609   1.926
 1925SOL     OW 6673   3.328   3.824   1.870
 1925SOL    HW1 6674   3.278   3.749   1.914
 1925SOL    HW2 6675   3.312   3.909   1.920
 1926SOL     OW 6676   1.456   0.203   4.831
 1926SOL    HW1 6677   1.486   0.263   4.904
 1926SOL    HW2 6678   1.473   0.108   4.856
 1927SOL     OW 6679   4.214   3.436   6.681
 1927SOL    HW1 6680   4.182   3.531   6.678
 1927SOL    HW2 6681   4.253   3.417   6.771
 1928SOL     OW 6682   6.691   3.475   6.111
 1928SOL    HW1 6683   6.727   3.458   6.203
 1928SOL    HW2 6684   6.624   3.549   6.115
 1929SOL     OW 6685   1.503   6.444   1.806
 1929SOL    HW1 6686   1.563   6.493   1.742
 1929SOL    HW2 6687   1.427   6.402   1.754
 1930SOL     OW 6688   6.578   4.281   6.770
 1930SOL    HW1 6689   6.661   4.332   6.750
 1930SOL    HW2 6690   6.508   4.303   6.702
 1931SOL     OW 6691   7.018   3.739   2.921
 1931SOL    HW1 6692   0.073   3.796   2.882
 1931SOL    HW2 6693   7.005   3.763   3.017
 1932SOL     OW 6694   5.151   3.964   2.118
 1932SOL    HW1 6695   5.183   3.908   2.041
 1932SOL    HW2 6696   5.051   3.965   2.118
 1933SOL     OW 6697   3.132   4.363   0.448
 1933SOL    HW1 6698   3.112   4.272   0.484
 1933SOL    HW2 6699   3.109   4.432   0.516
 1934SOL     OW 6700   1.115   0.492   5.781
 1934SOL    HW1 6701   1.171   0.488   5.698
 1934SOL    HW2 6702   1.172   0.468   5.860
 1935SOL     OW 6703   2.345   6.976   4.408
 1935SOL    HW1 6704   2.400   6.959   4.326
 1935SOL    HW2 6705   2.262   0.007   4.383
 1936SOL     OW 6706   5.490   5.938   4.576
 1936SOL    HW1 6707   5.542   5.942   4.661
 1936SOL    HW2 6708   5.530   5.870   4.515
 1937SOL     OW 6709   3.997   6.905   1.547
 1937SOL    HW1 6710   3.996   6.812   1.585
 1937SOL    HW2 6711   3.993   6.901   1.448
 1938SOL     OW 6712   3.627   1.322   3.635
 1938SOL    HW1 6713   3.557   1.282   3.576
 1938SOL    HW2 6714   3.598   1.313   3.731
 1939SOL     OW 6715   1.442   1.000   3.647
 1939SOL    HW1 6716   1.503   1.037   3.717
 1939SOL    HW2 6717   1.351   0.987   3.686
 1940SOL     OW 6718   5.514   5.369   0.033
 1940SOL    HW1 6719   5.438   5.344   6.992
 1940SOL    HW2 6720   5.584   5.297   0.030
 1941SOL     OW 6721   6.277   4.028   3.220
 1941SOL    HW1 6722   6.323   4.091   3.158
 1941SOL    HW2 6723   6.258   3.942   3.172
 1942SOL     OW 6724   6.082   5.651   1.892
 1942SOL    HW1 6725   6.024   5.597   1.830
 1942SOL    HW2 6726   6.143   5.590   1.942
 1943SOL     OW 6727   2.836   5.476   3.055
 1943SOL    HW1 6728   2.754   5.466   3.112
 1943SOL    HW2 6729   2.853   5.390   3.006
 1944SOL     OW 6730   5.578   1.845   6.406
 1944SOL    HW1 6731   5.479   1.845   6.394
 1944SOL    HW2 6732   5.623   1.821   6.320
 1945SOL     OW 6733   4.987   5.706   2.987
 1945SOL    HW1 6734   4.967   5.628   3.047
 1945SOL    HW2 6735   4.971   5.680   2.892
 1946SOL     OW 6736   1.631   0.382   0.976
 1946SOL    HW1 6737   1.633   0.436   0.892
 1946SOL    HW2 6738   1.546   0.329   0.980
 1947SOL     OW 6739   5.516   6.499   5.088
 1947SOL    HW1 6740   5.530   6.457   4.998
 1947SOL    HW2 6741   5.485   6.429   5.153
 1948SOL     OW 6742   6.990   5.173   4.539
 1948SOL    HW1 6743   6.996   5.262   4.493
 1948SOL    HW2 6744   6.942   5.184   4.626
 1949SOL     OW 6745   4.265   4.419   6.166
 1949SOL    HW1 6746   4.285   4.496   6.226
 1949SOL    HW2 6747   4.195   4.445   6.100
 1950SOL     OW 6748   3.809   3.708   6.585
 1950SOL    HW1 6749   3.800   3.624   6.531
 1950SOL    HW2 6750   3.720   3.732   6.624
 1951SOL     OW 6751   5.855   2.318   0.246
 1951SOL    HW1 6752   5.828   2.222   0.249
 1951SOL    HW2 6753   5.952   2.326   0.225
 1952SOL     OW 6754   3.558   1.927   0.720
 1952SOL    HW1 6755   3.526   2.005   0.773
 1952SOL    HW2 6756   3.644   1.950   0.674
 1953SOL     OW 6757   6.866   2.286   0.057
 1953SOL    HW1 6758   6.933   2.341   0.007
 1953SOL    HW2 6759   6.913   2.232   0.127
 1954SOL     OW 6760   5.209   1.744   3.915
 1954SOL    HW1 6761   5.304   1.714   3.921
 1954SOL    HW2 6762   5.205   1.844   3.919
 1955SOL     OW 6763   1.576   0.315   2.055
 1955SOL    HW1 6764   1.559   0.217   2.064
 1955SOL    HW2 6765   1.563   0.343   1.959
 1956SOL     OW 6766   5.128   6.208   2.806
 1956SOL    HW1 6767   5.089   6.181   2.718
 1956SOL    HW2 6768   5.096   6.146   2.877
 1957SOL     OW 6769   0.057   5.823   4.812
 1957SOL    HW1 6770   6.990   5.771   4.812
 1957SOL    HW2 6771   0.114   5.792   4.889
 1958SOL     OW 6772   5.639   3.496   4.670
 1958SOL    HW1 6773   5.680   3.465   4.584
 1958SOL    HW2 6774   5.563   3.435   4.694
 1959SOL     OW 6775   0.615   2.564   5.442
 1959SOL    HW1 6776   0.521   2.583   5.413
 1959SOL    HW2 6777   0.628   2.596   5.536
 1960SOL     OW 6778   6.554   4.791   0.806
 1960SOL    HW1 6779   6.475   4.842   0.843
 1960SOL    HW2 6780   6.635   4.812   0.861
 1961SOL     OW 6781   5.852   5.016   4.588
 1961SOL    HW1 6782   5.907   4.941   4.624
 1961SOL    HW2 6783   5.759   5.010   4.623
 1962SOL     OW 6784   1.442   6.431   3.851
 1962SOL    HW1 6785   1.397   6.516   3.879
 1962SOL    HW2 6786   1.373   6.364   3.824
 1963SOL     OW 6787   0.506   0.698   1.652
 1963SOL    HW1 6788   0.496   0.664   1.559
 1963SOL    HW2 6789   0.599   0.733   1.665
 1964SOL     OW 6790   4.592   2.784   1.449
 1964SOL    HW1 6791   4.630   2.769   1.539
 1964SOL    HW2 6792   4.638   2.725   1.382
 1965SOL     OW 6793   0.866   3.079   2.529
 1965SOL    HW1 6794   0.841   3.064   2.434
 1965SOL    HW2 6795   0.965   3.067   2.539
 1966SOL     OW 6796   0.442   5.217   4.744
 1966SOL    HW1 6797   0.491   5.304   4.733
 1966SOL    HW2 6798   0.482   5.148   4.684
 1967SOL     OW 6799   4.576   2.424   5.862
 1967SOL    HW1 6800   4.555   2.522   5.856
 1967SOL    HW2 6801   4.643   2.409   5.934
 1968SOL     OW 6802   3.040   6.029   6.946
 1968SOL    HW1 6803   3.038   5.929   6.948
 1968SOL    HW2 6804   3.014   6.065   0.017
 1969SOL     OW 6805   6.504   2.404   1.394
 1969SOL    HW1 6806   6.430   2.434   1.333
 1969SOL    HW2 6807   6.578   2.471   1.391
 1970SOL     OW 6808   1.980   0.532   5.893
 1970SOL    HW1 6809   1.887   0.512   5.925
 1970SOL    HW2 6810   1.998   0.630   5.903
 1971SOL     OW 6811   7.003   6.858   6.655
 1971SOL    HW1 6812   7.001   6.901   6.565
 1971SOL    HW2 6813   0.075   6.872   6.697
 1972SOL     OW 6814   0.470   3.276   3.327
 1972SOL    HW1 6815   0.440   3.202   3.268
 1972SOL    HW2 6816   0.492   3.239   3.418
 1973SOL     OW 6817   3.584   2.714   1.820
 1973SOL    HW1 6818   3.511   2.756   1.874
 1973SOL    HW2 6819   3.658   2.779   1.807
 1974SOL     OW 6820   5.921   6.190   3.803
 1974SOL    HW1 6821   6.004   6.225   3.847
 1974SOL    HW2 6822   5.841   6.221   3.855
 1975SOL     OW 6823   2.149   0.528   3.901
 1975SOL    HW1 6824   2.196   0.444   3.928
 1975SOL    HW2 6825   2.185   0.605   3.953
 1976SOL     OW 6826   0.481   6.040   0.390
 1976SOL    HW1 6827   0.542   6.027   0.467
 1976SOL    HW2 6828   0.411   6.108   0.414
 1977SOL     OW 6829   0.656   2.893   3.882
 1977SOL    HW1 6830   0.652   2.794   3.900
 1977SOL    HW2 6831   0.568   2.923   3.846
 1978SOL     OW 6832   1.159   1.351   4.304
 1978SOL    HW1 6833   1.123   1.415   4.371
 1978SOL    HW2 6834   1.253   1.328   4.326
 1979SOL     OW 6835   0.024   4.613   5.262
 1979SOL    HW1 6836   6.950   4.646   5.243
 1979SOL    HW2 6837   0.050   4.640   5.355
 1980SOL     OW 6838   3.229   0.362   0.688
 1980SOL    HW1 6839   3.215   0.305   0.607
 1980SOL    HW2 6840   3.174   0.445   0.680
 1981SOL     OW 6841   5.299   2.333   2.431
 1981SOL    HW1 6842   5.343   2.250   2.465
 1981SOL    HW2 6843   5.325   2.349   2.336
 1982SOL     OW 6844   6.137   4.994   5.396
 1982SOL    HW1 6845   6.216   4.953   5.351
 1982SOL    HW2 6846   6.156   5.090   5.418
 1983SOL     OW 6847   1.001   2.508   3.208
 1983SOL    HW1 6848   1.054   2.428   3.238
 1983SOL    HW2 6849   1.061   2.570   3.157
 1984SOL     OW 6850   4.624   1.864   5.869
 1984SOL    HW1 6851   4.622   1.963   5.854
 1984SOL    HW2 6852   4.621   1.817   5.781
 1985SOL     OW 6853   1.338   1.415   2.432
 1985SOL    HW1 6854   1.332   1.361   2.516
 1985SOL    HW2 6855   1.293   1.503   2.446
 1986SOL     OW 6856   1.275   1.552   6.990
 1986SOL    HW1 6857   1.263   1.598   6.902
 1986SOL    HW2 6858   1.286   1.621   0.044
 1987SOL     OW 6859   2.876   2.899   1.685
 1987SOL    HW1 6860   2.908   2.808   1.709
 1987SOL    HW2 6861   2.937   2.968   1.723
 1988SOL     OW 6862   5.051   4.391   0.224
 1988SOL    HW1 6863   5.136   4.339   0.235
 1988SOL    HW2 6864   5.043   4.457   0.299
 1989SOL     OW 6865   2.126   0.303   4.617
 1989SOL    HW1 6866   2.045   0.246   4.603
 1989SOL    HW2 6867   2.130   0.374   4.546
 1990SOL     OW 6868   3.339   0.388   1.917
 1990SOL    HW1 6869   3.430   0.346   1.920
 1990SOL    HW2 6870   3.298   0.371   1.828
 1991SOL     OW 6871   3.548   5.505   5.619
 1991SOL    HW1 6872   3.490   5.584   5.599
 1991SOL    HW2 6873   3.492   5.432   5.658
 1992SOL     OW 6874   2.987   0.079   5.745
 1992SOL    HW1 6875   2.988   6.999   5.762
 1992SOL    HW2 6876   2.927   0.124   5.811
 1993SOL     OW 6877   3.862   3.555   5.610
 1993SOL    HW1 6878   3.809   3.494   5.669
 1993SOL    HW2 6879   3.937   3.503   5.568
 1994SOL     OW 6880   0.882   2.274   2.033
 1994SOL    HW1 6881   0.908   2.210   2.106
 1994SOL    HW2 6882   0.950   2.270   1.960
 1995SOL     OW 6883   6.303   2.130   2.487
 1995SOL    HW1 6884   6.397   2.125   2.519
 1995SOL    HW2 6885   6.293   2.209   2.426
 1996SOL     OW 6886   3.056   2.763   1.083
 1996SOL    HW1 6887   3.071   2.816   1.167
 1996SOL    HW2 6888   2.997   2.685   1.103
 1997SOL     OW 6889   5.468   0.949   5.356
 1997SOL    HW1 6890   5.405   0.873   5.364
 1997SOL    HW2 6891   5.561   0.915   5.342
 1998SOL     OW 6892   3.028   3.849   6.401
 1998SOL    HW1 6893   3.127   3.839   6.408
 1998SOL    HW2 6894   2.984   3.797   6.475
 1999SOL     OW 6895   2.548   0.573   1.941
 1999SOL    HW1 6896   2.541   0.473   1.941
 1999SOL    HW2 6897   2.629   0.600   1.889
 2000SOL     OW 6898   4.186   1.479   5.069
 2000SOL    HW1 6899   4.188   1.440   5.161
 2000SOL    HW2 6900   4.217   1.574   5.073
 2001SOL     OW 6901   3.400   2.151   1.841
 2001SOL    HW1 6902   3.441   2.215   1.906
 2001SOL    HW2 6903   3.365   2.200   1.762
 2002SOL     OW 6904   1.337   6.379   6.377
 2002SOL    HW1 6905   1.340   6.366   6.476
 2002SOL    HW2 6906   1.404   6.449   6.351
 2003SOL     OW 6907   4.730   0.390   3.783
 2003SOL    HW1 6908   4.762   0.297   3.795
 2003SOL    HW2 6909   4.674   0.417   3.861
 2004SOL     OW 6910   4.856   1.017   4.672
 2004SOL    HW1 6911   4.824   0.943   4.613
 2004SOL    HW2 6912   4.955   1.025   4.665
 2005SOL     OW 6913   1.792   6.034   6.689
 2005SOL    HW1 6914   1.699   6.065   6.705
 2005SOL    HW2 6915   1.793   5.934   6.679
 2006SOL     OW 6916   5.080   4.407   3.650
 2006SOL    HW1 6917   5.046   4.379   3.740
 2006SOL    HW2 6918   5.126   4.495   3.658
 2007SOL     OW 6919   4.904   5.303   0.318
 2007SOL    HW1 6920   4.931   5.207   0.315
 2007SOL    HW2 6921   4.879   5.327   0.412
 2008SOL     OW 6922   0.333   5.885   3.780
 2008SOL    HW1 6923   0.247   5.841   3.751
 2008SOL    HW2 6924   0.404   5.865   3.714
 2009SOL     OW 6925   6.420   0.412   2.012
 2009SOL    HW1 6926   6.398   0.454   1.924
 2009SOL    HW2 6927   6.436   0.484   2.080
 2010SOL     OW 6928   1.880   1.067   0.960
 2010SOL    HW1 6929   1.797   1.044   1.011
 2010SOL    HW2 6930   1.953   1.003   0.985
 2011SOL     OW 6931   6.622   2.589   4.690
 2011SOL    HW1 6932   6.665   2.606   4.779
 2011SOL    HW2 6933   6.523   2.592   4.700
 2012SOL     OW 6934   0.888   3.445   1.276
 2012SOL    HW1 6935   0.896   3.540   1.308
 2012SOL    HW2 6936   0.977   3.413   1.244
 2013SOL     OW 6937   5.427   1.549   2.878
 2013SOL    HW1 6938   5.391   1.491   2.805
 2013SOL    HW2 6939   5.500   1.607   2.842
 2014SOL     OW 6940   1.113   5.741   3.600
 2014SOL    HW1 6941   1.070   5.653   3.624
 2014SOL    HW2 6942   1.126   5.795   3.683
 2015SOL     OW 6943   3.207   1.175   6.651
 2015SOL    HW1 6944   3.109   1.156   6.647
 2015SOL    HW2 6945   3.232   1.236   6.577
 2016SOL     OW 6946   0.629   5.420   4.720
 2016SOL    HW1 6947   0.613   5.495   4.785
 2016SOL    HW2 6948   0.722   5.385   4.731
 2017SOL     OW 6949   3.437   6.691   3.638
 2017SOL    HW1 6950   3.451   6.744   3.555
 2017SOL    HW2 6951   3.525   6.653   3.668
 2018SOL     OW 6952   6.719   5.402   5.642
 2018SOL    HW1 6953   6.685   5.308   5.652
 2018SOL    HW2 6954   6.802   5.413   5.695
 2019SOL     OW 6955   5.294   2.562   1.676
 2019SOL    HW1 6956   5.208   2.608   1.652
 2019SOL    HW2 6957   5.316   2.495   1.605
 2020SOL     OW 6958   1.333   5.154   4.839
 2020SOL    HW1 6959   1.411   5.096   4.814
 2020SOL    HW2 6960   1.248   5.106   4.816
 2021SOL     OW 6961   2.237   0.033   2.742
 2021SOL    HW1 6962   2.279   0.117   2.710
 2021SOL    HW2 6963   2.206   0.044   2.837
 2022SOL     OW 6964   1.704   3.835   1.906
 2022SOL    HW1 6965   1.726   3.885   1.822
 2022SOL    HW2 6966   1.762   3.753   1.911
 2023SOL     OW 6967   0.190   1.921   0.167
 2023SOL    HW1 6968   0.149   2.012   0.164
 2023SOL    HW2 6969   0.137   1.863   0.229
 2024SOL     OW 6970   6.770   0.981   2.622
 2024SOL    HW1 6971   6.681   0.986   2.666
 2024SOL    HW2 6972   6.781   1.059   2.560
 2025SOL     OW 6973   1.621   2.294   1.848
 2025SOL    HW1 6974   1.546   2.359   1.853
 2025SOL    HW2 6975   1.685   2.310   1.923
 2026SOL     OW 6976   1.898   2.264   6.148
 2026SOL    HW1 6977   1.979   2.279   6.204
 2026SOL    HW2 6978   1.819   2.251   6.207
 2027SOL     OW 6979   0.846   1.134   1.175
 2027SOL    HW1 6980   0.869   1.223   1.214
 2027SOL    HW2 6981   0.929   1.089   1.142
 2028SOL     OW 6982   3.538   1.470   0.529
 2028SOL    HW1 6983   3.455   1.522   0.508
 2028SOL    HW2 6984   3.583   1.444   0.443
 2029SOL     OW 6985   0.663   0.395   6.788
 2029SOL    HW1 6986   0.583   0.372   6.844
 2029SOL    HW2 6987   0.632   0.438   6.703
 2030SOL     OW 6988   1.492   2.579   3.365
 2030SOL    HW1 6989   1.492   2.482   3.339
 2030SOL    HW2 6990   1.457   2.589   3.458
 2031SOL     OW 6991   5.506   6.065   2.192
 2031SOL    HW1 6992   5.440   6.117   2.137
 2031SOL    HW2 6993   5.511   6.105   2.284
 2032SOL     OW 6994   5.619   6.220   0.966
 2032SOL    HW1 6995   5.624   6.137   0.912
 2032SOL    HW2 6996   5.523   6.244   0.982
 2033SOL     OW 6997   4.061   4.359   6.468
 2033SOL    HW1 6998   4.027   4.366   6.561
 2033SOL    HW2 6999   3.984   4.352   6.404
 2034SOL     OW 7000   1.718   6.499   3.830
 2034SOL    HW1 7001   1.789   6.429   3.836
 2034SOL    HW2 7002   1.628   6.456   3.844
 2035SOL     OW 7003   6.760   1.924   2.718
 2035SOL    HW1 7004   6.713   1.853   2.770
 2035SOL    HW2 7005   6.812   1.883   2.643
 2036SOL     OW 7006   0.301   5.913   1.796
 2036SOL    HW1 7007   0.348   6.000   1.782
 2036SOL    HW2 7008   0.257   5.884   1.711
 2037SOL     OW 7009   6.638   2.363   5.905
 2037SOL    HW1 7010   6.628   2.292   5.836
 2037SOL    HW2 7011   6.597   2.332   5.991
 2038SOL     OW 7012   0.573   1.852   6.713
 2038SOL    HW1 7013   0.524   1.829   6.797
 2038SOL    HW2 7014   0.531   1.805   6.635
 2039SOL     OW 7015   0.396   5.655   3.020
 2039SOL    HW1 7016   0.416   5.600   3.100
 2039SOL    HW2 7017   0.355   5.598   2.949
 2040SOL     OW 7018   3.313   2.843   5.010
 2040SOL    HW1 7019   3.269   2.753   5.010
 2040SOL    HW2 7020   3.324   2.875   4.916
 2041SOL     OW 7021   6.352   5.551   6.459
 2041SOL    HW1 7022   6.402   5.464   6.462
 2041SOL    HW2 7023   6.340   5.578   6.363
 2042SOL     OW 7024   5.730   5.193   0.025
 2042SOL    HW1 7025   5.787   5.181   6.963
 2042SOL    HW2 7026   5.739   5.113   0.084
 2043SOL     OW 7027   6.531   5.556   2.051
 2043SOL    HW1 7028   6.449   5.513   2.088
 2043SOL    HW2 7029   6.612   5.507   2.083
 2044SOL     OW 7030   4.965   0.401   1.968
 2044SOL    HW1 7031   5.020   0.338   2.023
 2044SOL    HW2 7032   5.003   0.494   1.976
 2045SOL     OW 7033   1.393   4.584   5.102
 2045SOL    HW1 7034   1.375   4.488   5.080
 2045SOL    HW2 7035   1.437   4.590   5.192
 2046SOL     OW 7036   6.944   0.699   4.110
 2046SOL    HW1 7037   0.010   0.647   4.120
 2046SOL    HW2 7038   6.872   0.655   4.165
 2047SOL     OW 7039   4.470   1.714   0.425
 2047SOL    HW1 7040   4.477   1.774   0.505
 2047SOL    HW2 7041   4.432   1.765   0.348
 2048SOL     OW 7042   3.883   6.243   6.861
 2048SOL    HW1 7043   3.976   6.227   6.893
 2048SOL    HW2 7044   3.837   6.307   6.924
 2049SOL     OW 7045   4.610   2.296   6.671
 2049SOL    HW1 7046   4.551   2.353   6.729
 2049SOL    HW2 7047   4.649   2.352   6.597
 2050SOL     OW 7048   6.209   2.831   3.550
 2050SOL    HW1 7049   6.265   2.766   3.601
 2050SOL    HW2 7050   6.254   2.920   3.547
 2051SOL     OW 7051   6.759   4.827   6.603
 2051SOL    HW1 7052   6.816   4.776   6.668
 2051SOL    HW2 7053   6.691   4.765   6.564
 2052SOL     OW 7054   0.223   3.238   6.923
 2052SOL    HW1 7055   0.199   3.235   6.826
 2052SOL    HW2 7056   0.166   3.172   6.973
 2053SOL     OW 7057   6.387   0.557   1.079
 2053SOL    HW1 7058   6.298   0.599   1.095
 2053SOL    HW2 7059   6.376   0.462   1.053
 2054SOL     OW 7060   5.547   3.002   1.528
 2054SOL    HW1 7061   5.493   3.072   1.574
 2054SOL    HW2 7062   5.504   2.912   1.541
 2055SOL     OW 7063   5.671   3.140   2.824
 2055SOL    HW1 7064   5.628   3.054   2.794
 2055SOL    HW2 7065   5.622   3.175   2.904
 2056SOL     OW 7066   2.190   1.525   2.183
 2056SOL    HW1 7067   2.270   1.573   2.147
 2056SOL    HW2 7068   2.138   1.587   2.242
 2057SOL     OW 7069   5.573   2.392   3.949
 2057SOL    HW1 7070   5.498   2.399   4.015
 2057SOL    HW2 7071   5.627   2.476   3.950
 2058SOL     OW 7072   0.983   1.689   2.948
 2058SOL    HW1 7073   0.975   1.645   2.858
 2058SOL    HW2 7074   0.945   1.628   3.018
 2059SOL     OW 7075   2.107   6.775   6.441
 2059SOL    HW1 7076   2.020   6.750   6.399
 2059SOL    HW2 7077   2.180   6.721   6.399
 2060SOL     OW 7078   6.782   4.512   0.809
 2060SOL    HW1 7079   6.717   4.535   0.881
 2060SOL    HW2 7080   6.733   4.487   0.726
 2061SOL     OW 7081   0.554   1.714   2.808
 2061SOL    HW1 7082   0.608   1.683   2.886
 2061SOL    HW2 7083   0.532   1.811   2.819
 2062SOL     OW 7084   5.293   0.519   3.197
 2062SOL    HW1 7085   5.393   0.516   3.193
 2062SOL    HW2 7086   5.263   0.614   3.201
 2063SOL     OW 7087   0.750   1.083   6.960
 2063SOL    HW1 7088   0.800   1.007   6.920
 2063SOL    HW2 7089   0.801   1.119   0.020
 2064SOL     OW 7090   0.807   1.782   5.673
 2064SOL    HW1 7091   0.840   1.747   5.585
 2064SOL    HW2 7092   0.708   1.766   5.680
 2065SOL     OW 7093   5.749   3.815   2.278
 2065SOL    HW1 7094   5.717   3.899   2.233
 2065SOL    HW2 7095   5.824   3.837   2.340
 2066SOL     OW 7096   0.653   5.837   4.192
 2066SOL    HW1 7097   0.565   5.843   4.239
 2066SOL    HW2 7098   0.725   5.875   4.250
 2067SOL     OW 7099   0.238   6.545   0.915
 2067SOL    HW1 7100   0.179   6.495   0.979
 2067SOL    HW2 7101   0.214   6.519   0.821
 2068SOL     OW 7102   1.239   1.443   5.494
 2068SOL    HW1 7103   1.278   1.373   5.435
 2068SOL    HW2 7104   1.229   1.529   5.443
 2069SOL     OW 7105   0.270   2.601   3.376
 2069SOL    HW1 7106   0.350   2.542   3.384
 2069SOL    HW2 7107   0.252   2.620   3.279
 2070SOL     OW 7108   1.906   6.970   2.442
 2070SOL    HW1 7109   1.962   6.904   2.393
 2070SOL    HW2 7110   1.964   0.026   2.475
 2071SOL     OW 7111   0.144   6.195   4.864
 2071SOL    HW1 7112   0.190   6.155   4.785
 2071SOL    HW2 7113   0.151   6.132   4.942
 2072SOL     OW 7114   4.291   6.283   1.695
 2072SOL    HW1 7115   4.303   6.372   1.740
 2072SOL    HW2 7116   4.375   6.258   1.648
 2073SOL     OW 7117   3.648   6.712   4.675
 2073SOL    HW1 7118   3.581   6.643   4.703
 2073SOL    HW2 7119   3.630   6.797   4.723
 2074SOL     OW 7120   0.613   2.508   6.646
 2074SOL    HW1 7121   0.571   2.471   6.563
 2074SOL    HW2 7122   0.704   2.542   6.626
 2075SOL     OW 7123   5.034   2.497   1.208
 2075SOL    HW1 7124   4.979   2.432   1.260
 2075SOL    HW2 7125   5.117   2.451   1.175
 2076SOL     OW 7126   5.199   5.926   6.993
 2076SOL    HW1 7127   5.298   5.920   6.982
 2076SOL    HW2 7128   5.174   6.019   0.004
 2077SOL     OW 7129   4.962   2.542   1.887
 2077SOL    HW1 7130   4.934   2.490   1.967
 2077SOL    HW2 7131   4.939   2.639   1.901
 2078SOL     OW 7132   2.390   5.986   6.319
 2078SOL    HW1 7133   2.447   5.913   6.280
 2078SOL    HW2 7134   2.447   6.045   6.376
 2079SOL     OW 7135   5.860   1.130   3.816
 2079SOL    HW1 7136   5.847   1.183   3.733
 2079SOL    HW2 7137   5.774   1.126   3.867
 2080SOL     OW 7138   2.029   1.402   4.942
 2080SOL    HW1 7139   2.012   1.486   4.994
 2080SOL    HW2 7140   1.943   1.352   4.931
 2081SOL     OW 7141   1.454   5.762   4.848
 2081SOL    HW1 7142   1.468   5.830   4.920
 2081SOL    HW2 7143   1.520   5.778   4.775
 2082SOL     OW 7144   6.248   0.117   2.260
 2082SOL    HW1 7145   6.286   0.199   2.303
 2082SOL    HW2 7146   6.271   0.116   2.162
 2083SOL     OW 7147   3.854   3.862   6.372
 2083SOL    HW1 7148   3.855   3.793   6.444
 2083SOL    HW2 7149   3.890   3.823   6.287
 2084SOL     OW 7150   6.909   4.253   3.748
 2084SOL    HW1 7151   6.937   4.239   3.653
 2084SOL    HW2 7152   6.937   4.175   3.803
 2085SOL     OW 7153   5.441   0.945   0.051
 2085SOL    HW1 7154   5.464   1.008   0.125
 2085SOL    HW2 7155   5.353   0.971   0.011
 2086SOL     OW 7156   2.885   5.743   6.031
 2086SOL    HW1 7157   2.974   5.788   6.031
 2086SOL    HW2 7158   2.858   5.724   5.937
 2087SOL     OW 7159   4.529   6.832   1.883
 2087SOL    HW1 7160   4.586   6.752   1.904
 2087SOL    HW2 7161   4.436   6.816   1.917
 2088SOL     OW 7162   2.835   5.346   0.692
 2088SOL    HW1 7163   2.879   5.299   0.768
 2088SOL    HW2 7164   2.864   5.306   0.605
 2089SOL     OW 7165   4.046   1.462   6.827
 2089SOL    HW1 7166   3.998   1.380   6.856
 2089SOL    HW2 7167   3.983   1.540   6.826
 2090SOL     OW 7168   4.027   3.322   4.669
 2090SOL    HW1 7169   4.035   3.346   4.572
 2090SOL    HW2 7170   4.060   3.398   4.725
 2091SOL     OW 7171   0.266   6.382   0.132
 2091SOL    HW1 7172   0.184   6.353   0.082
 2091SOL    HW2 7173   0.272   6.330   0.217
 2092SOL     OW 7174   5.137   5.658   0.387
 2092SOL    HW1 7175   5.215   5.710   0.422
 2092SOL    HW2 7176   5.131   5.670   0.288
 2093SOL     OW 7177   1.933   2.161   1.681
 2093SOL    HW1 7178   1.865   2.195   1.617
 2093SOL    HW2 7179   1.984   2.237   1.721
 2094SOL     OW 7180   6.036   1.559   1.278
 2094SOL    HW1 7181   5.983   1.519   1.203
 2094SOL    HW2 7182   5.975   1.611   1.338
 2095SOL     OW 7183   5.578   0.073   4.056
 2095SOL    HW1 7184   5.513   0.094   4.129
 2095SOL    HW2 7185   5.667   0.051   4.096
 2096SOL     OW 7186   4.848   3.971   2.669
 2096SOL    HW1 7187   4.770   4.029   2.693
 2096SOL    HW2 7188   4.857   3.898   2.737
 2097SOL     OW 7189   1.204   2.949   6.889
 2097SOL    HW1 7190   1.171   2.859   6.863
 2097SOL    HW2 7191   1.297   2.963   6.854
 2098SOL     OW 7192   4.025   5.454   3.349
 2098SOL    HW1 7193   4.057   5.440   3.442
 2098SOL    HW2 7194   3.975   5.374   3.317
 2099SOL     OW 7195   2.390   2.389   4.902
 2099SOL    HW1 7196   2.293   2.394   4.926
 2099SOL    HW2 7197   2.400   2.395   4.803
 2100SOL     OW 7198   3.670   3.604   5.990
 2100SOL    HW1 7199   3.602   3.533   5.971
 2100SOL    HW2 7200   3.753   3.561   6.026
 2101SOL     OW 7201   1.697   6.581   2.730
 2101SOL    HW1 7202   1.653   6.596   2.641
 2101SOL    HW2 7203   1.642   6.516   2.783
 2102SOL     OW 7204   0.505   5.254   1.733
 2102SOL    HW1 7205   0.465   5.344   1.752
 2102SOL    HW2 7206   0.438   5.183   1.754
 2103SOL     OW 7207   2.876   3.574   6.524
 2103SOL    HW1 7208   2.818   3.616   6.454
 2103SOL    HW2 7209   2.823   3.505   6.574
 2104SOL     OW 7210   1.266   3.607   6.663
 2104SOL    HW1 7211   1.202   3.532   6.676
 2104SOL    HW2 7212   1.283   3.620   6.566
 2105SOL     OW 7213   5.240   5.017   3.669
 2105SOL    HW1 7214   5.322   5.065   3.639
 2105SOL    HW2 7215   5.168   5.083   3.689
 2106SOL     OW 7216   4.454   5.116   0.595
 2106SOL    HW1 7217   4.421   5.170   0.672
 2106SOL    HW2 7218   4.464   5.174   0.514
 2107SOL     OW 7219   4.249   2.703   5.685
 2107SOL    HW1 7220   4.259   2.614   5.730
 2107SOL    HW2 7221   4.220   2.689   5.590
 2108SOL     OW 7222   7.002   6.346   5.696
 2108SOL    HW1 7223   6.908   6.335   5.729
 2108SOL    HW2 7224   0.044   6.286   5.748
 2109SOL     OW 7225   4.864   6.741   3.661
 2109SOL    HW1 7226   4.888   6.835   3.685
 2109SOL    HW2 7227   4.804   6.741   3.581
 2110SOL     OW 7228   3.359   3.219   5.741
 2110SOL    HW1 7229   3.430   3.289   5.731
 2110SOL    HW2 7230   3.276   3.250   5.695
 2111SOL     OW 7231   0.778   1.702   6.342
 2111SOL    HW1 7232   0.716   1.733   6.271
 2111SOL    HW2 7233   0.816   1.612   6.316
 2112SOL     OW 7234   4.141   1.939   1.210
 2112SOL    HW1 7235   4.148   2.030   1.170
 2112SOL    HW2 7236   4.106   1.946   1.304
 2113SOL     OW 7237   1.249   0.518   4.052
 2113SOL    HW1 7238   1.164   0.465   4.059
 2113SOL    HW2 7239   1.238   0.586   3.979
 2114SOL     OW 7240   1.644   2.624   0.392
 2114SOL    HW1 7241   1.711   2.550   0.386
 2114SOL    HW2 7242   1.657   2.675   0.477
 2115SOL     OW 7243   2.203   4.063   2.675
 2115SOL    HW1 7244   2.257   4.094   2.597
 2115SOL    HW2 7245   2.186   4.141   2.736
 2116SOL     OW 7246   6.919   5.049   3.506
 2116SOL    HW1 7247   6.937   5.147   3.502
 2116SOL    HW2 7248   6.974   5.008   3.579
 2117SOL     OW 7249   0.421   4.940   1.059
 2117SOL    HW1 7250   0.489   4.966   0.991
 2117SOL    HW2 7251   0.338   4.908   1.014
 2118SOL     OW 7252   7.012   3.491   2.547
 2118SOL    HW1 7253   6.946   3.439   2.492
 2118SOL    HW2 7254   6.991   3.477   2.644
 2119SOL     OW 7255   2.384   5.798   1.027
 2119SOL    HW1 7256   2.367   5.731   1.100
 2119SOL    HW2 7257   2.391   5.751   0.939
 2120SOL     OW 7258   6.765   5.179   3.815
 2120SOL    HW1 7259   6.775   5.240   3.894
 2120SOL    HW2 7260   6.733   5.090   3.846
 2121SOL     OW 7261   1.196   4.620   5.726
 2121SOL    HW1 7262   1.131   4.617   5.651
 2121SOL    HW2 7263   1.250   4.704   5.721
 2122SOL     OW 7264   6.343   4.008   5.461
 2122SOL    HW1 7265   6.272   4.067   5.423
 2122SOL    HW2 7266   6.395   4.058   5.529
 2123SOL     OW 7267   0.199   4.656   2.177
 2123SOL    HW1 7268   0.160   4.708   2.101
 2123SOL    HW2 7269   0.137   4.581   2.201
 2124SOL     OW 7270   2.432   1.277   1.641
 2124SOL    HW1 7271   2.524   1.238   1.649
 2124SOL    HW2 7272   2.436   1.360   1.585
 2125SOL     OW 7273   1.445   0.400   0.258
 2125SOL    HW1 7274   1.485   0.311   0.239
 2125SOL    HW2 7275   1.374   0.391   0.327
 2126SOL     OW 7276   2.796   0.570   1.143
 2126SOL    HW1 7277   2.829   0.561   1.237
 2126SOL    HW2 7278   2.874   0.569   1.080
 2127SOL     OW 7279   6.142   3.336   4.333
 2127SOL    HW1 7280   6.108   3.315   4.242
 2127SOL    HW2 7281   6.229   3.385   4.326
 2128SOL     OW 7282   6.797   3.689   4.717
 2128SOL    HW1 7283   6.866   3.733   4.659
 2128SOL    HW2 7284   6.711   3.682   4.668
 2129SOL     OW 7285   4.457   3.094   5.334
 2129SOL    HW1 7286   4.378   3.047   5.375
 2129SOL    HW2 7287   4.541   3.063   5.379
 2130SOL     OW 7288   4.745   0.062   2.820
 2130SOL    HW1 7289   4.806   0.005   2.875
 2130SOL    HW2 7290   4.684   0.114   2.881
 2131SOL     OW 7291   6.627   0.884   1.401
 2131SOL    HW1 7292   6.723   0.856   1.404
 2131SOL    HW2 7293   6.584   0.843   1.321
 2132SOL     OW 7294   4.237   2.505   1.479
 2132SOL    HW1 7295   4.143   2.523   1.509
 2132SOL    HW2 7296   4.301   2.552   1.540
 2133SOL     OW 7297   2.601   3.076   5.914
 2133SOL    HW1 7298   2.583   3.135   5.835
 2133SOL    HW2 7299   2.691   3.034   5.904
 2134SOL     OW 7300   0.481   2.560   0.519
 2134SOL    HW1 7301   0.485   2.510   0.432
 2134SOL    HW2 7302   0.537   2.512   0.587
 2135SOL     OW 7303   0.883   4.260   4.613
 2135SOL    HW1 7304   0.861   4.166   4.636
 2135SOL    HW2 7305   0.976   4.264   4.576
 2136SOL     OW 7306   2.385   4.968   2.575
 2136SOL    HW1 7307   2.360   5.062   2.596
 2136SOL    HW2 7308   2.394   4.956   2.476
 2137SOL     OW 7309   2.943   5.114   5.506
 2137SOL    HW1 7310   2.971   5.169   5.428
 2137SOL    HW2 7311   2.892   5.034   5.474
 2138SOL     OW 7312   6.031   6.808   2.687
 2138SOL    HW1 7313   6.114   6.819   2.633
 2138SOL    HW2 7314   6.014   6.710   2.702
 2139SOL     OW 7315   3.838   0.812   4.306
 2139SOL    HW1 7316   3.817   0.909   4.311
 2139SOL    HW2 7317   3.905   0.789   4.376
 2140SOL     OW 7318   2.919   6.313   4.307
 2140SOL    HW1 7319   2.974   6.231   4.319
 2140SOL    HW2 7320   2.841   6.294   4.247
 2141SOL     OW 7321   6.339   3.046   2.287
 2141SOL    HW1 7322   6.380   3.071   2.199
 2141SOL    HW2 7323   6.276   2.970   2.274
 2142SOL     OW 7324   0.625   1.626   3.478
 2142SOL    HW1 7325   0.683   1.545   3.471
 2142SOL    HW2 7326   0.637   1.682   3.396
 2143SOL     OW 7327   2.236   4.974   1.295
 2143SOL    HW1 7328   2.288   4.963   1.380
 2143SOL    HW2 7329   2.148   5.017   1.315
 2144SOL     OW 7330   0.959   5.330   4.702
 2144SOL    HW1 7331   0.947   5.305   4.798
 2144SOL    HW2 7332   0.983   5.427   4.696
 2145SOL     OW 7333   4.080   6.755   4.232
 2145SOL    HW1 7334   4.088   6.854   4.235
 2145SOL    HW2 7335   3.984   6.730   4.217
 2146SOL     OW 7336   2.150   2.117   1.314
 2146SOL    HW1 7337   2.121   2.154   1.226
 2146SOL    HW2 7338   2.183   2.192   1.372
 2147SOL     OW 7339   6.294   1.042   6.818
 2147SOL    HW1 7340   6.379   1.086   6.846
 2147SOL    HW2 7341   6.242   1.104   6.760
 2148SOL     OW 7342   6.106   3.704   6.504
 2148SOL    HW1 7343   6.062   3.615   6.501
 2148SOL    HW2 7344   6.169   3.713   6.427
 2149SOL     OW 7345   1.661   1.522   1.213
 2149SOL    HW1 7346   1.627   1.448   1.272
 2149SOL    HW2 7347   1.760   1.528   1.221
 2150SOL     OW 7348   2.478   2.210   1.709
 2150SOL    HW1 7349   2.565   2.161   1.707
 2150SOL    HW2 7350   2.485   2.289   1.769
 2151SOL     OW 7351   1.142   6.207   6.624
 2151SOL    HW1 7352   1.057   6.248   6.657
 2151SOL    HW2 7353   1.120   6.137   6.555
 2152SOL     OW 7354   4.330   4.623   2.593
 2152SOL    HW1 7355   4.300   4.659   2.681
 2152SOL    HW2 7356   4.362   4.529   2.604
 2153SOL     OW 7357   5.144   1.760   2.003
 2153SOL    HW1 7358   5.238   1.738   1.976
 2153SOL    HW2 7359   5.101   1.679   2.044
 2154SOL     OW 7360   2.918   0.254   3.909
 2154SOL    HW1 7361   2.888   0.225   4.000
 2154SOL    HW2 7362   2.958   0.345   3.915
 2155SOL     OW 7363   4.162   6.774   1.056
 2155SOL    HW1 7364   4.204   6.730   1.135
 2155SOL    HW2 7365   4.164   6.712   0.978
 2156SOL     OW 7366   0.011   0.124   4.809
 2156SOL    HW1 7367   0.092   0.123   4.750
 2156SOL    HW2 7368   6.965   0.056   4.777
 2157SOL     OW 7369   5.201   6.068   3.828
 2157SOL    HW1 7370   5.120   6.073   3.886
 2157SOL    HW2 7371   5.210   6.153   3.776
 2158SOL     OW 7372   4.057   5.752   0.249
 2158SOL    HW1 7373   4.088   5.792   0.163
 2158SOL    HW2 7374   3.960   5.731   0.244
 2159SOL     OW 7375   1.602   0.307   5.042
 2159SOL    HW1 7376   1.646   0.217   5.047
 2159SOL    HW2 7377   1.619   0.357   5.126
 2160SOL     OW 7378   5.303   4.704   6.814
 2160SOL    HW1 7379   5.258   4.616   6.803
 2160SOL    HW2 7380   5.366   4.719   6.738
 2161SOL     OW 7381   6.285   4.091   1.577
 2161SOL    HW1 7382   6.202   4.038   1.562
 2161SOL    HW2 7383   6.323   4.069   1.667
 2162SOL     OW 7384   2.715   0.018   2.739
 2162SOL    HW1 7385   2.774   7.013   2.662
 2162SOL    HW2 7386   2.770   0.057   2.813
 2163SOL     OW 7387   1.555   4.403   0.738
 2163SOL    HW1 7388   1.566   4.422   0.641
 2163SOL    HW2 7389   1.513   4.313   0.750
 2164SOL     OW 7390   2.364   1.847   6.708
 2164SOL    HW1 7391   2.308   1.806   6.636
 2164SOL    HW2 7392   2.436   1.903   6.667
 2165SOL     OW 7393   0.566   2.466   3.811
 2165SOL    HW1 7394   0.622   2.448   3.730
 2165SOL    HW2 7395   0.546   2.380   3.857
 2166SOL     OW 7396   0.318   3.621   4.415
 2166SOL    HW1 7397   0.359   3.554   4.353
 2166SOL    HW2 7398   0.368   3.622   4.501
 2167SOL     OW 7399   0.455   3.451   3.916
 2167SOL    HW1 7400   0.369   3.493   3.886
 2167SOL    HW2 7401   0.438   3.356   3.941
 2168SOL     OW 7402   1.270   1.479   3.010
 2168SOL    HW1 7403   1.218   1.394   3.008
 2168SOL    HW2 7404   1.211   1.554   3.040
 2169SOL     OW 7405   6.929   0.875   1.095
 2169SOL    HW1 7406   6.865   0.951   1.081
 2169SOL    HW2 7407   6.994   0.899   1.167
 2170SOL     OW 7408   6.608   4.010   5.051
 2170SOL    HW1 7409   6.592   3.912   5.049
 2170SOL    HW2 7410   6.616   4.041   5.145
 2171SOL     OW 7411   1.237   5.208   1.705
 2171SOL    HW1 7412   1.148   5.216   1.751
 2171SOL    HW2 7413   1.222   5.197   1.606
 2172SOL     OW 7414   2.435   2.303   5.789
 2172SOL    HW1 7415   2.495   2.383   5.790
 2172SOL    HW2 7416   2.483   2.226   5.748
 2173SOL     OW 7417   4.749   0.483   5.679
 2173SOL    HW1 7418   4.762   0.469   5.580
 2173SOL    HW2 7419   4.661   0.529   5.695
 2174SOL     OW 7420   6.645   6.180   4.958
 2174SOL    HW1 7421   6.577   6.245   4.927
 2174SOL    HW2 7422   6.715   6.227   5.011
 2175SOL     OW 7423   1.583   3.583   4.450
 2175SOL    HW1 7424   1.494   3.544   4.474
 2175SOL    HW2 7425   1.642   3.511   4.412
 2176SOL     OW 7426   5.128   1.759   1.434
 2176SOL    HW1 7427   5.068   1.777   1.512
 2176SOL    HW2 7428   5.119   1.833   1.367
 2177SOL     OW 7429   6.820   0.131   2.182
 2177SOL    HW1 7430   6.863   0.057   2.130
 2177SOL    HW2 7431   6.856   0.219   2.151
 2178SOL     OW 7432   1.369   1.260   2.031
 2178SOL    HW1 7433   1.354   1.163   2.051
 2178SOL    HW2 7434   1.454   1.271   1.981
 2179SOL     OW 7435   2.082   3.522   6.162
 2179SOL    HW1 7436   2.109   3.613   6.130
 2179SOL    HW2 7437   2.104   3.512   6.259
 2180SOL     OW 7438   1.061   2.889   1.970
 2180SOL    HW1 7439   1.096   2.969   1.923
 2180SOL    HW2 7440   1.130   2.853   2.032
 2181SOL     OW 7441   4.588   5.069   3.926
 2181SOL    HW1 7442   4.659   5.002   3.947
 2181SOL    HW2 7443   4.535   5.039   3.847
 2182SOL     OW 7444   1.057   4.972   3.661
 2182SOL    HW1 7445   1.016   4.973   3.569
 2182SOL    HW2 7446   1.152   4.939   3.654
 2183SOL     OW 7447   2.594   4.022   0.301
 2183SOL    HW1 7448   2.510   4.009   0.249
 2183SOL    HW2 7449   2.635   4.110   0.277
 2184SOL     OW 7450   3.956   6.752   6.279
 2184SOL    HW1 7451   3.961   6.752   6.179
 2184SOL    HW2 7452   3.906   6.833   6.310
 2185SOL     OW 7453   1.097   1.366   6.747
 2185SOL    HW1 7454   1.002   1.333   6.746
 2185SOL    HW2 7455   1.098   1.463   6.720
 2186SOL     OW 7456   6.591   5.664   6.537
 2186SOL    HW1 7457   6.498   5.630   6.530
 2186SOL    HW2 7458   6.612   5.682   6.634
 2187SOL     OW 7459   0.052   6.314   2.457
 2187SOL    HW1 7460   7.011   6.273   2.526
 2187SOL    HW2 7461   0.092   6.242   2.401
 2188SOL     OW 7462   1.832   5.589   5.392
 2188SOL    HW1 7463   1.781   5.517   5.343
 2188SOL    HW2 7464   1.893   5.547   5.459
 2189SOL     OW 7465   1.513   0.160   1.589
 2189SOL    HW1 7466   1.430   0.104   1.584
 2189SOL    HW2 7467   1.522   0.214   1.505
 2190SOL     OW 7468   6.440   2.935   1.718
 2190SOL    HW1 7469   6.500   3.000   1.765
 2190SOL    HW2 7470   6.472   2.842   1.736
 2191SOL     OW 7471   2.411   1.761   5.341
 2191SOL    HW1 7472   2.452   1.683   5.388
 2191SOL    HW2 7473   2.367   1.821   5.407
 2192SOL     OW 7474   4.909   0.450   2.970
 2192SOL    HW1 7475   4.900   0.511   2.891
 2192SOL    HW2 7476   4.901   0.502   3.054
 2193SOL     OW 7477   6.812   0.451   6.110
 2193SOL    HW1 7478   6.789   0.387   6.183
 2193SOL    HW2 7479   6.908   0.479   6.119
 2194SOL     OW 7480   2.018   3.941   6.661
 2194SOL    HW1 7481   1.954   3.934   6.737
 2194SOL    HW2 7482   1.968   3.937   6.574
 2195SOL     OW 7483   6.924   6.789   5.566
 2195SOL    HW1 7484   6.909   6.810   5.470
 2195SOL    HW2 7485   6.836   6.772   5.611
 2196SOL     OW 7486   2.907   6.575   4.382
 2196SOL    HW1 7487   2.831   6.610   4.326
 2196SOL    HW2 7488   2.917   6.477   4.366
 2197SOL     OW 7489   3.049   3.443   6.060
 2197SOL    HW1 7490   3.115   3.518   6.060
 2197SOL    HW2 7491   2.960   3.477   6.030
 2198SOL     OW 7492   6.342   0.392   1.460
 2198SOL    HW1 7493   6.384   0.342   1.536
 2198SOL    HW2 7494   6.412   0.414   1.392
 2199SOL     OW 7495   5.275   7.016   4.477
 2199SOL    HW1 7496   5.296   6.987   4.570
 2199SOL    HW2 7497   5.259   6.936   4.420
 2200SOL     OW 7498   2.315   1.575   3.897
 2200SOL    HW1 7499   2.408   1.610   3.900
 2200SOL    HW2 7500   2.261   1.629   3.832
 2201SOL     OW 7501   6.146   2.698   2.830
 2201SOL    HW1 7502   6.096   2.713   2.916
 2201SOL    HW2 7503   6.182   2.785   2.797
 2202SOL     OW 7504   3.719   5.971   1.945
 2202SOL    HW1 7505   3.765   5.897   1.895
 2202SOL    HW2 7506   3.690   6.042   1.881
 2203SOL     OW 7507   2.777   3.359   1.315
 2203SOL    HW1 7508   2.863   3.411   1.315
 2203SOL    HW2 7509   2.797   3.261   1.303
 2204SOL     OW 7510   4.144   2.593   1.124
 2204SOL    HW1 7511   4.071   2.584   1.192
 2204SOL    HW2 7512   4.120   2.541   1.042
 2205SOL     OW 7513   1.338   0.358   0.009
 2205SOL    HW1 7514   1.324   0.261   7.006
 2205SOL    HW2 7515   1.365   0.367   0.105
 2206SOL     OW 7516   2.650   4.413   5.752
 2206SOL    HW1 7517   2.696   4.498   5.725
 2206SOL    HW2 7518   2.570   4.435   5.808
 2207SOL     OW 7519   3.588   4.206   6.862
 2207SOL    HW1 7520   3.628   4.292   6.831
 2207SOL    HW2 7521   3.489   4.209   6.852
 2208SOL     OW 7522   0.968   5.192   2.797
 2208SOL    HW1 7523   1.051   5.159   2.843
 2208SOL    HW2 7524   0.936   5.275   2.842
 2209SOL     OW 7525   2.662   6.837   4.930
 2209SOL    HW1 7526   2.739   6.800   4.982
 2209SOL    HW2 7527   2.598   6.763   4.908
 2210SOL     OW 7528   6.880   4.969   3.185
 2210SOL    HW1 7529   6.813   5.023   3.236
 2210SOL    HW2 7530   6.931   4.910   3.248
 2211SOL     OW 7531   6.673   0.838   0.457
 2211SOL    HW1 7532   6.688   0.839   0.556
 2211SOL    HW2 7533   6.631   0.924   0.429
 2212SOL     OW 7534   2.138   5.736   0.366
 2212SOL    HW1 7535   2.110   5.829   0.390
 2212SOL    HW2 7536   2.065   5.672   0.393
 2213SOL     OW 7537   4.051   2.482   5.915
 2213SOL    HW1 7538   4.146   2.458   5.894
 2213SOL    HW2 7539   4.049   2.546   5.991
 2214SOL     OW 7540   2.923   3.639   4.959
 2214SOL    HW1 7541   2.948   3.734   4.979
 2214SOL    HW2 7542   2.897   3.592   5.043
 2215SOL     OW 7543   6.058   0.725   6.775
 2215SOL    HW1 7544   6.144   0.767   6.748
 2215SOL    HW2 7545   6.044   0.642   6.721
 2216SOL     OW 7546   0.784   0.307   5.748
 2216SOL    HW1 7547   0.828   0.395   5.767
 2216SOL    HW2 7548   0.707   0.321   5.686
 2217SOL     OW 7549   4.377   0.239   2.688
 2217SOL    HW1 7550   4.281   0.248   2.714
 2217SOL    HW2 7551   4.434   0.295   2.749
 2218SOL     OW 7552   0.057   5.213   0.099
 2218SOL    HW1 7553   0.114   5.286   0.136
 2218SOL    HW2 7554   0.051   5.138   0.166
 2219SOL     OW 7555   6.009   1.476   0.879
 2219SOL    HW1 7556   5.981   1.542   0.810
 2219SOL    HW2 7557   5.957   1.492   0.963
 2220SOL     OW 7558   2.157   5.916   5.763
 2220SOL    HW1 7559   2.080   5.953   5.815
 2220SOL    HW2 7560   2.216   5.990   5.732
 2221SOL     OW 7561   6.134   1.257   5.150
 2221SOL    HW1 7562   6.110   1.346   5.188
 2221SOL    HW2 7563   6.230   1.238   5.169
 2222SOL     OW 7564   6.058   0.206   1.096
 2222SOL    HW1 7565   6.154   0.191   1.073
 2222SOL    HW2 7566   6.013   0.118   1.109
 2223SOL     OW 7567   5.836   0.550   6.271
 2223SOL    HW1 7568   5.842   0.560   6.370
 2223SOL    HW2 7569   5.895   0.617   6.227
 2224SOL     OW 7570   6.387   3.692   0.822
 2224SOL    HW1 7571   6.357   3.641   0.903
 2224SOL    HW2 7572   6.316   3.687   0.751
 2225SOL     OW 7573   6.019   6.847   3.797
 2225SOL    HW1 7574   5.923   6.821   3.791
 2225SOL    HW2 7575   6.064   6.792   3.868
 2226SOL     OW 7576   3.602   5.052   0.864
 2226SOL    HW1 7577   3.675   5.002   0.820
 2226SOL    HW2 7578   3.524   4.991   0.880
 2227SOL     OW 7579   5.267   2.405   1.100
 2227SOL    HW1 7580   5.272   2.306   1.090
 2227SOL    HW2 7581   5.356   2.445   1.077
 2228SOL     OW 7582   3.907   5.100   0.552
 2228SOL    HW1 7583   3.868   5.009   0.536
 2228SOL    HW2 7584   3.859   5.144   0.628
 2229SOL     OW 7585   3.784   2.841   5.339
 2229SOL    HW1 7586   3.684   2.843   5.340
 2229SOL    HW2 7587   3.818   2.910   5.275
 2230SOL     OW 7588   5.723   6.540   0.863
 2230SOL    HW1 7589   5.667   6.621   0.847
 2230SOL    HW2 7590   5.663   6.460   0.874
 2231SOL     OW 7591   6.986   0.788   0.782
 2231SOL    HW1 7592   6.887   0.781   0.770
 2231SOL    HW2 7593   0.012   0.792   0.693
 2232SOL     OW 7594   1.282   1.546   4.600
 2232SOL    HW1 7595   1.337   1.502   4.529
 2232SOL    HW2 7596   1.308   1.642   4.608
 2233SOL     OW 7597   2.234   2.665   0.570
 2233SOL    HW1 7598   2.298   2.626   0.636
 2233SOL    HW2 7599   2.279   2.738   0.519
 2234SOL     OW 7600   3.512   1.332   1.188
 2234SOL    HW1 7601   3.595   1.289   1.152
 2234SOL    HW2 7602   3.530   1.369   1.279
 2235SOL     OW 7603   2.649   0.283   1.781
 2235SOL    HW1 7604   2.706   0.264   1.701
 2235SOL    HW2 7605   2.557   0.310   1.750
 2236SOL     OW 7606   1.914   3.623   5.746
 2236SOL    HW1 7607   1.897   3.544   5.686
 2236SOL    HW2 7608   1.923   3.706   5.691
 2237SOL     OW 7609   5.807   4.624   4.361
 2237SOL    HW1 7610   5.838   4.716   4.338
 2237SOL    HW2 7611   5.730   4.598   4.302
 2238SOL     OW 7612   4.740   5.267   2.155
 2238SOL    HW1 7613   4.825   5.236   2.199
 2238SOL    HW2 7614   4.761   5.322   2.075
 2239SOL     OW 7615   4.540   5.829   3.751
 2239SOL    HW1 7616   4.523   5.734   3.727
 2239SOL    HW2 7617   4.622   5.836   3.808
 2240SOL     OW 7618   3.241   5.371   2.584
 2240SOL    HW1 7619   3.289   5.361   2.672
 2240SOL    HW2 7620   3.154   5.418   2.598
 2241SOL     OW 7621   6.827   6.313   2.623
 2241SOL    HW1 7622   6.796   6.381   2.556
 2241SOL    HW2 7623   6.750   6.257   2.652
 2242SOL     OW 7624   4.835   3.030   2.236
 2242SOL    HW1 7625   4.786   3.013   2.150
 2242SOL    HW2 7626   4.829   3.127   2.259
 2243SOL     OW 7627   1.567   0.075   6.611
 2243SOL    HW1 7628   1.470   0.077   6.632
 2243SOL    HW2 7629   1.581   0.104   6.516
 2244SOL     OW 7630   3.254   6.514   1.670
 2244SOL    HW1 7631   3.335   6.522   1.729
 2244SOL    HW2 7632   3.283   6.489   1.578
 2245SOL     OW 7633   0.765   1.556   1.439
 2245SOL    HW1 7634   0.703   1.488   1.400
 2245SOL    HW2 7635   0.824   1.513   1.507
 2246SOL     OW 7636   2.055   0.885   4.425
 2246SOL    HW1 7637   2.141   0.924   4.459
 2246SOL    HW2 7638   2.049   0.898   4.327
 2247SOL     OW 7639   3.100   3.058   2.924
 2247SOL    HW1 7640   3.038   3.107   2.984
 2247SOL    HW2 7641   3.167   3.008   2.979
 2248SOL     OW 7642   6.498   3.727   5.063
 2248SOL    HW1 7643   6.582   3.687   5.027
 2248SOL    HW2 7644   6.424   3.716   4.997
 2249SOL     OW 7645   5.289   6.779   3.832
 2249SOL    HW1 7646   5.367   6.841   3.831
 2249SOL    HW2 7647   5.293   6.719   3.752
 2250SOL     OW 7648   3.348   4.164   5.057
 2250SOL    HW1 7649   3.255   4.200   5.052
 2250SOL    HW2 7650   3.404   4.226   5.113
 2251SOL     OW 7651   5.552   6.778   6.522
 2251SOL    HW1 7652   5.604   6.722   6.586
 2251SOL    HW2 7653   5.572   6.749   6.429
 2252SOL     OW 7654   4.816   1.511   3.291
 2252SOL    HW1 7655   4.743   1.513   3.359
 2252SOL    HW2 7656   4.790   1.451   3.215
 2253SOL     OW 7657   6.605   2.843   6.806
 2253SOL    HW1 7658   6.600   2.881   6.713
 2253SOL    HW2 7659   6.576   2.747   6.804
 2254SOL     OW 7660   3.252   2.947   4.450
 2254SOL    HW1 7661   3.348   2.944   4.423
 2254SOL    HW2 7662   3.195   2.930   4.370
 2255SOL     OW 7663   4.127   3.383   5.954
 2255SOL    HW1 7664   4.126   3.292   5.914
 2255SOL    HW2 7665   4.190   3.385   6.032
 2256SOL     OW 7666   5.265   6.114   2.012
 2256SOL    HW1 7667   5.216   6.121   2.098
 2256SOL    HW2 7668   5.227   6.178   1.945
 2257SOL     OW 7669   0.912   1.775   4.585
 2257SOL    HW1 7670   0.847   1.703   4.608
 2257SOL    HW2 7671   0.994   1.766   4.640
 2258SOL     OW 7672   0.998   5.591   4.727
 2258SOL    HW1 7673   0.931   5.665   4.739
 2258SOL    HW2 7674   1.079   5.628   4.682
 2259SOL     OW 7675   5.618   2.958   5.730
 2259SOL    HW1 7676   5.690   2.889   5.732
 2259SOL    HW2 7677   5.640   3.029   5.663
 2260SOL     OW 7678   0.125   4.248   1.323
 2260SOL    HW1 7679   0.175   4.333   1.307
 2260SOL    HW2 7680   0.096   4.209   1.235
 2261SOL     OW 7681   6.220   5.246   0.681
 2261SOL    HW1 7682   6.121   5.236   0.683
 2261SOL    HW2 7683   6.244   5.342   0.698
 2262SOL     OW 7684   6.043   0.317   2.874
 2262SOL    HW1 7685   6.133   0.276   2.860
 2262SOL    HW2 7686   5.992   0.314   2.788
 2263SOL     OW 7687   3.080   5.674   0.365
 2263SOL    HW1 7688   3.023   5.593   0.348
 2263SOL    HW2 7689   3.159   5.648   0.421
 2264SOL     OW 7690   3.229   5.572   6.869
 2264SOL    HW1 7691   3.131   5.586   6.854
 2264SOL    HW2 7692   3.260   5.493   6.815
 2265SOL     OW 7693   2.003   0.894   4.132
 2265SOL    HW1 7694   1.999   0.805   4.085
 2265SOL    HW2 7695   1.922   0.948   4.107
 2266SOL     OW 7696   5.165   1.325   0.047
 2266SOL    HW1 7697   5.164   1.425   0.055
 2266SOL    HW2 7698   5.153   1.285   0.138
 2267SOL     OW 7699   4.911   3.333   4.849
 2267SOL    HW1 7700   4.854   3.382   4.915
 2267SOL    HW2 7701   4.870   3.244   4.829
 2268SOL     OW 7702   5.672   4.189   6.111
 2268SOL    HW1 7703   5.628   4.278   6.103
 2268SOL    HW2 7704   5.768   4.201   6.136
 2269SOL     OW 7705   0.738   4.484   5.594
 2269SOL    HW1 7706   0.715   4.416   5.663
 2269SOL    HW2 7707   0.679   4.564   5.605
 2270SOL     OW 7708   3.741   2.574   6.406
 2270SOL    HW1 7709   3.836   2.605   6.405
 2270SOL    HW2 7710   3.688   2.629   6.341
 2271SOL     OW 7711   5.748   4.325   0.346
 2271SOL    HW1 7712   5.794   4.238   0.366
 2271SOL    HW2 7713   5.815   4.392   0.315
 2272SOL     OW 7714   5.582   1.725   0.261
 2272SOL    HW1 7715   5.577   1.674   0.347
 2272SOL    HW2 7716   5.516   1.687   0.196
 2273SOL     OW 7717   1.292   1.488   2.181
 2273SOL    HW1 7718   1.288   1.410   2.118
 2273SOL    HW2 7719   1.322   1.456   2.271
 2274SOL     OW 7720   0.752   1.337   6.292
 2274SOL    HW1 7721   0.793   1.287   6.216
 2274SOL    HW2 7722   0.692   1.276   6.344
 2275SOL     OW 7723   5.864   6.720   4.044
 2275SOL    HW1 7724   5.874   6.680   3.953
 2275SOL    HW2 7725   5.811   6.658   4.102
 2276SOL     OW 7726   2.682   5.451   2.028
 2276SOL    HW1 7727   2.611   5.402   2.078
 2276SOL    HW2 7728   2.730   5.512   2.091
 2277SOL     OW 7729   3.714   4.058   3.731
 2277SOL    HW1 7730   3.759   3.983   3.682
 2277SOL    HW2 7731   3.781   4.128   3.755
 2278SOL     OW 7732   5.892   3.979   4.407
 2278SOL    HW1 7733   5.914   4.066   4.452
 2278SOL    HW2 7734   5.807   3.989   4.356
 2279SOL     OW 7735   5.943   0.292   5.697
 2279SOL    HW1 7736   5.903   0.323   5.784
 2279SOL    HW2 7737   5.893   0.333   5.621
 2280SOL     OW 7738   6.704   0.126   4.878
 2280SOL    HW1 7739   6.802   0.117   4.861
 2280SOL    HW2 7740   6.664   0.036   4.896
 2281SOL     OW 7741   3.370   0.455   2.166
 2281SOL    HW1 7742   3.440   0.526   2.165
 2281SOL    HW2 7743   3.331   0.445   2.075
 2282SOL     OW 7744   5.637   6.984   5.472
 2282SOL    HW1 7745   5.594   7.003   5.384
 2282SOL    HW2 7746   5.732   6.956   5.457
 2283SOL     OW 7747   1.757   6.819   1.902
 2283SOL    HW1 7748   1.769   6.720   1.890
 2283SOL    HW2 7749   1.661   6.838   1.922
 2284SOL     OW 7750   1.452   2.938   6.798
 2284SOL    HW1 7751   1.532   2.983   6.758
 2284SOL    HW2 7752   1.476   2.846   6.827
 2285SOL     OW 7753   1.488   2.981   0.963
 2285SOL    HW1 7754   1.577   3.026   0.956
 2285SOL    HW2 7755   1.447   3.004   1.051
 2286SOL     OW 7756   5.788   6.713   3.770
 2286SOL    HW1 7757   5.769   6.629   3.719
 2286SOL    HW2 7758   5.707   6.770   3.771
 2287SOL     OW 7759   2.257   0.306   4.037
 2287SOL    HW1 7760   2.254   0.291   4.135
 2287SOL    HW2 7761   2.349   0.334   4.009
 2288SOL     OW 7762   5.896   5.232   3.486
 2288SOL    HW1 7763   5.887   5.316   3.540
 2288SOL    HW2 7764   5.900   5.153   3.546
 2289SOL     OW 7765   0.411   5.166   0.805
 2289SOL    HW1 7766   0.447   5.226   0.734
 2289SOL    HW2 7767   0.321   5.132   0.778
 2290SOL     OW 7768   0.551   3.616   0.789
 2290SOL    HW1 7769   0.511   3.707   0.793
 2290SOL    HW2 7770   0.486   3.553   0.746
 2291SOL     OW 7771   1.848   2.523   5.548
 2291SOL    HW1 7772   1.774   2.546   5.485
 2291SOL    HW2 7773   1.831   2.433   5.588
 2292SOL     OW 7774   1.138   1.837   4.310
 2292SOL    HW1 7775   1.136   1.746   4.268
 2292SOL    HW2 7776   1.047   1.877   4.308
 2293SOL     OW 7777   5.213   6.281   0.997
 2293SOL    HW1 7778   5.224   6.322   1.087
 2293SOL    HW2 7779   5.118   6.287   0.968
 2294SOL     OW 7780   3.239   0.506   6.903
 2294SOL    HW1 7781   3.220   0.604   6.907
 2294SOL    HW2 7782   3.337   0.491   6.903
 2295SOL     OW 7783   0.771   1.967   2.298
 2295SOL    HW1 7784   0.769   2.004   2.391
 2295SOL    HW2 7785   0.700   2.011   2.243
 2296SOL     OW 7786   4.324   5.209   0.289
 2296SOL    HW1 7787   4.330   5.110   0.271
 2296SOL    HW2 7788   4.248   5.227   0.351
 2297SOL     OW 7789   3.831   4.091   5.079
 2297SOL    HW1 7790   3.779   4.103   4.994
 2297SOL    HW2 7791   3.846   3.994   5.095
 2298SOL     OW 7792   4.163   3.126   1.789
 2298SOL    HW1 7793   4.133   3.185   1.715
 2298SOL    HW2 7794   4.251   3.085   1.765
 2299SOL     OW 7795   4.912   6.567   6.028
 2299SOL    HW1 7796   4.916   6.575   6.127
 2299SOL    HW2 7797   5.004   6.550   5.992
 2300SOL     OW 7798   2.788   4.879   1.887
 2300SOL    HW1 7799   2.879   4.903   1.921
 2300SOL    HW2 7800   2.781   4.780   1.878
 2301SOL     OW 7801   2.938   3.265   3.015
 2301SOL    HW1 7802   2.898   3.331   2.951
 2301SOL    HW2 7803   2.920   3.294   3.109
 2302SOL     OW 7804   3.601   6.853   1.075
 2302SOL    HW1 7805   3.673   6.870   1.008
 2302SOL    HW2 7806   3.539   6.932   1.077
 2303SOL     OW 7807   2.025   3.239   6.070
 2303SOL    HW1 7808   2.066   3.229   5.979
 2303SOL    HW2 7809   2.043   3.331   6.104
 2304SOL     OW 7810   3.639   0.123   3.892
 2304SOL    HW1 7811   3.663   0.035   3.852
 2304SOL    HW2 7812   3.688   0.196   3.843
 2305SOL     OW 7813   2.665   6.526   2.809
 2305SOL    HW1 7814   2.627   6.589   2.877
 2305SOL    HW2 7815   2.641   6.558   2.717
 2306SOL     OW 7816   2.660   5.054   1.684
 2306SOL    HW1 7817   2.691   4.984   1.747
 2306SOL    HW2 7818   2.564   5.077   1.704
 2307SOL     OW 7819   0.902   3.853   2.935
 2307SOL    HW1 7820   0.827   3.842   2.871
 2307SOL    HW2 7821   0.957   3.769   2.938
 2308SOL     OW 7822   1.587   6.633   0.127
 2308SOL    HW1 7823   1.638   6.719   0.119
 2308SOL    HW2 7824   1.499   6.651   0.171
 2309SOL     OW 7825   2.728   6.385   6.409
 2309SOL    HW1 7826   2.673   6.373   6.327
 2309SOL    HW2 7827   2.704   6.472   6.452
 2310SOL     OW 7828   5.412   6.614   1.326
 2310SOL    HW1 7829   5.356   6.697   1.330
 2310SOL    HW2 7830   5.507   6.639   1.307
 2311SOL     OW 7831   2.529   5.922   2.018
 2311SOL    HW1 7832   2.508   6.015   1.989
 2311SOL    HW2 7833   2.569   5.923   2.109
 2312SOL     OW 7834   3.588   6.178   3.988
 2312SOL    HW1 7835   3.538   6.262   4.010
 2312SOL    HW2 7836   3.650   6.195   3.911
 2313SOL     OW 7837   5.379   5.487   1.594
 2313SOL    HW1 7838   5.399   5.526   1.504
 2313SOL    HW2 7839   5.314   5.411   1.584
 2314SOL     OW 7840   5.564   0.388   4.917
 2314SOL    HW1 7841   5.535   0.396   4.822
 2314SOL    HW2 7842   5.641   0.325   4.924
 2315SOL     OW 7843   5.034   3.666   5.517
 2315SOL    HW1 7844   5.108   3.733   5.509
 2315SOL    HW2 7845   4.953   3.711   5.554
 2316SOL     OW 7846   3.158   0.747   4.629
 2316SOL    HW1 7847   3.244   0.771   4.582
 2316SOL    HW2 7848   3.121   0.663   4.589
 2317SOL     OW 7849   6.270   6.247   2.874
 2317SOL    HW1 7850   6.196   6.308   2.903
 2317SOL    HW2 7851   6.263   6.161   2.925
 2318SOL     OW 7852   2.031   2.889   4.422
 2318SOL    HW1 7853   2.123   2.893   4.384
 2318SOL    HW2 7854   2.008   2.976   4.464
 2319SOL     OW 7855   3.213   5.242   4.678
 2319SOL    HW1 7856   3.113   5.244   4.679
 2319SOL    HW2 7857   3.244   5.152   4.708
 2320SOL     OW 7858   0.804   3.281   4.429
 2320SOL    HW1 7859   0.800   3.379   4.408
 2320SOL    HW2 7860   0.877   3.238   4.377
 2321SOL     OW 7861   2.118   5.274   0.695
 2321SOL    HW1 7862   2.137   5.365   0.658
 2321SOL    HW2 7863   2.140   5.204   0.627
 2322SOL     OW 7864   1.915   4.124   3.068
 2322SOL    HW1 7865   1.832   4.081   3.033
 2322SOL    HW2 7866   1.987   4.055   3.077
 2323SOL     OW 7867   3.386   4.702   1.622
 2323SOL    HW1 7868   3.445   4.676   1.698
 2323SOL    HW2 7869   3.435   4.765   1.562
 2324SOL     OW 7870   6.389   5.772   0.466
 2324SOL    HW1 7871   6.477   5.748   0.425
 2324SOL    HW2 7872   6.328   5.692   0.465
 2325SOL     OW 7873   1.186   4.159   1.402
 2325SOL    HW1 7874   1.121   4.149   1.327
 2325SOL    HW2 7875   1.271   4.112   1.378
 2326SOL     OW 7876   3.046   6.004   6.676
 2326SOL    HW1 7877   3.053   6.023   6.774
 2326SOL    HW2 7878   3.016   6.086   6.628
 2327SOL     OW 7879   6.957   1.777   3.934
 2327SOL    HW1 7880   6.881   1.777   3.999
 2327SOL    HW2 7881   6.922   1.794   3.842
 2328SOL     OW 7882   1.413   1.541   2.781
 2328SOL    HW1 7883   1.402   1.452   2.738
 2328SOL    HW2 7884   1.355   1.547   2.862
 2329SOL     OW 7885   1.710   4.562   4.459
 2329SOL    HW1 7886   1.803   4.566   4.423
 2329SOL    HW2 7887   1.671   4.472   4.442
 2330SOL     OW 7888   0.085   3.492   1.382
 2330SOL    HW1 7889   0.177   3.520   1.353
 2330SOL    HW2 7890   0.075   3.507   1.480
 2331SOL     OW 7891   4.087   5.162   6.460
 2331SOL    HW1 7892   4.165   5.200   6.510
 2331SOL    HW2 7893   4.054   5.080   6.507
 2332SOL     OW 7894   5.757   0.926   5.371
 2332SOL    HW1 7895   5.765   0.982   5.288
 2332SOL    HW2 7896   5.834   0.862   5.374
 2333SOL     OW 7897   0.199   4.464   2.543
 2333SOL    HW1 7898   0.160   4.400   2.477
 2333SOL    HW2 7899   0.231   4.413   2.623
 2334SOL     OW 7900   2.210   0.622   6.729
 2334SOL    HW1 7901   2.167   0.658   6.812
 2334SOL    HW2 7902   2.227   0.524   6.740
 2335SOL     OW 7903   6.565   1.268   4.093
 2335SOL    HW1 7904   6.478   1.306   4.063
 2335SOL    HW2 7905   6.620   1.242   4.013
 2336SOL     OW 7906   3.789   1.852   4.459
 2336SOL    HW1 7907   3.791   1.929   4.397
 2336SOL    HW2 7908   3.696   1.839   4.495
 2337SOL     OW 7909   4.352   0.714   1.694
 2337SOL    HW1 7910   4.348   0.807   1.658
 2337SOL    HW2 7911   4.259   0.678   1.702
 2338SOL     OW 7912   0.690   3.167   5.186
 2338SOL    HW1 7913   0.666   3.094   5.249
 2338SOL    HW2 7914   0.732   3.127   5.104
 2339SOL     OW 7915   2.899   3.530   3.748
 2339SOL    HW1 7916   2.870   3.614   3.794
 2339SOL    HW2 7917   2.921   3.461   3.817
 2340SOL     OW 7918   6.491   4.847   6.809
 2340SOL    HW1 7919   6.518   4.853   6.905
 2340SOL    HW2 7920   6.565   4.883   6.752
 2341SOL     OW 7921   3.435   4.906   2.161
 2341SOL    HW1 7922   3.340   4.889   2.133
 2341SOL    HW2 7923   3.497   4.855   2.101
 2342SOL     OW 7924   0.818   6.128   5.538
 2342SOL    HW1 7925   0.776   6.146   5.627
 2342SOL    HW2 7926   0.826   6.030   5.524
 2343SOL     OW 7927   1.850   5.784   3.159
 2343SOL    HW1 7928   1.949   5.795   3.160
 2343SOL    HW2 7929   1.806   5.874   3.167
 2344SOL     OW 7930   1.902   5.744   0.108
 2344SOL    HW1 7931   1.891   5.650   0.138
 2344SOL    HW2 7932   1.998   5.770   0.113
 2345SOL     OW 7933   3.109   5.429   4.990
 2345SOL    HW1 7934   3.038   5.464   5.050
 2345SOL    HW2 7935   3.184   5.392   5.045
 2346SOL     OW 7936   3.851   3.237   5.446
 2346SOL    HW1 7937   3.931   3.290   5.473
 2346SOL    HW2 7938   3.877   3.171   5.375
 2347SOL     OW 7939   3.195   2.057   1.402
 2347SOL    HW1 7940   3.159   2.143   1.366
 2347SOL    HW2 7941   3.121   2.005   1.445
 2348SOL     OW 7942   2.364   6.714   3.739
 2348SOL    HW1 7943   2.458   6.747   3.734
 2348SOL    HW2 7944   2.302   6.785   3.707
 2349SOL     OW 7945   1.052   4.576   5.940
 2349SOL    HW1 7946   1.093   4.581   5.848
 2349SOL    HW2 7947   1.039   4.669   5.975
 2350SOL     OW 7948   5.514   0.412   6.652
 2350SOL    HW1 7949   5.580   0.360   6.597
 2350SOL    HW2 7950   5.456   0.466   6.591
 2351SOL     OW 7951   3.230   4.884   4.069
 2351SOL    HW1 7952   3.286   4.841   3.998
 2351SOL    HW2 7953   3.135   4.887   4.039
 2352SOL     OW 7954   0.504   4.181   2.273
 2352SOL    HW1 7955   0.584   4.214   2.324
 2352SOL    HW2 7956   0.533   4.145   2.185
 2353SOL     OW 7957   2.999   4.914   5.790
 2353SOL    HW1 7958   2.954   4.825   5.788
 2353SOL    HW2 7959   3.062   4.921   5.712
 2354SOL     OW 7960   3.497   1.448   5.775
 2354SOL    HW1 7961   3.455   1.525   5.728
 2354SOL    HW2 7962   3.596   1.457   5.772
 2355SOL     OW 7963   2.373   5.637   0.059
 2355SOL    HW1 7964   2.434   5.625   0.137
 2355SOL    HW2 7965   2.346   5.733   0.051
 2356SOL     OW 7966   1.541   3.085   6.278
 2356SOL    HW1 7967   1.604   3.099   6.355
 2356SOL    HW2 7968   1.487   3.168   6.264
 2357SOL     OW 7969   4.477   6.992   2.781
 2357SOL    HW1 7970   4.577   6.991   2.774
 2357SOL    HW2 7971   4.440   0.046   2.723
 2358SOL     OW 7972   4.029   4.967   5.069
 2358SOL    HW1 7973   3.978   4.973   4.983
 2358SOL    HW2 7974   4.044   4.871   5.093
 2359SOL     OW 7975   6.197   0.511   5.828
 2359SOL    HW1 7976   6.220   0.481   5.735
 2359SOL    HW2 7977   6.120   0.457   5.862
 2360SOL     OW 7978   5.449   4.139   6.886
 2360SOL    HW1 7979   5.531   4.099   6.927
 2360SOL    HW2 7980   5.428   4.226   6.930
 2361SOL     OW 7981   2.657   1.160   5.304
 2361SOL    HW1 7982   2.604   1.167   5.389
 2361SOL    HW2 7983   2.615   1.093   5.243
 2362SOL     OW 7984   2.097   6.771   4.401
 2362SOL    HW1 7985   2.137   6.797   4.313
 2362SOL    HW2 7986   1.998   6.784   4.398
 2363SOL     OW 7987   4.538   2.572   4.981
 2363SOL    HW1 7988   4.630   2.588   4.947
 2363SOL    HW2 7989   4.483   2.530   4.909
 2364SOL     OW 7990   1.314   2.184   3.078
 2364SOL    HW1 7991   1.365   2.240   3.013
 2364SOL    HW2 7992   1.297   2.094   3.038
 2365SOL     OW 7993   6.497   2.706   6.526
 2365SOL    HW1 7994   6.562   2.778   6.552
 2365SOL    HW2 7995   6.479   2.712   6.428
 2366SOL     OW 7996   2.206   5.363   6.774
 2366SOL    HW1 7997   2.274   5.351   6.701
 2366SOL    HW2 7998   2.210   5.284   6.835
 2367SOL     OW 7999   2.674   4.328   0.484
 2367SOL    HW1 8000   2.594   4.388   0.488
 2367SOL    HW2 8001   2.693   4.305   0.388
 2368SOL     OW 8002   4.466   0.587   3.771
 2368SOL    HW1 8003   4.497   0.662   3.830
 2368SOL    HW2 8004   4.402   0.529   3.821
 2369SOL     OW 8005   1.639   2.138   5.628
 2369SOL    HW1 8006   1.610   2.201   5.555
 2369SOL    HW2 8007   1.685   2.060   5.587
 2370SOL     OW 8008   4.916   3.766   0.219
 2370SOL    HW1 8009   4.818   3.760   0.239
 2370SOL    HW2 8010   4.929   3.780   0.121
 2371SOL     OW 8011   0.653   0.103   2.462
 2371SOL    HW1 8012   0.739   0.129   2.418
 2371SOL    HW2 8013   0.633   0.167   2.537
 2372SOL     OW 8014   0.150   3.167   2.446
 2372SOL    HW1 8015   0.220   3.132   2.385
 2372SOL    HW2 8016   0.171   3.262   2.469
 2373SOL     OW 8017   0.655   2.207   0.030
 2373SOL    HW1 8018   0.668   2.288   0.087
 2373SOL    HW2 8019   0.612   2.234   6.962
 2374SOL     OW 8020   5.991   1.254   3.207
 2374SOL    HW1 8021   6.021   1.302   3.289
 2374SOL    HW2 8022   5.980   1.157   3.227
 2375SOL     OW 8023   3.004   6.597   4.835
 2375SOL    HW1 8024   2.981   6.645   4.750
 2375SOL    HW2 8025   2.920   6.568   4.881
 2376SOL     OW 8026   0.055   2.341   4.453
 2376SOL    HW1 8027   7.005   2.399   4.497
 2376SOL    HW2 8028   0.097   2.281   4.521
 2377SOL     OW 8029   3.515   4.058   3.260
 2377SOL    HW1 8030   3.489   4.096   3.349
 2377SOL    HW2 8031   3.573   3.978   3.274
 2378SOL     OW 8032   4.845   1.570   0.524
 2378SOL    HW1 8033   4.874   1.541   0.615
 2378SOL    HW2 8034   4.926   1.584   0.467
 2379SOL     OW 8035   5.668   1.786   6.816
 2379SOL    HW1 8036   5.706   1.806   6.906
 2379SOL    HW2 8037   5.657   1.688   6.805
 2380SOL     OW 8038   0.435   1.158   0.286
 2380SOL    HW1 8039   0.506   1.228   0.290
 2380SOL    HW2 8040   0.433   1.117   0.195
 2381SOL     OW 8041   2.155   3.953   4.792
 2381SOL    HW1 8042   2.188   3.965   4.698
 2381SOL    HW2 8043   2.229   3.973   4.856
 2382SOL     OW 8044   2.350   4.351   3.316
 2382SOL    HW1 8045   2.438   4.396   3.301
 2382SOL    HW2 8046   2.298   4.351   3.231
 2383SOL     OW 8047   5.198   6.593   1.714
 2383SOL    HW1 8048   5.169   6.686   1.732
 2383SOL    HW2 8049   5.292   6.593   1.680
 2384SOL     OW 8050   5.758   0.539   2.989
 2384SOL    HW1 8051   5.820   0.468   3.020
 2384SOL    HW2 8052   5.803   0.628   2.995
 2385SOL     OW 8053   0.913   6.504   1.265
 2385SOL    HW1 8054   0.962   6.559   1.332
 2385SOL    HW2 8055   0.839   6.455   1.310
 2386SOL     OW 8056   6.132   5.738   4.644
 2386SOL    HW1 8057   6.057   5.673   4.660
 2386SOL    HW2 8058   6.136   5.760   4.547
 2387SOL     OW 8059   1.060   1.936   3.498
 2387SOL    HW1 8060   1.127   1.934   3.424
 2387SOL    HW2 8061   1.044   2.031   3.526
 2388SOL     OW 8062   0.459   2.466   4.194
 2388SOL    HW1 8063   0.477   2.516   4.109
 2388SOL    HW2 8064   0.397   2.519   4.252
 2389SOL     OW 8065   4.874   3.787   2.867
 2389SOL    HW1 8066   4.888   3.833   2.955
 2389SOL    HW2 8067   4.891   3.689   2.877
 2390SOL     OW 8068   4.113   3.644   2.832
 2390SOL    HW1 8069   4.170   3.642   2.750
 2390SOL    HW2 8070   4.122   3.557   2.881
 2391SOL     OW 8071   4.841   4.703   5.764
 2391SOL    HW1 8072   4.801   4.777   5.818
 2391SOL    HW2 8073   4.802   4.615   5.792
 2392SOL     OW 8074   4.203   6.759   5.171
 2392SOL    HW1 8075   4.247   6.681   5.217
 2392SOL    HW2 8076   4.170   6.730   5.081
 2393SOL     OW 8077   5.353   3.776   6.139
 2393SOL    HW1 8078   5.387   3.853   6.192
 2393SOL    HW2 8079   5.387   3.691   6.178
 2394SOL     OW 8080   1.374   3.436   4.536
 2394SOL    HW1 8081   1.312   3.415   4.612
 2394SOL    HW2 8082   1.375   3.359   4.472
 2395SOL     OW 8083   5.956   2.469   6.597
 2395SOL    HW1 8084   5.867   2.438   6.630
 2395SOL    HW2 8085   5.954   2.474   6.497
 2396SOL     OW 8086   3.504   4.892   1.460
 2396SOL    HW1 8087   3.464   4.967   1.408
 2396SOL    HW2 8088   3.596   4.916   1.490
 2397SOL     OW 8089   0.080   4.252   6.824
 2397SOL    HW1 8090   0.127   4.182   6.878
 2397SOL    HW2 8091   0.011   4.297   6.880
 2398SOL     OW 8092   2.272   3.130   6.499
 2398SOL    HW1 8093   2.313   3.220   6.486
 2398SOL    HW2 8094   2.316   3.064   6.437
 2399SOL     OW 8095   4.447   1.714   1.838
 2399SOL    HW1 8096   4.409   1.629   1.875
 2399SOL    HW2 8097   4.380   1.787   1.846
 2400SOL     OW 8098   3.283   4.265   0.233
 2400SOL    HW1 8099   3.265   4.173   0.200
 2400SOL    HW2 8100   3.216   4.290   0.302
 2401SOL     OW 8101   3.788   6.172   6.111
 2401SOL    HW1 8102   3.880   6.172   6.149
 2401SOL    HW2 8103   3.778   6.096   6.048
 2402SOL     OW 8104   6.827   0.985   3.432
 2402SOL    HW1 8105   6.901   0.978   3.365
 2402SOL    HW2 8106   6.761   0.911   3.416
 2403SOL     OW 8107   2.035   2.661   6.937
 2403SOL    HW1 8108   1.982   2.639   6.855
 2403SOL    HW2 8109   2.131   2.640   6.921
 2404SOL     OW 8110   3.612   0.946   0.815
 2404SOL    HW1 8111   3.630   0.928   0.912
 2404SOL    HW2 8112   3.596   1.044   0.801
 2405SOL     OW 8113   3.885   3.414   2.709
 2405SOL    HW1 8114   3.823   3.428   2.631
 2405SOL    HW2 8115   3.833   3.411   2.793
 2406SOL     OW 8116   3.078   6.302   2.732
 2406SOL    HW1 8117   3.173   6.290   2.705
 2406SOL    HW2 8118   3.019   6.247   2.672
 2407SOL     OW 8119   5.541   2.002   2.123
 2407SOL    HW1 8120   5.590   1.952   2.052
 2407SOL    HW2 8121   5.532   2.098   2.097
 2408SOL     OW 8122   3.628   5.563   3.037
 2408SOL    HW1 8123   3.672   5.548   2.949
 2408SOL    HW2 8124   3.697   5.589   3.105
 2409SOL     OW 8125   1.673   3.965   2.200
 2409SOL    HW1 8126   1.588   4.014   2.178
 2409SOL    HW2 8127   1.710   3.925   2.117
 2410SOL     OW 8128   4.308   2.784   6.429
 2410SOL    HW1 8129   4.388   2.843   6.422
 2410SOL    HW2 8130   4.299   2.729   6.346
 2411SOL     OW 8131   3.958   5.219   5.161
 2411SOL    HW1 8132   3.986   5.282   5.089
 2411SOL    HW2 8133   3.984   5.126   5.135
 2412SOL     OW 8134   4.747   5.433   1.265
 2412SOL    HW1 8135   4.753   5.445   1.166
 2412SOL    HW2 8136   4.674   5.369   1.286
 2413SOL     OW 8137   6.307   2.089   0.833
 2413SOL    HW1 8138   6.215   2.061   0.807
 2413SOL    HW2 8139   6.305   2.132   0.923
 2414SOL     OW 8140   4.985   4.291   2.670
 2414SOL    HW1 8141   4.910   4.226   2.654
 2414SOL    HW2 8142   5.007   4.338   2.585
 2415SOL     OW 8143   6.881   0.194   2.479
 2415SOL    HW1 8144   6.838   0.199   2.388
 2415SOL    HW2 8145   6.914   0.102   2.496
 2416SOL     OW 8146   4.340   2.212   5.647
 2416SOL    HW1 8147   4.246   2.190   5.619
 2416SOL    HW2 8148   4.387   2.256   5.571
 2417SOL     OW 8149   3.843   2.836   5.914
 2417SOL    HW1 8150   3.884   2.777   5.844
 2417SOL    HW2 8151   3.915   2.884   5.964
 2418SOL     OW 8152   3.023   3.482   4.234
 2418SOL    HW1 8153   2.973   3.543   4.173
 2418SOL    HW2 8154   3.032   3.524   4.324
 2419SOL     OW 8155   0.258   6.782   4.676
 2419SOL    HW1 8156   0.232   6.762   4.770
 2419SOL    HW2 8157   0.271   6.881   4.666
 2420SOL     OW 8158   2.967   1.415   2.459
 2420SOL    HW1 8159   2.994   1.429   2.554
 2420SOL    HW2 8160   2.942   1.319   2.445
 2421SOL     OW 8161   2.822   1.976   4.881
 2421SOL    HW1 8162   2.819   2.069   4.917
 2421SOL    HW2 8163   2.917   1.946   4.873
 2422SOL     OW 8164   5.759   1.255   0.977
 2422SOL    HW1 8165   5.697   1.193   0.929
 2422SOL    HW2 8166   5.788   1.212   1.063
 2423SOL     OW 8167   1.371   6.302   2.671
 2423SOL    HW1 8168   1.371   6.401   2.660
 2423SOL    HW2 8169   1.325   6.278   2.757
 2424SOL     OW 8170   5.996   6.582   6.028
 2424SOL    HW1 8171   5.905   6.623   6.033
 2424SOL    HW2 8172   6.051   6.612   6.106
 2425SOL     OW 8173   5.531   0.714   3.817
 2425SOL    HW1 8174   5.601   0.710   3.745
 2425SOL    HW2 8175   5.441   0.704   3.776
 2426SOL     OW 8176   0.816   5.996   5.182
 2426SOL    HW1 8177   0.850   6.085   5.154
 2426SOL    HW2 8178   0.719   6.002   5.204
 2427SOL     OW 8179   5.589   6.163   5.692
 2427SOL    HW1 8180   5.499   6.183   5.655
 2427SOL    HW2 8181   5.616   6.235   5.756
 2428SOL     OW 8182   6.225   0.102   2.719
 2428SOL    HW1 8183   6.157   0.120   2.649
 2428SOL    HW2 8184   6.180   0.069   2.802
 2429SOL     OW 8185   5.196   5.180   3.338
 2429SOL    HW1 8186   5.272   5.212   3.281
 2429SOL    HW2 8187   5.213   5.204   3.433
 2430SOL     OW 8188   5.914   1.963   1.403
 2430SOL    HW1 8189   6.002   1.949   1.449
 2430SOL    HW2 8190   5.925   1.949   1.305
 2431SOL     OW 8191   4.022   1.081   2.569
 2431SOL    HW1 8192   4.055   1.055   2.660
 2431SOL    HW2 8193   3.922   1.076   2.567
 2432SOL     OW 8194   3.229   6.623   2.843
 2432SOL    HW1 8195   3.286   6.684   2.787
 2432SOL    HW2 8196   3.135   6.625   2.809
 2433SOL     OW 8197   3.599   0.687   1.219
 2433SOL    HW1 8198   3.641   0.665   1.306
 2433SOL    HW2 8199   3.502   0.660   1.220
 2434SOL     OW 8200   4.047   1.098   5.537
 2434SOL    HW1 8201   4.118   1.028   5.543
 2434SOL    HW2 8202   4.071   1.164   5.466
 2435SOL     OW 8203   4.903   4.270   6.904
 2435SOL    HW1 8204   4.933   4.203   6.836
 2435SOL    HW2 8205   4.887   4.224   6.991
 2436SOL     OW 8206   1.592   5.853   1.053
 2436SOL    HW1 8207   1.518   5.817   1.109
 2436SOL    HW2 8208   1.554   5.892   0.969
 2437SOL     OW 8209   5.283   6.614   6.640
 2437SOL    HW1 8210   5.217   6.603   6.566
 2437SOL    HW2 8211   5.234   6.634   6.726
 2438SOL     OW 8212   3.422   0.900   6.587
 2438SOL    HW1 8213   3.509   0.876   6.630
 2438SOL    HW2 8214   3.390   0.988   6.621
 2439SOL     OW 8215   1.719   4.566   6.357
 2439SOL    HW1 8216   1.653   4.632   6.393
 2439SOL    HW2 8217   1.731   4.492   6.423
 2440SOL     OW 8218   4.561   6.144   5.309
 2440SOL    HW1 8219   4.582   6.196   5.393
 2440SOL    HW2 8220   4.561   6.046   5.330
 2441SOL     OW 8221   0.591   1.439   0.561
 2441SOL    HW1 8222   0.625   1.459   0.653
 2441SOL    HW2 8223   0.492   1.432   0.562
 2442SOL     OW 8224   1.050   3.595   5.952
 2442SOL    HW1 8225   1.044   3.533   5.874
 2442SOL    HW2 8226   1.030   3.688   5.922
 2443SOL     OW 8227   4.145   5.406   5.924
 2443SOL    HW1 8228   4.155   5.503   5.899
 2443SOL    HW2 8229   4.148   5.398   6.024
 2444SOL     OW 8230   3.343   3.915   6.113
 2444SOL    HW1 8231   3.331   3.822   6.148
 2444SOL    HW2 8232   3.343   3.914   6.013
 2445SOL     OW 8233   6.836   1.073   1.403
 2445SOL    HW1 8234   6.736   1.072   1.406
 2445SOL    HW2 8235   6.871   1.129   1.478
 2446SOL     OW 8236   6.545   4.652   4.305
 2446SOL    HW1 8237   6.595   4.732   4.273
 2446SOL    HW2 8238   6.595   4.609   4.380
 2447SOL     OW 8239   2.061   2.718   0.811
 2447SOL    HW1 8240   2.097   2.655   0.880
 2447SOL    HW2 8241   2.112   2.705   0.726
 2448SOL     OW 8242   0.281   1.162   4.787
 2448SOL    HW1 8243   0.239   1.200   4.705
 2448SOL    HW2 8244   0.233   1.080   4.815
 2449SOL     OW 8245   6.896   4.697   0.627
 2449SOL    HW1 8246   6.846   4.644   0.697
 2449SOL    HW2 8247   6.993   4.699   0.650
 2450SOL     OW 8248   2.546   4.538   3.358
 2450SOL    HW1 8249   2.594   4.625   3.351
 2450SOL    HW2 8250   2.530   4.515   3.454
 2451SOL     OW 8251   0.847   1.164   3.516
 2451SOL    HW1 8252   0.855   1.240   3.451
 2451SOL    HW2 8253   0.938   1.135   3.544
 2452SOL     OW 8254   1.853   4.116   2.736
 2452SOL    HW1 8255   1.758   4.115   2.706
 2452SOL    HW2 8256   1.883   4.023   2.758
 2453SOL     OW 8257   6.168   4.819   1.183
 2453SOL    HW1 8258   6.177   4.887   1.255
 2453SOL    HW2 8259   6.138   4.732   1.223
 2454SOL     OW 8260   3.142   0.515   1.192
 2454SOL    HW1 8261   3.071   0.506   1.262
 2454SOL    HW2 8262   3.195   0.598   1.209
 2455SOL     OW 8263   5.570   5.991   0.602
 2455SOL    HW1 8264   5.645   5.934   0.569
 2455SOL    HW2 8265   5.604   6.084   0.617
 2456SOL     OW 8266   5.186   6.318   1.790
 2456SOL    HW1 8267   5.159   6.410   1.761
 2456SOL    HW2 8268   5.276   6.297   1.752
 2457SOL     OW 8269   6.026   6.465   0.392
 2457SOL    HW1 8270   5.938   6.441   0.351
 2457SOL    HW2 8271   6.041   6.563   0.384
 2458SOL     OW 8272   2.087   5.857   3.369
 2458SOL    HW1 8273   2.068   5.955   3.360
 2458SOL    HW2 8274   2.132   5.824   3.286
 2459SOL     OW 8275   2.237   6.607   0.680
 2459SOL    HW1 8276   2.236   6.707   0.679
 2459SOL    HW2 8277   2.286   6.575   0.760
 2460SOL     OW 8278   1.980   0.995   1.268
 2460SOL    HW1 8279   2.005   1.089   1.290
 2460SOL    HW2 8280   2.057   0.935   1.288
 2461SOL     OW 8281   5.925   0.897   2.243
 2461SOL    HW1 8282   5.872   0.818   2.212
 2461SOL    HW2 8283   5.967   0.877   2.331
 2462SOL     OW 8284   2.598   5.595   0.301
 2462SOL    HW1 8285   2.537   5.672   0.319
 2462SOL    HW2 8286   2.645   5.608   0.214
 2463SOL     OW 8287   6.156   2.321   4.078
 2463SOL    HW1 8288   6.116   2.346   4.167
 2463SOL    HW2 8289   6.170   2.404   4.024
 2464SOL     OW 8290   0.976   4.849   0.809
 2464SOL    HW1 8291   1.075   4.833   0.809
 2464SOL    HW2 8292   0.930   4.773   0.764
 2465SOL     OW 8293   0.132   5.808   1.585
 2465SOL    HW1 8294   0.060   5.845   1.527
 2465SOL    HW2 8295   0.091   5.750   1.656
 2466SOL     OW 8296   3.764   1.266   2.345
 2466SOL    HW1 8297   3.750   1.204   2.422
 2466SOL    HW2 8298   3.831   1.226   2.282
 2467SOL     OW 8299   6.210   1.177   5.951
 2467SOL    HW1 8300   6.255   1.152   5.865
 2467SOL    HW2 8301   6.128   1.231   5.931
 2468SOL     OW 8302   0.079   6.321   2.067
 2468SOL    HW1 8303   0.121   6.301   1.979
 2468SOL    HW2 8304   0.031   6.409   2.061
 2469SOL     OW 8305   3.379   4.156   5.493
 2469SOL    HW1 8306   3.465   4.106   5.498
 2469SOL    HW2 8307   3.304   4.096   5.521
 2470SOL     OW 8308   2.904   4.287   6.362
 2470SOL    HW1 8309   2.889   4.202   6.312
 2470SOL    HW2 8310   2.891   4.271   6.460
 2471SOL     OW 8311   0.629   6.736   1.407
 2471SOL    HW1 8312   0.598   6.661   1.349
 2471SOL    HW2 8313   0.704   6.705   1.465
 2472SOL     OW 8314   5.544   1.405   4.906
 2472SOL    HW1 8315   5.642   1.426   4.913
 2472SOL    HW2 8316   5.531   1.330   4.841
 2473SOL     OW 8317   1.523   4.962   4.825
 2473SOL    HW1 8318   1.599   4.991   4.883
 2473SOL    HW2 8319   1.506   4.865   4.840
 2474SOL     OW 8320   6.971   4.825   6.787
 2474SOL    HW1 8321   7.018   4.832   6.699
 2474SOL    HW2 8322   0.001   4.759   6.845
 2475SOL     OW 8323   4.305   2.459   0.788
 2475SOL    HW1 8324   4.288   2.398   0.710
 2475SOL    HW2 8325   4.345   2.406   0.863
 2476SOL     OW 8326   1.190   2.413   3.913
 2476SOL    HW1 8327   1.219   2.426   4.008
 2476SOL    HW2 8328   1.090   2.410   3.910
 2477SOL     OW 8329   6.308   6.341   1.707
 2477SOL    HW1 8330   6.338   6.343   1.802
 2477SOL    HW2 8331   6.309   6.246   1.674
 2478SOL     OW 8332   5.933   5.927   2.554
 2478SOL    HW1 8333   5.971   5.979   2.631
 2478SOL    HW2 8334   5.840   5.958   2.535
 2479SOL     OW 8335   0.006   3.170   1.575
 2479SOL    HW1 8336   6.973   3.255   1.588
 2479SOL    HW2 8337   6.995   3.125   1.491
 2480SOL     OW 8338   6.996   2.573   0.975
 2480SOL    HW1 8339   0.031   2.654   0.952
 2480SOL    HW2 8340   6.927   2.597   1.044
 2481SOL     OW 8341   3.690   5.918   0.595
 2481SOL    HW1 8342   3.611   5.979   0.593
 2481SOL    HW2 8343   3.759   5.951   0.531
 2482SOL     OW 8344   4.640   3.556   5.665
 2482SOL    HW1 8345   4.552   3.598   5.645
 2482SOL    HW2 8346   4.629   3.456   5.670
 2483SOL     OW 8347   1.994   0.819   0.697
 2483SOL    HW1 8348   2.011   0.825   0.796
 2483SOL    HW2 8349   2.076   0.850   0.648
 2484SOL     OW 8350   1.774   0.665   0.640
 2484SOL    HW1 8351   1.731   0.666   0.730
 2484SOL    HW2 8352   1.858   0.719   0.642
 2485SOL     OW 8353   6.074   4.798   1.929
 2485SOL    HW1 8354   6.141   4.802   2.004
 2485SOL    HW2 8355   6.117   4.833   1.846
 2486SOL     OW 8356   1.729   6.071   4.095
 2486SOL    HW1 8357   1.821   6.110   4.101
 2486SOL    HW2 8358   1.710   6.046   4.000
 2487SOL     OW 8359   4.536   6.106   6.953
 2487SOL    HW1 8360   4.575   6.014   6.962
 2487SOL    HW2 8361   4.469   6.107   6.879
 2488SOL     OW 8362   2.822   4.115   1.453
 2488SOL    HW1 8363   2.874   4.029   1.459
 2488SOL    HW2 8364   2.743   4.103   1.394
 2489SOL     OW 8365   2.317   5.895   5.064
 2489SOL    HW1 8366   2.366   5.981   5.054
 2489SOL    HW2 8367   2.224   5.913   5.094
 2490SOL     OW 8368   0.167   5.069   0.720
 2490SOL    HW1 8369   0.148   5.056   0.623
 2490SOL    HW2 8370   0.082   5.092   0.768
 2491SOL     OW 8371   2.623   5.787   2.607
 2491SOL    HW1 8372   2.641   5.705   2.663
 2491SOL    HW2 8373   2.692   5.794   2.535
 2492SOL     OW 8374   4.876   3.455   6.372
 2492SOL    HW1 8375   4.836   3.507   6.447
 2492SOL    HW2 8376   4.804   3.409   6.321
 2493SOL     OW 8377   5.441   0.783   2.731
 2493SOL    HW1 8378   5.369   0.801   2.664
 2493SOL    HW2 8379   5.528   0.819   2.698
 2494SOL     OW 8380   4.687   2.619   2.622
 2494SOL    HW1 8381   4.656   2.643   2.714
 2494SOL    HW2 8382   4.708   2.703   2.571
 2495SOL     OW 8383   5.129   1.374   5.358
 2495SOL    HW1 8384   5.175   1.362   5.270
 2495SOL    HW2 8385   5.161   1.459   5.401
 2496SOL     OW 8386   1.232   5.571   0.559
 2496SOL    HW1 8387   1.300   5.547   0.628
 2496SOL    HW2 8388   1.149   5.517   0.574
 2497SOL     OW 8389   6.708   1.515   0.689
 2497SOL    HW1 8390   6.642   1.503   0.615
 2497SOL    HW2 8391   6.777   1.582   0.661
 2498SOL     OW 8392   2.029   3.433   3.243
 2498SOL    HW1 8393   2.053   3.511   3.300
 2498SOL    HW2 8394   2.006   3.463   3.151
 2499SOL     OW 8395   5.647   0.667   4.895
 2499SOL    HW1 8396   5.623   0.571   4.879
 2499SOL    HW2 8397   5.724   0.692   4.836
 2500SOL     OW 8398   5.107   3.284   6.386
 2500SOL    HW1 8399   5.144   3.235   6.464
 2500SOL    HW2 8400   5.025   3.335   6.414
 2501SOL     OW 8401   5.913   4.250   6.784
 2501SOL    HW1 8402   5.835   4.207   6.738
 2501SOL    HW2 8403   5.881   4.298   6.866
 2502SOL     OW 8404   2.371   6.595   3.441
 2502SOL    HW1 8405   2.308   6.639   3.378
 2502SOL    HW2 8406   2.324   6.523   3.492
 2503SOL     OW 8407   3.922   5.770   5.667
 2503SOL    HW1 8408   3.988   5.835   5.628
 2503SOL    HW2 8409   3.903   5.698   5.600
 2504SOL     OW 8410   2.010   4.694   4.725
 2504SOL    HW1 8411   1.914   4.707   4.700
 2504SOL    HW2 8412   2.021   4.604   4.767
 2505SOL     OW 8413   4.049   5.495   4.217
 2505SOL    HW1 8414   4.042   5.395   4.216
 2505SOL    HW2 8415   4.040   5.530   4.124
 2506SOL     OW 8416   6.312   3.475   6.286
 2506SOL    HW1 8417   6.268   3.397   6.329
 2506SOL    HW2 8418   6.265   3.497   6.200
 2507SOL     OW 8419   6.529   5.348   0.142
 2507SOL    HW1 8420   6.520   5.356   0.241
 2507SOL    HW2 8421   6.453   5.395   0.097
 2508SOL     OW 8422   2.802   1.890   2.257
 2508SOL    HW1 8423   2.834   1.950   2.184
 2508SOL    HW2 8424   2.844   1.917   2.343
 2509SOL     OW 8425   5.819   2.545   2.473
 2509SOL    HW1 8426   5.852   2.548   2.567
 2509SOL    HW2 8427   5.853   2.462   2.428
 2510SOL     OW 8428   3.318   4.913   0.661
 2510SOL    HW1 8429   3.307   4.852   0.739
 2510SOL    HW2 8430   3.268   4.876   0.582
 2511SOL     OW 8431   1.407   1.075   4.926
 2511SOL    HW1 8432   1.318   1.042   4.960
 2511SOL    HW2 8433   1.478   1.010   4.951
 2512SOL     OW 8434   5.030   4.012   4.818
 2512SOL    HW1 8435   5.128   4.009   4.795
 2512SOL    HW2 8436   5.010   3.941   4.886
 2513SOL     OW 8437   1.482   2.045   6.421
 2513SOL    HW1 8438   1.387   2.027   6.448
 2513SOL    HW2 8439   1.538   2.057   6.503
 2514SOL     OW 8440   0.814   1.442   4.400
 2514SOL    HW1 8441   0.899   1.471   4.444
 2514SOL    HW2 8442   0.738   1.451   4.464
 2515SOL     OW 8443   1.336   6.653   0.204
 2515SOL    HW1 8444   1.250   6.607   0.183
 2515SOL    HW2 8445   1.340   6.672   0.302
 2516SOL     OW 8446   5.805   6.014   3.582
 2516SOL    HW1 8447   5.860   6.035   3.501
 2516SOL    HW2 8448   5.851   6.049   3.664
 2517SOL     OW 8449   2.437   4.265   6.209
 2517SOL    HW1 8450   2.480   4.354   6.196
 2517SOL    HW2 8451   2.457   4.206   6.131
 2518SOL     OW 8452   2.538   2.539   6.500
 2518SOL    HW1 8453   2.527   2.546   6.401
 2518SOL    HW2 8454   2.448   2.548   6.544
 2519SOL     OW 8455   5.122   4.995   4.598
 2519SOL    HW1 8456   5.032   5.028   4.627
 2519SOL    HW2 8457   5.112   4.911   4.545
 2520SOL     OW 8458   2.678   3.550   0.887
 2520SOL    HW1 8459   2.637   3.528   0.798
 2520SOL    HW2 8460   2.619   3.517   0.960
 2521SOL     OW 8461   0.626   0.254   5.485
 2521SOL    HW1 8462   0.585   0.336   5.446
 2521SOL    HW2 8463   0.689   0.213   5.418
 2522SOL     OW 8464   1.367   2.895   4.367
 2522SOL    HW1 8465   1.270   2.880   4.345
 2522SOL    HW2 8466   1.395   2.833   4.440
 2523SOL     OW 8467   6.879   3.270   0.594
 2523SOL    HW1 8468   6.856   3.356   0.639
 2523SOL    HW2 8469   6.961   3.281   0.538
 2524SOL     OW 8470   1.085   6.786   4.206
 2524SOL    HW1 8471   1.005   6.812   4.152
 2524SOL    HW2 8472   1.169   6.814   4.159
 2525SOL     OW 8473   1.029   4.011   4.479
 2525SOL    HW1 8474   1.053   3.941   4.412
 2525SOL    HW2 8475   1.053   3.979   4.571
 2526SOL     OW 8476   0.414   2.190   4.245
 2526SOL    HW1 8477   0.407   2.289   4.258
 2526SOL    HW2 8478   0.509   2.165   4.227
 2527SOL     OW 8479   5.826   6.052   5.258
 2527SOL    HW1 8480   5.816   6.152   5.265
 2527SOL    HW2 8481   5.738   6.011   5.233
 2528SOL     OW 8482   6.178   5.142   6.964
 2528SOL    HW1 8483   6.140   5.064   6.915
 2528SOL    HW2 8484   6.135   5.150   0.035
 2529SOL     OW 8485   4.694   5.860   4.948
 2529SOL    HW1 8486   4.684   5.958   4.935
 2529SOL    HW2 8487   4.612   5.813   4.914
 2530SOL     OW 8488   1.197   6.090   3.473
 2530SOL    HW1 8489   1.224   6.185   3.486
 2530SOL    HW2 8490   1.137   6.062   3.548
 2531SOL     OW 8491   4.795   0.489   5.060
 2531SOL    HW1 8492   4.741   0.495   4.976
 2531SOL    HW2 8493   4.892   0.484   5.036
 2532SOL     OW 8494   1.225   5.793   0.256
 2532SOL    HW1 8495   1.138   5.813   0.302
 2532SOL    HW2 8496   1.219   5.819   0.160
 2533SOL     OW 8497   5.435   0.033   5.289
 2533SOL    HW1 8498   5.347   0.044   5.243
 2533SOL    HW2 8499   5.432   0.079   5.377
 2534SOL     OW 8500   2.063   0.564   3.642
 2534SOL    HW1 8501   1.989   0.631   3.642
 2534SOL    HW2 8502   2.067   0.520   3.732
 2535SOL     OW 8503   1.540   1.780   4.066
 2535SOL    HW1 8504   1.459   1.756   4.012
 2535SOL    HW2 8505   1.620   1.732   4.029
 2536SOL     OW 8506   6.229   1.281   4.461
 2536SOL    HW1 8507   6.172   1.257   4.383
 2536SOL    HW2 8508   6.326   1.272   4.436
 2537SOL     OW 8509   4.593   6.061   1.063
 2537SOL    HW1 8510   4.507   6.010   1.059
 2537SOL    HW2 8511   4.669   5.996   1.071
 2538SOL     OW 8512   1.733   4.745   4.645
 2538SOL    HW1 8513   1.710   4.665   4.589
 2538SOL    HW2 8514   1.653   4.772   4.698
 2539SOL     OW 8515   3.994   7.011   5.526
 2539SOL    HW1 8516   3.897   0.006   5.547
 2539SOL    HW2 8517   4.046   0.071   5.558
 2540SOL     OW 8518   5.276   1.074   2.503
 2540SOL    HW1 8519   5.181   1.044   2.509
 2540SOL    HW2 8520   5.312   1.052   2.413
 2541SOL     OW 8521   1.182   6.973   5.067
 2541SOL    HW1 8522   1.106   7.012   5.119
 2541SOL    HW2 8523   1.266   0.003   5.090
 2542SOL     OW 8524   3.859   1.847   4.011
 2542SOL    HW1 8525   3.842   1.762   3.961
 2542SOL    HW2 8526   3.900   1.826   4.100
 2543SOL     OW 8527   1.189   0.635   2.980
 2543SOL    HW1 8528   1.122   0.616   3.053
 2543SOL    HW2 8529   1.158   0.593   2.895
 2544SOL     OW 8530   0.140   5.505   1.347
 2544SOL    HW1 8531   0.090   5.447   1.412
 2544SOL    HW2 8532   0.224   5.537   1.389
 2545SOL     OW 8533   2.037   1.920   1.704
 2545SOL    HW1 8534   1.974   1.852   1.667
 2545SOL    HW2 8535   1.991   2.009   1.706
 2546SOL     OW 8536   6.248   3.712   1.723
 2546SOL    HW1 8537   6.269   3.755   1.811
 2546SOL    HW2 8538   6.150   3.723   1.704
 2547SOL     OW 8539   5.820   4.542   0.650
 2547SOL    HW1 8540   5.825   4.607   0.574
 2547SOL    HW2 8541   5.746   4.477   0.633
 2548SOL     OW 8542   1.040   0.360   4.970
 2548SOL    HW1 8543   1.072   0.337   5.062
 2548SOL    HW2 8544   1.078   0.449   4.943
 2549SOL     OW 8545   2.002   2.579   2.335
 2549SOL    HW1 8546   1.970   2.626   2.417
 2549SOL    HW2 8547   1.941   2.602   2.258
 2550SOL     OW 8548   5.572   6.768   6.955
 2550SOL    HW1 8549   5.521   6.844   6.996
 2550SOL    HW2 8550   5.653   6.804   6.909
 2551SOL     OW 8551   3.395   4.852   7.012
 2551SOL    HW1 8552   3.488   4.887   0.006
 2551SOL    HW2 8553   3.332   4.929   7.003
 2552SOL     OW 8554   2.052   4.802   6.929
 2552SOL    HW1 8555   2.081   4.823   6.835
 2552SOL    HW2 8556   2.131   4.772   6.982
 2553SOL     OW 8557   3.798   1.929   6.078
 2553SOL    HW1 8558   3.860   1.871   6.025
 2553SOL    HW2 8559   3.705   1.921   6.040
 2554SOL     OW 8560   1.718   5.806   0.459
 2554SOL    HW1 8561   1.755   5.883   0.512
 2554SOL    HW2 8562   1.793   5.744   0.436
 2555SOL     OW 8563   6.351   5.918   6.166
 2555SOL    HW1 8564   6.331   6.014   6.187
 2555SOL    HW2 8565   6.446   5.910   6.134
 2556SOL     OW 8566   3.391   6.601   1.236
 2556SOL    HW1 8567   3.430   6.668   1.173
 2556SOL    HW2 8568   3.293   6.619   1.248
 2557SOL     OW 8569   3.426   0.698   0.087
 2557SOL    HW1 8570   3.347   0.727   0.141
 2557SOL    HW2 8571   3.508   0.700   0.143
 2558SOL     OW 8572   5.493   4.555   6.361
 2558SOL    HW1 8573   5.394   4.550   6.371
 2558SOL    HW2 8574   5.534   4.471   6.396
 2559SOL     OW 8575   0.181   3.405   3.142
 2559SOL    HW1 8576   0.215   3.375   3.053
 2559SOL    HW2 8577   0.135   3.329   3.188
 2560SOL     OW 8578   5.092   3.387   3.627
 2560SOL    HW1 8579   5.143   3.310   3.665
 2560SOL    HW2 8580   5.001   3.391   3.668
 2561SOL     OW 8581   3.168   1.130   4.265
 2561SOL    HW1 8582   3.268   1.131   4.257
 2561SOL    HW2 8583   3.142   1.115   4.361
 2562SOL     OW 8584   3.435   6.348   3.108
 2562SOL    HW1 8585   3.452   6.250   3.096
 2562SOL    HW2 8586   3.337   6.366   3.100
 2563SOL     OW 8587   2.554   1.285   6.708
 2563SOL    HW1 8588   2.562   1.372   6.758
 2563SOL    HW2 8589   2.515   1.216   6.769
 2564SOL     OW 8590   2.456   0.568   6.907
 2564SOL    HW1 8591   2.416   0.521   6.828
 2564SOL    HW2 8592   2.405   0.544   6.990
 2565SOL     OW 8593   0.485   1.396   6.805
 2565SOL    HW1 8594   0.389   1.397   6.776
 2565SOL    HW2 8595   0.506   1.305   6.843
 2566SOL     OW 8596   3.078   0.501   2.013
 2566SOL    HW1 8597   3.153   0.460   1.961
 2566SOL    HW2 8598   3.007   0.432   2.029
 2567SOL     OW 8599   1.208   0.689   0.503
 2567SOL    HW1 8600   1.254   0.652   0.422
 2567SOL    HW2 8601   1.272   0.746   0.555
 2568SOL     OW 8602   2.779   6.600   1.216
 2568SOL    HW1 8603   2.783   6.520   1.277
 2568SOL    HW2 8604   2.828   6.676   1.258
 2569SOL     OW 8605   2.038   1.262   1.101
 2569SOL    HW1 8606   1.984   1.204   1.040
 2569SOL    HW2 8607   1.977   1.311   1.163
 2570SOL     OW 8608   5.012   5.885   6.794
 2570SOL    HW1 8609   5.080   5.879   6.867
 2570SOL    HW2 8610   4.921   5.874   6.833
 2571SOL     OW 8611   3.519   2.940   4.385
 2571SOL    HW1 8612   3.607   2.930   4.337
 2571SOL    HW2 8613   3.534   2.934   4.483
 2572SOL     OW 8614   2.592   5.466   1.421
 2572SOL    HW1 8615   2.671   5.416   1.457
 2572SOL    HW2 8616   2.538   5.502   1.497
 2573SOL     OW 8617   6.707   1.935   4.104
 2573SOL    HW1 8618   6.784   1.995   4.127
 2573SOL    HW2 8619   6.635   1.944   4.174
 2574SOL     OW 8620   6.604   3.083   1.147
 2574SOL    HW1 8621   6.631   3.148   1.077
 2574SOL    HW2 8622   6.575   3.132   1.229
 2575SOL     OW 8623   5.144   3.853   0.639
 2575SOL    HW1 8624   5.057   3.843   0.687
 2575SOL    HW2 8625   5.133   3.830   0.543
 2576SOL     OW 8626   2.848   0.105   4.117
 2576SOL    HW1 8627   2.852   0.009   4.144
 2576SOL    HW2 8628   2.797   0.156   4.187
 2577SOL     OW 8629   3.785   0.772   3.590
 2577SOL    HW1 8630   3.768   0.870   3.587
 2577SOL    HW2 8631   3.768   0.738   3.683
 2578SOL     OW 8632   4.695   2.702   4.384
 2578SOL    HW1 8633   4.674   2.639   4.309
 2578SOL    HW2 8634   4.623   2.696   4.453
 2579SOL     OW 8635   0.476   1.596   5.946
 2579SOL    HW1 8636   0.516   1.663   6.008
 2579SOL    HW2 8637   0.533   1.514   5.944
 2580SOL     OW 8638   1.351   2.458   5.689
 2580SOL    HW1 8639   1.308   2.429   5.774
 2580SOL    HW2 8640   1.420   2.527   5.708
 2581SOL     OW 8641   5.613   5.744   1.885
 2581SOL    HW1 8642   5.601   5.645   1.886
 2581SOL    HW2 8643   5.621   5.776   1.791
 2582SOL     OW 8644   1.420   5.371   2.966
 2582SOL    HW1 8645   1.336   5.412   2.930
 2582SOL    HW2 8646   1.410   5.355   3.064
 2583SOL     OW 8647   0.867   0.663   0.750
 2583SOL    HW1 8648   0.910   0.598   0.688
 2583SOL    HW2 8649   0.816   0.732   0.697
 2584SOL     OW 8650   3.400   6.534   0.710
 2584SOL    HW1 8651   3.347   6.571   0.634
 2584SOL    HW2 8652   3.421   6.608   0.774
 2585SOL     OW 8653   2.849   6.843   1.019
 2585SOL    HW1 8654   2.849   6.750   0.983
 2585SOL    HW2 8655   2.839   6.840   1.119
 2586SOL     OW 8656   6.095   0.948   4.627
 2586SOL    HW1 8657   6.010   0.915   4.667
 2586SOL    HW2 8658   6.106   1.045   4.648
 2587SOL     OW 8659   6.560   0.349   4.892
 2587SOL    HW1 8660   6.500   0.376   4.817
 2587SOL    HW2 8661   6.621   0.276   4.862
 2588SOL     OW 8662   5.296   0.142   1.100
 2588SOL    HW1 8663   5.259   0.144   1.193
 2588SOL    HW2 8664   5.362   0.217   1.089
 2589SOL     OW 8665   6.694   0.284   5.680
 2589SOL    HW1 8666   6.629   0.344   5.633
 2589SOL    HW2 8667   6.709   0.202   5.626
 2590SOL     OW 8668   3.629   0.147   2.871
 2590SOL    HW1 8669   3.699   0.215   2.894
 2590SOL    HW2 8670   3.586   0.115   2.955
 2591SOL     OW 8671   4.848   6.335   1.270
 2591SOL    HW1 8672   4.866   6.356   1.174
 2591SOL    HW2 8673   4.934   6.319   1.318
 2592SOL     OW 8674   2.876   5.579   1.504
 2592SOL    HW1 8675   2.792   5.576   1.558
 2592SOL    HW2 8676   2.922   5.666   1.519
 2593SOL     OW 8677   3.397   7.010   2.715
 2593SOL    HW1 8678   3.466   0.043   2.766
 2593SOL    HW2 8679   3.396   0.023   2.620
 2594SOL     OW 8680   0.358   0.355   6.643
 2594SOL    HW1 8681   0.347   0.452   6.666
 2594SOL    HW2 8682   0.344   0.342   6.544
 2595SOL     OW 8683   6.482   3.209   5.441
 2595SOL    HW1 8684   6.544   3.220   5.363
 2595SOL    HW2 8685   6.478   3.113   5.468
 2596SOL     OW 8686   3.976   2.219   1.918
 2596SOL    HW1 8687   3.876   2.230   1.925
 2596SOL    HW2 8688   4.003   2.130   1.954
 2597SOL     OW 8689   2.629   2.649   0.893
 2597SOL    HW1 8690   2.707   2.702   0.924
 2597SOL    HW2 8691   2.560   2.645   0.965
 2598SOL     OW 8692   6.683   2.773   4.414
 2598SOL    HW1 8693   6.588   2.777   4.445
 2598SOL    HW2 8694   6.743   2.802   4.488
 2599SOL     OW 8695   3.269   5.924   5.592
 2599SOL    HW1 8696   3.323   5.860   5.537
 2599SOL    HW2 8697   3.172   5.905   5.579
 2600SOL     OW 8698   4.809   3.814   3.691
 2600SOL    HW1 8699   4.730   3.755   3.675
 2600SOL    HW2 8700   4.807   3.848   3.785
 2601SOL     OW 8701   3.115   2.140   6.257
 2601SOL    HW1 8702   3.188   2.190   6.210
 2601SOL    HW2 8703   3.145   2.117   6.350
 2602SOL     OW 8704   0.004   4.494   4.883
 2602SOL    HW1 8705   6.993   4.477   4.789
 2602SOL    HW2 8706   6.962   4.445   4.946
 2603SOL     OW 8707   2.338   2.603   1.773
 2603SOL    HW1 8708   2.401   2.606   1.851
 2603SOL    HW2 8709   2.383   2.642   1.693
 2604SOL     OW 8710   5.394   0.039   0.816
 2604SOL    HW1 8711   5.360   0.128   0.847
 2604SOL    HW2 8712   5.380   6.990   0.889
 2605SOL     OW 8713   4.366   4.630   3.352
 2605SOL    HW1 8714   4.277   4.666   3.381
 2605SOL    HW2 8715   4.410   4.585   3.430
 2606SOL     OW 8716   6.794   3.905   0.634
 2606SOL    HW1 8717   6.713   3.912   0.693
 2606SOL    HW2 8718   6.781   3.830   0.569
 2607SOL     OW 8719   1.838   1.785   4.525
 2607SOL    HW1 8720   1.844   1.691   4.558
 2607SOL    HW2 8721   1.783   1.839   4.589
 2608SOL     OW 8722   5.014   0.469   2.300
 2608SOL    HW1 8723   5.074   0.451   2.379
 2608SOL    HW2 8724   4.953   0.391   2.286
 2609SOL     OW 8725   0.682   2.293   1.824
 2609SOL    HW1 8726   0.760   2.293   1.886
 2609SOL    HW2 8727   0.689   2.214   1.762
 2610SOL     OW 8728   6.846   5.934   4.298
 2610SOL    HW1 8729   6.854   5.888   4.386
 2610SOL    HW2 8730   6.769   5.998   4.301
 2611SOL     OW 8731   5.944   6.371   0.883
 2611SOL    HW1 8732   6.011   6.398   0.952
 2611SOL    HW2 8733   5.884   6.448   0.862
 2612SOL     OW 8734   6.010   6.197   4.451
 2612SOL    HW1 8735   5.934   6.156   4.401
 2612SOL    HW2 8736   6.035   6.139   4.528
 2613SOL     OW 8737   3.470   6.473   2.044
 2613SOL    HW1 8738   3.536   6.480   2.119
 2613SOL    HW2 8739   3.435   6.379   2.041
 2614SOL     OW 8740   6.212   6.857   5.660
 2614SOL    HW1 8741   6.145   6.798   5.705
 2614SOL    HW2 8742   6.177   6.951   5.658
 2615SOL     OW 8743   5.495   5.546   3.807
 2615SOL    HW1 8744   5.425   5.497   3.859
 2615SOL    HW2 8745   5.514   5.497   3.722
 2616SOL     OW 8746   4.144   3.364   4.125
 2616SOL    HW1 8747   4.150   3.305   4.045
 2616SOL    HW2 8748   4.163   3.459   4.097
 2617SOL     OW 8749   3.280   5.076   1.033
 2617SOL    HW1 8750   3.251   5.128   0.952
 2617SOL    HW2 8751   3.199   5.044   1.082
 2618SOL     OW 8752   0.090   6.650   3.094
 2618SOL    HW1 8753   0.005   6.694   3.065
 2618SOL    HW2 8754   0.091   6.555   3.063
 2619SOL     OW 8755   4.492   1.603   2.142
 2619SOL    HW1 8756   4.478   1.575   2.237
 2619SOL    HW2 8757   4.423   1.559   2.083
 2620SOL     OW 8758   1.523   5.386   3.599
 2620SOL    HW1 8759   1.448   5.445   3.570
 2620SOL    HW2 8760   1.486   5.308   3.651
 2621SOL     OW 8761   0.800   5.472   3.279
 2621SOL    HW1 8762   0.754   5.548   3.324
 2621SOL    HW2 8763   0.892   5.499   3.253
 2622SOL     OW 8764   1.786   2.995   5.967
 2622SOL    HW1 8765   1.716   2.959   5.904
 2622SOL    HW2 8766   1.873   3.004   5.918
 2623SOL     OW 8767   4.194   1.111   4.355
 2623SOL    HW1 8768   4.235   1.192   4.397
 2623SOL    HW2 8769   4.118   1.139   4.297
 2624SOL     OW 8770   6.420   3.002   3.236
 2624SOL    HW1 8771   6.411   3.071   3.165
 2624SOL    HW2 8772   6.436   3.047   3.324
 2625SOL     OW 8773   1.368   2.986   5.363
 2625SOL    HW1 8774   1.390   3.022   5.454
 2625SOL    HW2 8775   1.452   2.958   5.317
 2626SOL     OW 8776   0.660   6.580   3.891
 2626SOL    HW1 8777   0.563   6.605   3.884
 2626SOL    HW2 8778   0.678   6.542   3.981
 2627SOL     OW 8779   0.094   0.899   5.080
 2627SOL    HW1 8780   0.043   0.814   5.073
 2627SOL    HW2 8781   0.190   0.883   5.057
 2628SOL     OW 8782   3.596   6.247   6.431
 2628SOL    HW1 8783   3.686   6.202   6.435
 2628SOL    HW2 8784   3.526   6.180   6.407
 2629SOL     OW 8785   3.796   3.710   1.773
 2629SOL    HW1 8786   3.831   3.629   1.822
 2629SOL    HW2 8787   3.873   3.768   1.746
 2630SOL     OW 8788   3.604   2.112   2.317
 2630SOL    HW1 8789   3.660   2.030   2.302
 2630SOL    HW2 8790   3.608   2.170   2.235
 2631SOL     OW 8791   4.531   6.711   4.143
 2631SOL    HW1 8792   4.628   6.722   4.124
 2631SOL    HW2 8793   4.477   6.751   4.069
 2632SOL     OW 8794   3.542   2.285   0.014
 2632SOL    HW1 8795   3.447   2.311   0.034
 2632SOL    HW2 8796   3.542   2.205   6.973
 2633SOL     OW 8797   6.110   2.623   6.746
 2633SOL    HW1 8798   6.042   2.600   6.676
 2633SOL    HW2 8799   6.064   2.663   6.825
 2634SOL     OW 8800   2.016   3.987   2.443
 2634SOL    HW1 8801   1.943   3.921   2.427
 2634SOL    HW2 8802   2.014   4.016   2.539
 2635SOL     OW 8803   5.571   6.196   4.461
 2635SOL    HW1 8804   5.526   6.234   4.380
 2635SOL    HW2 8805   5.523   6.113   4.490
 2636SOL     OW 8806   5.955   0.287   7.013
 2636SOL    HW1 8807   5.964   0.386   7.004
 2636SOL    HW2 8808   5.887   0.254   6.948
 2637SOL     OW 8809   6.644   0.721   3.150
 2637SOL    HW1 8810   6.636   0.746   3.247
 2637SOL    HW2 8811   6.559   0.743   3.103
 2638SOL     OW 8812   5.519   0.051   1.839
 2638SOL    HW1 8813   5.615   0.020   1.840
 2638SOL    HW2 8814   5.516   0.151   1.837
 2639SOL     OW 8815   5.853   6.684   2.412
 2639SOL    HW1 8816   5.941   6.721   2.443
 2639SOL    HW2 8817   5.867   6.635   2.326
 2640SOL     OW 8818   0.035   6.350   5.406
 2640SOL    HW1 8819   0.029   6.262   5.360
 2640SOL    HW2 8820   6.993   6.351   5.485
 2641SOL     OW 8821   5.851   3.319   0.508
 2641SOL    HW1 8822   5.902   3.306   0.593
 2641SOL    HW2 8823   5.868   3.411   0.472
 2642SOL     OW 8824   5.585   0.840   4.588
 2642SOL    HW1 8825   5.565   0.896   4.508
 2642SOL    HW2 8826   5.517   0.767   4.596
 2643SOL     OW 8827   6.991   5.473   3.133
 2643SOL    HW1 8828   6.983   5.468   3.033
 2643SOL    HW2 8829   0.065   5.448   3.161
 2644SOL     OW 8830   0.978   4.575   5.556
 2644SOL    HW1 8831   0.883   4.546   5.564
 2644SOL    HW2 8832   1.036   4.496   5.539
 2645SOL     OW 8833   4.412   0.153   4.979
 2645SOL    HW1 8834   4.343   0.164   4.907
 2645SOL    HW2 8835   4.387   0.076   5.038
 2646SOL     OW 8836   5.959   7.000   6.224
 2646SOL    HW1 8837   5.946   6.904   6.247
 2646SOL    HW2 8838   6.055   0.006   6.236
 2647SOL     OW 8839   5.054   0.549   0.948
 2647SOL    HW1 8840   4.994   0.475   0.980
 2647SOL    HW2 8841   5.146   0.513   0.932
 2648SOL     OW 8842   6.124   0.025   2.966
 2648SOL    HW1 8843   6.159   0.015   3.059
 2648SOL    HW2 8844   6.031   7.006   2.961
 2649SOL     OW 8845   4.129   1.369   5.998
 2649SOL    HW1 8846   4.203   1.396   6.059
 2649SOL    HW2 8847   4.063   1.313   6.048
 2650SOL     OW 8848   0.647   5.179   3.925
 2650SOL    HW1 8849   0.725   5.181   3.863
 2650SOL    HW2 8850   0.586   5.256   3.904
 2651SOL     OW 8851   0.897   1.366   1.273
 2651SOL    HW1 8852   0.872   1.429   1.346
 2651SOL    HW2 8853   0.992   1.382   1.246
 2652SOL     OW 8854   3.083   3.065   3.868
 2652SOL    HW1 8855   3.021   3.024   3.802
 2652SOL    HW2 8856   3.129   3.144   3.827
 2653SOL     OW 8857   5.113   6.798   5.597
 2653SOL    HW1 8858   5.126   6.881   5.542
 2653SOL    HW2 8859   5.015   6.787   5.618
 2654SOL     OW 8860   5.225   3.209   6.615
 2654SOL    HW1 8861   5.184   3.285   6.665
 2654SOL    HW2 8862   5.240   3.132   6.677
 2655SOL     OW 8863   3.855   5.161   4.454
 2655SOL    HW1 8864   3.822   5.067   4.437
 2655SOL    HW2 8865   3.945   5.158   4.496
 2656SOL     OW 8866   5.285   4.829   3.875
 2656SOL    HW1 8867   5.338   4.879   3.943
 2656SOL    HW2 8868   5.251   4.891   3.805
 2657SOL     OW 8869   2.425   4.051   6.439
 2657SOL    HW1 8870   2.522   4.027   6.439
 2657SOL    HW2 8871   2.411   4.132   6.382
 2658SOL     OW 8872   6.168   4.709   6.499
 2658SOL    HW1 8873   6.187   4.727   6.402
 2658SOL    HW2 8874   6.160   4.611   6.514
 2659SOL     OW 8875   6.966   2.114   4.048
 2659SOL    HW1 8876   6.982   2.113   4.147
 2659SOL    HW2 8877   6.891   2.176   4.027
 2660SOL     OW 8878   0.286   2.119   1.057
 2660SOL    HW1 8879   0.254   2.208   1.091
 2660SOL    HW2 8880   0.289   2.054   1.133
 2661SOL     OW 8881   2.770   6.733   1.676
 2661SOL    HW1 8882   2.838   6.670   1.638
 2661SOL    HW2 8883   2.812   6.789   1.748
 2662SOL     OW 8884   4.314   6.777   4.684
 2662SOL    HW1 8885   4.408   6.807   4.665
 2662SOL    HW2 8886   4.292   6.699   4.627
 2663SOL     OW 8887   2.248   4.416   1.420
 2663SOL    HW1 8888   2.160   4.388   1.458
 2663SOL    HW2 8889   2.243   4.415   1.320
 2664SOL     OW 8890   3.480   3.885   3.536
 2664SOL    HW1 8891   3.441   3.977   3.540
 2664SOL    HW2 8892   3.454   3.835   3.619
 2665SOL     OW 8893   3.706   2.092   5.058
 2665SOL    HW1 8894   3.641   2.112   5.131
 2665SOL    HW2 8895   3.670   2.126   4.971
 2666SOL     OW 8896   4.543   4.253   1.362
 2666SOL    HW1 8897   4.575   4.287   1.450
 2666SOL    HW2 8898   4.471   4.185   1.376
 2667SOL     OW 8899   1.349   6.129   4.721
 2667SOL    HW1 8900   1.331   6.031   4.726
 2667SOL    HW2 8901   1.263   6.179   4.732
 2668SOL     OW 8902   6.433   3.472   4.044
 2668SOL    HW1 8903   6.500   3.529   3.998
 2668SOL    HW2 8904   6.352   3.461   3.987
 2669SOL     OW 8905   3.430   5.131   5.718
 2669SOL    HW1 8906   3.497   5.110   5.646
 2669SOL    HW2 8907   3.338   5.116   5.682
 2670SOL     OW 8908   6.744   1.125   6.391
 2670SOL    HW1 8909   6.677   1.053   6.407
 2670SOL    HW2 8910   6.709   1.212   6.424
 2671SOL     OW 8911   2.802   3.844   0.239
 2671SOL    HW1 8912   2.785   3.858   0.142
 2671SOL    HW2 8913   2.726   3.883   0.292
 2672SOL     OW 8914   1.690   5.869   6.958
 2672SOL    HW1 8915   1.764   5.817   7.002
 2672SOL    HW2 8916   1.672   5.952   7.012
 2673SOL     OW 8917   5.234   2.578   4.003
 2673SOL    HW1 8918   5.290   2.597   3.922
 2673SOL    HW2 8919   5.151   2.634   4.000
 2674SOL     OW 8920   1.873   4.495   4.123
 2674SOL    HW1 8921   1.960   4.456   4.093
 2674SOL    HW2 8922   1.851   4.574   4.065
 2675SOL     OW 8923   1.385   4.490   5.379
 2675SOL    HW1 8924   1.302   4.459   5.426
 2675SOL    HW2 8925   1.458   4.423   5.393
 2676SOL     OW 8926   4.616   1.370   2.794
 2676SOL    HW1 8927   4.645   1.442   2.732
 2676SOL    HW2 8928   4.578   1.293   2.742
 2677SOL     OW 8929   2.826   4.861   1.207
 2677SOL    HW1 8930   2.799   4.875   1.303
 2677SOL    HW2 8931   2.925   4.846   1.203
 2678SOL     OW 8932   0.919   4.848   0.303
 2678SOL    HW1 8933   1.010   4.841   0.344
 2678SOL    HW2 8934   0.920   4.808   0.211
 2679SOL     OW 8935   3.712   5.150   1.146
 2679SOL    HW1 8936   3.703   5.116   1.053
 2679SOL    HW2 8937   3.772   5.090   1.199
 2680SOL     OW 8938   1.887   1.709   0.230
 2680SOL    HW1 8939   1.800   1.660   0.239
 2680SOL    HW2 8940   1.923   1.729   0.321
 2681SOL     OW 8941   1.902   3.675   4.113
 2681SOL    HW1 8942   1.806   3.650   4.098
 2681SOL    HW2 8943   1.953   3.664   4.027
 2682SOL     OW 8944   5.567   3.170   2.329
 2682SOL    HW1 8945   5.557   3.157   2.231
 2682SOL    HW2 8946   5.658   3.206   2.349
 2683SOL     OW 8947   1.406   4.410   1.356
 2683SOL    HW1 8948   1.449   4.363   1.279
 2683SOL    HW2 8949   1.326   4.358   1.386
 2684SOL     OW 8950   3.932   5.557   2.395
 2684SOL    HW1 8951   4.007   5.563   2.461
 2684SOL    HW2 8952   3.869   5.634   2.409
 2685SOL     OW 8953   6.229   6.790   4.689
 2685SOL    HW1 8954   6.195   6.797   4.782
 2685SOL    HW2 8955   6.189   6.863   4.633
 2686SOL     OW 8956   1.202   2.429   4.231
 2686SOL    HW1 8957   1.173   2.337   4.204
 2686SOL    HW2 8958   1.278   2.423   4.296
 2687SOL     OW 8959   4.024   4.812   2.582
 2687SOL    HW1 8960   4.100   4.854   2.532
 2687SOL    HW2 8961   4.060   4.749   2.651
 2688SOL     OW 8962   4.236   5.557   5.616
 2688SOL    HW1 8963   4.335   5.568   5.613
 2688SOL    HW2 8964   4.200   5.598   5.700
 2689SOL     OW 8965   1.827   1.755   3.903
 2689SOL    HW1 8966   1.757   1.789   3.841
 2689SOL    HW2 8967   1.917   1.791   3.875
 2690SOL     OW 8968   3.886   3.007   3.777
 2690SOL    HW1 8969   3.831   2.962   3.847
 2690SOL    HW2 8970   3.965   3.050   3.819
 2691SOL     OW 8971   2.078   5.555   1.879
 2691SOL    HW1 8972   2.028   5.611   1.946
 2691SOL    HW2 8973   2.016   5.487   1.840
 2692SOL     OW 8974   6.275   6.079   4.211
 2692SOL    HW1 8975   6.233   6.003   4.160
 2692SOL    HW2 8976   6.322   6.139   4.147
 2693SOL     OW 8977   2.412   4.637   2.981
 2693SOL    HW1 8978   2.323   4.614   3.022
 2693SOL    HW2 8979   2.398   4.671   2.888
 2694SOL     OW 8980   3.398   0.821   2.917
 2694SOL    HW1 8981   3.330   0.820   2.844
 2694SOL    HW2 8982   3.351   0.830   3.005
 2695SOL     OW 8983   4.867   1.829   2.576
 2695SOL    HW1 8984   4.849   1.926   2.566
 2695SOL    HW2 8985   4.865   1.804   2.673
 2696SOL     OW 8986   3.925   2.353   5.418
 2696SOL    HW1 8987   3.897   2.290   5.345
 2696SOL    HW2 8988   3.872   2.438   5.411
 2697SOL     OW 8989   4.244   2.351   3.997
 2697SOL    HW1 8990   4.329   2.403   3.983
 2697SOL    HW2 8991   4.210   2.319   3.909
 2698SOL     OW 8992   1.692   4.818   0.557
 2698SOL    HW1 8993   1.610   4.873   0.565
 2698SOL    HW2 8994   1.745   4.823   0.642
 2699SOL     OW 8995   3.639   5.402   6.860
 2699SOL    HW1 8996   3.620   5.389   6.762
 2699SOL    HW2 8997   3.735   5.380   6.878
 2700SOL     OW 8998   2.102   3.693   2.384
 2700SOL    HW1 8999   2.114   3.596   2.364
 2700SOL    HW2 9000   2.005   3.715   2.390
 2701SOL     OW 9001   3.796   6.964   6.405
 2701SOL    HW1 9002   3.836   0.013   6.466
 2701SOL    HW2 9003   3.738   7.010   6.337
 2702SOL     OW 9004   6.841   2.026   2.938
 2702SOL    HW1 9005   6.810   1.992   2.849
 2702SOL    HW2 9006   6.787   2.106   2.965
 2703SOL     OW 9007   2.789   0.822   3.182
 2703SOL    HW1 9008   2.749   0.781   3.100
 2703SOL    HW2 9009   2.728   0.893   3.216
 2704SOL     OW 9010   1.524   5.529   1.829
 2704SOL    HW1 9011   1.609   5.581   1.840
 2704SOL    HW2 9012   1.450   5.591   1.804
 2705SOL     OW 9013   0.195   5.126   4.407
 2705SOL    HW1 9014   0.122   5.170   4.459
 2705SOL    HW2 9015   0.188   5.150   4.311
 2706SOL     OW 9016   0.099   1.068   1.880
 2706SOL    HW1 9017   0.191   1.103   1.861
 2706SOL    HW2 9018   0.031   1.131   1.842
 2707SOL     OW 9019   1.964   0.287   6.154
 2707SOL    HW1 9020   2.000   0.217   6.216
 2707SOL    HW2 9021   1.990   0.263   6.060
 2708SOL     OW 9022   2.637   2.398   1.543
 2708SOL    HW1 9023   2.616   2.300   1.550
 2708SOL    HW2 9024   2.679   2.428   1.629
 2709SOL     OW 9025   4.858   6.425   1.006
 2709SOL    HW1 9026   4.875   6.519   1.034
 2709SOL    HW2 9027   4.763   6.401   1.022
 2710SOL     OW 9028   6.721   4.074   2.689
 2710SOL    HW1 9029   6.644   4.114   2.639
 2710SOL    HW2 9030   6.806   4.096   2.641
 2711SOL     OW 9031   2.258   0.615   2.678
 2711SOL    HW1 9032   2.303   0.646   2.761
 2711SOL    HW2 9033   2.165   0.652   2.674
 2712SOL     OW 9034   3.186   5.071   6.963
 2712SOL    HW1 9035   3.276   5.102   6.933
 2712SOL    HW2 9036   3.118   5.142   6.942
 2713SOL     OW 9037   1.981   2.728   4.975
 2713SOL    HW1 9038   2.079   2.735   4.993
 2713SOL    HW2 9039   1.947   2.639   5.008
 2714SOL     OW 9040   5.134   1.611   6.971
 2714SOL    HW1 9041   5.079   1.590   6.890
 2714SOL    HW2 9042   5.111   1.703   7.004
 2715SOL     OW 9043   6.237   0.600   0.421
 2715SOL    HW1 9044   6.319   0.586   0.475
 2715SOL    HW2 9045   6.259   0.651   0.338
 2716SOL     OW 9046   0.023   5.372   1.593
 2716SOL    HW1 9047   6.988   5.290   1.610
 2716SOL    HW2 9048   0.015   5.434   1.672
 2717SOL     OW 9049   0.841   5.457   2.031
 2717SOL    HW1 9050   0.866   5.554   2.029
 2717SOL    HW2 9051   0.787   5.435   1.950
 2718SOL     OW 9052   2.204   4.131   4.262
 2718SOL    HW1 9053   2.204   4.086   4.173
 2718SOL    HW2 9054   2.250   4.219   4.255
 2719SOL     OW 9055   4.557   5.061   2.147
 2719SOL    HW1 9056   4.628   5.124   2.178
 2719SOL    HW2 9057   4.586   4.967   2.168
 2720SOL     OW 9058   1.885   6.200   3.441
 2720SOL    HW1 9059   1.799   6.251   3.442
 2720SOL    HW2 9060   1.900   6.163   3.349
 2721SOL     OW 9061   2.521   0.515   5.010
 2721SOL    HW1 9062   2.564   0.429   5.038
 2721SOL    HW2 9063   2.452   0.497   4.940
 2722SOL     OW 9064   6.582   5.328   3.072
 2722SOL    HW1 9065   6.606   5.266   2.997
 2722SOL    HW2 9066   6.485   5.319   3.093
 2723SOL     OW 9067   1.752   1.126   5.581
 2723SOL    HW1 9068   1.698   1.099   5.501
 2723SOL    HW2 9069   1.708   1.092   5.664
 2724SOL     OW 9070   2.957   6.102   5.308
 2724SOL    HW1 9071   2.874   6.061   5.271
 2724SOL    HW2 9072   2.978   6.060   5.396
 2725SOL     OW 9073   5.873   4.608   3.356
 2725SOL    HW1 9074   5.929   4.562   3.287
 2725SOL    HW2 9075   5.913   4.593   3.447
 2726SOL     OW 9076   4.656   4.897   1.535
 2726SOL    HW1 9077   4.744   4.932   1.568
 2726SOL    HW2 9078   4.629   4.819   1.591
 2727SOL     OW 9079   0.916   4.700   3.059
 2727SOL    HW1 9080   0.907   4.661   2.967
 2727SOL    HW2 9081   0.954   4.792   3.053
 2728SOL     OW 9082   3.006   0.517   4.566
 2728SOL    HW1 9083   2.946   0.537   4.643
 2728SOL    HW2 9084   2.953   0.520   4.481
 2729SOL     OW 9085   0.011   5.907   2.122
 2729SOL    HW1 9086   6.997   5.970   2.051
 2729SOL    HW2 9087   6.951   5.867   2.168
 2730SOL     OW 9088   2.035   6.993   1.270
 2730SOL    HW1 9089   2.057   0.044   1.338
 2730SOL    HW2 9090   1.944   6.955   1.288
 2731SOL     OW 9091   2.801   3.783   1.452
 2731SOL    HW1 9092   2.709   3.751   1.429
 2731SOL    HW2 9093   2.813   3.780   1.551
 2732SOL     OW 9094   6.099   3.381   2.497
 2732SOL    HW1 9095   6.082   3.427   2.585
 2732SOL    HW2 9096   6.155   3.300   2.513
 2733SOL     OW 9097   0.707   6.777   5.338
 2733SOL    HW1 9098   0.695   6.679   5.327
 2733SOL    HW2 9099   0.623   6.825   5.311
 2734SOL     OW 9100   1.543   5.266   3.270
 2734SOL    HW1 9101   1.617   5.241   3.332
 2734SOL    HW2 9102   1.523   5.364   3.279
 2735SOL     OW 9103   0.260   3.407   2.522
 2735SOL    HW1 9104   0.173   3.441   2.560
 2735SOL    HW2 9105   0.328   3.480   2.526
 2736SOL     OW 9106   4.750   0.631   4.806
 2736SOL    HW1 9107   4.830   0.673   4.763
 2736SOL    HW2 9108   4.667   0.675   4.771
 2737SOL     OW 9109   3.257   3.187   6.517
 2737SOL    HW1 9110   3.218   3.112   6.464
 2737SOL    HW2 9111   3.257   3.271   6.461
 2738SOL     OW 9112   4.896   5.600   4.377
 2738SOL    HW1 9113   4.995   5.617   4.382
 2738SOL    HW2 9114   4.848   5.672   4.427
 2739SOL     OW 9115   5.899   4.175   0.853
 2739SOL    HW1 9116   5.955   4.099   0.823
 2739SOL    HW2 9117   5.906   4.186   0.952
 2740SOL     OW 9118   5.837   2.283   2.355
 2740SOL    HW1 9119   5.816   2.312   2.262
 2740SOL    HW2 9120   5.791   2.195   2.373
 2741SOL     OW 9121   6.922   1.549   5.794
 2741SOL    HW1 9122   6.941   1.537   5.697
 2741SOL    HW2 9123   6.883   1.465   5.831
 2742SOL     OW 9124   1.557   5.934   6.279
 2742SOL    HW1 9125   1.647   5.964   6.312
 2742SOL    HW2 9126   1.501   6.014   6.258
 2743SOL     OW 9127   6.127   6.020   1.456
 2743SOL    HW1 9128   6.181   6.041   1.375
 2743SOL    HW2 9129   6.052   6.086   1.465
 2744SOL     OW 9130   4.370   1.950   6.809
 2744SOL    HW1 9131   4.352   1.952   6.711
 2744SOL    HW2 9132   4.287   1.975   6.859
 2745SOL     OW 9133   2.164   6.253   0.394
 2745SOL    HW1 9134   2.153   6.186   0.321
 2745SOL    HW2 9135   2.248   6.235   0.445
 2746SOL     OW 9136   1.861   3.418   4.782
 2746SOL    HW1 9137   1.826   3.512   4.780
 2746SOL    HW2 9138   1.956   3.417   4.753
 2747SOL     OW 9139   5.617   4.493   5.279
 2747SOL    HW1 9140   5.518   4.495   5.287
 2747SOL    HW2 9141   5.656   4.579   5.312
 2748SOL     OW 9142   3.328   1.402   2.724
 2748SOL    HW1 9143   3.317   1.379   2.821
 2748SOL    HW2 9144   3.386   1.483   2.716
 2749SOL     OW 9145   5.438   4.871   4.111
 2749SOL    HW1 9146   5.452   4.919   4.198
 2749SOL    HW2 9147   5.485   4.783   4.114
 2750SOL     OW 9148   0.916   5.009   1.611
 2750SOL    HW1 9149   0.940   5.070   1.536
 2750SOL    HW2 9150   0.857   5.056   1.675
 2751SOL     OW 9151   1.786   0.005   0.550
 2751SOL    HW1 9152   1.858   6.959   0.573
 2751SOL    HW2 9153   1.805   0.048   0.462
 2752SOL     OW 9154   4.722   5.706   5.181
 2752SOL    HW1 9155   4.687   5.614   5.164
 2752SOL    HW2 9156   4.718   5.760   5.096
 2753SOL     OW 9157   3.039   5.842   6.440
 2753SOL    HW1 9158   3.114   5.777   6.424
 2753SOL    HW2 9159   3.052   5.887   6.528
 2754SOL     OW 9160   6.785   0.046   4.056
 2754SOL    HW1 9161   6.689   0.070   4.049
 2754SOL    HW2 9162   6.810   0.030   4.151
 2755SOL     OW 9163   2.790   6.679   3.634
 2755SOL    HW1 9164   2.880   6.669   3.590
 2755SOL    HW2 9165   2.795   6.752   3.702
 2756SOL     OW 9166   6.326   4.569   4.151
 2756SOL    HW1 9167   6.310   4.485   4.203
 2756SOL    HW2 9168   6.412   4.610   4.179
 2757SOL     OW 9169   3.571   1.789   6.531
 2757SOL    HW1 9170   3.664   1.792   6.566
 2757SOL    HW2 9171   3.572   1.787   6.431
 2758SOL     OW 9172   5.443   5.962   3.493
 2758SOL    HW1 9173   5.467   6.023   3.568
 2758SOL    HW2 9174   5.344   5.963   3.479
 2759SOL     OW 9175   3.317   4.752   5.707
 2759SOL    HW1 9176   3.346   4.672   5.655
 2759SOL    HW2 9177   3.289   4.825   5.645
 2760SOL     OW 9178   6.166   5.861   2.388
 2760SOL    HW1 9179   6.076   5.840   2.425
 2760SOL    HW2 9180   6.228   5.883   2.463
 2761SOL     OW 9181   1.356   4.413   3.241
 2761SOL    HW1 9182   1.261   4.431   3.216
 2761SOL    HW2 9183   1.406   4.381   3.161
 2762SOL     OW 9184   1.201   2.086   6.478
 2762SOL    HW1 9185   1.127   2.103   6.542
 2762SOL    HW2 9186   1.164   2.074   6.386
 2763SOL     OW 9187   5.063   1.743   5.786
 2763SOL    HW1 9188   5.078   1.839   5.808
 2763SOL    HW2 9189   5.146   1.703   5.749
 2764SOL     OW 9190   0.642   4.342   2.740
 2764SOL    HW1 9191   0.597   4.408   2.801
 2764SOL    HW2 9192   0.729   4.315   2.781
 2765SOL     OW 9193   6.483   0.223   0.721
 2765SOL    HW1 9194   6.558   0.165   0.754
 2765SOL    HW2 9195   6.404   0.166   0.698
 2766SOL     OW 9196   4.096   1.005   6.760
 2766SOL    HW1 9197   4.106   1.066   6.681
 2766SOL    HW2 9198   4.111   1.057   6.844
 2767SOL     OW 9199   5.833   5.785   6.351
 2767SOL    HW1 9200   5.895   5.856   6.386
 2767SOL    HW2 9201   5.886   5.716   6.302
 2768SOL     OW 9202   3.580   0.408   0.539
 2768SOL    HW1 9203   3.489   0.449   0.540
 2768SOL    HW2 9204   3.584   0.336   0.608
 2769SOL     OW 9205   1.763   4.241   5.933
 2769SOL    HW1 9206   1.706   4.316   5.966
 2769SOL    HW2 9207   1.856   4.253   5.967
 2770SOL     OW 9208   3.643   6.371   5.793
 2770SOL    HW1 9209   3.549   6.383   5.827
 2770SOL    HW2 9210   3.668   6.274   5.801
 2771SOL     OW 9211   5.293   6.395   4.030
 2771SOL    HW1 9212   5.367   6.404   3.964
 2771SOL    HW2 9213   5.205   6.407   3.983
 2772SOL     OW 9214   3.748   0.931   2.245
 2772SOL    HW1 9215   3.809   0.869   2.195
 2772SOL    HW2 9216   3.734   1.015   2.192
 2773SOL     OW 9217   0.058   3.121   4.076
 2773SOL    HW1 9218   6.990   3.167   4.098
 2773SOL    HW2 9219   0.058   3.096   3.979
 2774SOL     OW 9220   5.158   1.978   2.832
 2774SOL    HW1 9221   5.102   1.939   2.905
 2774SOL    HW2 9222   5.207   2.059   2.866
 2775SOL     OW 9223   0.126   3.644   3.705
 2775SOL    HW1 9224   0.151   3.595   3.622
 2775SOL    HW2 9225   0.153   3.589   3.785
 2776SOL     OW 9226   5.643   5.506   0.246
 2776SOL    HW1 9227   5.621   5.450   0.166
 2776SOL    HW2 9228   5.586   5.589   0.245
 2777SOL     OW 9229   2.705   2.012   5.859
 2777SOL    HW1 9230   2.663   2.057   5.938
 2777SOL    HW2 9231   2.692   1.913   5.867
 2778SOL     OW 9232   2.594   5.815   6.441
 2778SOL    HW1 9233   2.676   5.812   6.385
 2778SOL    HW2 9234   2.575   5.909   6.469
 2779SOL     OW 9235   5.655   6.396   1.649
 2779SOL    HW1 9236   5.589   6.470   1.659
 2779SOL    HW2 9237   5.742   6.432   1.617
 2780SOL     OW 9238   0.310   0.633   6.648
 2780SOL    HW1 9239   0.345   0.652   6.556
 2780SOL    HW2 9240   0.221   0.588   6.641
 2781SOL     OW 9241   6.678   0.792   2.382
 2781SOL    HW1 9242   6.714   0.860   2.447
 2781SOL    HW2 9243   6.607   0.833   2.326
 2782SOL     OW 9244   4.502   0.603   5.726
 2782SOL    HW1 9245   4.495   0.570   5.820
 2782SOL    HW2 9246   4.512   0.702   5.726
 2783SOL     OW 9247   6.077   3.633   1.302
 2783SOL    HW1 9248   6.173   3.645   1.327
 2783SOL    HW2 9249   6.056   3.535   1.298
 2784SOL     OW 9250   2.909   1.567   2.067
 2784SOL    HW1 9251   2.927   1.471   2.043
 2784SOL    HW2 9252   2.982   1.600   2.126
 2785SOL     OW 9253   5.138   2.691   1.410
 2785SOL    HW1 9254   5.143   2.615   1.345
 2785SOL    HW2 9255   5.064   2.675   1.475
 2786SOL     OW 9256   6.715   5.790   1.052
 2786SOL    HW1 9257   6.754   5.751   1.135
 2786SOL    HW2 9258   6.773   5.863   1.018
 2787SOL     OW 9259   6.300   6.115   5.918
 2787SOL    HW1 9260   6.398   6.099   5.932
 2787SOL    HW2 9261   6.261   6.039   5.866
 2788SOL     OW 9262   3.358   6.419   5.943
 2788SOL    HW1 9263   3.425   6.364   5.994
 2788SOL    HW2 9264   3.269   6.374   5.946
 2789SOL     OW 9265   1.013   2.641   3.673
 2789SOL    HW1 9266   1.037   2.736   3.694
 2789SOL    HW2 9267   0.997   2.591   3.758
 2790SOL     OW 9268   2.631   5.331   0.375
 2790SOL    HW1 9269   2.597   5.423   0.356
 2790SOL    HW2 9270   2.703   5.335   0.445
 2791SOL     OW 9271   0.305   4.134   2.488
 2791SOL    HW1 9272   0.226   4.175   2.442
 2791SOL    HW2 9273   0.365   4.092   2.419
 2792SOL     OW 9274   2.950   0.545   5.009
 2792SOL    HW1 9275   2.907   0.608   5.073
 2792SOL    HW2 9276   3.039   0.580   4.981
 2793SOL     OW 9277   4.125   4.064   1.215
 2793SOL    HW1 9278   4.157   4.041   1.123
 2793SOL    HW2 9279   4.072   3.988   1.252
 2794SOL     OW 9280   6.692   0.950   6.741
 2794SOL    HW1 9281   6.634   1.009   6.797
 2794SOL    HW2 9282   6.653   0.941   6.649
 2795SOL     OW 9283   0.607   4.970   0.860
 2795SOL    HW1 9284   0.682   5.013   0.910
 2795SOL    HW2 9285   0.538   5.039   0.838
 2796SOL     OW 9286   0.729   5.574   5.414
 2796SOL    HW1 9287   0.690   5.510   5.480
 2796SOL    HW2 9288   0.662   5.593   5.343
 2797SOL     OW 9289   5.872   5.763   4.996
 2797SOL    HW1 9290   5.970   5.745   4.994
 2797SOL    HW2 9291   5.848   5.823   4.919
 2798SOL     OW 9292   6.483   6.382   2.457
 2798SOL    HW1 9293   6.521   6.295   2.486
 2798SOL    HW2 9294   6.413   6.367   2.387
 2799SOL     OW 9295   4.802   5.463   5.446
 2799SOL    HW1 9296   4.804   5.451   5.545
 2799SOL    HW2 9297   4.709   5.452   5.413
 2800SOL     OW 9298   5.546   0.496   6.999
 2800SOL    HW1 9299   5.548   0.513   0.079
 2800SOL    HW2 9300   5.596   0.568   6.952
 2801SOL     OW 9301   0.649   5.563   5.916
 2801SOL    HW1 9302   0.694   5.491   5.968
 2801SOL    HW2 9303   0.602   5.625   5.979
 2802SOL     OW 9304   6.014   6.652   5.773
 2802SOL    HW1 9305   6.004   6.621   5.868
 2802SOL    HW2 9306   5.924   6.672   5.735
 2803SOL     OW 9307   3.422   3.215   6.192
 2803SOL    HW1 9308   3.335   3.239   6.234
 2803SOL    HW2 9309   3.408   3.145   6.122
 2804SOL     OW 9310   0.142   2.800   3.850
 2804SOL    HW1 9311   0.186   2.723   3.896
 2804SOL    HW2 9312   0.089   2.767   3.772
 2805SOL     OW 9313   4.916   3.526   2.113
 2805SOL    HW1 9314   4.955   3.472   2.188
 2805SOL    HW2 9315   4.825   3.557   2.138
 2806SOL     OW 9316   2.406   3.807   5.918
 2806SOL    HW1 9317   2.322   3.796   5.865
 2806SOL    HW2 9318   2.396   3.887   5.978
 2807SOL     OW 9319   3.202   0.459   2.940
 2807SOL    HW1 9320   3.235   0.518   3.013
 2807SOL    HW2 9321   3.201   0.510   2.854
 2808SOL     OW 9322   6.621   5.570   0.707
 2808SOL    HW1 9323   6.563   5.639   0.751
 2808SOL    HW2 9324   6.614   5.483   0.756
 2809SOL     OW 9325   5.245   4.335   1.925
 2809SOL    HW1 9326   5.282   4.266   1.863
 2809SOL    HW2 9327   5.149   4.353   1.902
 2810SOL     OW 9328   2.304   6.129   3.608
 2810SOL    HW1 9329   2.275   6.220   3.578
 2810SOL    HW2 9330   2.225   6.076   3.636
 2811SOL     OW 9331   0.680   0.612   2.428
 2811SOL    HW1 9332   0.658   0.709   2.432
 2811SOL    HW2 9333   0.780   0.600   2.426
 2812SOL     OW 9334   0.399   3.164   0.162
 2812SOL    HW1 9335   0.405   3.110   0.078
 2812SOL    HW2 9336   0.474   3.141   0.223
 2813SOL     OW 9337   1.026   1.757   1.182
 2813SOL    HW1 9338   1.049   1.751   1.084
 2813SOL    HW2 9339   1.070   1.837   1.222
 2814SOL     OW 9340   2.911   4.110   6.929
 2814SOL    HW1 9341   2.911   4.110   6.829
 2814SOL    HW2 9342   2.908   4.204   6.962
 2815SOL     OW 9343   0.237   5.995   5.067
 2815SOL    HW1 9344   0.205   5.901   5.075
 2815SOL    HW2 9345   0.196   6.050   5.140
 2816SOL     OW 9346   6.617   6.113   5.333
 2816SOL    HW1 9347   6.593   6.043   5.265
 2816SOL    HW2 9348   6.554   6.106   5.411
 2817SOL     OW 9349   3.799   0.606   2.074
 2817SOL    HW1 9350   3.868   0.678   2.086
 2817SOL    HW2 9351   3.837   0.519   2.103
 2818SOL     OW 9352   1.356   0.789   0.989
 2818SOL    HW1 9353   1.309   0.710   0.949
 2818SOL    HW2 9354   1.374   0.771   1.086
 2819SOL     OW 9355   0.986   0.090   1.009
 2819SOL    HW1 9356   0.925   0.078   1.087
 2819SOL    HW2 9357   1.073   0.127   1.040
 2820SOL     OW 9358   0.907   2.536   2.094
 2820SOL    HW1 9359   0.860   2.598   2.032
 2820SOL    HW2 9360   0.882   2.441   2.072
 2821SOL     OW 9361   3.632   4.974   6.697
 2821SOL    HW1 9362   3.670   4.926   6.777
 2821SOL    HW2 9363   3.639   4.915   6.617
 2822SOL     OW 9364   3.531   3.175   1.086
 2822SOL    HW1 9365   3.579   3.251   1.130
 2822SOL    HW2 9366   3.538   3.184   0.987
 2823SOL     OW 9367   4.978   0.870   0.542
 2823SOL    HW1 9368   4.923   0.848   0.461
 2823SOL    HW2 9369   4.926   0.851   0.625
 2824SOL     OW 9370   1.309   3.904   5.934
 2824SOL    HW1 9371   1.278   3.956   5.855
 2824SOL    HW2 9372   1.406   3.883   5.924
 2825SOL     OW 9373   4.962   0.630   6.645
 2825SOL    HW1 9374   4.886   0.611   6.707
 2825SOL    HW2 9375   4.944   0.716   6.597
 2826SOL     OW 9376   1.347   3.181   6.046
 2826SOL    HW1 9377   1.318   3.224   6.131
 2826SOL    HW2 9378   1.351   3.082   6.058
 2827SOL     OW 9379   0.036   0.565   6.650
 2827SOL    HW1 9380   6.963   0.539   6.681
 2827SOL    HW2 9381   0.033   0.657   6.609
 2828SOL     OW 9382   1.504   3.527   1.385
 2828SOL    HW1 9383   1.421   3.560   1.430
 2828SOL    HW2 9384   1.482   3.501   1.291
 2829SOL     OW 9385   3.366   4.130   3.497
 2829SOL    HW1 9386   3.381   4.173   3.586
 2829SOL    HW2 9387   3.270   4.140   3.471
 2830SOL     OW 9388   4.506   5.193   5.536
 2830SOL    HW1 9389   4.559   5.115   5.569
 2830SOL    HW2 9390   4.566   5.273   5.526
 2831SOL     OW 9391   6.533   2.436   1.689
 2831SOL    HW1 9392   6.602   2.390   1.746
 2831SOL    HW2 9393   6.572   2.516   1.646
 2832SOL     OW 9394   0.912   3.044   1.200
 2832SOL    HW1 9395   0.962   3.120   1.158
 2832SOL    HW2 9396   0.974   2.990   1.256
 2833SOL     OW 9397   2.215   0.911   2.319
 2833SOL    HW1 9398   2.238   0.832   2.375
 2833SOL    HW2 9399   2.298   0.964   2.301
 2834SOL     OW 9400   4.359   6.410   4.947
 2834SOL    HW1 9401   4.377   6.387   4.851
 2834SOL    HW2 9402   4.349   6.509   4.956
 2835SOL     OW 9403   1.198   6.535   0.861
 2835SOL    HW1 9404   1.279   6.486   0.894
 2835SOL    HW2 9405   1.121   6.516   0.922
 2836SOL     OW 9406   3.418   6.793   3.375
 2836SOL    HW1 9407   3.331   6.747   3.355
 2836SOL    HW2 9408   3.404   6.892   3.375
 2837SOL     OW 9409   5.829   4.291   2.284
 2837SOL    HW1 9410   5.751   4.334   2.239
 2837SOL    HW2 9411   5.823   4.306   2.383
 2838SOL     OW 9412   4.677   3.922   6.510
 2838SOL    HW1 9413   4.737   3.970   6.446
 2838SOL    HW2 9414   4.629   3.848   6.461
 2839SOL     OW 9415   6.108   2.994   4.238
 2839SOL    HW1 9416   6.186   3.033   4.288
 2839SOL    HW2 9417   6.029   2.987   4.299
 2840SOL     OW 9418   0.818   5.807   2.975
 2840SOL    HW1 9419   0.735   5.809   2.919
 2840SOL    HW2 9420   0.804   5.862   3.057
 2841SOL     OW 9421   6.117   2.389   0.945
 2841SOL    HW1 9422   6.198   2.335   0.964
 2841SOL    HW2 9423   6.143   2.476   0.902
 2842SOL     OW 9424   1.360   6.353   4.470
 2842SOL    HW1 9425   1.415   6.436   4.474
 2842SOL    HW2 9426   1.383   6.293   4.546
 2843SOL     OW 9427   2.166   3.472   2.965
 2843SOL    HW1 9428   2.128   3.473   2.873
 2843SOL    HW2 9429   2.156   3.381   3.005
 2844SOL     OW 9430   5.047   4.710   0.744
 2844SOL    HW1 9431   4.971   4.656   0.709
 2844SOL    HW2 9432   5.012   4.796   0.783
 2845SOL     OW 9433   4.799   3.076   3.536
 2845SOL    HW1 9434   4.817   3.155   3.478
 2845SOL    HW2 9435   4.785   3.106   3.630
 2846SOL     OW 9436   4.825   0.263   0.290
 2846SOL    HW1 9437   4.900   0.312   0.246
 2846SOL    HW2 9438   4.739   0.282   0.242
 2847SOL     OW 9439   4.746   4.194   2.175
 2847SOL    HW1 9440   4.801   4.277   2.168
 2847SOL    HW2 9441   4.652   4.214   2.147
 2848SOL     OW 9442   0.530   3.205   4.933
 2848SOL    HW1 9443   0.474   3.221   5.014
 2848SOL    HW2 9444   0.593   3.130   4.951
 2849SOL     OW 9445   3.632   0.876   2.477
 2849SOL    HW1 9446   3.647   0.912   2.385
 2849SOL    HW2 9447   3.672   0.785   2.484
 2850SOL     OW 9448   2.685   6.765   3.235
 2850SOL    HW1 9449   2.658   6.749   3.330
 2850SOL    HW2 9450   2.785   6.763   3.228
 2851SOL     OW 9451   4.578   3.798   0.620
 2851SOL    HW1 9452   4.485   3.822   0.590
 2851SOL    HW2 9453   4.587   3.699   0.623
 2852SOL     OW 9454   6.647   4.218   6.364
 2852SOL    HW1 9455   6.570   4.166   6.401
 2852SOL    HW2 9456   6.637   4.314   6.387
 2853SOL     OW 9457   6.966   3.627   7.000
 2853SOL    HW1 9458   6.910   3.655   0.059
 2853SOL    HW2 9459   0.038   3.597   0.014
 2854SOL     OW 9460   2.926   0.925   6.755
 2854SOL    HW1 9461   2.995   0.859   6.783
 2854SOL    HW2 9462   2.902   0.910   6.659
 2855SOL     OW 9463   1.459   2.090   4.414
 2855SOL    HW1 9464   1.533   2.141   4.458
 2855SOL    HW2 9465   1.494   2.002   4.382
 2856SOL     OW 9466   1.520   4.106   3.070
 2856SOL    HW1 9467   1.544   4.098   3.167
 2856SOL    HW2 9468   1.514   4.203   3.045
 2857SOL     OW 9469   0.213   3.351   0.191
 2857SOL    HW1 9470   0.293   3.292   0.199
 2857SOL    HW2 9471   0.138   3.301   0.147
 2858SOL     OW 9472   5.113   5.944   2.944
 2858SOL    HW1 9473   5.150   5.998   3.019
 2858SOL    HW2 9474   5.084   5.854   2.978
 2859SOL     OW 9475   5.365   6.067   1.103
 2859SOL    HW1 9476   5.291   6.135   1.109
 2859SOL    HW2 9477   5.383   6.047   1.007
 2860SOL     OW 9478   1.433   6.007   1.775
 2860SOL    HW1 9479   1.498   6.056   1.832
 2860SOL    HW2 9480   1.459   6.016   1.679
 2861SOL     OW 9481   3.530   5.211   6.396
 2861SOL    HW1 9482   3.481   5.134   6.436
 2861SOL    HW2 9483   3.593   5.179   6.326
 2862SOL     OW 9484   4.426   3.081   1.046
 2862SOL    HW1 9485   4.467   3.129   1.124
 2862SOL    HW2 9486   4.494   3.072   0.973
 2863SOL     OW 9487   5.321   0.231   6.016
 2863SOL    HW1 9488   5.343   0.299   6.086
 2863SOL    HW2 9489   5.266   0.274   5.945
 2864SOL     OW 9490   4.042   3.341   1.624
 2864SOL    HW1 9491   4.033   3.316   1.527
 2864SOL    HW2 9492   4.077   3.434   1.631
 2865SOL     OW 9493   4.836   6.037   4.271
 2865SOL    HW1 9494   4.899   6.048   4.194
 2865SOL    HW2 9495   4.753   6.091   4.253
 2866SOL     OW 9496   5.497   4.721   6.619
 2866SOL    HW1 9497   5.497   4.684   6.526
 2866SOL    HW2 9498   5.547   4.659   6.679
 2867SOL     OW 9499   6.379   6.522   2.139
 2867SOL    HW1 9500   6.422   6.461   2.072
 2867SOL    HW2 9501   6.280   6.520   2.128
 2868SOL     OW 9502   1.598   1.407   5.559
 2868SOL    HW1 9503   1.673   1.360   5.607
 2868SOL    HW2 9504   1.511   1.380   5.600
 2869SOL     OW 9505   5.470   6.289   4.216
 2869SOL    HW1 9506   5.440   6.233   4.139
 2869SOL    HW2 9507   5.493   6.381   4.184
 2870SOL     OW 9508   1.058   1.358   0.978
 2870SOL    HW1 9509   1.028   1.278   0.926
 2870SOL    HW2 9510   0.993   1.433   0.965
 2871SOL     OW 9511   6.519   1.406   1.927
 2871SOL    HW1 9512   6.441   1.465   1.950
 2871SOL    HW2 9513   6.498   1.312   1.951
 2872SOL     OW 9514   2.348   2.012   2.827
 2872SOL    HW1 9515   2.417   2.025   2.757
 2872SOL    HW2 9516   2.325   1.915   2.834
 2873SOL     OW 9517   0.844   5.934   1.617
 2873SOL    HW1 9518   0.768   5.878   1.651
 2873SOL    HW2 9519   0.823   6.031   1.634
 2874SOL     OW 9520   3.003   0.307   3.196
 2874SOL    HW1 9521   2.938   0.371   3.154
 2874SOL    HW2 9522   3.053   0.259   3.124
 2875SOL     OW 9523   2.910   0.054   2.984
 2875SOL    HW1 9524   3.002   0.061   2.945
 2875SOL    HW2 9525   2.909   7.000   3.053
 2876SOL     OW 9526   1.942   6.026   2.099
 2876SOL    HW1 9527   1.906   5.985   2.015
 2876SOL    HW2 9528   1.866   6.054   2.158
 2877SOL     OW 9529   1.818   1.746   5.788
 2877SOL    HW1 9530   1.776   1.734   5.877
 2877SOL    HW2 9531   1.820   1.843   5.765
 2878SOL     OW 9532   3.443   2.981   5.238
 2878SOL    HW1 9533   3.395   2.948   5.157
 2878SOL    HW2 9534   3.450   2.908   5.305
 2879SOL     OW 9535   4.290   4.606   5.874
 2879SOL    HW1 9536   4.206   4.568   5.913
 2879SOL    HW2 9537   4.331   4.670   5.940
 2880SOL     OW 9538   0.643   2.042   4.196
 2880SOL    HW1 9539   0.659   2.002   4.286
 2880SOL    HW2 9540   0.729   2.043   4.144
 2881SOL     OW 9541   3.728   5.988   6.765
 2881SOL    HW1 9542   3.700   5.897   6.735
 2881SOL    HW2 9543   3.743   5.987   6.864
 2882SOL     OW 9544   5.227   6.092   0.548
 2882SOL    HW1 9545   5.245   6.178   0.500
 2882SOL    HW2 9546   5.285   6.087   0.629
 2883SOL     OW 9547   5.983   6.191   3.059
 2883SOL    HW1 9548   6.009   6.267   2.999
 2883SOL    HW2 9549   5.885   6.171   3.049
 2884SOL     OW 9550   6.847   5.173   2.749
 2884SOL    HW1 9551   6.889   5.127   2.826
 2884SOL    HW2 9552   6.749   5.154   2.748
 2885SOL     OW 9553   1.441   3.603   3.113
 2885SOL    HW1 9554   1.517   3.581   3.175
 2885SOL    HW2 9555   1.477   3.636   3.026
 2886SOL     OW 9556   2.686   4.547   6.599
 2886SOL    HW1 9557   2.688   4.636   6.644
 2886SOL    HW2 9558   2.746   4.549   6.519
 2887SOL     OW 9559   0.292   6.125   4.636
 2887SOL    HW1 9560   0.362   6.084   4.577
 2887SOL    HW2 9561   0.256   6.208   4.591
 2888SOL     OW 9562   0.065   6.064   0.380
 2888SOL    HW1 9563   0.048   6.017   0.294
 2888SOL    HW2 9564   0.052   6.000   0.456
 2889SOL     OW 9565   2.904   6.670   3.057
 2889SOL    HW1 9566   2.905   6.648   2.959
 2889SOL    HW2 9567   2.962   6.750   3.073
 2890SOL     OW 9568   1.771   6.046   1.336
 2890SOL    HW1 9569   1.779   5.996   1.422
 2890SOL    HW2 9570   1.745   6.140   1.354
 2891SOL     OW 9571   0.397   3.198   2.707
 2891SOL    HW1 9572   0.341   3.247   2.640
 2891SOL    HW2 9573   0.490   3.190   2.672
 2892SOL     OW 9574   6.224   4.118   0.800
 2892SOL    HW1 9575   6.309   4.150   0.758
 2892SOL    HW2 9576   6.209   4.167   0.886
 2893SOL     OW 9577   0.425   5.858   4.694
 2893SOL    HW1 9578   0.478   5.901   4.621
 2893SOL    HW2 9579   0.332   5.895   4.694
 2894SOL     OW 9580   1.254   4.359   1.987
 2894SOL    HW1 9581   1.329   4.320   1.933
 2894SOL    HW2 9582   1.230   4.448   1.950
 2895SOL     OW 9583   3.661   0.085   6.212
 2895SOL    HW1 9584   3.609   0.167   6.235
 2895SOL    HW2 9585   3.606   0.026   6.152
 2896SOL     OW 9586   5.746   6.704   5.705
 2896SOL    HW1 9587   5.672   6.668   5.647
 2896SOL    HW2 9588   5.745   6.804   5.702
 2897SOL     OW 9589   3.249   5.137   2.945
 2897SOL    HW1 9590   3.319   5.205   2.969
 2897SOL    HW2 9591   3.160   5.171   2.974
 2898SOL     OW 9592   6.104   4.014   2.810
 2898SOL    HW1 9593   6.134   4.096   2.858
 2898SOL    HW2 9594   6.160   4.003   2.727
 2899SOL     OW 9595   6.917   2.106   1.253
 2899SOL    HW1 9596   7.004   2.087   1.298
 2899SOL    HW2 9597   6.888   2.199   1.274
 2900SOL     OW 9598   3.001   3.445   0.001
 2900SOL    HW1 9599   3.085   3.484   0.036
 2900SOL    HW2 9600   2.949   3.403   0.076
 2901SOL     OW 9601   1.819   4.515   3.142
 2901SOL    HW1 9602   1.854   4.454   3.214
 2901SOL    HW2 9603   1.757   4.581   3.183
 2902SOL     OW 9604   0.495   6.106   3.845
 2902SOL    HW1 9605   0.450   6.174   3.787
 2902SOL    HW2 9606   0.441   6.022   3.847
 2903SOL     OW 9607   4.557   5.741   0.584
 2903SOL    HW1 9608   4.577   5.839   0.579
 2903SOL    HW2 9609   4.639   5.689   0.557
 2904SOL     OW 9610   2.545   4.617   5.079
 2904SOL    HW1 9611   2.645   4.610   5.089
 2904SOL    HW2 9612   2.516   4.562   5.000
 2905SOL     OW 9613   1.184   4.789   2.466
 2905SOL    HW1 9614   1.229   4.736   2.395
 2905SOL    HW2 9615   1.158   4.728   2.541
 2906SOL     OW 9616   5.397   6.198   2.733
 2906SOL    HW1 9617   5.303   6.230   2.744
 2906SOL    HW2 9618   5.419   6.132   2.804
 2907SOL     OW 9619   0.945   0.804   3.803
 2907SOL    HW1 9620   1.009   0.782   3.877
 2907SOL    HW2 9621   0.874   0.865   3.838
 2908SOL     OW 9622   5.082   0.375   3.308
 2908SOL    HW1 9623   5.174   0.403   3.282
 2908SOL    HW2 9624   5.016   0.442   3.274
 2909SOL     OW 9625   1.214   5.546   2.905
 2909SOL    HW1 9626   1.185   5.550   2.809
 2909SOL    HW2 9627   1.171   5.620   2.956
 2910SOL     OW 9628   6.496   0.938   4.113
 2910SOL    HW1 9629   6.580   0.928   4.166
 2910SOL    HW2 9630   6.488   1.033   4.082
 2911SOL     OW 9631   0.013   4.755   3.928
 2911SOL    HW1 9632   0.044   4.673   3.881
 2911SOL    HW2 9633   0.091   4.797   3.977
 2912SOL     OW 9634   0.150   6.394   0.651
 2912SOL    HW1 9635   0.147   6.483   0.605
 2912SOL    HW2 9636   0.057   6.366   0.674
 2913SOL     OW 9637   1.651   4.710   1.909
 2913SOL    HW1 9638   1.733   4.658   1.933
 2913SOL    HW2 9639   1.671   4.773   1.834
 2914SOL     OW 9640   5.532   4.692   0.366
 2914SOL    HW1 9641   5.554   4.737   0.279
 2914SOL    HW2 9642   5.513   4.762   0.435
 2915SOL     OW 9643   3.250   2.034   2.799
 2915SOL    HW1 9644   3.218   2.072   2.712
 2915SOL    HW2 9645   3.318   2.096   2.839
 2916SOL     OW 9646   2.383   5.128   0.375
 2916SOL    HW1 9647   2.470   5.095   0.337
 2916SOL    HW2 9648   2.382   5.228   0.376
 2917SOL     OW 9649   2.443   0.220   3.736
 2917SOL    HW1 9650   2.541   0.211   3.720
 2917SOL    HW2 9651   2.412   0.144   3.793
 2918SOL     OW 9652   5.934   4.135   1.434
 2918SOL    HW1 9653   5.955   4.041   1.459
 2918SOL    HW2 9654   5.835   4.147   1.427
 2919SOL     OW 9655   0.247   6.040   4.325
 2919SOL    HW1 9656   0.322   5.982   4.295
 2919SOL    HW2 9657   0.177   6.045   4.254
 2920SOL     OW 9658   1.695   0.708   2.001
 2920SOL    HW1 9659   1.771   0.772   1.993
 2920SOL    HW2 9660   1.731   0.617   2.021
 2921SOL     OW 9661   0.302   0.034   5.651
 2921SOL    HW1 9662   0.254   6.972   5.616
 2921SOL    HW2 9663   0.258   0.065   5.735
 2922SOL     OW 9664   4.450   0.366   3.035
 2922SOL    HW1 9665   4.528   0.321   3.079
 2922SOL    HW2 9666   4.481   0.450   2.991
 2923SOL     OW 9667   6.473   4.334   5.003
 2923SOL    HW1 9668   6.464   4.280   4.920
 2923SOL    HW2 9669   6.529   4.415   4.986
 2924SOL     OW 9670   6.878   2.106   5.176
 2924SOL    HW1 9671   6.856   2.025   5.231
 2924SOL    HW2 9672   6.935   2.168   5.229
 2925SOL     OW 9673   5.594   0.886   6.112
 2925SOL    HW1 9674   5.685   0.921   6.135
 2925SOL    HW2 9675   5.582   0.885   6.013
 2926SOL     OW 9676   0.303   2.094   4.870
 2926SOL    HW1 9677   0.364   2.032   4.919
 2926SOL    HW2 9678   0.208   2.073   4.892
 2927SOL     OW 9679   1.990   3.067   1.354
 2927SOL    HW1 9680   2.041   3.083   1.438
 2927SOL    HW2 9681   2.030   3.119   1.279
 2928SOL     OW 9682   6.464   1.961   6.996
 2928SOL    HW1 9683   6.511   2.049   7.003
 2928SOL    HW2 9684   6.516   1.892   0.028
 2929SOL     OW 9685   1.163   2.672   4.783
 2929SOL    HW1 9686   1.095   2.669   4.710
 2929SOL    HW2 9687   1.173   2.766   4.816
 2930SOL     OW 9688   6.319   5.391   5.007
 2930SOL    HW1 9689   6.320   5.323   5.080
 2930SOL    HW2 9690   6.283   5.477   5.041
 2931SOL     OW 9691   4.237   4.483   6.829
 2931SOL    HW1 9692   4.164   4.423   6.796
 2931SOL    HW2 9693   4.239   4.481   6.929
 2932SOL     OW 9694   6.876   6.371   1.354
 2932SOL    HW1 9695   6.926   6.306   1.411
 2932SOL    HW2 9696   6.881   6.342   1.259
 2933SOL     OW 9697   0.350   0.387   1.569
 2933SOL    HW1 9698   0.382   0.475   1.535
 2933SOL    HW2 9699   0.251   0.382   1.561
 2934SOL     OW 9700   4.037   3.210   0.863
 2934SOL    HW1 9701   4.113   3.192   0.800
 2934SOL    HW2 9702   4.053   3.161   0.949
 2935SOL     OW 9703   0.524   2.340   6.439
 2935SOL    HW1 9704   0.516   2.326   6.340
 2935SOL    HW2 9705   0.555   2.255   6.482
 2936SOL     OW 9706   4.442   0.191   0.447
 2936SOL    HW1 9707   4.394   0.240   0.520
 2936SOL    HW2 9708   4.536   0.173   0.476
 2937SOL     OW 9709   4.208   5.759   1.645
 2937SOL    HW1 9710   4.278   5.804   1.590
 2937SOL    HW2 9711   4.249   5.721   1.728
 2938SOL     OW 9712   6.302   6.020   6.579
 2938SOL    HW1 9713   6.246   6.099   6.554
 2938SOL    HW2 9714   6.399   6.045   6.571
 2939SOL     OW 9715   0.499   5.733   1.890
 2939SOL    HW1 9716   0.440   5.813   1.874
 2939SOL    HW2 9717   0.536   5.737   1.983
 2940SOL     OW 9718   5.856   5.998   4.032
 2940SOL    HW1 9719   5.802   6.043   4.103
 2940SOL    HW2 9720   5.796   5.969   3.958
 2941SOL     OW 9721   1.789   3.311   3.408
 2941SOL    HW1 9722   1.787   3.328   3.506
 2941SOL    HW2 9723   1.883   3.293   3.379
 2942SOL     OW 9724   2.291   1.425   6.647
 2942SOL    HW1 9725   2.281   1.428   6.746
 2942SOL    HW2 9726   2.388   1.431   6.623
 2943SOL     OW 9727   6.273   4.498   3.345
 2943SOL    HW1 9728   6.293   4.553   3.426
 2943SOL    HW2 9729   6.356   4.452   3.315
 2944SOL     OW 9730   2.562   6.120   4.076
 2944SOL    HW1 9731   2.494   6.128   4.149
 2944SOL    HW2 9732   2.515   6.103   3.989
 2945SOL     OW 9733   5.147   4.426   1.620
 2945SOL    HW1 9734   5.208   4.346   1.621
 2945SOL    HW2 9735   5.097   4.428   1.533
 2946SOL     OW 9736   3.071   3.949   5.867
 2946SOL    HW1 9737   3.144   3.881   5.869
 2946SOL    HW2 9738   3.108   4.038   5.839
 2947SOL     OW 9739   6.482   6.104   0.859
 2947SOL    HW1 9740   6.514   6.117   0.953
 2947SOL    HW2 9741   6.561   6.098   0.798
 2948SOL     OW 9742   5.980   4.838   3.217
 2948SOL    HW1 9743   5.928   4.761   3.256
 2948SOL    HW2 9744   6.047   4.870   3.285
 2949SOL     OW 9745   0.763   6.455   0.950
 2949SOL    HW1 9746   0.856   6.482   0.973
 2949SOL    HW2 9747   0.702   6.533   0.957
 2950SOL     OW 9748   4.708   4.710   2.472
 2950SOL    HW1 9749   4.783   4.766   2.438
 2950SOL    HW2 9750   4.722   4.614   2.444
 2951SOL     OW 9751   5.605   0.327   1.782
 2951SOL    HW1 9752   5.550   0.411   1.786
 2951SOL    HW2 9753   5.681   0.341   1.719
 2952SOL     OW 9754   5.923   0.742   4.280
 2952SOL    HW1 9755   5.947   0.833   4.314
 2952SOL    HW2 9756   5.878   0.751   4.190
 2953SOL     OW 9757   0.167   5.795   3.023
 2953SOL    HW1 9758   0.118   5.718   3.064
 2953SOL    HW2 9759   0.264   5.771   3.013
 2954SOL     OW 9760   1.068   4.440   6.281
 2954SOL    HW1 9761   0.993   4.496   6.246
 2954SOL    HW2 9762   1.118   4.491   6.351
 2955SOL     OW 9763   1.225   4.259   6.874
 2955SOL    HW1 9764   1.173   4.290   6.953
 2955SOL    HW2 9765   1.166   4.204   6.815
 2956SOL     OW 9766   6.799   4.573   4.206
 2956SOL    HW1 9767   6.770   4.647   4.265
 2956SOL    HW2 9768   6.872   4.520   4.250
 2957SOL     OW 9769   2.763   4.927   1.469
 2957SOL    HW1 9770   2.854   4.953   1.501
 2957SOL    HW2 9771   2.694   4.974   1.524
 2958SOL     OW 9772   1.935   5.121   2.783
 2958SOL    HW1 9773   1.855   5.135   2.841
 2958SOL    HW2 9774   2.018   5.140   2.836
 2959SOL     OW 9775   5.336   2.673   3.143
 2959SOL    HW1 9776   5.252   2.620   3.133
 2959SOL    HW2 9777   5.321   2.766   3.109
 2960SOL     OW 9778   3.974   0.916   0.085
 2960SOL    HW1 9779   4.072   0.901   0.074
 2960SOL    HW2 9780   3.932   0.835   0.126
 2961SOL     OW 9781   5.608   4.569   2.723
 2961SOL    HW1 9782   5.669   4.586   2.800
 2961SOL    HW2 9783   5.514   4.561   2.755
 2962SOL     OW 9784   5.637   6.394   2.777
 2962SOL    HW1 9785   5.594   6.477   2.811
 2962SOL    HW2 9786   5.612   6.380   2.681
 2963SOL     OW 9787   1.169   0.747   5.872
 2963SOL    HW1 9788   1.203   0.836   5.843
 2963SOL    HW2 9789   1.143   0.693   5.792
 2964SOL     OW 9790   0.367   2.958   6.897
 2964SOL    HW1 9791   0.401   2.880   6.843
 2964SOL    HW2 9792   0.335   2.925   6.986
 2965SOL     OW 9793   0.706   0.567   4.627
 2965SOL    HW1 9794   0.794   0.519   4.631
 2965SOL    HW2 9795   0.632   0.501   4.642
 2966SOL     OW 9796   4.751   5.618   3.661
 2966SOL    HW1 9797   4.742   5.518   3.663
 2966SOL    HW2 9798   4.739   5.651   3.567
 2967SOL     OW 9799   6.798   0.560   5.381
 2967SOL    HW1 9800   6.896   0.579   5.371
 2967SOL    HW2 9801   6.751   0.585   5.297
 2968SOL     OW 9802   2.004   2.795   1.248
 2968SOL    HW1 9803   1.916   2.769   1.210
 2968SOL    HW2 9804   2.017   2.750   1.337
 2969SOL     OW 9805   5.108   3.926   4.370
 2969SOL    HW1 9806   5.043   3.940   4.445
 2969SOL    HW2 9807   5.147   3.834   4.377
 2970SOL     OW 9808   2.641   2.848   5.448
 2970SOL    HW1 9809   2.704   2.779   5.412
 2970SOL    HW2 9810   2.672   2.939   5.423
 2971SOL     OW 9811   5.570   4.188   0.189
 2971SOL    HW1 9812   5.632   4.229   0.255
 2971SOL    HW2 9813   5.480   4.176   0.231
 2972SOL     OW 9814   6.036   4.985   6.597
 2972SOL    HW1 9815   6.102   4.919   6.560
 2972SOL    HW2 9816   6.080   5.073   6.609
 2973SOL     OW 9817   4.779   6.537   2.223
 2973SOL    HW1 9818   4.728   6.461   2.185
 2973SOL    HW2 9819   4.864   6.504   2.265
 2974SOL     OW 9820   6.400   4.594   2.976
 2974SOL    HW1 9821   6.333   4.605   3.049
 2974SOL    HW2 9822   6.410   4.679   2.925
 2975SOL     OW 9823   4.546   4.622   3.923
 2975SOL    HW1 9824   4.563   4.719   3.905
 2975SOL    HW2 9825   4.554   4.571   3.838
 2976SOL     OW 9826   4.663   1.936   3.279
 2976SOL    HW1 9827   4.676   1.897   3.188
 2976SOL    HW2 9828   4.735   1.904   3.340
 2977SOL     OW 9829   0.654   0.625   1.931
 2977SOL    HW1 9830   0.604   0.688   1.991
 2977SOL    HW2 9831   0.713   0.677   1.870
 2978SOL     OW 9832   4.530   4.345   6.341
 2978SOL    HW1 9833   4.617   4.348   6.292
 2978SOL    HW2 9834   4.455   4.358   6.277
 2979SOL     OW 9835   3.343   1.664   4.713
 2979SOL    HW1 9836   3.334   1.748   4.767
 2979SOL    HW2 9837   3.252   1.636   4.681
 2980SOL     OW 9838   3.866   4.275   6.254
 2980SOL    HW1 9839   3.927   4.225   6.193
 2980SOL    HW2 9840   3.823   4.350   6.204
 2981SOL     OW 9841   1.811   1.293   0.441
 2981SOL    HW1 9842   1.860   1.206   0.447
 2981SOL    HW2 9843   1.797   1.317   0.345
 2982SOL     OW 9844   1.632   6.680   2.483
 2982SOL    HW1 9845   1.692   6.620   2.430
 2982SOL    HW2 9846   1.555   6.709   2.427
 2983SOL     OW 9847   6.862   2.613   6.560
 2983SOL    HW1 9848   6.943   2.623   6.503
 2983SOL    HW2 9849   6.780   2.620   6.503
 2984SOL     OW 9850   6.456   5.110   0.031
 2984SOL    HW1 9851   6.485   5.194   0.077
 2984SOL    HW2 9852   6.362   5.120   7.018
 2985SOL     OW 9853   0.660   6.900   4.475
 2985SOL    HW1 9854   0.689   6.804   4.481
 2985SOL    HW2 9855   0.569   6.904   4.434
 2986SOL     OW 9856   3.362   4.073   2.605
 2986SOL    HW1 9857   3.410   4.154   2.638
 2986SOL    HW2 9858   3.348   4.009   2.681
 2987SOL     OW 9859   0.873   2.260   4.290
 2987SOL    HW1 9860   0.836   2.188   4.348
 2987SOL    HW2 9861   0.957   2.228   4.246
 2988SOL     OW 9862   1.156   1.170   1.204
 2988SOL    HW1 9863   1.119   1.080   1.182
 2988SOL    HW2 9864   1.165   1.224   1.121
 2989SOL     OW 9865   5.282   3.686   5.215
 2989SOL    HW1 9866   5.227   3.763   5.249
 2989SOL    HW2 9867   5.225   3.625   5.161
 2990SOL     OW 9868   5.189   2.025   4.352
 2990SOL    HW1 9869   5.159   2.036   4.447
 2990SOL    HW2 9870   5.225   1.932   4.340
 2991SOL     OW 9871   5.972   3.339   0.952
 2991SOL    HW1 9872   5.922   3.361   1.036
 2991SOL    HW2 9873   5.931   3.388   0.875
 2992SOL     OW 9874   0.576   3.901   4.455
 2992SOL    HW1 9875   0.657   3.956   4.476
 2992SOL    HW2 9876   0.562   3.833   4.528
 2993SOL     OW 9877   0.844   4.668   0.077
 2993SOL    HW1 9878   0.870   4.672   6.999
 2993SOL    HW2 9879   0.745   4.655   0.084
 2994SOL     OW 9880   4.680   6.022   6.569
 2994SOL    HW1 9881   4.756   5.971   6.528
 2994SOL    HW2 9882   4.598   6.009   6.513
 2995SOL     OW 9883   4.403   0.400   0.608
 2995SOL    HW1 9884   4.382   0.498   0.611
 2995SOL    HW2 9885   4.463   0.377   0.685
 2996SOL     OW 9886   1.284   2.104   4.768
 2996SOL    HW1 9887   1.248   2.147   4.851
 2996SOL    HW2 9888   1.337   2.171   4.716
 2997SOL     OW 9889   4.759   0.630   3.598
 2997SOL    HW1 9890   4.663   0.657   3.606
 2997SOL    HW2 9891   4.772   0.539   3.636
 2998SOL     OW 9892   3.012   0.444   3.690
 2998SOL    HW1 9893   3.070   0.431   3.770
 2998SOL    HW2 9894   2.925   0.396   3.703
 2999SOL     OW 9895   3.012   4.494   6.752
 2999SOL    HW1 9896   3.103   4.470   6.787
 2999SOL    HW2 9897   2.952   4.413   6.758
 3000SOL     OW 9898   3.219   3.486   5.480
 3000SOL    HW1 9899   3.319   3.493   5.477
 3000SOL    HW2 9900   3.184   3.468   5.388
 3001SOL     OW 9901   5.836   0.944   6.748
 3001SOL    HW1 9902   5.916   0.910   6.797
 3001SOL    HW2 9903   5.773   0.988   6.812
 3002SOL     OW 9904   2.913   1.044   1.292
 3002SOL    HW1 9905   2.915   1.133   1.338
 3002SOL    HW2 9906   2.891   1.057   1.195
 3003SOL     OW 9907   1.128   6.205   0.764
 3003SOL    HW1 9908   1.198   6.262   0.807
 3003SOL    HW2 9909   1.147   6.108   0.784
 3004SOL     OW 9910   2.330   4.370   4.185
 3004SOL    HW1 9911   2.311   4.419   4.270
 3004SOL    HW2 9912   2.420   4.396   4.150
 3005SOL     OW 9913   0.920   3.148   5.677
 3005SOL    HW1 9914   0.939   3.212   5.751
 3005SOL    HW2 9915   0.916   3.197   5.590
 3006SOL     OW 9916   5.708   1.965   5.798
 3006SOL    HW1 9917   5.608   1.958   5.797
 3006SOL    HW2 9918   5.738   1.986   5.891
 3007SOL     OW 9919   5.163   5.390   0.420
 3007SOL    HW1 9920   5.089   5.347   0.369
 3007SOL    HW2 9921   5.158   5.489   0.408
 3008SOL     OW 9922   4.490   1.638   5.950
 3008SOL    HW1 9923   4.400   1.639   5.994
 3008SOL    HW2 9924   4.512   1.729   5.914
 3009SOL     OW 9925   0.019   2.783   2.877
 3009SOL    HW1 9926   6.968   2.734   2.928
 3009SOL    HW2 9927   6.995   2.858   2.826
 3010SOL     OW 9928   4.547   5.591   6.034
 3010SOL    HW1 9929   4.631   5.539   6.050
 3010SOL    HW2 9930   4.493   5.545   5.963
 3011SOL     OW 9931   6.467   0.030   1.621
 3011SOL    HW1 9932   6.460   0.126   1.648
 3011SOL    HW2 9933   6.383   0.003   1.574
 3012SOL     OW 9934   2.703   3.362   6.543
 3012SOL    HW1 9935   2.617   3.350   6.592
 3012SOL    HW2 9936   2.691   3.333   6.448
 3013SOL     OW 9937   6.942   6.159   3.527
 3013SOL    HW1 9938   6.864   6.130   3.472
 3013SOL    HW2 9939   6.966   6.253   3.506
 3014SOL     OW 9940   5.339   0.631   5.978
 3014SOL    HW1 9941   5.298   0.720   5.997
 3014SOL    HW2 9942   5.334   0.574   6.060
 3015SOL     OW 9943   1.797   1.058   0.105
 3015SOL    HW1 9944   1.882   1.074   0.154
 3015SOL    HW2 9945   1.721   1.098   0.157
 3016SOL     OW 9946   3.287   0.164   4.632
 3016SOL    HW1 9947   3.352   0.238   4.649
 3016SOL    HW2 9948   3.216   0.196   4.569
 3017SOL     OW 9949   6.590   6.006   1.814
 3017SOL    HW1 9950   6.649   5.961   1.881
 3017SOL    HW2 9951   6.511   6.047   1.861
 3018SOL     OW 9952   3.849   6.863   0.236
 3018SOL    HW1 9953   3.815   6.874   0.329
 3018SOL    HW2 9954   3.773   6.847   0.174
 3019SOL     OW 9955   1.582   6.716   6.835
 3019SOL    HW1 9956   1.509   6.651   6.854
 3019SOL    HW2 9957   1.590   6.781   6.910
 3020SOL     OW 9958   5.359   3.070   6.834
 3020SOL    HW1 9959   5.450   3.034   6.851
 3020SOL    HW2 9960   5.300   3.049   6.912
 3021SOL     OW 9961   3.595   6.247   4.629
 3021SOL    HW1 9962   3.567   6.334   4.588
 3021SOL    HW2 9963   3.684   6.220   4.592
 3022SOL     OW 9964   3.964   5.844   3.254
 3022SOL    HW1 9965   4.060   5.816   3.251
 3022SOL    HW2 9966   3.951   5.911   3.326
 3023SOL     OW 9967   3.775   6.420   2.713
 3023SOL    HW1 9968   3.720   6.423   2.796
 3023SOL    HW2 9969   3.872   6.434   2.737
 3024SOL     OW 9970   6.789   6.288   5.185
 3024SOL    HW1 9971   6.819   6.368   5.236
 3024SOL    HW2 9972   6.736   6.228   5.245
 3025SOL     OW 9973   4.359   5.609   0.407
 3025SOL    HW1 9974   4.273   5.596   0.456
 3025SOL    HW2 9975   4.419   5.670   0.459
 3026SOL     OW 9976   5.779   0.884   1.059
 3026SOL    HW1 9977   5.774   0.850   0.965
 3026SOL    HW2 9978   5.806   0.809   1.120
 3027SOL     OW 9979   4.705   1.701   1.780
 3027SOL    HW1 9980   4.608   1.724   1.776
 3027SOL    HW2 9981   4.731   1.681   1.874
 3028SOL     OW 9982   2.192   3.739   6.614
 3028SOL    HW1 9983   2.213   3.680   6.692
 3028SOL    HW2 9984   2.130   3.812   6.644
 3029SOL     OW 9985   0.632   2.639   4.021
 3029SOL    HW1 9986   0.591   2.600   3.939
 3029SOL    HW2 9987   0.684   2.569   4.069
 3030SOL     OW 9988   1.558   4.598   1.495
 3030SOL    HW1 9989   1.656   4.580   1.489
 3030SOL    HW2 9990   1.509   4.538   1.431
 3031SOL     OW 9991   1.546   5.493   1.427
 3031SOL    HW1 9992   1.557   5.400   1.463
 3031SOL    HW2 9993   1.454   5.503   1.389
 3032SOL     OW 9994   2.140   7.006   3.265
 3032SOL    HW1 9995   2.115   0.018   3.357
 3032SOL    HW2 9996   2.220   6.946   3.270
 3033SOL     OW 9997   6.219   2.812   4.078
 3033SOL    HW1 9998   6.188   2.727   4.120
 3033SOL    HW2 9999   6.206   2.887   4.142
 3034SOL     OW10000   0.743   6.196   3.720
 3034SOL    HW110001   0.721   6.200   3.622
 3034SOL    HW210002   0.659   6.181   3.772
 3035SOL     OW10003   1.425   2.631   6.183
 3035SOL    HW110004   1.479   2.554   6.149
 3035SOL    HW210005   1.330   2.604   6.192
 3036SOL     OW10006   1.590   1.978   6.032
 3036SOL    HW110007   1.674   1.924   6.040
 3036SOL    HW210008   1.538   1.948   5.953
 3037SOL     OW10009   0.639   4.833   5.907
 3037SOL    HW110010   0.575   4.890   5.855
 3037SOL    HW210011   0.727   4.830   5.859
 3038SOL     OW10012   4.998   5.286   6.140
 3038SOL    HW110013   4.980   5.255   6.233
 3038SOL    HW210014   5.095   5.306   6.129
 3039SOL     OW10015   6.342   3.299   0.565
 3039SOL    HW110016   6.319   3.206   0.534
 3039SOL    HW210017   6.438   3.318   0.543
 3040SOL     OW10018   3.585   4.192   5.796
 3040SOL    HW110019   3.664   4.130   5.796
 3040SOL    HW210020   3.536   4.184   5.710
 3041SOL     OW10021   1.536   3.998   4.781
 3041SOL    HW110022   1.493   4.070   4.834
 3041SOL    HW210023   1.635   4.008   4.785
 3042SOL     OW10024   0.637   4.638   3.056
 3042SOL    HW110025   0.590   4.720   3.020
 3042SOL    HW210026   0.736   4.652   3.052
 3043SOL     OW10027   2.476   3.100   0.374
 3043SOL    HW110028   2.427   3.125   0.458
 3043SOL    HW210029   2.572   3.082   0.395
 3044SOL     OW10030   3.525   3.262   4.961
 3044SOL    HW110031   3.572   3.351   4.957
 3044SOL    HW210032   3.447   3.263   4.899
 3045SOL     OW10033   4.995   1.336   3.418
 3045SOL    HW110034   4.944   1.383   3.345
 3045SOL    HW210035   4.940   1.260   3.453
 3046SOL     OW10036   5.529   5.551   0.615
 3046SOL    HW110037   5.554   5.479   0.549
 3046SOL    HW210038   5.533   5.514   0.707
 3047SOL     OW10039   5.975   6.968   0.428
 3047SOL    HW110040   5.960   0.011   0.350
 3047SOL    HW210041   5.954   7.017   0.512
 3048SOL     OW10042   4.460   3.313   0.712
 3048SOL    HW110043   4.555   3.289   0.735
 3048SOL    HW210044   4.457   3.407   0.679
 3049SOL     OW10045   1.013   0.848   4.593
 3049SOL    HW110046   1.098   0.888   4.626
 3049SOL    HW210047   0.935   0.893   4.636
 3050SOL     OW10048   2.332   2.389   1.308
 3050SOL    HW110049   2.386   2.349   1.234
 3050SOL    HW210050   2.392   2.429   1.377
 3051SOL     OW10051   3.287   6.848   5.840
 3051SOL    HW110052   3.347   6.897   5.776
 3051SOL    HW210053   3.296   6.888   5.931
 3052SOL     OW10054   5.552   6.338   2.526
 3052SOL    HW110055   5.519   6.324   2.433
 3052SOL    HW210056   5.522   6.262   2.584
 3053SOL     OW10057   1.951   4.067   0.163
 3053SOL    HW110058   2.017   4.101   0.096
 3053SOL    HW210059   1.885   4.006   0.118
 3054SOL     OW10060   5.424   1.118   3.286
 3054SOL    HW110061   5.523   1.135   3.288
 3054SOL    HW210062   5.392   1.116   3.192
 3055SOL     OW10063   6.378   6.161   6.303
 3055SOL    HW110064   6.359   6.220   6.225
 3055SOL    HW210065   6.477   6.158   6.319
 3056SOL     OW10066   5.387   2.059   6.114
 3056SOL    HW110067   5.339   2.024   6.034
 3056SOL    HW210068   5.364   2.156   6.127
 3057SOL     OW10069   5.473   6.403   3.431
 3057SOL    HW110070   5.422   6.371   3.511
 3057SOL    HW210071   5.570   6.383   3.443
 3058SOL     OW10072   6.045   4.356   0.648
 3058SOL    HW110073   6.032   4.291   0.724
 3058SOL    HW210074   5.963   4.410   0.637
 3059SOL     OW10075   2.323   2.599   4.282
 3059SOL    HW110076   2.345   2.503   4.298
 3059SOL    HW210077   2.285   2.609   4.190
 3060SOL     OW10078   2.885   4.678   5.783
 3060SOL    HW110079   2.791   4.703   5.759
 3060SOL    HW210080   2.886   4.636   5.874
 3061SOL     OW10081   5.669   4.859   5.937
 3061SOL    HW110082   5.689   4.777   5.884
 3061SOL    HW210083   5.648   4.834   6.032
 3062SOL     OW10084   3.961   4.557   1.457
 3062SOL    HW110085   4.005   4.492   1.520
 3062SOL    HW210086   4.025   4.629   1.432
 3063SOL     OW10087   0.812   4.149   0.795
 3063SOL    HW110088   0.751   4.220   0.830
 3063SOL    HW210089   0.905   4.165   0.830
 3064SOL     OW10090   4.089   2.731   0.057
 3064SOL    HW110091   4.031   2.653   0.034
 3064SOL    HW210092   4.129   2.769   6.992
 3065SOL     OW10093   1.125   0.972   6.661
 3065SOL    HW110094   1.209   1.026   6.650
 3065SOL    HW210095   1.143   0.895   6.722
 3066SOL     OW10096   4.937   5.202   5.404
 3066SOL    HW110097   5.029   5.230   5.375
 3066SOL    HW210098   4.887   5.282   5.439
 3067SOL     OW10099   2.597   1.603   6.541
 3067SOL    HW110100   2.645   1.687   6.566
 3067SOL    HW210101   2.612   1.534   6.612
 3068SOL     OW10102   0.836   1.328   1.630
 3068SOL    HW110103   0.833   1.345   1.729
 3068SOL    HW210104   0.744   1.341   1.592
 3069SOL     OW10105   5.695   0.393   3.541
 3069SOL    HW110106   5.693   0.405   3.441
 3069SOL    HW210107   5.725   0.300   3.562
 3070SOL     OW10108   2.969   1.468   6.825
 3070SOL    HW110109   2.923   1.487   6.912
 3070SOL    HW210110   2.933   1.382   6.787
 3071SOL     OW10111   0.007   3.844   3.571
 3071SOL    HW110112   0.015   3.847   3.471
 3071SOL    HW210113   0.056   3.763   3.605
 3072SOL     OW10114   1.970   6.080   6.915
 3072SOL    HW110115   1.897   6.073   6.847
 3072SOL    HW210116   1.930   6.094   7.006
 3073SOL     OW10117   6.383   4.899   0.380
 3073SOL    HW110118   6.397   4.992   0.415
 3073SOL    HW210119   6.386   4.834   0.456
 3074SOL     OW10120   1.181   3.870   0.646
 3074SOL    HW110121   1.124   3.878   0.727
 3074SOL    HW210122   1.146   3.930   0.574
 3075SOL     OW10123   2.631   5.216   4.032
 3075SOL    HW110124   2.557   5.245   4.092
 3075SOL    HW210125   2.708   5.182   4.086
 3076SOL     OW10126   0.223   1.380   4.979
 3076SOL    HW110127   0.250   1.318   4.905
 3076SOL    HW210128   0.196   1.326   5.059
 3077SOL     OW10129   6.265   3.428   1.800
 3077SOL    HW110130   6.279   3.516   1.755
 3077SOL    HW210131   6.174   3.426   1.842
 3078SOL     OW10132   6.198   3.044   1.816
 3078SOL    HW110133   6.234   3.079   1.903
 3078SOL    HW210134   6.269   2.990   1.770
 3079SOL     OW10135   2.132   2.431   5.004
 3079SOL    HW110136   2.038   2.451   5.031
 3079SOL    HW210137   2.195   2.466   5.073
 3080SOL     OW10138   4.213   5.103   1.409
 3080SOL    HW110139   4.221   5.097   1.310
 3080SOL    HW210140   4.211   5.010   1.448
 3081SOL     OW10141   1.028   4.008   0.474
 3081SOL    HW110142   0.941   4.058   0.471
 3081SOL    HW210143   1.041   3.958   0.389
 3082SOL     OW10144   3.622   5.125   4.236
 3082SOL    HW110145   3.628   5.218   4.270
 3082SOL    HW210146   3.570   5.123   4.151
 3083SOL     OW10147   2.719   5.588   2.811
 3083SOL    HW110148   2.805   5.575   2.860
 3083SOL    HW210149   2.649   5.619   2.876
 3084SOL     OW10150   0.598   3.736   3.059
 3084SOL    HW110151   0.662   3.672   3.016
 3084SOL    HW210152   0.630   3.757   3.152
 3085SOL     OW10153   4.783   4.867   0.881
 3085SOL    HW110154   4.780   4.921   0.965
 3085SOL    HW210155   4.690   4.856   0.845
 3086SOL     OW10156   5.949   1.242   0.010
 3086SOL    HW110157   5.941   1.142   0.014
 3086SOL    HW210158   5.906   1.282   0.091
 3087SOL     OW10159   2.392   6.216   2.154
 3087SOL    HW110160   2.382   6.117   2.164
 3087SOL    HW210161   2.349   6.262   2.232
 3088SOL     OW10162   0.102   3.066   5.289
 3088SOL    HW110163   0.043   2.987   5.305
 3088SOL    HW210164   0.196   3.042   5.313
 3089SOL     OW10165   4.782   0.789   4.517
 3089SOL    HW110166   4.683   0.782   4.516
 3089SOL    HW210167   4.822   0.708   4.473
 3090SOL     OW10168   1.051   1.509   1.543
 3090SOL    HW110169   1.090   1.418   1.555
 3090SOL    HW210170   1.082   1.548   1.456
 3091SOL     OW10171   1.278   1.550   0.542
 3091SOL    HW110172   1.230   1.605   0.474
 3091SOL    HW210173   1.214   1.484   0.582
 3092SOL     OW10174   5.220   6.849   2.512
 3092SOL    HW110175   5.198   6.850   2.609
 3092SOL    HW210176   5.294   6.915   2.495
 3093SOL     OW10177   5.795   5.415   6.379
 3093SOL    HW110178   5.725   5.346   6.361
 3093SOL    HW210179   5.873   5.401   6.317
 3094SOL     OW10180   2.588   0.892   5.105
 3094SOL    HW110181   2.576   0.824   5.178
 3094SOL    HW210182   2.632   0.849   5.027
 3095SOL     OW10183   2.694   3.117   5.337
 3095SOL    HW110184   2.781   3.103   5.289
 3095SOL    HW210185   2.620   3.118   5.270
 3096SOL     OW10186   0.501   3.460   5.210
 3096SOL    HW110187   0.457   3.496   5.292
 3096SOL    HW210188   0.501   3.360   5.213
 3097SOL     OW10189   6.411   2.247   6.591
 3097SOL    HW110190   6.395   2.295   6.677
 3097SOL    HW210191   6.325   2.208   6.558
 3098SOL     OW10192   1.987   1.686   2.295
 3098SOL    HW110193   1.957   1.679   2.390
 3098SOL    HW210194   1.941   1.765   2.252
 3099SOL     OW10195   0.504   6.360   3.459
 3099SOL    HW110196   0.567   6.418   3.511
 3099SOL    HW210197   0.508   6.385   3.362
 3100SOL     OW10198   6.000   6.430   2.899
 3100SOL    HW110199   5.955   6.498   2.957
 3100SOL    HW210200   5.991   6.458   2.803
 3101SOL     OW10201   4.651   6.930   6.216
 3101SOL    HW110202   4.673   6.859   6.282
 3101SOL    HW210203   4.573   6.900   6.160
 3102SOL     OW10204   0.629   5.509   0.336
 3102SOL    HW110205   0.532   5.485   0.338
 3102SOL    HW210206   0.680   5.442   0.282
 3103SOL     OW10207   3.605   0.294   0.838
 3103SOL    HW110208   3.634   0.381   0.876
 3103SOL    HW210209   3.654   0.219   0.882
 3104SOL     OW10210   4.521   0.140   6.036
 3104SOL    HW110211   4.447   0.074   6.025
 3104SOL    HW210212   4.580   0.137   5.955
 3105SOL     OW10213   5.176   3.369   0.795
 3105SOL    HW110214   5.140   3.409   0.711
 3105SOL    HW210215   5.276   3.368   0.791
 3106SOL     OW10216   5.564   0.721   5.176
 3106SOL    HW110217   5.509   0.803   5.159
 3106SOL    HW210218   5.600   0.686   5.089
 3107SOL     OW10219   4.860   1.943   4.556
 3107SOL    HW110220   4.874   2.013   4.486
 3107SOL    HW210221   4.782   1.968   4.614
 3108SOL     OW10222   2.532   4.566   4.600
 3108SOL    HW110223   2.577   4.477   4.594
 3108SOL    HW210224   2.600   4.639   4.603
 3109SOL     OW10225   6.357   0.074   4.761
 3109SOL    HW110226   6.305   0.014   4.700
 3109SOL    HW210227   6.390   0.154   4.711
 3110SOL     OW10228   2.359   4.898   3.757
 3110SOL    HW110229   2.306   4.926   3.837
 3110SOL    HW210230   2.422   4.971   3.731
 3111SOL     OW10231   6.667   4.549   4.898
 3111SOL    HW110232   6.608   4.617   4.944
 3111SOL    HW210233   6.718   4.594   4.825
 3112SOL     OW10234   3.957   2.696   0.338
 3112SOL    HW110235   3.977   2.751   0.257
 3112SOL    HW210236   3.957   2.599   0.314
 3113SOL     OW10237   2.941   5.749   2.618
 3113SOL    HW110238   2.889   5.666   2.639
 3113SOL    HW210239   2.906   5.790   2.534
 3114SOL     OW10240   3.562   1.376   0.029
 3114SOL    HW110241   3.553   1.438   6.969
 3114SOL    HW210242   3.477   1.326   0.041
 3115SOL     OW10243   4.128   4.125   5.518
 3115SOL    HW110244   4.064   4.112   5.442
 3115SOL    HW210245   4.125   4.220   5.548
 3116SOL     OW10246   0.476   2.187   0.770
 3116SOL    HW110247   0.514   2.121   0.705
 3116SOL    HW210248   0.519   2.174   0.859
 3117SOL     OW10249   4.826   2.273   5.578
 3117SOL    HW110250   4.804   2.259   5.675
 3117SOL    HW210251   4.904   2.215   5.553
 3118SOL     OW10252   1.599   0.444   3.040
 3118SOL    HW110253   1.570   0.450   2.945
 3118SOL    HW210254   1.690   0.482   3.050
 3119SOL     OW10255   3.840   2.695   5.663
 3119SOL    HW110256   3.807   2.615   5.713
 3119SOL    HW210257   3.837   2.677   5.565
 3120SOL     OW10258   2.862   0.294   5.120
 3120SOL    HW110259   2.946   0.240   5.117
 3120SOL    HW210260   2.881   0.386   5.084
 3121SOL     OW10261   4.959   1.927   4.208
 3121SOL    HW110262   5.037   1.961   4.261
 3121SOL    HW210263   4.919   1.848   4.254
 3122SOL     OW10264   4.440   4.726   4.153
 3122SOL    HW110265   4.510   4.673   4.106
 3122SOL    HW210266   4.350   4.701   4.117
 3123SOL     OW10267   2.020   1.217   3.377
 3123SOL    HW110268   2.077   1.227   3.458
 3123SOL    HW210269   2.000   1.307   3.339
 3124SOL     OW10270   5.332   6.251   4.807
 3124SOL    HW110271   5.321   6.196   4.890
 3124SOL    HW210272   5.357   6.191   4.731
 3125SOL     OW10273   0.777   3.080   4.910
 3125SOL    HW110274   0.778   2.989   4.868
 3125SOL    HW210275   0.866   3.123   4.897
 3126SOL     OW10276   5.926   5.533   4.654
 3126SOL    HW110277   5.846   5.578   4.693
 3126SOL    HW210278   5.897   5.452   4.602
 3127SOL     OW10279   0.950   2.695   4.623
 3127SOL    HW110280   0.953   2.654   4.533
 3127SOL    HW210281   0.948   2.795   4.615
 3128SOL     OW10282   3.655   0.485   0.259
 3128SOL    HW110283   3.734   0.542   0.240
 3128SOL    HW210284   3.655   0.458   0.356
 3129SOL     OW10285   4.907   3.466   1.183
 3129SOL    HW110286   4.850   3.458   1.101
 3129SOL    HW210287   4.931   3.374   1.215
 3130SOL     OW10288   1.668   4.199   1.375
 3130SOL    HW110289   1.653   4.281   1.320
 3130SOL    HW210290   1.762   4.166   1.361
 3131SOL     OW10291   0.018   3.962   1.881
 3131SOL    HW110292   0.024   3.917   1.792
 3131SOL    HW210293   6.999   4.054   1.869
 3132SOL     OW10294   3.882   4.387   0.464
 3132SOL    HW110295   3.940   4.375   0.383
 3132SOL    HW210296   3.939   4.385   0.546
 3133SOL     OW10297   3.758   0.523   3.502
 3133SOL    HW110298   3.728   0.511   3.407
 3133SOL    HW210299   3.761   0.621   3.524
 3134SOL     OW10300   3.248   4.797   1.829
 3134SOL    HW110301   3.294   4.767   1.745
 3134SOL    HW210302   3.152   4.769   1.826
 3135SOL     OW10303   5.445   6.657   5.913
 3135SOL    HW110304   5.479   6.710   5.991
 3135SOL    HW210305   5.370   6.708   5.870
 3136SOL     OW10306   6.067   1.129   2.253
 3136SOL    HW110307   6.018   1.046   2.227
 3136SOL    HW210308   6.163   1.108   2.270
 3137SOL     OW10309   6.346   0.307   0.953
 3137SOL    HW110310   6.422   0.272   0.897
 3137SOL    HW210311   6.266   0.323   0.894
 3138SOL     OW10312   5.731   5.602   3.928
 3138SOL    HW110313   5.636   5.599   3.898
 3138SOL    HW210314   5.769   5.509   3.926
 3139SOL     OW10315   2.387   4.685   1.363
 3139SOL    HW110316   2.476   4.638   1.366
 3139SOL    HW210317   2.314   4.617   1.364
 3140SOL     OW10318   6.007   6.331   5.626
 3140SOL    HW110319   6.106   6.323   5.638
 3140SOL    HW210320   5.964   6.351   5.714
 3141SOL     OW10321   0.459   2.429   0.262
 3141SOL    HW110322   0.436   2.433   0.165
 3141SOL    HW210323   0.539   2.371   0.275
 3142SOL     OW10324   4.438   0.771   2.683
 3142SOL    HW110325   4.511   0.824   2.640
 3142SOL    HW210326   4.355   0.777   2.628
 3143SOL     OW10327   5.897   2.031   0.338
 3143SOL    HW110328   5.939   1.991   0.256
 3143SOL    HW210329   5.969   2.065   0.399
 3144SOL     OW10330   4.509   3.608   6.714
 3144SOL    HW110331   4.515   3.545   6.791
 3144SOL    HW210332   4.474   3.696   6.745
 3145SOL     OW10333   2.597   6.485   1.584
 3145SOL    HW110334   2.621   6.577   1.554
 3145SOL    HW210335   2.499   6.482   1.606
 3146SOL     OW10336   0.419   0.635   4.990
 3146SOL    HW110337   0.512   0.613   5.018
 3146SOL    HW210338   0.421   0.694   4.910
 3147SOL     OW10339   3.682   5.267   6.623
 3147SOL    HW110340   3.660   5.249   6.527
 3147SOL    HW210341   3.642   5.195   6.680
 3148SOL     OW10342   0.569   6.586   2.857
 3148SOL    HW110343   0.535   6.521   2.924
 3148SOL    HW210344   0.646   6.637   2.895
 3149SOL     OW10345   3.162   1.397   0.034
 3149SOL    HW110346   3.184   1.495   0.031
 3149SOL    HW210347   3.063   1.385   0.041
 3150SOL     OW10348   6.430   5.760   4.848
 3150SOL    HW110349   6.488   5.679   4.857
 3150SOL    HW210350   6.484   5.835   4.810
 3151SOL     OW10351   6.446   1.609   5.910
 3151SOL    HW110352   6.346   1.607   5.905
 3151SOL    HW210353   6.480   1.690   5.862
 3152SOL     OW10354   1.368   4.002   6.621
 3152SOL    HW110355   1.333   4.089   6.587
 3152SOL    HW210356   1.378   3.938   6.544
 3153SOL     OW10357   6.349   5.166   0.454
 3153SOL    HW110358   6.307   5.202   0.537
 3153SOL    HW210359   6.418   5.229   0.421
 3154SOL     OW10360   6.201   1.375   1.639
 3154SOL    HW110361   6.252   1.459   1.659
 3154SOL    HW210362   6.119   1.371   1.696
 3155SOL     OW10363   6.396   4.732   0.610
 3155SOL    HW110364   6.457   4.747   0.688
 3155SOL    HW210365   6.344   4.648   0.625
 3156SOL     OW10366   3.619   4.127   2.234
 3156SOL    HW110367   3.666   4.042   2.211
 3156SOL    HW210368   3.681   4.184   2.289
 3157SOL     OW10369   0.973   2.149   5.103
 3157SOL    HW110370   0.897   2.189   5.052
 3157SOL    HW210371   1.059   2.170   5.057
 3158SOL     OW10372   2.984   2.050   5.747
 3158SOL    HW110373   2.901   1.994   5.735
 3158SOL    HW210374   2.975   2.105   5.830
 3159SOL     OW10375   4.509   6.421   0.540
 3159SOL    HW110376   4.604   6.419   0.512
 3159SOL    HW210377   4.461   6.342   0.503
 3160SOL     OW10378   1.810   6.775   5.547
 3160SOL    HW110379   1.812   6.710   5.472
 3160SOL    HW210380   1.780   6.729   5.631
 3161SOL     OW10381   1.895   2.678   2.572
 3161SOL    HW110382   1.911   2.680   2.671
 3161SOL    HW210383   1.873   2.770   2.540
 3162SOL     OW10384   2.144   5.493   7.018
 3162SOL    HW110385   2.225   5.551   0.003
 3162SOL    HW210386   2.152   5.428   6.943
 3163SOL     OW10387   4.387   3.698   0.311
 3163SOL    HW110388   4.434   3.613   0.287
 3163SOL    HW210389   4.310   3.712   0.249
 3164SOL     OW10390   3.156   5.759   2.416
 3164SOL    HW110391   3.093   5.744   2.492
 3164SOL    HW210392   3.124   5.837   2.361
 3165SOL     OW10393   0.818   5.315   0.218
 3165SOL    HW110394   0.879   5.281   0.290
 3165SOL    HW210395   0.859   5.396   0.175
 3166SOL     OW10396   4.358   1.289   4.557
 3166SOL    HW110397   4.433   1.351   4.580
 3166SOL    HW210398   4.273   1.321   4.600
 3167SOL     OW10399   5.325   4.247   0.329
 3167SOL    HW110400   5.375   4.328   0.359
 3167SOL    HW210401   5.274   4.208   0.406
 3168SOL     OW10402   4.986   2.900   1.283
 3168SOL    HW110403   5.023   2.814   1.320
 3168SOL    HW210404   4.959   2.886   1.188
 3169SOL     OW10405   1.639   5.185   2.288
 3169SOL    HW110406   1.549   5.157   2.255
 3169SOL    HW210407   1.656   5.143   2.378
 3170SOL     OW10408   4.156   6.061   2.295
 3170SOL    HW110409   4.081   6.014   2.250
 3170SOL    HW210410   4.120   6.140   2.345
 3171SOL     OW10411   5.401   2.893   2.278
 3171SOL    HW110412   5.486   2.890   2.330
 3171SOL    HW210413   5.328   2.928   2.336
 3172SOL     OW10414   0.257   4.777   0.071
 3172SOL    HW110415   0.164   4.743   0.085
 3172SOL    HW210416   0.282   4.768   6.993
 3173SOL     OW10417   2.795   1.904   6.589
 3173SOL    HW110418   2.750   1.964   6.523
 3173SOL    HW210419   2.887   1.938   6.607
 3174SOL     OW10420   2.532   2.690   5.822
 3174SOL    HW110421   2.438   2.708   5.852
 3174SOL    HW210422   2.534   2.677   5.723
 3175SOL     OW10423   6.320   1.279   2.945
 3175SOL    HW110424   6.296   1.186   2.974
 3175SOL    HW210425   6.402   1.276   2.888
 3176SOL     OW10426   7.000   3.745   4.546
 3176SOL    HW110427   0.066   3.797   4.543
 3176SOL    HW210428   0.002   3.648   4.534
 3177SOL     OW10429   5.419   4.153   3.429
 3177SOL    HW110430   5.466   4.073   3.467
 3177SOL    HW210431   5.469   4.185   3.348
 3178SOL     OW10432   5.657   1.965   0.091
 3178SOL    HW110433   5.609   1.908   0.158
 3178SOL    HW210434   5.755   1.963   0.109
 3179SOL     OW10435   1.012   1.653   2.132
 3179SOL    HW110436   1.094   1.687   2.179
 3179SOL    HW210437   0.938   1.643   2.199
 3180SOL     OW10438   5.911   6.483   6.880
 3180SOL    HW110439   5.982   6.421   6.914
 3180SOL    HW210440   5.839   6.429   6.837
 3181SOL     OW10441   0.240   1.311   3.963
 3181SOL    HW110442   0.220   1.406   3.940
 3181SOL    HW210443   0.174   1.279   4.031
 3182SOL     OW10444   3.076   0.562   0.576
 3182SOL    HW110445   3.048   0.504   0.500
 3182SOL    HW210446   2.998   0.614   0.610
 3183SOL     OW10447   4.583   4.786   2.206
 3183SOL    HW110448   4.625   4.768   2.295
 3183SOL    HW210449   4.554   4.700   2.164
 3184SOL     OW10450   0.400   2.054   3.466
 3184SOL    HW110451   0.396   2.016   3.374
 3184SOL    HW210452   0.415   1.981   3.532
 3185SOL     OW10453   6.427   6.708   5.580
 3185SOL    HW110454   6.486   6.745   5.508
 3185SOL    HW210455   6.356   6.774   5.602
 3186SOL     OW10456   1.844   0.875   6.919
 3186SOL    HW110457   1.799   0.945   6.975
 3186SOL    HW210458   1.942   0.895   6.913
 3187SOL     OW10459   3.571   5.146   2.148
 3187SOL    HW110460   3.641   5.108   2.208
 3187SOL    HW210461   3.529   5.072   2.095
 3188SOL     OW10462   2.017   5.101   4.771
 3188SOL    HW110463   2.010   5.073   4.675
 3188SOL    HW210464   1.963   5.185   4.785
 3189SOL     OW10465   2.260   0.912   0.136
 3189SOL    HW110466   2.237   1.009   0.135
 3189SOL    HW210467   2.359   0.902   0.152
 3190SOL     OW10468   6.618   5.401   6.092
 3190SOL    HW110469   6.689   5.355   6.041
 3190SOL    HW210470   6.547   5.433   6.029
 3191SOL     OW10471   4.529   5.436   2.215
 3191SOL    HW110472   4.598   5.376   2.174
 3191SOL    HW210473   4.515   5.410   2.311
 3192SOL     OW10474   6.669   2.807   1.147
 3192SOL    HW110475   6.624   2.896   1.139
 3192SOL    HW210476   6.751   2.807   1.089
 3193SOL     OW10477   4.079   1.238   5.302
 3193SOL    HW110478   4.102   1.324   5.347
 3193SOL    HW210479   4.136   1.228   5.220
 3194SOL     OW10480   0.722   1.344   5.627
 3194SOL    HW110481   0.658   1.367   5.553
 3194SOL    HW210482   0.815   1.363   5.597
 3195SOL     OW10483   0.857   1.594   1.914
 3195SOL    HW110484   0.905   1.627   1.996
 3195SOL    HW210485   0.848   1.494   1.920
 3196SOL     OW10486   0.047   0.812   6.545
 3196SOL    HW110487   0.052   0.851   6.453
 3196SOL    HW210488   0.113   0.857   6.604
 3197SOL     OW10489   2.677   6.701   5.691
 3197SOL    HW110490   2.616   6.624   5.675
 3197SOL    HW210491   2.637   6.784   5.652
 3198SOL     OW10492   6.366   2.173   4.042
 3198SOL    HW110493   6.278   2.215   4.065
 3198SOL    HW210494   6.427   2.181   4.120
 3199SOL     OW10495   5.461   4.894   2.865
 3199SOL    HW110496   5.407   4.965   2.910
 3199SOL    HW210497   5.485   4.824   2.932
 3200SOL     OW10498   6.556   3.272   3.352
 3200SOL    HW110499   6.513   3.250   3.440
 3200SOL    HW210500   6.652   3.246   3.354
 3201SOL     OW10501   6.441   4.774   3.253
 3201SOL    HW110502   6.500   4.813   3.324
 3201SOL    HW210503   6.358   4.736   3.295
 3202SOL     OW10504   1.219   5.124   0.894
 3202SOL    HW110505   1.199   5.034   0.856
 3202SOL    HW210506   1.158   5.192   0.852
 3203SOL     OW10507   4.630   0.600   1.599
 3203SOL    HW110508   4.692   0.644   1.664
 3203SOL    HW210509   4.544   0.652   1.594
 3204SOL     OW10510   3.112   1.768   3.351
 3204SOL    HW110511   3.142   1.731   3.263
 3204SOL    HW210512   3.116   1.697   3.421
 3205SOL     OW10513   5.336   3.171   6.082
 3205SOL    HW110514   5.264   3.235   6.110
 3205SOL    HW210515   5.374   3.127   6.164
 3206SOL     OW10516   3.018   3.214   1.479
 3206SOL    HW110517   3.001   3.115   1.477
 3206SOL    HW210518   3.114   3.231   1.502
 3207SOL     OW10519   1.020   0.913   6.173
 3207SOL    HW110520   1.008   0.817   6.149
 3207SOL    HW210521   0.961   0.936   6.250
 3208SOL     OW10522   5.643   5.618   6.263
 3208SOL    HW110523   5.716   5.684   6.282
 3208SOL    HW210524   5.678   5.525   6.277
 3209SOL     OW10525   3.750   5.638   4.984
 3209SOL    HW110526   3.740   5.737   4.976
 3209SOL    HW210527   3.832   5.617   5.037
 3210SOL     OW10528   0.421   5.102   1.521
 3210SOL    HW110529   0.418   5.189   1.570
 3210SOL    HW210530   0.384   5.115   1.429
 3211SOL     OW10531   1.704   4.565   0.896
 3211SOL    HW110532   1.669   4.502   0.827
 3211SOL    HW210533   1.633   4.585   0.963
 3212SOL     OW10534   3.356   0.085   2.455
 3212SOL    HW110535   3.339   0.182   2.473
 3212SOL    HW210536   3.283   0.049   2.397
 3213SOL     OW10537   1.717   0.608   6.250
 3213SOL    HW110538   1.685   0.699   6.224
 3213SOL    HW210539   1.815   0.612   6.272
 3214SOL     OW10540   4.866   6.932   3.307
 3214SOL    HW110541   4.878   6.921   3.209
 3214SOL    HW210542   4.866   0.011   3.329
 3215SOL     OW10543   0.781   3.486   0.128
 3215SOL    HW110544   0.837   3.415   0.084
 3215SOL    HW210545   0.747   3.550   0.058
 3216SOL     OW10546   5.689   5.089   1.177
 3216SOL    HW110547   5.786   5.105   1.163
 3216SOL    HW210548   5.646   5.172   1.210
 3217SOL     OW10549   0.263   5.120   2.369
 3217SOL    HW110550   0.201   5.184   2.416
 3217SOL    HW210551   0.211   5.043   2.333
 3218SOL     OW10552   5.662   2.607   3.676
 3218SOL    HW110553   5.753   2.574   3.650
 3218SOL    HW210554   5.596   2.581   3.606
 3219SOL     OW10555   6.742   0.967   4.979
 3219SOL    HW110556   6.822   1.022   5.003
 3219SOL    HW210557   6.663   1.028   4.968
 3220SOL     OW10558   0.957   5.892   6.548
 3220SOL    HW110559   1.030   5.912   6.481
 3220SOL    HW210560   0.902   5.815   6.515
 3221SOL     OW10561   3.965   0.112   2.414
 3221SOL    HW110562   3.898   0.091   2.344
 3221SOL    HW210563   4.042   0.161   2.374
 3222SOL     OW10564   2.704   0.928   2.723
 3222SOL    HW110565   2.642   0.974   2.659
 3222SOL    HW210566   2.785   0.983   2.737
 3223SOL     OW10567   2.223   6.523   0.435
 3223SOL    HW110568   2.216   6.539   0.534
 3223SOL    HW210569   2.209   6.426   0.416
 3224SOL     OW10570   5.153   2.458   5.250
 3224SOL    HW110571   5.149   2.375   5.305
 3224SOL    HW210572   5.061   2.498   5.245
 3225SOL     OW10573   4.372   1.289   4.901
 3225SOL    HW110574   4.469   1.282   4.923
 3225SOL    HW210575   4.325   1.339   4.973
 3226SOL     OW10576   1.551   0.394   1.766
 3226SOL    HW110577   1.566   0.325   1.695
 3226SOL    HW210578   1.619   0.467   1.757
 3227SOL     OW10579   3.368   2.362   6.585
 3227SOL    HW110580   3.428   2.284   6.568
 3227SOL    HW210581   3.422   2.439   6.619
 3228SOL     OW10582   0.061   3.893   0.102
 3228SOL    HW110583   0.075   3.873   0.199
 3228SOL    HW210584   0.148   3.885   0.054
 3229SOL     OW10585   3.130   0.754   5.552
 3229SOL    HW110586   3.142   0.654   5.547
 3229SOL    HW210587   3.171   0.796   5.471
 3230SOL     OW10588   2.056   5.461   6.120
 3230SOL    HW110589   2.112   5.537   6.153
 3230SOL    HW210590   2.048   5.466   6.021
 3231SOL     OW10591   2.979   1.021   2.829
 3231SOL    HW110592   2.985   0.933   2.782
 3231SOL    HW210593   3.070   1.057   2.844
 3232SOL     OW10594   4.038   5.712   3.681
 3232SOL    HW110595   4.040   5.757   3.771
 3232SOL    HW210596   3.943   5.702   3.651
 3233SOL     OW10597   6.819   3.003   0.947
 3233SOL    HW110598   6.814   3.075   0.877
 3233SOL    HW210599   6.884   3.030   1.018
 3234SOL     OW10600   1.548   2.654   0.023
 3234SOL    HW110601   1.543   2.560   0.055
 3234SOL    HW210602   1.625   2.701   0.066
 3235SOL     OW10603   6.363   6.051   2.013
 3235SOL    HW110604   6.322   5.976   1.961
 3235SOL    HW210605   6.358   6.030   2.111
 3236SOL     OW10606   1.805   4.129   0.728
 3236SOL    HW110607   1.750   4.134   0.644
 3236SOL    HW210608   1.859   4.213   0.737
 3237SOL     OW10609   6.344   1.844   4.183
 3237SOL    HW110610   6.380   1.865   4.092
 3237SOL    HW210611   6.369   1.916   4.247
 3238SOL     OW10612   5.892   5.183   6.798
 3238SOL    HW110613   5.860   5.258   6.739
 3238SOL    HW210614   5.992   5.180   6.797
 3239SOL     OW10615   6.967   0.386   3.736
 3239SOL    HW110616   6.897   0.339   3.681
 3239SOL    HW210617   7.000   0.466   3.687
 3240SOL     OW10618   0.034   0.600   6.039
 3240SOL    HW110619   6.965   0.619   5.996
 3240SOL    HW210620   0.075   0.519   5.997
 3241SOL     OW10621   4.635   1.528   6.329
 3241SOL    HW110622   4.648   1.430   6.313
 3241SOL    HW210623   4.666   1.550   6.422
 3242SOL     OW10624   4.672   3.599   6.128
 3242SOL    HW110625   4.625   3.661   6.192
 3242SOL    HW210626   4.669   3.506   6.164
 3243SOL     OW10627   4.770   4.764   0.216
 3243SOL    HW110628   4.811   4.697   0.154
 3243SOL    HW210629   4.809   4.754   0.307
 3244SOL     OW10630   5.637   6.173   0.070
 3244SOL    HW110631   5.728   6.162   0.110
 3244SOL    HW210632   5.641   6.232   7.009
 3245SOL     OW10633   4.589   2.509   4.188
 3245SOL    HW110634   4.662   2.459   4.141
 3245SOL    HW210635   4.576   2.470   4.280
 3246SOL     OW10636   6.710   0.384   2.941
 3246SOL    HW110637   6.739   0.380   2.846
 3246SOL    HW210638   6.790   0.380   3.001
 3247SOL     OW10639   6.867   4.691   2.369
 3247SOL    HW110640   6.890   4.757   2.298
 3247SOL    HW210641   6.922   4.608   2.357
 3248SOL     OW10642   5.754   2.576   2.088
 3248SOL    HW110643   5.711   2.492   2.122
 3248SOL    HW210644   5.846   2.583   2.126
 3249SOL     OW10645   4.094   3.668   4.202
 3249SOL    HW110646   3.996   3.648   4.211
 3249SOL    HW210647   4.139   3.654   4.290
 3250SOL     OW10648   5.052   6.544   3.635
 3250SOL    HW110649   4.982   6.472   3.641
 3250SOL    HW210650   5.008   6.633   3.647
 3251SOL     OW10651   2.569   1.276   4.501
 3251SOL    HW110652   2.660   1.308   4.527
 3251SOL    HW210653   2.509   1.276   4.581
 3252SOL     OW10654   2.869   1.312   2.790
 3252SOL    HW110655   2.844   1.287   2.696
 3252SOL    HW210656   2.885   1.228   2.843
 3253SOL     OW10657   4.516   3.856   1.275
 3253SOL    HW110658   4.473   3.776   1.318
 3253SOL    HW210659   4.468   3.939   1.305
 3254SOL     OW10660   4.958   6.670   6.263
 3254SOL    HW110661   4.874   6.695   6.312
 3254SOL    HW210662   5.033   6.729   6.293
 3255SOL     OW10663   5.830   6.263   1.127
 3255SOL    HW110664   5.743   6.255   1.080
 3255SOL    HW210665   5.899   6.297   1.064
 3256SOL     OW10666   4.346   2.313   1.314
 3256SOL    HW110667   4.287   2.360   1.379
 3256SOL    HW210668   4.329   2.348   1.222
 3257SOL     OW10669   2.924   2.068   2.029
 3257SOL    HW110670   3.024   2.073   2.041
 3257SOL    HW210671   2.886   2.160   2.036
 3258SOL     OW10672   3.330   4.982   3.235
 3258SOL    HW110673   3.248   5.015   3.282
 3258SOL    HW210674   3.308   4.964   3.139
 3259SOL     OW10675   5.274   5.218   4.176
 3259SOL    HW110676   5.298   5.148   4.242
 3259SOL    HW210677   5.184   5.256   4.197
 3260SOL     OW10678   1.851   3.759   2.379
 3260SOL    HW110679   1.829   3.670   2.338
 3260SOL    HW210680   1.772   3.820   2.369
 3261SOL     OW10681   4.757   0.582   2.411
 3261SOL    HW110682   4.804   0.496   2.388
 3261SOL    HW210683   4.660   0.564   2.427
 3262SOL     OW10684   4.060   2.171   2.358
 3262SOL    HW110685   4.034   2.174   2.261
 3262SOL    HW210686   3.982   2.200   2.413
 3263SOL     OW10687   3.565   1.355   3.877
 3263SOL    HW110688   3.537   1.275   3.930
 3263SOL    HW210689   3.512   1.435   3.906
 3264SOL     OW10690   1.809   4.796   0.795
 3264SOL    HW110691   1.750   4.737   0.849
 3264SOL    HW210692   1.905   4.781   0.821
 3265SOL     OW10693   6.054   5.936   5.804
 3265SOL    HW110694   6.019   6.009   5.862
 3265SOL    HW210695   6.043   5.962   5.708
 3266SOL     OW10696   2.933   4.357   0.016
 3266SOL    HW110697   2.879   4.429   6.992
 3266SOL    HW210698   2.995   4.396   0.083
 3267SOL     OW10699   3.671   0.338   1.927
 3267SOL    HW110700   3.615   0.256   1.911
 3267SOL    HW210701   3.727   0.324   2.008
 3268SOL     OW10702   1.299   4.700   1.290
 3268SOL    HW110703   1.244   4.644   1.353
 3268SOL    HW210704   1.343   4.641   1.223
 3269SOL     OW10705   0.298   5.311   2.172
 3269SOL    HW110706   0.292   5.258   2.257
 3269SOL    HW210707   0.250   5.262   2.099
 3270SOL     OW10708   1.856   2.837   6.204
 3270SOL    HW110709   1.874   2.746   6.167
 3270SOL    HW210710   1.819   2.896   6.132
 3271SOL     OW10711   6.673   3.415   1.697
 3271SOL    HW110712   6.715   3.351   1.633
 3271SOL    HW210713   6.614   3.366   1.760
 3272SOL     OW10714   3.340   4.670   6.701
 3272SOL    HW110715   3.312   4.623   6.785
 3272SOL    HW210716   3.342   4.605   6.625
 3273SOL     OW10717   5.583   4.698   6.143
 3273SOL    HW110718   5.495   4.716   6.098
 3273SOL    HW210719   5.566   4.655   6.232
 3274SOL     OW10720   5.796   0.233   0.741
 3274SOL    HW110721   5.763   0.215   0.648
 3274SOL    HW210722   5.759   0.163   0.803
 3275SOL     OW10723   4.643   1.031   0.317
 3275SOL    HW110724   4.731   0.985   0.331
 3275SOL    HW210725   4.652   1.127   0.343
 3276SOL     OW10726   4.481   6.437   0.191
 3276SOL    HW110727   4.567   6.386   0.177
 3276SOL    HW210728   4.501   6.522   0.240
 3277SOL     OW10729   3.009   1.083   0.990
 3277SOL    HW110730   3.048   1.161   1.039
 3277SOL    HW210731   2.922   1.110   0.949
 3278SOL     OW10732   0.152   0.376   5.636
 3278SOL    HW110733   0.154   0.370   5.536
 3278SOL    HW210734   0.057   0.374   5.667
 3279SOL     OW10735   4.877   6.694   1.093
 3279SOL    HW110736   4.965   6.728   1.126
 3279SOL    HW210737   4.804   6.756   1.122
 3280SOL     OW10738   4.925   4.583   4.107
 3280SOL    HW110739   4.861   4.575   4.184
 3280SOL    HW210740   4.987   4.660   4.124
 3281SOL     OW10741   0.321   4.590   1.404
 3281SOL    HW110742   0.396   4.651   1.377
 3281SOL    HW210743   0.314   4.515   1.339
 3282SOL     OW10744   0.073   3.918   4.925
 3282SOL    HW110745   6.997   3.929   4.895
 3282SOL    HW210746   0.112   4.008   4.946
 3283SOL     OW10747   4.139   1.371   0.909
 3283SOL    HW110748   4.132   1.302   0.836
 3283SOL    HW210749   4.167   1.326   0.994
 3284SOL     OW10750   1.027   5.573   5.013
 3284SOL    HW110751   1.048   5.665   5.046
 3284SOL    HW210752   1.015   5.575   4.913
 3285SOL     OW10753   5.785   1.869   4.686
 3285SOL    HW110754   5.686   1.864   4.704
 3285SOL    HW210755   5.831   1.796   4.736
 3286SOL     OW10756   3.286   2.326   1.646
 3286SOL    HW110757   3.333   2.329   1.558
 3286SOL    HW210758   3.190   2.306   1.632
 3287SOL     OW10759   0.588   0.470   0.275
 3287SOL    HW110760   0.665   0.475   0.211
 3287SOL    HW210761   0.523   0.544   0.256
 3288SOL     OW10762   1.910   6.910   0.946
 3288SOL    HW110763   1.996   6.863   0.966
 3288SOL    HW210764   1.930   7.005   0.921
 3289SOL     OW10765   2.512   1.834   6.190
 3289SOL    HW110766   2.612   1.843   6.192
 3289SOL    HW210767   2.486   1.743   6.222
 3290SOL     OW10768   0.019   5.560   1.112
 3290SOL    HW110769   0.079   5.522   1.183
 3290SOL    HW210770   0.038   5.515   1.025
 3291SOL     OW10771   3.062   0.683   6.005
 3291SOL    HW110772   3.054   0.615   6.078
 3291SOL    HW210773   3.109   0.642   5.927
 3292SOL     OW10774   6.894   1.175   1.060
 3292SOL    HW110775   6.991   1.184   1.079
 3292SOL    HW210776   6.843   1.245   1.110
 3293SOL     OW10777   6.690   4.847   1.498
 3293SOL    HW110778   6.747   4.809   1.425
 3293SOL    HW210779   6.743   4.847   1.583
 3294SOL     OW10780   5.294   2.049   5.867
 3294SOL    HW110781   5.319   2.030   5.772
 3294SOL    HW210782   5.200   2.019   5.883
 3295SOL     OW10783   1.718   3.441   0.710
 3295SOL    HW110784   1.634   3.486   0.680
 3295SOL    HW210785   1.752   3.383   0.636
 3296SOL     OW10786   7.008   0.407   4.641
 3296SOL    HW110787   0.061   0.391   4.709
 3296SOL    HW210788   6.921   0.422   4.687
 3297SOL     OW10789   3.673   1.812   5.034
 3297SOL    HW110790   3.692   1.906   5.064
 3297SOL    HW210791   3.660   1.754   5.114
 3298SOL     OW10792   6.577   2.661   5.755
 3298SOL    HW110793   6.508   2.627   5.691
 3298SOL    HW210794   6.605   2.586   5.816
 3299SOL     OW10795   4.338   6.240   2.804
 3299SOL    HW110796   4.406   6.294   2.853
 3299SOL    HW210797   4.308   6.289   2.722
 3300SOL     OW10798   1.498   0.547   5.979
 3300SOL    HW110799   1.455   0.502   5.900
 3300SOL    HW210800   1.569   0.488   6.016
 3301SOL     OW10801   1.613   3.846   3.455
 3301SOL    HW110802   1.614   3.913   3.381
 3301SOL    HW210803   1.701   3.848   3.503
 3302SOL     OW10804   1.651   4.377   6.833
 3302SOL    HW110805   1.616   4.284   6.849
 3302SOL    HW210806   1.646   4.430   6.918
 3303SOL     OW10807   3.247   2.976   0.475
 3303SOL    HW110808   3.203   3.007   0.391
 3303SOL    HW210809   3.184   2.920   0.528
 3304SOL     OW10810   2.019   5.088   5.969
 3304SOL    HW110811   1.920   5.085   5.953
 3304SOL    HW210812   2.065   5.108   5.882
 3305SOL     OW10813   3.079   0.620   1.569
 3305SOL    HW110814   3.027   0.682   1.627
 3305SOL    HW210815   3.017   0.566   1.513
 3306SOL     OW10816   1.298   6.005   5.793
 3306SOL    HW110817   1.387   6.020   5.836
 3306SOL    HW210818   1.294   5.913   5.754
 3307SOL     OW10819   1.008   0.143   5.705
 3307SOL    HW110820   0.982   0.047   5.720
 3307SOL    HW210821   0.926   0.200   5.706
 3308SOL     OW10822   3.315   5.537   0.798
 3308SOL    HW110823   3.371   5.462   0.834
 3308SOL    HW210824   3.374   5.602   0.750
 3309SOL     OW10825   6.016   4.644   3.605
 3309SOL    HW110826   6.110   4.643   3.640
 3309SOL    HW210827   5.962   4.576   3.655
 3310SOL     OW10828   0.214   4.228   4.400
 3310SOL    HW110829   0.304   4.185   4.397
 3310SOL    HW210830   0.224   4.325   4.423
 3311SOL     OW10831   3.012   3.183   1.072
 3311SOL    HW110832   2.969   3.267   1.037
 3311SOL    HW210833   2.953   3.143   1.142
 3312SOL     OW10834   4.242   3.025   5.548
 3312SOL    HW110835   4.169   3.087   5.577
 3312SOL    HW210836   4.217   2.931   5.571
 3313SOL     OW10837   0.656   0.397   3.146
 3313SOL    HW110838   0.569   0.398   3.096
 3313SOL    HW210839   0.718   0.463   3.105
 3314SOL     OW10840   2.813   0.445   2.475
 3314SOL    HW110841   2.912   0.432   2.468
 3314SOL    HW210842   2.792   0.542   2.467
 3315SOL     OW10843   0.738   4.980   5.506
 3315SOL    HW110844   0.742   4.920   5.427
 3315SOL    HW210845   0.733   5.075   5.475
 3316SOL     OW10846   3.849   1.128   5.169
 3316SOL    HW110847   3.785   1.071   5.221
 3316SOL    HW210848   3.924   1.158   5.229
 3317SOL     OW10849   5.717   2.039   2.349
 3317SOL    HW110850   5.698   1.979   2.426
 3317SOL    HW210851   5.660   2.013   2.271
 3318SOL     OW10852   2.113   0.827   6.583
 3318SOL    HW110853   2.196   0.840   6.529
 3318SOL    HW210854   2.131   0.761   6.656
 3319SOL     OW10855   6.238   6.979   3.243
 3319SOL    HW110856   6.180   0.031   3.283
 3319SOL    HW210857   6.334   7.000   3.264
 3320SOL     OW10858   6.421   0.488   0.186
 3320SOL    HW110859   6.344   0.540   0.151
 3320SOL    HW210860   6.432   0.507   0.284
 3321SOL     OW10861   6.001   1.138   0.871
 3321SOL    HW110862   5.936   1.202   0.911
 3321SOL    HW210863   6.074   1.120   0.937
 3322SOL     OW10864   0.099   2.784   0.842
 3322SOL    HW110865   0.082   2.876   0.807
 3322SOL    HW210866   0.198   2.771   0.856
 3323SOL     OW10867   2.443   1.761   1.003
 3323SOL    HW110868   2.371   1.708   0.959
 3323SOL    HW210869   2.524   1.704   1.017
 3324SOL     OW10870   4.884   5.001   5.163
 3324SOL    HW110871   4.868   4.992   5.262
 3324SOL    HW210872   4.820   5.068   5.125
 3325SOL     OW10873   0.264   3.174   6.347
 3325SOL    HW110874   0.346   3.180   6.290
 3325SOL    HW210875   0.214   3.260   6.342
 3326SOL     OW10876   5.058   1.498   2.078
 3326SOL    HW110877   4.959   1.493   2.064
 3326SOL    HW210878   5.102   1.429   2.020
 3327SOL     OW10879   2.353   5.680   1.534
 3327SOL    HW110880   2.285   5.606   1.529
 3327SOL    HW210881   2.324   5.746   1.604
 3328SOL     OW10882   3.497   1.853   1.246
 3328SOL    HW110883   3.501   1.917   1.322
 3328SOL    HW210884   3.461   1.765   1.277
 3329SOL     OW10885   6.661   0.025   5.333
 3329SOL    HW110886   6.703   0.101   5.284
 3329SOL    HW210887   6.568   0.011   5.300
 3330SOL     OW10888   6.004   3.731   1.976
 3330SOL    HW110889   6.039   3.758   2.066
 3330SOL    HW210890   5.994   3.812   1.919
 3331SOL     OW10891   2.458   2.653   1.097
 3331SOL    HW110892   2.366   2.614   1.087
 3331SOL    HW210893   2.453   2.735   1.153
 3332SOL     OW10894   5.964   5.712   0.165
 3332SOL    HW110895   5.937   5.631   0.217
 3332SOL    HW210896   5.882   5.760   0.134
 3333SOL     OW10897   4.214   5.389   6.199
 3333SOL    HW110898   4.273   5.308   6.201
 3333SOL    HW210899   4.239   5.449   6.275
 3334SOL     OW10900   3.195   3.567   1.538
 3334SOL    HW110901   3.253   3.492   1.572
 3334SOL    HW210902   3.243   3.654   1.547
 3335SOL     OW10903   4.564   5.871   5.376
 3335SOL    HW110904   4.635   5.818   5.329
 3335SOL    HW210905   4.476   5.824   5.366
 3336SOL     OW10906   3.057   5.194   5.281
 3336SOL    HW110907   3.131   5.256   5.257
 3336SOL    HW210908   3.066   5.109   5.228
 3337SOL     OW10909   3.109   2.321   1.376
 3337SOL    HW110910   3.068   2.321   1.467
 3337SOL    HW210911   3.066   2.391   1.320
 3338SOL     OW10912   6.265   3.262   1.544
 3338SOL    HW110913   6.262   3.289   1.641
 3338SOL    HW210914   6.212   3.179   1.532
 3339SOL     OW10915   0.092   6.500   6.810
 3339SOL    HW110916   0.074   6.593   6.844
 3339SOL    HW210917   0.023   6.438   6.846
 3340SOL     OW10918   3.841   0.053   1.719
 3340SOL    HW110919   3.850   0.034   1.817
 3340SOL    HW210920   3.904   7.013   1.668
 3341SOL     OW10921   1.380   0.076   3.816
 3341SOL    HW110922   1.457   0.034   3.865
 3341SOL    HW210923   1.386   0.176   3.825
 3342SOL     OW10924   2.377   0.050   3.936
 3342SOL    HW110925   2.341   0.136   3.972
 3342SOL    HW210926   2.473   0.039   3.965
 3343SOL     OW10927   4.960   3.003   0.158
 3343SOL    HW110928   5.002   2.971   0.243
 3343SOL    HW210929   5.031   3.037   0.096
 3344SOL     OW10930   5.463   4.261   4.877
 3344SOL    HW110931   5.492   4.170   4.905
 3344SOL    HW210932   5.531   4.301   4.815
 3345SOL     OW10933   2.534   3.906   6.172
 3345SOL    HW110934   2.590   3.969   6.117
 3345SOL    HW210935   2.443   3.946   6.185
 3346SOL     OW10936   1.038   1.031   1.816
 3346SOL    HW110937   1.039   1.013   1.914
 3346SOL    HW210938   1.084   1.118   1.798
 3347SOL     OW10939   0.413   4.893   3.536
 3347SOL    HW110940   0.403   4.821   3.604
 3347SOL    HW210941   0.487   4.955   3.563
 3348SOL     OW10942   3.151   3.226   3.649
 3348SOL    HW110943   3.087   3.188   3.582
 3348SOL    HW210944   3.171   3.321   3.625
 3349SOL     OW10945   0.342   4.440   4.509
 3349SOL    HW110946   0.414   4.508   4.523
 3349SOL    HW210947   0.298   4.419   4.596
 3350SOL     OW10948   1.519   1.587   6.633
 3350SOL    HW110949   1.607   1.540   6.635
 3350SOL    HW210950   1.446   1.520   6.619
 3351SOL     OW10951   5.153   0.701   2.208
 3351SOL    HW110952   5.243   0.704   2.251
 3351SOL    HW210953   5.109   0.614   2.231
 3352SOL     OW10954   6.937   3.299   0.159
 3352SOL    HW110955   6.940   3.385   0.211
 3352SOL    HW210956   6.914   3.319   0.064
 3353SOL     OW10957   1.558   0.029   2.043
 3353SOL    HW110958   1.492   6.980   2.009
 3353SOL    HW210959   1.637   7.000   2.081
 3354SOL     OW10960   6.597   2.724   3.931
 3354SOL    HW110961   6.646   2.740   4.016
 3354SOL    HW210962   6.595   2.626   3.911
 3355SOL     OW10963   0.790   1.468   6.974
 3355SOL    HW110964   0.776   1.537   6.903
 3355SOL    HW210965   0.872   1.491   0.008
 3356SOL     OW10966   2.523   2.452   0.211
 3356SOL    HW110967   2.472   2.443   0.296
 3356SOL    HW210968   2.560   2.545   0.205
 3357SOL     OW10969   2.430   4.889   1.807
 3357SOL    HW110970   2.382   4.872   1.894
 3357SOL    HW210971   2.508   4.827   1.800
 3358SOL     OW10972   4.670   6.170   1.700
 3358SOL    HW110973   4.600   6.105   1.730
 3358SOL    HW210974   4.760   6.130   1.714
 3359SOL     OW10975   0.277   0.584   3.618
 3359SOL    HW110976   0.224   0.668   3.606
 3359SOL    HW210977   0.371   0.599   3.586
 3360SOL     OW10978   0.158   1.179   1.155
 3360SOL    HW110979   0.232   1.198   1.220
 3360SOL    HW210980   0.193   1.127   1.078
 3361SOL     OW10981   6.695   4.790   2.587
 3361SOL    HW110982   6.741   4.760   2.503
 3361SOL    HW210983   6.619   4.851   2.563
 3362SOL     OW10984   3.340   1.275   4.729
 3362SOL    HW110985   3.358   1.192   4.676
 3362SOL    HW210986   3.417   1.338   4.720
 3363SOL     OW10987   0.303   0.242   6.376
 3363SOL    HW110988   0.366   0.285   6.311
 3363SOL    HW210989   0.340   0.154   6.405
 3364SOL     OW10990   1.059   4.967   5.299
 3364SOL    HW110991   1.096   5.045   5.350
 3364SOL    HW210992   1.014   4.999   5.216
 3365SOL     OW10993   0.257   2.816   4.467
 3365SOL    HW110994   0.228   2.895   4.413
 3365SOL    HW210995   0.280   2.845   4.560
 3366SOL     OW10996   6.258   0.708   4.793
 3366SOL    HW110997   6.218   0.777   4.732
 3366SOL    HW210998   6.358   0.712   4.785
 3367SOL     OW10999   2.249   2.855   1.834
 3367SOL    HW111000   2.333   2.895   1.798
 3367SOL    HW211001   2.249   2.757   1.818
 3368SOL     OW11002   0.329   5.872   6.644
 3368SOL    HW111003   0.303   5.895   6.738
 3368SOL    HW211004   0.420   5.831   6.643
 3369SOL     OW11005   3.620   2.200   6.488
 3369SOL    HW111006   3.660   2.246   6.567
 3369SOL    HW211007   3.629   2.260   6.408
 3370SOL     OW11008   6.519   6.505   5.325
 3370SOL    HW111009   6.564   6.481   5.239
 3370SOL    HW211010   6.423   6.479   5.320
 3371SOL     OW11011   1.101   4.471   2.477
 3371SOL    HW111012   1.002   4.464   2.484
 3371SOL    HW211013   1.132   4.432   2.391
 3372SOL     OW11014   1.182   1.609   2.532
 3372SOL    HW111015   1.258   1.637   2.591
 3372SOL    HW211016   1.152   1.687   2.478
 3373SOL     OW11017   6.741   1.218   3.897
 3373SOL    HW111018   6.763   1.167   3.814
 3373SOL    HW211019   6.803   1.297   3.905
 3374SOL     OW11020   3.184   5.620   4.637
 3374SOL    HW111021   3.264   5.564   4.658
 3374SOL    HW211022   3.131   5.635   4.720
 3375SOL     OW11023   4.196   4.806   4.704
 3375SOL    HW111024   4.201   4.788   4.606
 3375SOL    HW211025   4.280   4.774   4.748
 3376SOL     OW11026   4.116   3.362   2.853
 3376SOL    HW111027   4.090   3.287   2.913
 3376SOL    HW211028   4.038   3.387   2.795
 3377SOL     OW11029   0.729   6.247   4.610
 3377SOL    HW111030   0.801   6.316   4.609
 3377SOL    HW211031   0.711   6.219   4.704
 3378SOL     OW11032   6.719   0.476   1.915
 3378SOL    HW111033   6.738   0.388   1.872
 3378SOL    HW211034   6.753   0.550   1.856
 3379SOL     OW11035   0.461   4.663   6.042
 3379SOL    HW111036   0.393   4.684   6.113
 3379SOL    HW211037   0.478   4.746   5.987
 3380SOL     OW11038   6.381   5.453   5.950
 3380SOL    HW111039   6.372   5.438   5.851
 3380SOL    HW211040   6.300   5.417   5.997
 3381SOL     OW11041   1.901   2.224   0.420
 3381SOL    HW111042   1.993   2.192   0.400
 3381SOL    HW211043   1.836   2.175   0.362
 3382SOL     OW11044   0.757   1.598   0.388
 3382SOL    HW111045   0.684   1.584   0.455
 3382SOL    HW211046   0.716   1.612   0.298
 3383SOL     OW11047   5.576   5.020   2.263
 3383SOL    HW111048   5.597   4.928   2.232
 3383SOL    HW211049   5.630   5.041   2.345
 3384SOL     OW11050   2.856   3.323   5.036
 3384SOL    HW111051   2.855   3.378   5.120
 3384SOL    HW211052   2.763   3.317   4.999
 3385SOL     OW11053   0.309   4.133   3.658
 3385SOL    HW111054   0.209   4.127   3.660
 3385SOL    HW211055   0.346   4.089   3.740
 3386SOL     OW11056   6.176   3.307   5.902
 3386SOL    HW111057   6.154   3.282   5.997
 3386SOL    HW211058   6.268   3.347   5.898
 3387SOL     OW11059   2.059   1.361   2.773
 3387SOL    HW111060   1.977   1.352   2.716
 3387SOL    HW211061   2.031   1.381   2.867
 3388SOL     OW11062   5.766   3.773   1.310
 3388SOL    HW111063   5.825   3.830   1.252
 3388SOL    HW211064   5.823   3.707   1.359
 3389SOL     OW11065   4.538   4.982   4.471
 3389SOL    HW111066   4.479   5.024   4.540
 3389SOL    HW211067   4.504   4.890   4.450
 3390SOL     OW11068   4.822   3.800   5.920
 3390SOL    HW111069   4.901   3.799   5.981
 3390SOL    HW211070   4.761   3.724   5.942
 3391SOL     OW11071   5.352   2.363   4.776
 3391SOL    HW111072   5.282   2.316   4.723
 3391SOL    HW211073   5.313   2.397   4.861
 3392SOL     OW11074   2.986   1.212   3.556
 3392SOL    HW111075   3.075   1.215   3.603
 3392SOL    HW211076   2.916   1.252   3.615
 3393SOL     OW11077   6.749   6.707   0.777
 3393SOL    HW111078   6.719   6.746   0.690
 3393SOL    HW211079   6.670   6.700   0.839
 3394SOL     OW11080   5.822   3.395   1.219
 3394SOL    HW111081   5.899   3.351   1.266
 3394SOL    HW211082   5.781   3.463   1.280
 3395SOL     OW11083   6.812   3.333   4.018
 3395SOL    HW111084   6.834   3.254   3.962
 3395SOL    HW211085   6.716   3.358   4.004
 3396SOL     OW11086   0.008   3.031   3.820
 3396SOL    HW111087   6.931   3.002   3.823
 3396SOL    HW211088   0.066   2.955   3.851
 3397SOL     OW11089   2.926   1.069   5.360
 3397SOL    HW111090   2.829   1.093   5.353
 3397SOL    HW211091   2.947   0.993   5.298
 3398SOL     OW11092   1.307   6.903   4.366
 3398SOL    HW111093   1.295   6.921   4.268
 3398SOL    HW211094   1.218   6.900   4.411
 3399SOL     OW11095   4.947   4.389   3.893
 3399SOL    HW111096   4.937   4.460   3.962
 3399SOL    HW211097   4.891   4.310   3.919
 3400SOL     OW11098   4.418   1.352   5.604
 3400SOL    HW111099   4.330   1.319   5.639
 3400SOL    HW211100   4.419   1.452   5.605
 3401SOL     OW11101   0.187   3.800   0.802
 3401SOL    HW111102   0.114   3.851   0.758
 3401SOL    HW211103   0.276   3.839   0.776
 3402SOL     OW11104   5.058   5.746   0.663
 3402SOL    HW111105   5.006   5.802   0.599
 3402SOL    HW211106   5.152   5.735   0.630
 3403SOL     OW11107   3.586   0.749   4.650
 3403SOL    HW111108   3.565   0.695   4.569
 3403SOL    HW211109   3.559   0.844   4.634
 3404SOL     OW11110   3.914   1.677   0.600
 3404SOL    HW111111   3.995   1.652   0.654
 3404SOL    HW211112   3.870   1.757   0.642
 3405SOL     OW11113   6.295   3.220   4.734
 3405SOL    HW111114   6.295   3.232   4.834
 3405SOL    HW211115   6.205   3.189   4.704
 3406SOL     OW11116   1.558   4.287   1.968
 3406SOL    HW111117   1.655   4.277   1.989
 3406SOL    HW211118   1.547   4.322   1.875
 3407SOL     OW11119   1.778   4.729   1.190
 3407SOL    HW111120   1.777   4.814   1.136
 3407SOL    HW211121   1.845   4.666   1.151
 3408SOL     OW11122   4.911   4.306   4.294
 3408SOL    HW111123   4.826   4.359   4.291
 3408SOL    HW211124   4.973   4.347   4.360
 3409SOL     OW11125   3.607   6.719   5.652
 3409SOL    HW111126   3.561   6.647   5.703
 3409SOL    HW211127   3.687   6.681   5.606
 3410SOL     OW11128   6.016   5.732   6.723
 3410SOL    HW111129   5.923   5.700   6.741
 3410SOL    HW211130   6.022   5.768   6.630
 3411SOL     OW11131   0.186   2.895   1.984
 3411SOL    HW111132   0.185   2.816   1.922
 3411SOL    HW211133   0.148   2.975   1.937
 3412SOL     OW11134   4.679   2.876   6.907
 3412SOL    HW111135   4.603   2.897   6.845
 3412SOL    HW211136   4.731   2.959   6.926
 3413SOL     OW11137   4.439   1.168   2.682
 3413SOL    HW111138   4.387   1.149   2.599
 3413SOL    HW211139   4.499   1.090   2.702
 3414SOL     OW11140   2.259   1.009   5.045
 3414SOL    HW111141   2.243   1.050   5.135
 3414SOL    HW211142   2.316   1.069   4.990
 3415SOL     OW11143   1.689   4.298   4.710
 3415SOL    HW111144   1.748   4.255   4.642
 3415SOL    HW211145   1.717   4.268   4.801
 3416SOL     OW11146   6.314   4.986   6.452
 3416SOL    HW111147   6.407   4.954   6.433
 3416SOL    HW211148   6.254   4.907   6.466
 3417SOL     OW11149   6.503   5.705   2.734
 3417SOL    HW111150   6.582   5.645   2.749
 3417SOL    HW211151   6.424   5.649   2.706
 3418SOL     OW11152   4.062   0.369   4.588
 3418SOL    HW111153   4.123   0.328   4.656
 3418SOL    HW211154   3.969   0.374   4.627
 3419SOL     OW11155   3.204   5.537   5.654
 3419SOL    HW111156   3.211   5.567   5.559
 3419SOL    HW211157   3.133   5.467   5.662
 3420SOL     OW11158   5.286   2.424   3.524
 3420SOL    HW111159   5.306   2.521   3.505
 3420SOL    HW211160   5.327   2.399   3.612
 3421SOL     OW11161   6.530   0.100   6.148
 3421SOL    HW111162   6.612   0.151   6.175
 3421SOL    HW211163   6.462   0.164   6.112
 3422SOL     OW11164   2.381   6.735   1.445
 3422SOL    HW111165   2.360   6.649   1.398
 3422SOL    HW211166   2.335   6.737   1.533
 3423SOL     OW11167   2.340   0.206   0.690
 3423SOL    HW111168   2.307   0.299   0.675
 3423SOL    HW211169   2.438   0.202   0.672
 3424SOL     OW11170   3.174   0.244   2.204
 3424SOL    HW111171   3.253   0.304   2.212
 3424SOL    HW211172   3.201   0.158   2.160
 3425SOL     OW11173   4.679   4.466   2.362
 3425SOL    HW111174   4.582   4.464   2.338
 3425SOL    HW211175   4.717   4.373   2.357
 3426SOL     OW11176   3.551   2.914   6.996
 3426SOL    HW111177   3.528   2.979   6.923
 3426SOL    HW211178   3.520   2.823   6.970
 3427SOL     OW11179   6.888   6.424   0.128
 3427SOL    HW111180   6.841   6.371   0.198
 3427SOL    HW211181   6.945   6.363   0.072
 3428SOL     OW11182   3.753   4.951   1.577
 3428SOL    HW111183   3.785   4.875   1.632
 3428SOL    HW211184   3.822   5.023   1.575
 3429SOL     OW11185   0.422   1.781   6.912
 3429SOL    HW111186   0.415   1.709   6.981
 3429SOL    HW211187   0.365   1.859   6.939
 3430SOL     OW11188   0.561   0.058   6.135
 3430SOL    HW111189   0.546   0.118   6.057
 3430SOL    HW211190   0.657   0.059   6.161
 3431SOL     OW11191   2.247   6.855   1.180
 3431SOL    HW111192   2.178   6.924   1.202
 3431SOL    HW211193   2.293   6.826   1.265
 3432SOL     OW11194   2.969   2.238   5.946
 3432SOL    HW111195   2.889   2.286   5.911
 3432SOL    HW211196   3.010   2.290   6.021
 3433SOL     OW11197   1.222   0.101   6.235
 3433SOL    HW111198   1.151   0.049   6.188
 3433SOL    HW211199   1.295   0.039   6.265
 3434SOL     OW11200   3.532   2.711   1.089
 3434SOL    HW111201   3.444   2.681   1.126
 3434SOL    HW211202   3.529   2.706   0.989
 3435SOL     OW11203   0.490   2.160   1.979
 3435SOL    HW111204   0.549   2.206   1.913
 3435SOL    HW211205   0.475   2.220   2.058
 3436SOL     OW11206   4.104   6.553   5.329
 3436SOL    HW111207   4.057   6.633   5.294
 3436SOL    HW211208   4.120   6.564   5.427
 3437SOL     OW11209   4.575   0.458   6.513
 3437SOL    HW111210   4.613   0.546   6.484
 3437SOL    HW211211   4.475   0.463   6.513
 3438SOL     OW11212   1.227   2.431   6.466
 3438SOL    HW111213   1.195   2.363   6.533
 3438SOL    HW211214   1.310   2.474   6.501
 3439SOL     OW11215   2.470   0.310   5.506
 3439SOL    HW111216   2.426   0.267   5.585
 3439SOL    HW211217   2.530   0.244   5.461
 3440SOL     OW11218   4.772   3.865   1.385
 3440SOL    HW111219   4.683   3.858   1.341
 3440SOL    HW211220   4.788   3.786   1.443
 3441SOL     OW11221   5.458   0.543   3.487
 3441SOL    HW111222   5.390   0.513   3.554
 3441SOL    HW211223   5.536   0.481   3.488
 3442SOL     OW11224   2.658   5.130   2.802
 3442SOL    HW111225   2.617   5.077   2.877
 3442SOL    HW211226   2.605   5.116   2.719
 3443SOL     OW11227   5.938   0.556   2.429
 3443SOL    HW111228   6.009   0.501   2.473
 3443SOL    HW211229   5.851   0.508   2.432
 3444SOL     OW11230   5.514   4.603   6.968
 3444SOL    HW111231   5.430   4.641   6.930
 3444SOL    HW211232   5.577   4.581   6.893
 3445SOL     OW11233   5.844   4.638   4.011
 3445SOL    HW111234   5.840   4.540   3.992
 3445SOL    HW211235   5.939   4.667   4.017
 3446SOL     OW11236   6.246   0.967   3.271
 3446SOL    HW111237   6.232   0.873   3.299
 3446SOL    HW211238   6.318   1.009   3.327
 3447SOL     OW11239   4.883   4.397   0.753
 3447SOL    HW111240   4.925   4.441   0.833
 3447SOL    HW211241   4.785   4.385   0.770
 3448SOL     OW11242   3.095   0.021   1.104
 3448SOL    HW111243   2.996   0.014   1.095
 3448SOL    HW211244   3.127   0.102   1.056
 3449SOL     OW11245   5.370   6.546   3.200
 3449SOL    HW111246   5.303   6.504   3.139
 3449SOL    HW211247   5.394   6.482   3.273
 3450SOL     OW11248   0.991   2.790   0.754
 3450SOL    HW111249   1.029   2.770   0.845
 3450SOL    HW211250   1.058   2.842   0.701
 3451SOL     OW11251   0.300   5.457   3.520
 3451SOL    HW111252   0.252   5.478   3.605
 3451SOL    HW211253   0.281   5.362   3.494
 3452SOL     OW11254   5.842   1.640   0.194
 3452SOL    HW111255   5.782   1.719   0.202
 3452SOL    HW211256   5.932   1.663   0.231
 3453SOL     OW11257   6.528   5.626   5.284
 3453SOL    HW111258   6.520   5.681   5.201
 3453SOL    HW211259   6.441   5.579   5.301
 3454SOL     OW11260   2.190   0.580   5.689
 3454SOL    HW111261   2.122   0.636   5.641
 3454SOL    HW211262   2.154   0.553   5.778
 3455SOL     OW11263   1.690   3.172   4.288
 3455SOL    HW111264   1.764   3.157   4.354
 3455SOL    HW211265   1.727   3.168   4.195
 3456SOL     OW11266   5.488   6.491   1.905
 3456SOL    HW111267   5.468   6.492   1.807
 3456SOL    HW211268   5.427   6.556   1.952
 3457SOL     OW11269   2.454   5.483   3.985
 3457SOL    HW111270   2.430   5.395   4.025
 3457SOL    HW211271   2.518   5.530   4.046
 3458SOL     OW11272   5.136   6.683   6.846
 3458SOL    HW111273   5.101   6.772   6.819
 3458SOL    HW211274   5.176   6.689   6.937
 3459SOL     OW11275   6.929   4.254   3.458
 3459SOL    HW111276   7.002   4.230   3.394
 3459SOL    HW211277   6.844   4.268   3.408
 3460SOL     OW11278   3.157   3.635   0.399
 3460SOL    HW111279   3.135   3.538   0.407
 3460SOL    HW211280   3.227   3.660   0.466
 3461SOL     OW11281   4.827   6.084   3.866
 3461SOL    HW111282   4.901   6.056   3.927
 3461SOL    HW211283   4.740   6.076   3.913
 3462SOL     OW11284   6.120   3.725   2.251
 3462SOL    HW111285   6.060   3.727   2.331
 3462SOL    HW211286   6.137   3.629   2.226
 3463SOL     OW11287   1.161   3.105   2.298
 3463SOL    HW111288   1.252   3.144   2.316
 3463SOL    HW211289   1.098   3.179   2.274
 3464SOL     OW11290   6.252   2.353   6.791
 3464SOL    HW111291   6.181   2.282   6.790
 3464SOL    HW211292   6.208   2.443   6.786
 3465SOL     OW11293   1.378   3.275   1.989
 3465SOL    HW111294   1.329   3.323   2.061
 3465SOL    HW211295   1.423   3.342   1.929
 3466SOL     OW11296   6.739   5.192   5.920
 3466SOL    HW111297   6.711   5.130   5.847
 3466SOL    HW211298   6.815   5.249   5.889
 3467SOL     OW11299   1.654   1.840   0.570
 3467SOL    HW111300   1.734   1.807   0.520
 3467SOL    HW211301   1.657   1.807   0.664
 3468SOL     OW11302   5.517   1.674   3.445
 3468SOL    HW111303   5.601   1.683   3.392
 3468SOL    HW211304   5.440   1.656   3.384
 3469SOL     OW11305   4.791   0.340   4.715
 3469SOL    HW111306   4.763   0.261   4.770
 3469SOL    HW211307   4.711   0.396   4.694
 3470SOL     OW11308   0.172   2.712   1.767
 3470SOL    HW111309   0.143   2.619   1.790
 3470SOL    HW211310   0.266   2.710   1.733
 3471SOL     OW11311   4.191   4.705   3.557
 3471SOL    HW111312   4.131   4.747   3.625
 3471SOL    HW211313   4.287   4.726   3.580
 3472SOL     OW11314   3.210   0.975   1.753
 3472SOL    HW111315   3.194   0.992   1.655
 3472SOL    HW211316   3.132   1.010   1.806
 3473SOL     OW11317   5.919   2.958   2.866
 3473SOL    HW111318   5.832   3.007   2.866
 3473SOL    HW211319   5.917   2.888   2.794
 3474SOL     OW11320   6.920   3.989   2.277
 3474SOL    HW111321   6.995   3.970   2.215
 3474SOL    HW211322   6.955   4.003   2.369
 3475SOL     OW11323   0.972   4.652   5.065
 3475SOL    HW111324   1.047   4.709   5.031
 3475SOL    HW211325   0.962   4.666   5.164
 3476SOL     OW11326   2.107   2.033   2.632
 3476SOL    HW111327   2.166   2.073   2.562
 3476SOL    HW211328   2.146   2.051   2.723
 3477SOL     OW11329   0.992   4.306   0.976
 3477SOL    HW111330   1.069   4.321   0.914
 3477SOL    HW211331   0.936   4.389   0.980
 3478SOL     OW11332   3.068   6.395   7.002
 3478SOL    HW111333   3.065   6.357   6.909
 3478SOL    HW211334   3.130   6.340   0.039
 3479SOL     OW11335   0.555   1.041   2.786
 3479SOL    HW111336   0.623   0.975   2.754
 3479SOL    HW211337   0.522   1.013   2.877
 3480SOL     OW11338   0.450   6.328   5.215
 3480SOL    HW111339   0.373   6.355   5.273
 3480SOL    HW211340   0.416   6.304   5.124
 3481SOL     OW11341   5.256   0.531   0.419
 3481SOL    HW111342   5.233   0.503   0.512
 3481SOL    HW211343   5.228   0.626   0.406
 3482SOL     OW11344   6.050   1.552   2.173
 3482SOL    HW111345   5.991   1.472   2.175
 3482SOL    HW211346   6.084   1.571   2.266
 3483SOL     OW11347   5.505   1.850   2.880
 3483SOL    HW111348   5.435   1.891   2.939
 3483SOL    HW211349   5.462   1.785   2.817
 3484SOL     OW11350   1.242   2.959   0.159
 3484SOL    HW111351   1.296   2.876   0.174
 3484SOL    HW211352   1.241   2.981   0.061
 3485SOL     OW11353   1.337   2.120   4.152
 3485SOL    HW111354   1.429   2.114   4.114
 3485SOL    HW211355   1.342   2.122   4.252
 3486SOL     OW11356   1.825   0.458   3.368
 3486SOL    HW111357   1.777   0.371   3.372
 3486SOL    HW211358   1.916   0.448   3.410
 3487SOL     OW11359   6.473   1.837   0.448
 3487SOL    HW111360   6.436   1.832   0.541
 3487SOL    HW211361   6.399   1.857   0.384
 3488SOL     OW11362   5.392   1.217   5.305
 3488SOL    HW111363   5.326   1.247   5.374
 3488SOL    HW211364   5.418   1.122   5.322
 3489SOL     OW11365   3.877   0.076   2.156
 3489SOL    HW111366   3.860   6.997   2.171
 3489SOL    HW211367   3.957   0.087   2.097
 3490SOL     OW11368   3.588   4.639   1.352
 3490SOL    HW111369   3.594   4.648   1.253
 3490SOL    HW211370   3.556   4.725   1.392
 3491SOL     OW11371   4.089   2.964   6.054
 3491SOL    HW111372   4.068   2.885   6.112
 3491SOL    HW211373   4.186   2.963   6.029
 3492SOL     OW11374   6.271   4.489   0.680
 3492SOL    HW111375   6.312   4.466   0.769
 3492SOL    HW211376   6.189   4.432   0.666
 3493SOL     OW11377   5.443   3.943   3.918
 3493SOL    HW111378   5.380   3.950   3.995
 3493SOL    HW211379   5.510   4.017   3.922
 3494SOL     OW11380   2.473   0.963   1.988
 3494SOL    HW111381   2.457   1.041   2.049
 3494SOL    HW211382   2.572   0.949   1.977
 3495SOL     OW11383   6.956   4.248   1.883
 3495SOL    HW111384   6.891   4.306   1.931
 3495SOL    HW211385   0.031   4.277   1.903
 3496SOL     OW11386   5.921   5.576   1.021
 3496SOL    HW111387   5.872   5.527   0.948
 3496SOL    HW211388   5.978   5.648   0.980
 3497SOL     OW11389   2.564   1.697   3.896
 3497SOL    HW111390   2.658   1.675   3.867
 3497SOL    HW211391   2.554   1.796   3.905
 3498SOL     OW11392   2.995   1.084   1.855
 3498SOL    HW111393   2.957   1.148   1.788
 3498SOL    HW211394   2.940   1.087   1.938
 3499SOL     OW11395   6.128   4.699   4.328
 3499SOL    HW111396   6.157   4.657   4.242
 3499SOL    HW211397   6.058   4.769   4.309
 3500SOL     OW11398   1.640   3.225   3.164
 3500SOL    HW111399   1.669   3.321   3.163
 3500SOL    HW211400   1.692   3.176   3.234
 3501SOL     OW11401   3.365   6.570   5.699
 3501SOL    HW111402   3.316   6.655   5.720
 3501SOL    HW211403   3.361   6.509   5.779
 3502SOL     OW11404   0.044   2.419   1.441
 3502SOL    HW111405   0.028   2.404   1.343
 3502SOL    HW211406   6.983   2.389   1.493
 3503SOL     OW11407   6.101   5.986   5.234
 3503SOL    HW111408   6.138   6.029   5.316
 3503SOL    HW211409   6.001   5.995   5.234
 3504SOL     OW11410   2.323   0.709   1.970
 3504SOL    HW111411   2.353   0.804   1.977
 3504SOL    HW211412   2.403   0.650   1.957
 3505SOL     OW11413   5.129   4.118   5.680
 3505SOL    HW111414   5.143   4.184   5.753
 3505SOL    HW211415   5.141   4.162   5.591
 3506SOL     OW11416   5.331   4.436   5.079
 3506SOL    HW111417   5.377   4.387   5.005
 3506SOL    HW211418   5.232   4.422   5.072
 3507SOL     OW11419   2.820   0.647   0.669
 3507SOL    HW111420   2.725   0.626   0.693
 3507SOL    HW211421   2.857   0.713   0.734
 3508SOL     OW11422   1.972   1.380   5.869
 3508SOL    HW111423   1.965   1.347   5.775
 3508SOL    HW211424   1.880   1.396   5.906
 3509SOL     OW11425   5.996   6.995   0.005
 3509SOL    HW111426   6.024   0.014   6.935
 3509SOL    HW211427   5.984   6.896   7.016
 3510SOL     OW11428   1.362   0.976   2.085
 3510SOL    HW111429   1.266   0.995   2.107
 3510SOL    HW211430   1.375   0.877   2.075
 3511SOL     OW11431   2.021   3.983   1.746
 3511SOL    HW111432   2.046   3.900   1.696
 3511SOL    HW211433   2.062   3.981   1.837
 3512SOL     OW11434   0.332   4.239   0.520
 3512SOL    HW111435   0.277   4.227   0.602
 3512SOL    HW211436   0.274   4.269   0.444
 3513SOL     OW11437   5.693   2.146   0.509
 3513SOL    HW111438   5.693   2.245   0.523
 3513SOL    HW211439   5.752   2.123   0.432
 3514SOL     OW11440   0.062   0.804   1.955
 3514SOL    HW111441   0.097   0.897   1.942
 3514SOL    HW211442   7.005   0.806   2.021
 3515SOL     OW11443   4.520   5.803   2.981
 3515SOL    HW111444   4.481   5.879   2.929
 3515SOL    HW211445   4.565   5.839   3.063
 3516SOL     OW11446   4.300   6.285   0.783
 3516SOL    HW111447   4.213   6.314   0.823
 3516SOL    HW211448   4.370   6.353   0.805
 3517SOL     OW11449   6.648   0.883   1.691
 3517SOL    HW111450   6.648   0.888   1.591
 3517SOL    HW211451   6.717   0.818   1.722
 3518SOL     OW11452   5.250   2.961   5.097
 3518SOL    HW111453   5.263   3.039   5.158
 3518SOL    HW211454   5.153   2.952   5.074
 3519SOL     OW11455   1.698   6.729   5.902
 3519SOL    HW111456   1.620   6.781   5.937
 3519SOL    HW211457   1.665   6.654   5.844
 3520SOL     OW11458   3.397   5.990   0.111
 3520SOL    HW111459   3.362   5.989   0.017
 3520SOL    HW211460   3.340   5.931   0.168
 3521SOL     OW11461   4.602   2.702   0.107
 3521SOL    HW111462   4.690   2.678   0.148
 3521SOL    HW211463   4.617   2.766   0.031
 3522SOL     OW11464   0.190   5.696   0.251
 3522SOL    HW111465   0.194   5.683   0.350
 3522SOL    HW211466   0.097   5.682   0.219
 3523SOL     OW11467   1.216   4.782   5.043
 3523SOL    HW111468   1.282   4.710   5.064
 3523SOL    HW211469   1.256   4.871   5.063
 3524SOL     OW11470   4.751   1.647   2.068
 3524SOL    HW111471   4.657   1.623   2.093
 3524SOL    HW211472   4.779   1.728   2.118
 3525SOL     OW11473   6.655   3.601   3.950
 3525SOL    HW111474   6.698   3.538   3.885
 3525SOL    HW211475   6.711   3.683   3.959
 3526SOL     OW11476   2.053   6.707   4.014
 3526SOL    HW111477   2.056   6.652   3.931
 3526SOL    HW211478   1.957   6.720   4.041
 3527SOL     OW11479   5.770   3.484   6.692
 3527SOL    HW111480   5.754   3.387   6.710
 3527SOL    HW211481   5.687   3.525   6.654
 3528SOL     OW11482   1.644   6.609   5.361
 3528SOL    HW111483   1.685   6.523   5.330
 3528SOL    HW211484   1.681   6.684   5.306
 3529SOL     OW11485   3.862   0.193   0.884
 3529SOL    HW111486   3.904   0.272   0.840
 3529SOL    HW211487   3.855   0.118   0.818
 3530SOL     OW11488   6.457   5.705   0.892
 3530SOL    HW111489   6.545   5.746   0.915
 3530SOL    HW211490   6.392   5.778   0.870
 3531SOL     OW11491   5.233   2.114   0.476
 3531SOL    HW111492   5.198   2.053   0.547
 3531SOL    HW211493   5.165   2.121   0.402
 3532SOL     OW11494   2.538   0.086   1.935
 3532SOL    HW111495   2.613   0.026   1.962
 3532SOL    HW211496   2.573   0.158   1.875
 3533SOL     OW11497   0.472   1.359   2.572
 3533SOL    HW111498   0.412   1.280   2.558
 3533SOL    HW211499   0.524   1.346   2.657
 3534SOL     OW11500   0.803   1.836   0.490
 3534SOL    HW111501   0.796   1.752   0.436
 3534SOL    HW211502   0.735   1.902   0.458
 3535SOL     OW11503   2.186   5.200   6.162
 3535SOL    HW111504   2.129   5.150   6.096
 3535SOL    HW211505   2.147   5.291   6.177
 3536SOL     OW11506   3.467   1.573   3.069
 3536SOL    HW111507   3.496   1.576   2.973
 3536SOL    HW211508   3.445   1.666   3.099
 3537SOL     OW11509   2.247   5.598   2.672
 3537SOL    HW111510   2.211   5.682   2.632
 3537SOL    HW211511   2.265   5.532   2.600
 3538SOL     OW11512   1.965   6.532   5.315
 3538SOL    HW111513   1.965   6.479   5.399
 3538SOL    HW211514   2.060   6.554   5.290
 3539SOL     OW11515   3.579   3.297   5.481
 3539SOL    HW111516   3.669   3.261   5.506
 3539SOL    HW211517   3.564   3.284   5.383
 3540SOL     OW11518   1.963   3.034   4.904
 3540SOL    HW111519   2.034   3.072   4.845
 3540SOL    HW211520   1.967   2.934   4.900
 3541SOL     OW11521   2.322   2.693   6.020
 3541SOL    HW111522   2.225   2.672   6.013
 3541SOL    HW211523   2.334   2.782   6.065
 3542SOL     OW11524   1.317   5.564   3.566
 3542SOL    HW111525   1.284   5.497   3.632
 3542SOL    HW211526   1.266   5.649   3.577
 3543SOL     OW11527   0.211   2.540   4.632
 3543SOL    HW111528   0.298   2.516   4.677
 3543SOL    HW211529   0.211   2.637   4.609
 3544SOL     OW11530   1.738   4.058   5.698
 3544SOL    HW111531   1.730   4.109   5.784
 3544SOL    HW211532   1.757   4.122   5.623
 3545SOL     OW11533   4.398   5.618   6.585
 3545SOL    HW111534   4.425   5.523   6.569
 3545SOL    HW211535   4.384   5.633   6.682
 3546SOL     OW11536   1.822   4.705   3.970
 3546SOL    HW111537   1.844   4.780   4.032
 3546SOL    HW211538   1.852   4.727   3.877
 3547SOL     OW11539   6.089   4.721   4.042
 3547SOL    HW111540   6.159   4.649   4.040
 3547SOL    HW211541   6.134   4.810   4.047
 3548SOL     OW11542   6.074   1.801   6.204
 3548SOL    HW111543   6.144   1.845   6.148
 3548SOL    HW211544   6.053   1.860   6.282
 3549SOL     OW11545   6.518   4.390   5.896
 3549SOL    HW111546   6.606   4.409   5.853
 3549SOL    HW211547   6.526   4.309   5.955
 3550SOL     OW11548   5.186   1.971   2.558
 3550SOL    HW111549   5.259   2.039   2.547
 3550SOL    HW211550   5.164   1.962   2.655
 3551SOL     OW11551   3.959   6.843   2.869
 3551SOL    HW111552   4.004   6.898   2.798
 3551SOL    HW211553   3.860   6.855   2.863
 3552SOL     OW11554   5.068   6.299   1.440
 3552SOL    HW111555   5.036   6.343   1.523
 3552SOL    HW211556   5.127   6.222   1.463
 3553SOL     OW11557   5.468   3.921   1.704
 3553SOL    HW111558   5.566   3.899   1.707
 3553SOL    HW211559   5.415   3.837   1.716
 3554SOL     OW11560   3.656   2.448   1.243
 3554SOL    HW111561   3.624   2.540   1.221
 3554SOL    HW211562   3.607   2.381   1.188
 3555SOL     OW11563   1.273   4.194   3.393
 3555SOL    HW111564   1.285   4.100   3.360
 3555SOL    HW211565   1.302   4.258   3.322
 3556SOL     OW11566   4.493   0.713   4.424
 3556SOL    HW111567   4.507   0.626   4.471
 3556SOL    HW211568   4.396   0.737   4.426
 3557SOL     OW11569   0.846   0.304   3.920
 3557SOL    HW111570   0.838   0.206   3.937
 3557SOL    HW211571   0.844   0.321   3.821
 3558SOL     OW11572   1.398   5.563   0.776
 3558SOL    HW111573   1.394   5.560   0.876
 3558SOL    HW211574   1.446   5.646   0.747
 3559SOL     OW11575   1.003   6.855   4.758
 3559SOL    HW111576   0.919   6.909   4.749
 3559SOL    HW211577   1.046   6.845   4.669
 3560SOL     OW11578   1.432   5.767   1.272
 3560SOL    HW111579   1.498   5.806   1.337
 3560SOL    HW211580   1.359   5.721   1.321
 3561SOL     OW11581   3.742   4.976   5.475
 3561SOL    HW111582   3.745   4.881   5.507
 3561SOL    HW211583   3.807   5.031   5.528
 3562SOL     OW11584   5.334   0.712   4.612
 3562SOL    HW111585   5.304   0.721   4.707
 3562SOL    HW211586   5.267   0.757   4.552
 3563SOL     OW11587   5.215   0.779   1.386
 3563SOL    HW111588   5.290   0.725   1.348
 3563SOL    HW211589   5.128   0.734   1.366
 3564SOL     OW11590   1.329   4.718   4.184
 3564SOL    HW111591   1.339   4.619   4.177
 3564SOL    HW211592   1.411   4.757   4.225
 3565SOL     OW11593   3.806   6.594   5.120
 3565SOL    HW111594   3.811   6.498   5.093
 3565SOL    HW211595   3.866   6.648   5.062
 3566SOL     OW11596   6.615   3.560   6.646
 3566SOL    HW111597   6.536   3.553   6.707
 3566SOL    HW211598   6.698   3.573   6.700
 3567SOL     OW11599   0.903   3.031   0.140
 3567SOL    HW111600   0.909   2.987   0.230
 3567SOL    HW211601   0.833   2.985   0.085
 3568SOL     OW11602   5.043   5.769   3.930
 3568SOL    HW111603   5.088   5.703   3.989
 3568SOL    HW211604   5.111   5.822   3.880
 3569SOL     OW11605   2.825   2.631   6.181
 3569SOL    HW111606   2.878   2.632   6.095
 3569SOL    HW211607   2.877   2.677   6.252
 3570SOL     OW11608   5.451   0.464   4.673
 3570SOL    HW111609   5.517   0.437   4.603
 3570SOL    HW211610   5.392   0.536   4.636
 3571SOL     OW11611   2.485   0.761   4.818
 3571SOL    HW111612   2.580   0.790   4.829
 3571SOL    HW211613   2.451   0.725   4.905
 3572SOL     OW11614   5.699   3.711   3.123
 3572SOL    HW111615   5.777   3.719   3.062
 3572SOL    HW211616   5.628   3.777   3.095
 3573SOL     OW11617   5.711   3.995   2.579
 3573SOL    HW111618   5.756   4.025   2.663
 3573SOL    HW211619   5.699   3.896   2.581
 3574SOL     OW11620   1.327   3.558   0.280
 3574SOL    HW111621   1.261   3.510   0.338
 3574SOL    HW211622   1.326   3.656   0.302
 3575SOL     OW11623   4.995   5.898   1.953
 3575SOL    HW111624   4.918   5.839   1.929
 3575SOL    HW211625   5.044   5.860   2.031
 3576SOL     OW11626   0.680   2.185   0.533
 3576SOL    HW111627   0.625   2.106   0.558
 3576SOL    HW211628   0.774   2.171   0.563
 3577SOL     OW11629   2.056   2.706   6.386
 3577SOL    HW111630   2.112   2.781   6.351
 3577SOL    HW211631   1.968   2.742   6.418
 3578SOL     OW11632   4.849   1.829   1.126
 3578SOL    HW111633   4.842   1.925   1.154
 3578SOL    HW211634   4.817   1.771   1.201
 3579SOL     OW11635   6.756   2.965   2.597
 3579SOL    HW111636   6.842   2.929   2.560
 3579SOL    HW211637   6.684   2.959   2.527
 3580SOL     OW11638   6.365   2.942   6.984
 3580SOL    HW111639   6.438   2.898   6.933
 3580SOL    HW211640   6.291   2.968   6.922
 3581SOL     OW11641   0.519   6.256   2.735
 3581SOL    HW111642   0.603   6.308   2.720
 3581SOL    HW211643   0.537   6.159   2.718
 3582SOL     OW11644   1.962   4.929   5.404
 3582SOL    HW111645   1.986   4.933   5.501
 3582SOL    HW211646   1.865   4.908   5.394
 3583SOL     OW11647   1.492   4.588   0.529
 3583SOL    HW111648   1.415   4.620   0.473
 3583SOL    HW211649   1.567   4.655   0.523
 3584SOL     OW11650   5.603   4.623   5.827
 3584SOL    HW111651   5.512   4.630   5.788
 3584SOL    HW211652   5.670   4.607   5.755
 3585SOL     OW11653   3.429   1.857   4.933
 3585SOL    HW111654   3.380   1.925   4.989
 3585SOL    HW211655   3.527   1.865   4.950
 3586SOL     OW11656   0.047   2.373   4.908
 3586SOL    HW111657   0.026   2.426   4.990
 3586SOL    HW211658   0.146   2.367   4.897
 3587SOL     OW11659   2.778   5.463   6.111
 3587SOL    HW111660   2.836   5.545   6.113
 3587SOL    HW211661   2.818   5.396   6.049
 3588SOL     OW11662   6.506   3.355   4.964
 3588SOL    HW111663   6.422   3.340   5.016
 3588SOL    HW211664   6.528   3.453   4.964
 3589SOL     OW11665   6.297   6.822   6.814
 3589SOL    HW111666   6.237   6.878   6.872
 3589SOL    HW211667   6.306   6.731   6.854
 3590SOL     OW11668   0.394   3.783   0.255
 3590SOL    HW111669   0.483   3.793   0.297
 3590SOL    HW211670   0.343   3.710   0.302
 3591SOL     OW11671   5.377   3.593   1.001
 3591SOL    HW111672   5.378   3.550   0.911
 3591SOL    HW211673   5.343   3.528   1.069
 3592SOL     OW11674   0.419   6.948   2.815
 3592SOL    HW111675   0.491   6.959   2.884
 3592SOL    HW211676   0.450   6.883   2.746
 3593SOL     OW11677   0.916   4.350   5.972
 3593SOL    HW111678   0.992   4.305   6.019
 3593SOL    HW211679   0.932   4.449   5.969
 3594SOL     OW11680   5.286   0.407   3.951
 3594SOL    HW111681   5.259   0.482   3.891
 3594SOL    HW211682   5.305   0.442   4.043
 3595SOL     OW11683   5.573   5.186   6.723
 3595SOL    HW111684   5.544   5.143   6.638
 3595SOL    HW211685   5.639   5.258   6.703
 3596SOL     OW11686   4.576   2.681   3.456
 3596SOL    HW111687   4.517   2.625   3.397
 3596SOL    HW211688   4.547   2.672   3.551
 3597SOL     OW11689   1.819   3.101   5.586
 3597SOL    HW111690   1.826   3.044   5.668
 3597SOL    HW211691   1.741   3.163   5.595
 3598SOL     OW11692   2.018   6.337   5.125
 3598SOL    HW111693   2.008   6.368   5.031
 3598SOL    HW211694   1.968   6.398   5.186
 3599SOL     OW11695   4.308   2.264   6.932
 3599SOL    HW111696   4.346   2.257   0.005
 3599SOL    HW211697   4.353   2.338   6.883
 3600SOL     OW11698   1.192   3.466   1.251
 3600SOL    HW111699   1.237   3.411   1.181
 3600SOL    HW211700   1.205   3.563   1.230
 3601SOL     OW11701   5.467   2.483   6.221
 3601SOL    HW111702   5.418   2.546   6.160
 3601SOL    HW211703   5.412   2.400   6.234
 3602SOL     OW11704   1.516   3.108   0.477
 3602SOL    HW111705   1.548   3.180   0.415
 3602SOL    HW211706   1.421   3.125   0.502
 3603SOL     OW11707   3.671   1.051   5.362
 3603SOL    HW111708   3.711   1.093   5.444
 3603SOL    HW211709   3.572   1.048   5.371
 3604SOL     OW11710   6.189   0.726   3.740
 3604SOL    HW111711   6.255   0.790   3.781
 3604SOL    HW211712   6.219   0.703   3.648
 3605SOL     OW11713   1.093   5.483   4.304
 3605SOL    HW111714   1.045   5.457   4.220
 3605SOL    HW211715   1.118   5.400   4.354
 3606SOL     OW11716   1.606   6.848   2.827
 3606SOL    HW111717   1.506   6.840   2.830
 3606SOL    HW211718   1.644   6.759   2.801
 3607SOL     OW11719   5.531   3.071   2.037
 3607SOL    HW111720   5.507   2.974   2.039
 3607SOL    HW211721   5.448   3.126   2.038
 3608SOL     OW11722   5.099   1.615   4.186
 3608SOL    HW111723   5.103   1.648   4.091
 3608SOL    HW211724   5.021   1.658   4.232
 3609SOL     OW11725   2.175   0.191   4.322
 3609SOL    HW111726   2.239   0.249   4.372
 3609SOL    HW211727   2.083   0.229   4.329
 3610SOL     OW11728   1.460   0.384   5.741
 3610SOL    HW111729   1.527   0.360   5.672
 3610SOL    HW211730   1.457   0.314   5.812
 3611SOL     OW11731   4.221   4.736   3.978
 3611SOL    HW111732   4.135   4.707   3.937
 3611SOL    HW211733   4.268   4.798   3.916
 3612SOL     OW11734   6.555   0.918   6.503
 3612SOL    HW111735   6.463   0.956   6.514
 3612SOL    HW211736   6.548   0.821   6.479
 3613SOL     OW11737   3.784   5.324   1.974
 3613SOL    HW111738   3.736   5.280   2.049
 3613SOL    HW211739   3.780   5.424   1.985
 3614SOL     OW11740   2.772   3.441   6.848
 3614SOL    HW111741   2.842   3.480   6.909
 3614SOL    HW211742   2.687   3.430   6.899
 3615SOL     OW11743   6.010   2.753   6.373
 3615SOL    HW111744   6.097   2.761   6.325
 3615SOL    HW211745   5.979   2.658   6.371
 3616SOL     OW11746   1.402   0.936   6.298
 3616SOL    HW111747   1.385   0.875   6.220
 3616SOL    HW211748   1.481   0.903   6.349
 3617SOL     OW11749   4.148   0.489   6.149
 3617SOL    HW111750   4.242   0.510   6.174
 3617SOL    HW211751   4.147   0.434   6.066
 3618SOL     OW11752   2.702   3.417   5.369
 3618SOL    HW111753   2.615   3.444   5.410
 3618SOL    HW211754   2.715   3.319   5.379
 3619SOL     OW11755   5.589   3.037   0.295
 3619SOL    HW111756   5.550   3.106   0.235
 3619SOL    HW211757   5.683   3.063   0.319
 3620SOL     OW11758   6.193   5.267   5.390
 3620SOL    HW111759   6.156   5.272   5.298
 3620SOL    HW211760   6.138   5.323   5.452
 3621SOL     OW11761   3.142   3.364   4.545
 3621SOL    HW111762   3.091   3.279   4.551
 3621SOL    HW211763   3.084   3.440   4.578
 3622SOL     OW11764   1.200   0.502   0.700
 3622SOL    HW111765   1.171   0.412   0.665
 3622SOL    HW211766   1.193   0.569   0.626
 3623SOL     OW11767   0.172   5.422   5.256
 3623SOL    HW111768   0.190   5.370   5.172
 3623SOL    HW211769   0.097   5.486   5.241
 3624SOL     OW11770   1.398   0.100   2.503
 3624SOL    HW111771   1.374   0.158   2.426
 3624SOL    HW211772   1.489   0.061   2.488
 3625SOL     OW11773   6.997   3.364   6.601
 3625SOL    HW111774   0.024   3.414   6.528
 3625SOL    HW211775   6.977   3.270   6.571
 3626SOL     OW11776   0.684   3.412   4.061
 3626SOL    HW111777   0.668   3.501   4.103
 3626SOL    HW211778   0.600   3.382   4.015
 3627SOL     OW11779   4.861   3.400   1.522
 3627SOL    HW111780   4.829   3.313   1.560
 3627SOL    HW211781   4.956   3.415   1.549
 3628SOL     OW11782   1.556   1.196   2.570
 3628SOL    HW111783   1.619   1.185   2.647
 3628SOL    HW211784   1.607   1.188   2.484
 3629SOL     OW11785   1.139   0.820   4.035
 3629SOL    HW111786   1.160   0.811   3.937
 3629SOL    HW211787   1.219   0.797   4.089
 3630SOL     OW11788   6.390   2.878   3.839
 3630SOL    HW111789   6.342   2.849   3.922
 3630SOL    HW211790   6.479   2.832   3.834
 3631SOL     OW11791   1.578   6.658   3.636
 3631SOL    HW111792   1.599   6.611   3.722
 3631SOL    HW211793   1.662   6.677   3.587
 3632SOL     OW11794   4.600   4.244   0.760
 3632SOL    HW111795   4.593   4.242   0.860
 3632SOL    HW211796   4.684   4.197   0.732
 3633SOL     OW11797   4.308   2.433   5.805
 3633SOL    HW111798   4.404   2.426   5.829
 3633SOL    HW211799   4.284   2.357   5.743
 3634SOL     OW11800   1.888   6.693   6.240
 3634SOL    HW111801   1.896   6.600   6.275
 3634SOL    HW211802   1.934   6.698   6.151
 3635SOL     OW11803   1.719   1.265   0.834
 3635SOL    HW111804   1.645   1.315   0.879
 3635SOL    HW211805   1.758   1.198   0.897
 3636SOL     OW11806   0.228   6.204   1.161
 3636SOL    HW111807   0.147   6.179   1.213
 3636SOL    HW211808   0.295   6.248   1.221
 3637SOL     OW11809   0.798   2.857   1.027
 3637SOL    HW111810   0.825   2.937   1.080
 3637SOL    HW211811   0.701   2.838   1.042
 3638SOL     OW11812   6.722   3.763   2.292
 3638SOL    HW111813   6.743   3.860   2.296
 3638SOL    HW211814   6.780   3.719   2.223
 3639SOL     OW11815   3.517   4.587   5.990
 3639SOL    HW111816   3.451   4.638   6.044
 3639SOL    HW211817   3.469   4.521   5.931
 3640SOL     OW11818   5.165   2.203   0.867
 3640SOL    HW111819   5.212   2.165   0.947
 3640SOL    HW211820   5.067   2.209   0.886
 3641SOL     OW11821   5.116   4.696   1.345
 3641SOL    HW111822   5.099   4.598   1.357
 3641SOL    HW211823   5.110   4.742   1.433
 3642SOL     OW11824   5.367   2.149   6.786
 3642SOL    HW111825   5.424   2.076   6.748
 3642SOL    HW211826   5.384   2.157   6.884
 3643SOL     OW11827   3.980   6.674   6.000
 3643SOL    HW111828   4.072   6.671   6.038
 3643SOL    HW211829   3.956   6.583   5.964
 3644SOL     OW11830   2.926   0.444   1.423
 3644SOL    HW111831   2.908   0.360   1.370
 3644SOL    HW211832   2.841   0.473   1.467
 3645SOL     OW11833   1.565   3.827   4.305
 3645SOL    HW111834   1.593   3.740   4.346
 3645SOL    HW211835   1.515   3.809   4.220
 3646SOL     OW11836   2.248   4.961   4.482
 3646SOL    HW111837   2.339   4.972   4.443
 3646SOL    HW211838   2.202   4.883   4.438
 3647SOL     OW11839   2.696   6.430   6.841
 3647SOL    HW111840   2.761   6.437   6.917
 3647SOL    HW211841   2.613   6.482   6.865
 3648SOL     OW11842   4.753   6.068   2.873
 3648SOL    HW111843   4.763   6.160   2.911
 3648SOL    HW211844   4.658   6.038   2.883
 3649SOL     OW11845   5.861   4.047   0.300
 3649SOL    HW111846   5.819   3.960   0.274
 3649SOL    HW211847   5.921   4.032   0.379
 3650SOL     OW11848   5.711   4.419   1.040
 3650SOL    HW111849   5.710   4.466   1.129
 3650SOL    HW211850   5.758   4.476   0.973
 3651SOL     OW11851   1.775   2.028   5.021
 3651SOL    HW111852   1.808   1.988   5.106
 3651SOL    HW211853   1.852   2.059   4.966
 3652SOL     OW11854   5.695   0.454   2.488
 3652SOL    HW111855   5.672   0.511   2.567
 3652SOL    HW211856   5.611   0.423   2.444
 3653SOL     OW11857   0.971   1.023   2.821
 3653SOL    HW111858   1.071   1.029   2.810
 3653SOL    HW211859   0.950   1.004   2.917
 3654SOL     OW11860   4.791   6.069   0.803
 3654SOL    HW111861   4.863   6.056   0.734
 3654SOL    HW211862   4.822   6.031   0.890
 3655SOL     OW11863   3.133   1.114   4.538
 3655SOL    HW111864   3.125   1.205   4.579
 3655SOL    HW211865   3.053   1.059   4.562
 3656SOL     OW11866   0.978   5.064   1.167
 3656SOL    HW111867   0.964   5.138   1.234
 3656SOL    HW211868   0.939   4.979   1.203
 3657SOL     OW11869   5.021   5.586   5.375
 3657SOL    HW111870   4.936   5.534   5.387
 3657SOL    HW211871   5.047   5.628   5.461
 3658SOL     OW11872   1.993   4.803   6.318
 3658SOL    HW111873   2.035   4.818   6.408
 3658SOL    HW211874   1.979   4.706   6.303
 3659SOL     OW11875   0.503   1.470   6.385
 3659SOL    HW111876   0.582   1.445   6.330
 3659SOL    HW211877   0.527   1.466   6.482
 3660SOL     OW11878   6.233   6.451   5.371
 3660SOL    HW111879   6.199   6.504   5.449
 3660SOL    HW211880   6.179   6.367   5.362
 3661SOL     OW11881   0.217   0.443   4.462
 3661SOL    HW111882   0.118   0.429   4.471
 3661SOL    HW211883   0.236   0.496   4.380
 3662SOL     OW11884   3.662   1.130   4.968
 3662SOL    HW111885   3.740   1.112   5.028
 3662SOL    HW211886   3.694   1.146   4.875
 3663SOL     OW11887   2.622   2.245   6.448
 3663SOL    HW111888   2.661   2.334   6.423
 3663SOL    HW211889   2.525   2.256   6.469
 3664SOL     OW11890   3.650   1.434   2.067
 3664SOL    HW111891   3.663   1.372   2.144
 3664SOL    HW211892   3.620   1.381   1.987
 3665SOL     OW11893   0.442   6.030   5.770
 3665SOL    HW111894   0.459   5.982   5.684
 3665SOL    HW211895   0.400   6.119   5.751
 3666SOL     OW11896   1.116   2.962   3.233
 3666SOL    HW111897   1.020   2.972   3.206
 3666SOL    HW211898   1.157   3.052   3.246
 3667SOL     OW11899   0.821   1.419   3.914
 3667SOL    HW111900   0.722   1.431   3.904
 3667SOL    HW211901   0.842   1.397   4.010
 3668SOL     OW11902   1.171   0.656   1.557
 3668SOL    HW111903   1.201   0.581   1.497
 3668SOL    HW211904   1.075   0.675   1.540
 3669SOL     OW11905   5.982   1.623   4.477
 3669SOL    HW111906   5.917   1.595   4.406
 3669SOL    HW211907   5.937   1.685   4.541
 3670SOL     OW11908   3.066   5.051   1.210
 3670SOL    HW111909   3.101   5.056   1.303
 3670SOL    HW211910   2.972   5.084   1.207
 3671SOL     OW11911   6.586   1.410   2.704
 3671SOL    HW111912   6.580   1.316   2.735
 3671SOL    HW211913   6.494   1.450   2.699
 3672SOL     OW11914   5.667   1.224   2.417
 3672SOL    HW111915   5.603   1.288   2.374
 3672SOL    HW211916   5.710   1.168   2.347
 3673SOL     OW11917   4.065   5.399   6.768
 3673SOL    HW111918   4.047   5.344   6.850
 3673SOL    HW211919   4.029   5.491   6.782
 3674SOL     OW11920   1.448   5.788   5.873
 3674SOL    HW111921   1.354   5.756   5.876
 3674SOL    HW211922   1.508   5.715   5.839
 3675SOL     OW11923   6.824   2.502   3.417
 3675SOL    HW111924   6.851   2.566   3.345
 3675SOL    HW211925   6.900   2.489   3.480
 3676SOL     OW11926   5.249   2.931   3.080
 3676SOL    HW111927   5.151   2.935   3.098
 3676SOL    HW211928   5.298   2.985   3.148
 3677SOL     OW11929   2.219   0.741   4.929
 3677SOL    HW111930   2.133   0.744   4.877
 3677SOL    HW211931   2.246   0.833   4.955
 3678SOL     OW11932   1.334   1.824   4.515
 3678SOL    HW111933   1.423   1.836   4.472
 3678SOL    HW211934   1.263   1.856   4.452
 3679SOL     OW11935   5.799   0.146   3.342
 3679SOL    HW111936   5.761   0.118   3.430
 3679SOL    HW211937   5.896   0.168   3.352
 3680SOL     OW11938   4.869   2.114   3.568
 3680SOL    HW111939   4.901   2.020   3.553
 3680SOL    HW211940   4.928   2.178   3.520
 3681SOL     OW11941   0.450   0.362   6.146
 3681SOL    HW111942   0.437   0.453   6.108
 3681SOL    HW211943   0.491   0.302   6.077
 3682SOL     OW11944   4.906   2.216   0.962
 3682SOL    HW111945   4.884   2.169   1.048
 3682SOL    HW211946   4.828   2.270   0.933
 3683SOL     OW11947   0.205   0.728   4.624
 3683SOL    HW111948   0.115   0.759   4.656
 3683SOL    HW211949   0.194   0.642   4.574
 3684SOL     OW11950   2.107   6.456   6.616
 3684SOL    HW111951   2.068   6.452   6.524
 3684SOL    HW211952   2.085   6.372   6.665
 3685SOL     OW11953   2.769   5.958   5.179
 3685SOL    HW111954   2.705   5.898   5.226
 3685SOL    HW211955   2.768   5.939   5.081
 3686SOL     OW11956   6.625   4.385   4.087
 3686SOL    HW111957   6.680   4.452   4.136
 3686SOL    HW211958   6.650   4.385   3.991
 3687SOL     OW11959   5.362   6.787   3.370
 3687SOL    HW111960   5.270   6.798   3.409
 3687SOL    HW211961   5.356   6.728   3.289
 3688SOL     OW11962   5.978   3.547   0.396
 3688SOL    HW111963   5.974   3.641   0.430
 3688SOL    HW211964   5.995   3.548   0.297
 3689SOL     OW11965   2.351   1.955   5.522
 3689SOL    HW111966   2.416   2.027   5.549
 3689SOL    HW211967   2.273   1.955   5.585
 3690SOL     OW11968   4.933   5.536   0.786
 3690SOL    HW111969   4.972   5.553   0.877
 3690SOL    HW211970   4.947   5.616   0.728
 3691SOL     OW11971   2.601   2.212   6.077
 3691SOL    HW111972   2.668   2.167   6.136
 3691SOL    HW211973   2.649   2.265   6.006
 3692SOL     OW11974   6.963   4.574   6.221
 3692SOL    HW111975   6.952   4.481   6.256
 3692SOL    HW211976   6.876   4.623   6.230
 3693SOL     OW11977   1.228   1.964   2.716
 3693SOL    HW111978   1.227   2.051   2.667
 3693SOL    HW211979   1.227   1.889   2.651
 3694SOL     OW11980   0.903   0.434   1.743
 3694SOL    HW111981   0.969   0.508   1.751
 3694SOL    HW211982   0.845   0.432   1.825
 3695SOL     OW11983   6.257   2.318   2.277
 3695SOL    HW111984   6.319   2.264   2.222
 3695SOL    HW211985   6.306   2.396   2.316
 3696SOL     OW11986   5.288   0.735   5.344
 3696SOL    HW111987   5.259   0.760   5.251
 3696SOL    HW211988   5.349   0.656   5.339
 3697SOL     OW11989   6.183   6.028   3.032
 3697SOL    HW111990   6.153   5.951   2.974
 3697SOL    HW211991   6.104   6.085   3.055
 3698SOL     OW11992   2.485   0.976   3.908
 3698SOL    HW111993   2.429   0.977   3.991
 3698SOL    HW211994   2.533   1.063   3.899
 3699SOL     OW11995   2.239   2.384   3.537
 3699SOL    HW111996   2.328   2.398   3.494
 3699SOL    HW211997   2.221   2.286   3.544
 3700SOL     OW11998   1.430   5.699   5.233
 3700SOL    HW111999   1.351   5.759   5.219
 3700SOL    HW212000   1.484   5.695   5.149
 3701SOL     OW12001   0.463   6.365   2.386
 3701SOL    HW112002   0.548   6.409   2.358
 3701SOL    HW212003   0.454   6.369   2.485
 3702SOL     OW12004   5.018   6.483   3.945
 3702SOL    HW112005   4.951   6.450   4.012
 3702SOL    HW212006   4.989   6.457   3.853
 3703SOL     OW12007   0.655   1.103   6.424
 3703SOL    HW112008   0.664   1.069   6.518
 3703SOL    HW212009   0.695   1.037   6.361
 3704SOL     OW12010   5.239   3.897   1.050
 3704SOL    HW112011   5.178   3.819   1.067
 3704SOL    HW212012   5.206   3.977   1.100
 3705SOL     OW12013   4.803   4.846   3.503
 3705SOL    HW112014   4.817   4.779   3.576
 3705SOL    HW212015   4.770   4.800   3.421
 3706SOL     OW12016   0.530   3.962   6.910
 3706SOL    HW112017   0.546   3.932   6.815
 3706SOL    HW212018   0.591   4.038   6.931
 3707SOL     OW12019   3.859   5.181   3.934
 3707SOL    HW112020   3.880   5.216   3.842
 3707SOL    HW212021   3.813   5.252   3.987
 3708SOL     OW12022   4.312   0.049   1.311
 3708SOL    HW112023   4.297   0.109   1.233
 3708SOL    HW212024   4.236   0.057   1.376
 3709SOL     OW12025   2.292   7.005   1.749
 3709SOL    HW112026   2.362   0.012   1.815
 3709SOL    HW212027   2.316   0.024   1.659
 3710SOL     OW12028   0.629   5.390   5.599
 3710SOL    HW112029   0.532   5.410   5.612
 3710SOL    HW212030   0.657   5.320   5.664
 3711SOL     OW12031   1.413   6.363   5.178
 3711SOL    HW112032   1.468   6.336   5.257
 3711SOL    HW212033   1.454   6.326   5.094
 3712SOL     OW12034   2.388   5.350   6.564
 3712SOL    HW112035   2.388   5.264   6.513
 3712SOL    HW212036   2.393   5.427   6.501
 3713SOL     OW12037   0.073   6.432   5.143
 3713SOL    HW112038   7.007   6.485   5.152
 3713SOL    HW212039   0.106   6.405   5.233
 3714SOL     OW12040   1.089   4.820   6.671
 3714SOL    HW112041   1.152   4.879   6.721
 3714SOL    HW212042   1.003   4.867   6.655
 3715SOL     OW12043   0.340   5.206   2.926
 3715SOL    HW112044   0.393   5.136   2.975
 3715SOL    HW212045   0.275   5.163   2.864
 3716SOL     OW12046   5.896   5.387   4.311
 3716SOL    HW112047   5.883   5.484   4.290
 3716SOL    HW212048   5.991   5.361   4.295
 3717SOL     OW12049   5.349   1.465   0.330
 3717SOL    HW112050   5.401   1.503   0.406
 3717SOL    HW212051   5.370   1.516   0.247
 3718SOL     OW12052   0.758   0.389   0.025
 3718SOL    HW112053   0.782   0.295   0.001
 3718SOL    HW212054   0.731   0.439   6.961
 3719SOL     OW12055   4.521   3.003   6.482
 3719SOL    HW112056   4.583   3.021   6.406
 3719SOL    HW212057   4.467   3.085   6.500
 3720SOL     OW12058   5.505   3.927   0.962
 3720SOL    HW112059   5.538   4.004   1.018
 3720SOL    HW212060   5.411   3.907   0.987
 3721SOL     OW12061   6.795   5.310   6.867
 3721SOL    HW112062   6.715   5.339   6.814
 3721SOL    HW212063   6.800   5.364   6.951
 3722SOL     OW12064   4.829   0.100   1.273
 3722SOL    HW112065   4.873   0.082   1.361
 3722SOL    HW212066   4.733   0.123   1.288
 3723SOL     OW12067   4.399   4.947   0.283
 3723SOL    HW112068   4.494   4.967   0.308
 3723SOL    HW212069   4.397   4.891   0.200
 3724SOL     OW12070   1.573   5.115   5.174
 3724SOL    HW112071   1.599   5.143   5.266
 3724SOL    HW212072   1.476   5.088   5.172
 3725SOL     OW12073   0.460   6.115   6.833
 3725SOL    HW112074   0.480   6.192   6.894
 3725SOL    HW212075   0.410   6.045   6.883
 3726SOL     OW12076   5.326   4.149   5.239
 3726SOL    HW112077   5.256   4.197   5.293
 3726SOL    HW212078   5.340   4.199   5.153
 3727SOL     OW12079   6.639   3.308   4.711
 3727SOL    HW112080   6.606   3.349   4.796
 3727SOL    HW212081   6.588   3.346   4.634
 3728SOL     OW12082   2.725   3.561   0.213
 3728SOL    HW112083   2.763   3.492   0.275
 3728SOL    HW212084   2.765   3.650   0.234
 3729SOL     OW12085   0.675   0.260   4.443
 3729SOL    HW112086   0.747   0.299   4.500
 3729SOL    HW212087   0.693   0.162   4.429
 3730SOL     OW12088   4.072   6.157   5.819
 3730SOL    HW112089   4.016   6.166   5.737
 3730SOL    HW212090   4.057   6.067   5.860
 3731SOL     OW12091   0.688   1.743   0.113
 3731SOL    HW112092   0.632   1.713   0.035
 3731SOL    HW212093   0.710   1.840   0.102
 3732SOL     OW12094   1.608   1.776   0.823
 3732SOL    HW112095   1.588   1.857   0.878
 3732SOL    HW212096   1.624   1.698   0.884
 3733SOL     OW12097   1.826   3.061   3.601
 3733SOL    HW112098   1.869   2.971   3.601
 3733SOL    HW212099   1.742   3.058   3.546
 3734SOL     OW12100   3.944   0.804   1.462
 3734SOL    HW112101   3.930   0.804   1.561
 3734SOL    HW212102   3.909   0.719   1.423
 3735SOL     OW12103   3.982   0.561   2.630
 3735SOL    HW112104   3.893   0.604   2.622
 3735SOL    HW212105   4.000   0.538   2.725
 3736SOL     OW12106   6.498   0.854   1.151
 3736SOL    HW112107   6.548   0.901   1.078
 3736SOL    HW212108   6.523   0.757   1.151
 3737SOL     OW12109   5.962   2.554   4.053
 3737SOL    HW112110   5.913   2.480   4.100
 3737SOL    HW212111   6.024   2.600   4.117
 3738SOL     OW12112   6.281   5.913   0.854
 3738SOL    HW112113   6.258   5.918   0.757
 3738SOL    HW212114   6.338   5.991   0.879
 3739SOL     OW12115   3.043   4.454   1.605
 3739SOL    HW112116   3.002   4.479   1.517
 3739SOL    HW212117   2.974   4.459   1.676
 3740SOL     OW12118   5.727   5.824   0.140
 3740SOL    HW112119   5.702   5.887   0.067
 3740SOL    HW212120   5.660   5.750   0.145
 3741SOL     OW12121   4.805   3.503   6.876
 3741SOL    HW112122   4.771   3.419   6.918
 3741SOL    HW212123   4.748   3.580   6.903
 3742SOL     OW12124   4.820   5.614   0.442
 3742SOL    HW112125   4.916   5.594   0.423
 3742SOL    HW212126   4.765   5.533   0.419
 3743SOL     OW12127   4.791   4.475   1.518
 3743SOL    HW112128   4.733   4.414   1.572
 3743SOL    HW212129   4.734   4.528   1.456
 3744SOL     OW12130   0.687   6.511   2.333
 3744SOL    HW112131   0.745   6.498   2.252
 3744SOL    HW212132   0.659   6.607   2.338
 3745SOL     OW12133   4.898   3.866   2.431
 3745SOL    HW112134   4.897   3.903   2.525
 3745SOL    HW212135   4.805   3.871   2.393
 3746SOL     OW12136   6.953   0.560   3.359
 3746SOL    HW112137   6.873   0.549   3.299
 3746SOL    HW212138   7.014   0.629   3.321
 3747SOL     OW12139   5.102   6.309   5.726
 3747SOL    HW112140   5.025   6.270   5.776
 3747SOL    HW212141   5.134   6.391   5.773
 3748SOL     OW12142   5.919   0.481   2.073
 3748SOL    HW112143   5.996   0.506   2.131
 3748SOL    HW212144   5.922   0.383   2.053
 3749SOL     OW12145   1.815   5.463   2.870
 3749SOL    HW112146   1.891   5.414   2.827
 3749SOL    HW212147   1.782   5.409   2.948
 3750SOL     OW12148   5.840   4.632   0.894
 3750SOL    HW112149   5.766   4.697   0.912
 3750SOL    HW212150   5.821   4.581   0.810
 3751SOL     OW12151   0.342   2.414   0.830
 3751SOL    HW112152   0.392   2.339   0.786
 3751SOL    HW212153   0.247   2.388   0.842
 3752SOL     OW12154   0.303   6.890   6.986
 3752SOL    HW112155   0.300   6.877   0.067
 3752SOL    HW212156   0.367   6.964   6.964
 3753SOL     OW12157   0.542   6.478   4.907
 3753SOL    HW112158   0.547   6.537   4.826
 3753SOL    HW212159   0.447   6.451   4.922
 3754SOL     OW12160   5.442   6.617   1.624
 3754SOL    HW112161   5.456   6.601   1.526
 3754SOL    HW212162   5.443   6.715   1.642
 3755SOL     OW12163   5.513   5.304   4.533
 3755SOL    HW112164   5.470   5.233   4.588
 3755SOL    HW212165   5.607   5.319   4.564
 3756SOL     OW12166   1.978   0.565   6.287
 3756SOL    HW112167   2.057   0.517   6.248
 3756SOL    HW212168   1.966   0.537   6.382
 3757SOL     OW12169   3.334   5.679   5.869
 3757SOL    HW112170   3.424   5.711   5.838
 3757SOL    HW212171   3.290   5.627   5.796
 3758SOL     OW12172   1.788   1.569   4.667
 3758SOL    HW112173   1.721   1.497   4.683
 3758SOL    HW212174   1.780   1.639   4.737
 3759SOL     OW12175   4.643   4.988   5.659
 3759SOL    HW112176   4.618   4.892   5.646
 3759SOL    HW212177   4.672   5.002   5.754
 3760SOL     OW12178   1.463   4.047   3.915
 3760SOL    HW112179   1.545   4.021   3.966
 3760SOL    HW212180   1.455   4.146   3.912
 3761SOL     OW12181   0.783   6.529   4.999
 3761SOL    HW112182   0.787   6.628   4.983
 3761SOL    HW212183   0.693   6.495   4.973
 3762SOL     OW12184   1.054   4.607   6.847
 3762SOL    HW112185   1.141   4.607   6.897
 3762SOL    HW212186   1.050   4.689   6.789
 3763SOL     OW12187   0.017   4.643   0.133
 3763SOL    HW112188   6.951   4.691   0.110
 3763SOL    HW212189   0.026   4.638   0.232
 3764SOL     OW12190   1.861   0.959   4.813
 3764SOL    HW112191   1.816   0.938   4.727
 3764SOL    HW212192   1.953   0.994   4.795
 3765SOL     OW12193   4.874   0.864   2.004
 3765SOL    HW112194   4.961   0.831   1.965
 3765SOL    HW212195   4.874   0.847   2.102
 3766SOL     OW12196   0.558   0.752   4.504
 3766SOL    HW112197   0.554   0.721   4.409
 3766SOL    HW212198   0.605   0.684   4.560
 3767SOL     OW12199   2.447   4.657   0.421
 3767SOL    HW112200   2.424   4.698   0.333
 3767SOL    HW212201   2.542   4.679   0.445
 3768SOL     OW12202   3.393   5.867   6.195
 3768SOL    HW112203   3.411   5.773   6.223
 3768SOL    HW212204   3.362   5.868   6.100
 3769SOL     OW12205   5.681   5.728   5.223
 3769SOL    HW112206   5.617   5.788   5.269
 3769SOL    HW212207   5.682   5.749   5.125
 3770SOL     OW12208   1.894   0.190   6.697
 3770SOL    HW112209   1.910   0.239   6.612
 3770SOL    HW212210   1.811   0.226   6.741
 3771SOL     OW12211   5.303   1.720   0.525
 3771SOL    HW112212   5.292   1.629   0.567
 3771SOL    HW212213   5.364   1.775   0.582
 3772SOL     OW12214   6.267   1.406   0.947
 3772SOL    HW112215   6.175   1.412   0.907
 3772SOL    HW212216   6.289   1.493   0.991
 3773SOL     OW12217   5.557   2.984   6.000
 3773SOL    HW112218   5.578   2.977   5.903
 3773SOL    HW212219   5.491   3.057   6.015
 3774SOL     OW12220   1.138   6.822   6.808
 3774SOL    HW112221   1.170   6.808   6.715
 3774SOL    HW212222   1.192   6.766   6.871
 3775SOL     OW12223   5.324   3.810   2.288
 3775SOL    HW112224   5.398   3.863   2.330
 3775SOL    HW212225   5.268   3.871   2.232
 3776SOL     OW12226   3.145   1.010   1.479
 3776SOL    HW112227   3.086   1.002   1.399
 3776SOL    HW212228   3.174   1.105   1.490
 3777SOL     OW12229   2.691   4.786   4.620
 3777SOL    HW112230   2.690   4.799   4.719
 3777SOL    HW212231   2.768   4.835   4.581
 3778SOL     OW12232   2.200   5.974   2.926
 3778SOL    HW112233   2.258   5.926   2.859
 3778SOL    HW212234   2.108   5.986   2.888
 3779SOL     OW12235   2.745   5.017   6.934
 3779SOL    HW112236   2.729   4.919   6.930
 3779SOL    HW212237   2.659   5.064   6.955
 3780SOL     OW12238   3.678   5.116   4.904
 3780SOL    HW112239   3.755   5.065   4.867
 3780SOL    HW212240   3.672   5.102   5.002
 3781SOL     OW12241   1.837   6.654   4.154
 3781SOL    HW112242   1.742   6.625   4.147
 3781SOL    HW212243   1.897   6.574   4.140
 3782SOL     OW12244   2.591   2.274   4.274
 3782SOL    HW112245   2.668   2.271   4.338
 3782SOL    HW212246   2.625   2.293   4.182
 3783SOL     OW12247   6.639   6.537   4.992
 3783SOL    HW112248   6.714   6.552   4.928
 3783SOL    HW212249   6.576   6.469   4.954
 3784SOL     OW12250   4.506   1.586   3.095
 3784SOL    HW112251   4.554   1.506   3.131
 3784SOL    HW212252   4.471   1.565   3.003
 3785SOL     OW12253   2.272   1.184   6.975
 3785SOL    HW112254   2.211   1.130   6.916
 3785SOL    HW212255   2.279   1.277   6.940
 3786SOL     OW12256   3.076   5.955   3.341
 3786SOL    HW112257   3.074   5.922   3.247
 3786SOL    HW212258   2.986   5.990   3.366
 3787SOL     OW12259   5.569   6.145   3.687
 3787SOL    HW112260   5.596   6.181   3.776
 3787SOL    HW212261   5.650   6.138   3.629
 3788SOL     OW12262   6.773   2.996   3.355
 3788SOL    HW112263   6.814   2.936   3.286
 3788SOL    HW212264   6.696   2.948   3.399
 3789SOL     OW12265   1.730   4.480   3.815
 3789SOL    HW112266   1.826   4.460   3.795
 3789SOL    HW212267   1.725   4.554   3.883
 3790SOL     OW12268   1.721   3.963   5.099
 3790SOL    HW112269   1.749   3.971   5.195
 3790SOL    HW212270   1.780   4.020   5.042
 3791SOL     OW12271   6.000   6.967   1.119
 3791SOL    HW112272   5.928   6.898   1.121
 3791SOL    HW212273   6.049   6.960   1.032
 3792SOL     OW12274   6.796   0.489   4.766
 3792SOL    HW112275   6.727   0.533   4.708
 3792SOL    HW212276   6.755   0.468   4.855
 3793SOL     OW12277   2.333   0.412   2.996
 3793SOL    HW112278   2.346   0.395   2.898
 3793SOL    HW212279   2.268   0.345   3.033
 3794SOL     OW12280   3.607   5.402   1.741
 3794SOL    HW112281   3.697   5.416   1.783
 3794SOL    HW212282   3.545   5.361   1.808
 3795SOL     OW12283   4.117   6.459   6.750
 3795SOL    HW112284   4.043   6.520   6.779
 3795SOL    HW212285   4.119   6.378   6.809
 3796SOL     OW12286   1.968   2.535   1.556
 3796SOL    HW112287   1.874   2.500   1.551
 3796SOL    HW212288   2.011   2.505   1.640
 3797SOL     OW12289   6.607   5.363   2.477
 3797SOL    HW112290   6.583   5.457   2.454
 3797SOL    HW212291   6.706   5.355   2.484
 3798SOL     OW12292   2.672   5.143   3.479
 3798SOL    HW112293   2.641   5.092   3.399
 3798SOL    HW212294   2.702   5.234   3.450
 3799SOL     OW12295   0.719   2.472   4.364
 3799SOL    HW112296   0.790   2.403   4.350
 3799SOL    HW212297   0.631   2.436   4.334
 3800SOL     OW12298   5.181   2.383   4.996
 3800SOL    HW112299   5.178   2.412   5.092
 3800SOL    HW212300   5.140   2.292   4.987
 3801SOL     OW12301   6.580   5.955   5.110
 3801SOL    HW112302   6.606   6.030   5.050
 3801SOL    HW212303   6.652   5.886   5.111
 3802SOL     OW12304   0.672   1.625   4.644
 3802SOL    HW112305   0.680   1.668   4.734
 3802SOL    HW212306   0.595   1.665   4.595
 3803SOL     OW12307   3.533   1.286   1.869
 3803SOL    HW112308   3.545   1.267   1.771
 3803SOL    HW212309   3.521   1.200   1.918
 3804SOL     OW12310   5.096   2.321   4.576
 3804SOL    HW112311   5.069   2.268   4.496
 3804SOL    HW212312   5.140   2.406   4.547
 3805SOL     OW12313   2.835   3.830   1.709
 3805SOL    HW112314   2.887   3.910   1.739
 3805SOL    HW212315   2.894   3.750   1.712
 3806SOL     OW12316   2.493   2.804   6.974
 3806SOL    HW112317   2.578   2.803   6.922
 3806SOL    HW212318   2.514   2.801   0.053
 3807SOL     OW12319   2.449   1.672   4.620
 3807SOL    HW112320   2.492   1.590   4.659
 3807SOL    HW212321   2.407   1.648   4.532
 3808SOL     OW12322   3.080   0.705   2.195
 3808SOL    HW112323   3.083   0.631   2.127
 3808SOL    HW212324   3.153   0.771   2.176
 3809SOL     OW12325   5.925   1.918   0.066
 3809SOL    HW112326   6.020   1.950   0.068
 3809SOL    HW212327   5.922   1.820   0.050
 3810SOL     OW12328   3.935   2.952   5.552
 3810SOL    HW112329   3.876   2.936   5.472
 3810SOL    HW212330   3.930   2.874   5.614
 3811SOL     OW12331   1.132   4.365   4.405
 3811SOL    HW112332   1.195   4.296   4.441
 3811SOL    HW212333   1.180   4.452   4.394
 3812SOL     OW12334   5.683   1.617   5.601
 3812SOL    HW112335   5.743   1.626   5.681
 3812SOL    HW212336   5.670   1.520   5.580
 3813SOL     OW12337   4.354   4.462   1.288
 3813SOL    HW112338   4.428   4.401   1.312
 3813SOL    HW212339   4.271   4.408   1.269
 3814SOL     OW12340   0.442   6.127   0.968
 3814SOL    HW112341   0.443   6.176   0.881
 3814SOL    HW212342   0.367   6.159   1.024
 3815SOL     OW12343   4.643   2.033   0.571
 3815SOL    HW112344   4.729   2.043   0.622
 3815SOL    HW212345   4.654   2.072   0.480
 3816SOL     OW12346   0.255   6.673   1.405
 3816SOL    HW112347   0.294   6.760   1.435
 3816SOL    HW212348   0.155   6.678   1.409
 3817SOL     OW12349   4.750   2.861   3.919
 3817SOL    HW112350   4.798   2.776   3.898
 3817SOL    HW212351   4.786   2.935   3.861
 3818SOL     OW12352   4.650   6.705   1.616
 3818SOL    HW112353   4.597   6.760   1.682
 3818SOL    HW212354   4.614   6.612   1.614
 3819SOL     OW12355   5.569   4.663   0.738
 3819SOL    HW112356   5.543   4.578   0.783
 3819SOL    HW212357   5.665   4.657   0.708
 3820SOL     OW12358   6.188   6.673   3.952
 3820SOL    HW112359   6.213   6.633   4.040
 3820SOL    HW212360   6.239   6.628   3.878
 3821SOL     OW12361   1.640   3.294   2.174
 3821SOL    HW112362   1.645   3.341   2.086
 3821SOL    HW212363   1.545   3.272   2.195
 3822SOL     OW12364   1.057   5.372   2.178
 3822SOL    HW112365   0.975   5.416   2.139
 3822SOL    HW212366   1.126   5.362   2.106
 3823SOL     OW12367   4.126   2.178   4.976
 3823SOL    HW112368   4.122   2.188   4.876
 3823SOL    HW212369   4.159   2.264   5.016
 3824SOL     OW12370   6.022   1.701   5.696
 3824SOL    HW112371   5.936   1.667   5.732
 3824SOL    HW212372   6.028   1.800   5.710
 3825SOL     OW12373   0.163   0.320   0.036
 3825SOL    HW112374   0.122   0.345   0.123
 3825SOL    HW212375   0.175   0.403   6.999
 3826SOL     OW12376   0.219   3.541   0.006
 3826SOL    HW112377   0.318   3.555   0.001
 3826SOL    HW212378   0.201   3.448   0.038
 3827SOL     OW12379   3.795   3.706   0.986
 3827SOL    HW112380   3.821   3.721   0.891
 3827SOL    HW212381   3.711   3.652   0.990
 3828SOL     OW12382   4.584   2.603   1.058
 3828SOL    HW112383   4.502   2.658   1.070
 3828SOL    HW212384   4.655   2.635   1.120
 3829SOL     OW12385   2.213   5.027   3.992
 3829SOL    HW112386   2.184   5.123   3.992
 3829SOL    HW212387   2.291   5.016   4.054
 3830SOL     OW12388   1.114   6.992   5.483
 3830SOL    HW112389   1.100   0.073   5.483
 3830SOL    HW212390   1.088   6.956   5.573
 3831SOL     OW12391   4.633   1.820   2.426
 3831SOL    HW112392   4.680   1.835   2.338
 3831SOL    HW212393   4.700   1.792   2.495
 3832SOL     OW12394   6.496   0.575   2.266
 3832SOL    HW112395   6.520   0.618   2.353
 3832SOL    HW212396   6.545   0.622   2.192
 3833SOL     OW12397   1.025   5.339   6.685
 3833SOL    HW112398   0.984   5.325   6.595
 3833SOL    HW212399   1.091   5.414   6.680
 3834SOL     OW12400   3.191   2.112   0.025
 3834SOL    HW112401   3.094   2.096   0.043
 3834SOL    HW212402   3.228   2.035   6.991
 3835SOL     OW12403   3.296   5.318   5.190
 3835SOL    HW112404   3.335   5.366   5.268
 3835SOL    HW212405   3.360   5.248   5.159
 3836SOL     OW12406   2.072   3.318   5.174
 3836SOL    HW112407   1.996   3.354   5.121
 3836SOL    HW212408   2.081   3.220   5.158
 3837SOL     OW12409   4.636   3.531   0.635
 3837SOL    HW112410   4.661   3.499   0.543
 3837SOL    HW212411   4.719   3.553   0.686
 3838SOL     OW12412   5.465   3.676   4.837
 3838SOL    HW112413   5.519   3.621   4.774
 3838SOL    HW212414   5.496   3.661   4.931
 3839SOL     OW12415   4.676   0.130   4.880
 3839SOL    HW112416   4.732   0.179   4.948
 3839SOL    HW212417   4.584   0.117   4.916
 3840SOL     OW12418   0.887   0.693   5.337
 3840SOL    HW112419   0.837   0.756   5.277
 3840SOL    HW212420   0.848   0.601   5.328
 3841SOL     OW12421   0.296   4.100   5.331
 3841SOL    HW112422   0.336   4.059   5.249
 3841SOL    HW212423   0.280   4.028   5.399
 3842SOL     OW12424   1.039   5.522   0.324
 3842SOL    HW112425   0.961   5.584   0.320
 3842SOL    HW212426   1.009   5.432   0.356
 3843SOL     OW12427   0.239   3.406   0.882
 3843SOL    HW112428   0.299   3.376   0.808
 3843SOL    HW212429   0.176   3.332   0.905
 3844SOL     OW12430   1.286   5.263   5.675
 3844SOL    HW112431   1.268   5.278   5.772
 3844SOL    HW212432   1.377   5.225   5.663
 3845SOL     OW12433   3.287   3.011   2.712
 3845SOL    HW112434   3.227   3.042   2.786
 3845SOL    HW212435   3.252   3.044   2.625
 3846SOL     OW12436   0.172   5.135   4.127
 3846SOL    HW112437   0.212   5.203   4.067
 3846SOL    HW212438   0.185   5.044   4.089
 3847SOL     OW12439   6.144   0.784   6.435
 3847SOL    HW112440   6.183   0.839   6.509
 3847SOL    HW212441   6.203   0.706   6.417
 3848SOL     OW12442   1.884   5.709   2.831
 3848SOL    HW112443   1.979   5.678   2.828
 3848SOL    HW212444   1.828   5.639   2.876
 3849SOL     OW12445   0.268   1.453   5.678
 3849SOL    HW112446   0.178   1.409   5.674
 3849SOL    HW212447   0.257   1.551   5.693
 3850SOL     OW12448   2.635   3.415   1.694
 3850SOL    HW112449   2.641   3.488   1.627
 3850SOL    HW212450   2.540   3.401   1.721
 3851SOL     OW12451   2.075   4.274   2.803
 3851SOL    HW112452   2.041   4.261   2.896
 3851SOL    HW212453   2.009   4.236   2.738
 3852SOL     OW12454   4.376   6.671   4.918
 3852SOL    HW112455   4.361   6.723   4.834
 3852SOL    HW212456   4.445   6.718   4.974
 3853SOL     OW12457   0.959   3.321   2.261
 3853SOL    HW112458   0.872   3.279   2.236
 3853SOL    HW212459   0.943   3.403   2.315
 3854SOL     OW12460   1.190   3.224   3.250
 3854SOL    HW112461   1.258   3.252   3.317
 3854SOL    HW212462   1.109   3.281   3.258
 3855SOL     OW12463   6.079   4.531   6.240
 3855SOL    HW112464   6.150   4.601   6.238
 3855SOL    HW212465   5.994   4.568   6.201
 3856SOL     OW12466   0.140   0.346   5.928
 3856SOL    HW112467   0.229   0.351   5.882
 3856SOL    HW212468   0.070   0.318   5.862
 3857SOL     OW12469   1.525   6.997   4.958
 3857SOL    HW112470   1.625   7.001   4.961
 3857SOL    HW212471   1.488   0.008   5.046
 3858SOL     OW12472   1.198   6.103   6.039
 3858SOL    HW112473   1.136   6.035   6.079
 3858SOL    HW212474   1.227   6.073   5.948
 3859SOL     OW12475   6.544   2.440   3.913
 3859SOL    HW112476   6.515   2.384   3.835
 3859SOL    HW212477   6.464   2.480   3.957
 3860SOL     OW12478   2.494   5.870   4.759
 3860SOL    HW112479   2.511   5.959   4.803
 3860SOL    HW212480   2.415   5.827   4.801
 3861SOL     OW12481   5.666   4.842   1.310
 3861SOL    HW112482   5.674   4.923   1.251
 3861SOL    HW212483   5.574   4.838   1.348
 3862SOL     OW12484   0.005   0.208   6.417
 3862SOL    HW112485   0.053   0.207   6.505
 3862SOL    HW212486   0.065   0.247   6.347
 3863SOL     OW12487   3.183   3.567   0.146
 3863SOL    HW112488   3.181   3.607   0.238
 3863SOL    HW212489   3.273   3.528   0.128
 3864SOL     OW12490   4.280   1.964   6.507
 3864SOL    HW112491   4.317   1.963   6.413
 3864SOL    HW212492   4.255   1.871   6.534
 3865SOL     OW12493   3.774   0.340   2.206
 3865SOL    HW112494   3.715   0.307   2.280
 3865SOL    HW212495   3.834   0.267   2.175
 3866SOL     OW12496   4.127   0.467   0.465
 3866SOL    HW112497   4.152   0.515   0.549
 3866SOL    HW212498   4.206   0.418   0.430
 3867SOL     OW12499   1.912   3.795   3.472
 3867SOL    HW112500   2.003   3.756   3.483
 3867SOL    HW212501   1.880   3.777   3.378
 3868SOL     OW12502   2.068   6.240   1.745
 3868SOL    HW112503   2.115   6.286   1.821
 3868SOL    HW212504   1.972   6.266   1.745
 3869SOL     OW12505   6.936   2.711   3.676
 3869SOL    HW112506   6.839   2.692   3.662
 3869SOL    HW212507   6.975   2.748   3.591
 3870SOL     OW12508   3.100   5.173   6.615
 3870SOL    HW112509   3.093   5.148   6.518
 3870SOL    HW212510   3.169   5.244   6.627
 3871SOL     OW12511   3.129   0.084   2.827
 3871SOL    HW112512   3.069   0.127   2.760
 3871SOL    HW212513   3.199   0.030   2.780
 3872SOL     OW12514   3.640   3.422   1.209
 3872SOL    HW112515   3.615   3.437   1.305
 3872SOL    HW212516   3.606   3.498   1.154
 3873SOL     OW12517   5.245   5.596   1.326
 3873SOL    HW112518   5.184   5.517   1.332
 3873SOL    HW212519   5.194   5.674   1.291
 3874SOL     OW12520   4.514   6.441   6.949
 3874SOL    HW112521   4.461   6.418   0.012
 3874SOL    HW212522   4.607   6.466   6.977
 3875SOL     OW12523   1.649   3.956   2.489
 3875SOL    HW112524   1.645   4.039   2.545
 3875SOL    HW212525   1.665   3.981   2.394
 3876SOL     OW12526   5.675   4.743   5.357
 3876SOL    HW112527   5.759   4.796   5.352
 3876SOL    HW212528   5.596   4.804   5.345
 3877SOL     OW12529   5.799   0.884   1.495
 3877SOL    HW112530   5.749   0.960   1.535
 3877SOL    HW212531   5.735   0.824   1.445
 3878SOL     OW12532   3.664   6.727   6.455
 3878SOL    HW112533   3.720   6.809   6.445
 3878SOL    HW212534   3.707   6.665   6.520
 3879SOL     OW12535   4.586   5.220   1.361
 3879SOL    HW112536   4.541   5.190   1.445
 3879SOL    HW212537   4.544   5.175   1.282
 3880SOL     OW12538   5.982   3.849   2.479
 3880SOL    HW112539   5.950   3.936   2.515
 3880SOL    HW212540   6.063   3.820   2.530
 3881SOL     OW12541   1.670   5.104   1.223
 3881SOL    HW112542   1.708   5.039   1.157
 3881SOL    HW212543   1.585   5.142   1.187
 3882SOL     OW12544   6.291   1.198   6.232
 3882SOL    HW112545   6.381   1.240   6.221
 3882SOL    HW212546   6.238   1.211   6.148
 3883SOL     OW12547   4.726   1.379   3.713
 3883SOL    HW112548   4.693   1.406   3.622
 3883SOL    HW212549   4.659   1.320   3.757
 3884SOL     OW12550   1.707   6.180   5.074
 3884SOL    HW112551   1.784   6.188   5.010
 3884SOL    HW212552   1.739   6.199   5.167
 3885SOL     OW12553   0.034   1.175   4.113
 3885SOL    HW112554   6.989   1.235   4.064
 3885SOL    HW212555   0.013   1.080   4.090
 3886SOL     OW12556   7.011   0.360   5.401
 3886SOL    HW112557   0.018   0.449   5.365
 3886SOL    HW212558   6.912   0.352   5.404
 3887SOL     OW12559   4.106   1.795   5.240
 3887SOL    HW112560   4.088   1.707   5.282
 3887SOL    HW212561   4.062   1.799   5.151
 3888SOL     OW12562   6.334   1.784   0.693
 3888SOL    HW112563   6.334   1.699   0.640
 3888SOL    HW212564   6.334   1.762   0.791
 3889SOL     OW12565   0.765   5.460   6.343
 3889SOL    HW112566   0.799   5.406   6.266
 3889SOL    HW212567   0.665   5.462   6.340
 3890SOL     OW12568   5.390   5.322   3.184
 3890SOL    HW112569   5.353   5.362   3.100
 3890SOL    HW212570   5.489   5.332   3.185
 3891SOL     OW12571   4.889   5.830   4.749
 3891SOL    HW112572   4.829   5.862   4.822
 3891SOL    HW212573   4.912   5.734   4.764
 3892SOL     OW12574   5.914   6.658   3.037
 3892SOL    HW112575   5.920   6.736   2.974
 3892SOL    HW212576   5.869   6.687   3.122
 3893SOL     OW12577   3.178   5.493   3.946
 3893SOL    HW112578   3.142   5.404   3.975
 3893SOL    HW212579   3.199   5.549   4.026
 3894SOL     OW12580   4.698   3.146   0.489
 3894SOL    HW112581   4.758   3.068   0.507
 3894SOL    HW212582   4.617   3.140   0.546
 3895SOL     OW12583   1.136   0.720   5.387
 3895SOL    HW112584   1.174   0.812   5.373
 3895SOL    HW212585   1.040   0.720   5.361
 3896SOL     OW12586   6.820   2.486   5.388
 3896SOL    HW112587   6.827   2.548   5.466
 3896SOL    HW212588   6.729   2.444   5.387
 3897SOL     OW12589   3.233   6.640   2.132
 3897SOL    HW112590   3.166   6.654   2.060
 3897SOL    HW212591   3.322   6.621   2.091
 3898SOL     OW12592   4.048   3.363   4.385
 3898SOL    HW112593   4.109   3.363   4.305
 3898SOL    HW212594   3.975   3.297   4.371
 3899SOL     OW12595   4.805   1.252   5.907
 3899SOL    HW112596   4.870   1.320   5.942
 3899SOL    HW212597   4.718   1.297   5.887
 3900SOL     OW12598   6.601   2.158   3.356
 3900SOL    HW112599   6.624   2.250   3.323
 3900SOL    HW212600   6.535   2.166   3.431
 3901SOL     OW12601   1.171   6.335   5.035
 3901SOL    HW112602   1.249   6.339   5.098
 3901SOL    HW212603   1.200   6.365   4.944
 3902SOL     OW12604   5.026   5.039   1.612
 3902SOL    HW112605   5.058   4.956   1.657
 3902SOL    HW212606   5.100   5.107   1.612
 3903SOL     OW12607   4.539   3.113   0.237
 3903SOL    HW112608   4.529   3.016   0.256
 3903SOL    HW212609   4.449   3.156   0.228
 3904SOL     OW12610   1.087   6.705   0.658
 3904SOL    HW112611   1.024   6.765   0.707
 3904SOL    HW212612   1.141   6.653   0.725
 3905SOL     OW12613   6.686   6.982   5.943
 3905SOL    HW112614   6.660   0.024   5.868
 3905SOL    HW212615   6.607   6.969   6.003
 3906SOL     OW12616   1.816   5.253   4.229
 3906SOL    HW112617   1.776   5.178   4.282
 3906SOL    HW212618   1.764   5.337   4.245
 3907SOL     OW12619   0.042   1.268   4.396
 3907SOL    HW112620   6.999   1.220   4.332
 3907SOL    HW212621   0.092   1.339   4.347
 3908SOL     OW12622   1.100   0.634   4.954
 3908SOL    HW112623   1.153   0.652   5.037
 3908SOL    HW212624   1.005   0.661   4.969
 3909SOL     OW12625   5.225   3.083   5.819
 3909SOL    HW112626   5.253   3.143   5.744
 3909SOL    HW212627   5.246   3.127   5.906
 3910SOL     OW12628   3.481   2.769   0.807
 3910SOL    HW112629   3.506   2.760   0.710
 3910SOL    HW212630   3.388   2.734   0.820
 3911SOL     OW12631   6.155   1.321   1.365
 3911SOL    HW112632   6.125   1.405   1.322
 3911SOL    HW212633   6.155   1.332   1.464
 3912SOL     OW12634   4.079   2.193   0.192
 3912SOL    HW112635   4.093   2.133   0.270
 3912SOL    HW212636   4.168   2.225   0.158
 3913SOL     OW12637   4.393   5.512   0.701
 3913SOL    HW112638   4.441   5.595   0.672
 3913SOL    HW212639   4.405   5.499   0.800
 3914SOL     OW12640   5.832   0.483   0.797
 3914SOL    HW112641   5.833   0.384   0.783
 3914SOL    HW212642   5.836   0.530   0.709
 3915SOL     OW12643   4.836   4.967   6.970
 3915SOL    HW112644   4.792   4.914   6.898
 3915SOL    HW212645   4.849   4.909   0.032
 3916SOL     OW12646   1.994   0.724   2.730
 3916SOL    HW112647   1.906   0.677   2.734
 3916SOL    HW212648   1.981   0.823   2.729
 3917SOL     OW12649   3.126   4.769   0.485
 3917SOL    HW112650   3.101   4.694   0.547
 3917SOL    HW212651   3.208   4.744   0.434
 3918SOL     OW12652   5.400   0.113   0.553
 3918SOL    HW112653   5.333   0.187   0.563
 3918SOL    HW212654   5.419   0.073   0.643
 3919SOL     OW12655   4.043   0.203   1.397
 3919SOL    HW112656   3.988   0.189   1.314
 3919SOL    HW212657   3.983   0.213   1.476
 3920SOL     OW12658   3.214   0.941   5.716
 3920SOL    HW112659   3.287   0.993   5.671
 3920SOL    HW212660   3.190   0.862   5.659
 3921SOL     OW12661   0.614   2.385   6.163
 3921SOL    HW112662   0.672   2.452   6.116
 3921SOL    HW212663   0.542   2.355   6.101
 3922SOL     OW12664   4.131   5.047   2.249
 3922SOL    HW112665   4.167   5.140   2.257
 3922SOL    HW212666   4.207   4.983   2.243
 3923SOL     OW12667   4.812   0.736   1.764
 3923SOL    HW112668   4.905   0.754   1.732
 3923SOL    HW212669   4.805   0.760   1.861
 3924SOL     OW12670   6.379   4.472   4.560
 3924SOL    HW112671   6.469   4.494   4.523
 3924SOL    HW212672   6.328   4.557   4.576
 3925SOL     OW12673   4.664   3.825   0.886
 3925SOL    HW112674   4.598   3.770   0.936
 3925SOL    HW212675   4.632   3.840   0.793
 3926SOL     OW12676   0.339   0.133   5.338
 3926SOL    HW112677   0.393   0.118   5.421
 3926SOL    HW212678   0.242   0.121   5.358
 3927SOL     OW12679   6.538   2.702   5.197
 3927SOL    HW112680   6.574   2.745   5.280
 3927SOL    HW212681   6.452   2.746   5.172
 3928SOL     OW12682   2.326   6.226   2.899
 3928SOL    HW112683   2.309   6.132   2.929
 3928SOL    HW212684   2.335   6.285   2.979
 3929SOL     OW12685   0.508   1.889   4.973
 3929SOL    HW112686   0.464   1.808   4.933
 3929SOL    HW212687   0.489   1.892   5.071
 3930SOL     OW12688   1.280   3.424   3.889
 3930SOL    HW112689   1.181   3.419   3.904
 3930SOL    HW212690   1.304   3.515   3.855
 3931SOL     OW12691   1.212   2.397   1.600
 3931SOL    HW112692   1.291   2.422   1.655
 3931SOL    HW212693   1.129   2.405   1.656
 3932SOL     OW12694   1.382   5.834   4.377
 3932SOL    HW112695   1.396   5.849   4.280
 3932SOL    HW212696   1.455   5.878   4.429
 3933SOL     OW12697   2.180   5.017   0.507
 3933SOL    HW112698   2.263   5.034   0.453
 3933SOL    HW212699   2.111   4.975   0.448
 3934SOL     OW12700   0.658   1.772   1.947
 3934SOL    HW112701   0.733   1.709   1.927
 3934SOL    HW212702   0.645   1.778   2.046
 3935SOL     OW12703   6.356   3.206   6.994
 3935SOL    HW112704   6.331   3.214   6.898
 3935SOL    HW212705   6.361   3.109   0.002
 3936SOL     OW12706   0.281   5.147   5.599
 3936SOL    HW112707   0.299   5.112   5.508
 3936SOL    HW212708   0.189   5.121   5.628
 3937SOL     OW12709   7.015   6.930   2.609
 3937SOL    HW112710   6.940   6.944   2.673
 3937SOL    HW212711   0.076   6.893   2.657
 3938SOL     OW12712   0.086   4.257   3.190
 3938SOL    HW112713   0.162   4.253   3.126
 3938SOL    HW212714   0.012   4.311   3.150
 3939SOL     OW12715   0.670   1.089   2.398
 3939SOL    HW112716   0.658   1.086   2.298
 3939SOL    HW212717   0.733   1.162   2.422
 3940SOL     OW12718   3.289   4.686   1.250
 3940SOL    HW112719   3.298   4.750   1.327
 3940SOL    HW212720   3.308   4.593   1.281
 3941SOL     OW12721   5.979   6.459   4.336
 3941SOL    HW112722   5.975   6.509   4.422
 3941SOL    HW212723   6.006   6.364   4.355
 3942SOL     OW12724   0.607   5.986   6.482
 3942SOL    HW112725   0.562   6.049   6.546
 3942SOL    HW212726   0.646   6.039   6.406
 3943SOL     OW12727   1.283   3.218   0.528
 3943SOL    HW112728   1.252   3.304   0.488
 3943SOL    HW212729   1.312   3.234   0.623
 3944SOL     OW12730   6.194   1.741   6.604
 3944SOL    HW112731   6.096   1.754   6.590
 3944SOL    HW212732   6.232   1.821   6.652
 3945SOL     OW12733   6.976   1.301   2.952
 3945SOL    HW112734   0.040   1.339   2.911
 3945SOL    HW212735   6.898   1.359   2.929
 3946SOL     OW12736   0.973   3.159   0.669
 3946SOL    HW112737   1.020   3.071   0.668
 3946SOL    HW212738   0.880   3.147   0.634
 3947SOL     OW12739   5.975   5.448   1.261
 3947SOL    HW112740   5.942   5.501   1.183
 3947SOL    HW212741   6.050   5.389   1.232
 3948SOL     OW12742   1.599   2.620   5.791
 3948SOL    HW112743   1.627   2.527   5.767
 3948SOL    HW212744   1.619   2.637   5.888
 3949SOL     OW12745   6.239   6.206   2.410
 3949SOL    HW112746   6.188   6.291   2.395
 3949SOL    HW212747   6.210   6.164   2.496
 3950SOL     OW12748   3.292   4.243   1.207
 3950SOL    HW112749   3.211   4.269   1.155
 3950SOL    HW212750   3.300   4.300   1.289
 3951SOL     OW12751   0.617   1.699   5.348
 3951SOL    HW112752   0.714   1.698   5.321
 3951SOL    HW212753   0.604   1.766   5.420
 3952SOL     OW12754   6.696   3.631   5.736
 3952SOL    HW112755   6.676   3.542   5.695
 3952SOL    HW212756   6.625   3.653   5.803
 3953SOL     OW12757   3.379   4.334   5.953
 3953SOL    HW112758   3.287   4.323   5.916
 3953SOL    HW212759   3.444   4.283   5.896
 3954SOL     OW12760   0.822   3.883   5.456
 3954SOL    HW112761   0.882   3.961   5.475
 3954SOL    HW212762   0.731   3.917   5.430
 3955SOL     OW12763   5.437   5.018   0.192
 3955SOL    HW112764   5.438   5.103   0.245
 3955SOL    HW212765   5.399   5.037   0.101
 3956SOL     OW12766   0.415   3.047   5.996
 3956SOL    HW112767   0.508   3.077   5.975
 3956SOL    HW212768   0.403   3.043   6.096
 3957SOL     OW12769   1.927   6.972   3.728
 3957SOL    HW112770   1.971   6.904   3.670
 3957SOL    HW212771   1.926   0.042   3.681
 3958SOL     OW12772   5.865   6.307   5.396
 3958SOL    HW112773   5.812   6.389   5.374
 3958SOL    HW212774   5.917   6.324   5.480
 3959SOL     OW12775   2.970   4.957   0.081
 3959SOL    HW112776   2.909   5.011   0.023
 3959SOL    HW212777   3.064   4.965   0.047
 3960SOL     OW12778   3.998   3.179   0.055
 3960SOL    HW112779   3.957   3.096   0.092
 3960SOL    HW212780   4.087   3.157   0.015
 3961SOL     OW12781   4.701   0.424   1.411
 3961SOL    HW112782   4.620   0.366   1.419
 3961SOL    HW212783   4.696   0.497   1.479
 3962SOL     OW12784   0.647   0.197   6.514
 3962SOL    HW112785   0.580   0.135   6.474
 3962SOL    HW212786   0.601   0.281   6.543
 3963SOL     OW12787   4.526   5.901   3.485
 3963SOL    HW112788   4.566   5.888   3.576
 3963SOL    HW212789   4.426   5.899   3.492
 3964SOL     OW12790   5.205   5.745   5.264
 3964SOL    HW112791   5.186   5.796   5.180
 3964SOL    HW212792   5.126   5.689   5.288
 3965SOL     OW12793   3.062   3.312   0.233
 3965SOL    HW112794   3.146   3.335   0.184
 3965SOL    HW212795   3.078   3.318   0.332
 3966SOL     OW12796   6.284   4.011   5.108
 3966SOL    HW112797   6.365   3.970   5.068
 3966SOL    HW212798   6.311   4.075   5.180
 3967SOL     OW12799   0.439   5.722   6.026
 3967SOL    HW112800   0.381   5.798   6.054
 3967SOL    HW212801   0.388   5.662   5.964
 3968SOL     OW12802   5.780   1.284   1.894
 3968SOL    HW112803   5.843   1.278   1.817
 3968SOL    HW212804   5.705   1.219   1.882
 3969SOL     OW12805   0.530   5.189   2.440
 3969SOL    HW112806   0.432   5.172   2.443
 3969SOL    HW212807   0.569   5.178   2.532
 3970SOL     OW12808   5.220   4.664   2.696
 3970SOL    HW112809   5.318   4.659   2.718
 3970SOL    HW212810   5.167   4.633   2.775
 3971SOL     OW12811   1.579   5.904   3.022
 3971SOL    HW112812   1.577   5.811   2.984
 3971SOL    HW212813   1.538   5.967   2.956
 3972SOL     OW12814   0.592   6.974   0.389
 3972SOL    HW112815   0.685   6.939   0.377
 3972SOL    HW212816   0.594   0.055   0.395
 3973SOL     OW12817   2.940   3.821   4.577
 3973SOL    HW112818   2.972   3.824   4.482
 3973SOL    HW212819   2.880   3.899   4.594
 3974SOL     OW12820   6.104   1.198   6.642
 3974SOL    HW112821   6.017   1.188   6.593
 3974SOL    HW212822   6.112   1.292   6.676
 3975SOL     OW12823   6.833   0.820   5.924
 3975SOL    HW112824   6.737   0.791   5.927
 3975SOL    HW212825   6.874   0.789   5.839
 3976SOL     OW12826   1.114   3.414   0.392
 3976SOL    HW112827   1.047   3.414   0.466
 3976SOL    HW212828   1.090   3.485   0.325
 3977SOL     OW12829   3.224   6.251   6.375
 3977SOL    HW112830   3.289   6.201   6.433
 3977SOL    HW212831   3.140   6.198   6.365
 3978SOL     OW12832   6.278   2.747   6.270
 3978SOL    HW112833   6.269   2.846   6.281
 3978SOL    HW212834   6.368   2.727   6.230
 3979SOL     OW12835   0.546   6.768   2.373
 3979SOL    HW112836   0.495   6.723   2.446
 3979SOL    HW212837   0.520   6.865   2.368
 3980SOL     OW12838   5.150   3.076   4.565
 3980SOL    HW112839   5.094   3.009   4.516
 3980SOL    HW212840   5.132   3.167   4.530
 3981SOL     OW12841   0.020   2.069   6.770
 3981SOL    HW112842   0.009   1.972   6.746
 3981SOL    HW212843   0.100   2.106   6.724
 3982SOL     OW12844   2.358   1.862   3.678
 3982SOL    HW112845   2.316   1.949   3.656
 3982SOL    HW212846   2.439   1.877   3.735
 3983SOL     OW12847   3.005   6.059   4.303
 3983SOL    HW112848   2.943   6.040   4.227
 3983SOL    HW212849   2.999   5.987   4.371
 3984SOL     OW12850   1.761   6.401   1.610
 3984SOL    HW112851   1.860   6.413   1.611
 3984SOL    HW212852   1.737   6.314   1.653
 3985SOL     OW12853   2.454   3.342   0.992
 3985SOL    HW112854   2.356   3.358   1.007
 3985SOL    HW212855   2.465   3.263   0.932
 3986SOL     OW12856   0.161   2.084   1.994
 3986SOL    HW112857   0.186   2.106   1.899
 3986SOL    HW212858   0.127   2.166   2.039
 3987SOL     OW12859   2.731   4.795   6.675
 3987SOL    HW112860   2.815   4.774   6.726
 3987SOL    HW212861   2.747   4.874   6.616
 3988SOL     OW12862   4.192   2.883   0.695
 3988SOL    HW112863   4.150   2.898   0.606
 3988SOL    HW212864   4.121   2.880   0.765
 3989SOL     OW12865   5.717   6.605   6.651
 3989SOL    HW112866   5.676   6.514   6.658
 3989SOL    HW212867   5.813   6.596   6.623
 3990SOL     OW12868   0.819   3.591   3.388
 3990SOL    HW112869   0.724   3.559   3.389
 3990SOL    HW212870   0.861   3.576   3.477
 3991SOL     OW12871   0.398   2.252   3.837
 3991SOL    HW112872   0.370   2.279   3.745
 3991SOL    HW212873   0.352   2.166   3.861
 3992SOL     OW12874   4.531   3.721   6.369
 3992SOL    HW112875   4.456   3.778   6.336
 3992SOL    HW212876   4.499   3.627   6.380
 3993SOL     OW12877   2.786   2.336   2.832
 3993SOL    HW112878   2.843   2.276   2.775
 3993SOL    HW212879   2.713   2.375   2.776
 3994SOL     OW12880   2.277   2.843   3.494
 3994SOL    HW112881   2.322   2.830   3.582
 3994SOL    HW212882   2.338   2.810   3.421
 3995SOL     OW12883   2.180   4.017   3.322
 3995SOL    HW112884   2.151   4.087   3.388
 3995SOL    HW212885   2.199   3.932   3.371
 3996SOL     OW12886   0.201   1.553   3.325
 3996SOL    HW112887   0.275   1.493   3.296
 3996SOL    HW212888   0.167   1.606   3.247
 3997SOL     OW12889   5.801   3.944   3.291
 3997SOL    HW112890   5.731   3.935   3.221
 3997SOL    HW212891   5.804   3.861   3.347
 3998SOL     OW12892   6.412   1.965   3.210
 3998SOL    HW112893   6.390   1.941   3.305
 3998SOL    HW212894   6.482   2.037   3.210
 3999SOL     OW12895   5.659   3.719   2.577
 3999SOL    HW112896   5.756   3.695   2.584
 3999SOL    HW212897   5.623   3.682   2.491
 4000SOL     OW12898   2.576   5.674   2.315
 4000SOL    HW112899   2.522   5.607   2.365
 4000SOL    HW212900   2.659   5.630   2.280
 4001SOL     OW12901   2.609   4.060   5.318
 4001SOL    HW112902   2.545   4.040   5.392
 4001SOL    HW212903   2.561   4.055   5.230
 4002SOL     OW12904   3.314   2.945   4.752
 4002SOL    HW112905   3.270   2.941   4.662
 4002SOL    HW212906   3.407   2.983   4.742
 4003SOL     OW12907   2.003   0.983   5.552
 4003SOL    HW112908   2.074   1.052   5.534
 4003SOL    HW212909   1.917   1.029   5.573
 4004SOL     OW12910   0.251   3.847   2.808
 4004SOL    HW112911   0.266   3.853   2.710
 4004SOL    HW212912   0.324   3.895   2.857
 4005SOL     OW12913   4.627   3.534   1.657
 4005SOL    HW112914   4.690   3.500   1.587
 4005SOL    HW212915   4.579   3.458   1.699
 4006SOL     OW12916   5.052   5.288   2.649
 4006SOL    HW112917   4.979   5.268   2.715
 4006SOL    HW212918   5.090   5.203   2.614
 4007SOL     OW12919   0.860   1.916   2.984
 4007SOL    HW112920   0.908   1.829   2.971
 4007SOL    HW212921   0.763   1.898   3.000
 4008SOL     OW12922   2.353   0.146   1.196
 4008SOL    HW112923   2.278   0.116   1.136
 4008SOL    HW212924   2.419   0.071   1.205
 4009SOL     OW12925   4.411   1.902   1.161
 4009SOL    HW112926   4.459   1.908   1.248
 4009SOL    HW212927   4.313   1.917   1.176
 4010SOL     OW12928   3.369   4.451   1.333
 4010SOL    HW112929   3.338   4.433   1.427
 4010SOL    HW212930   3.464   4.481   1.335
 4011SOL     OW12931   6.541   6.025   0.465
 4011SOL    HW112932   6.490   6.111   0.467
 4011SOL    HW212933   6.477   5.948   0.460
 4012SOL     OW12934   4.322   6.754   1.599
 4012SOL    HW112935   4.298   6.839   1.646
 4012SOL    HW212936   4.338   6.683   1.667
 4013SOL     OW12937   1.603   0.706   0.852
 4013SOL    HW112938   1.536   0.701   0.778
 4013SOL    HW212939   1.560   0.745   0.933
 4014SOL     OW12940   3.076   5.851   3.651
 4014SOL    HW112941   3.061   5.898   3.565
 4014SOL    HW212942   3.130   5.769   3.635
 4015SOL     OW12943   4.518   5.398   6.421
 4015SOL    HW112944   4.473   5.312   6.396
 4015SOL    HW212945   4.616   5.381   6.433
 4016SOL     OW12946   3.250   5.691   6.491
 4016SOL    HW112947   3.284   5.612   6.439
 4016SOL    HW212948   3.326   5.733   6.540
 4017SOL     OW12949   0.901   5.403   5.746
 4017SOL    HW112950   0.872   5.496   5.769
 4017SOL    HW212951   0.904   5.392   5.647
 4018SOL     OW12952   3.601   6.370   1.578
 4018SOL    HW112953   3.639   6.282   1.604
 4018SOL    HW212954   3.580   6.423   1.660
 4019SOL     OW12955   5.537   3.002   2.549
 4019SOL    HW112956   5.439   3.015   2.562
 4019SOL    HW212957   5.567   3.056   2.470
 4020SOL     OW12958   6.971   4.284   4.096
 4020SOL    HW112959   0.040   4.236   4.096
 4020SOL    HW212960   6.962   4.336   4.011
 4021SOL     OW12961   3.291   3.802   5.825
 4021SOL    HW112962   3.263   3.707   5.835
 4021SOL    HW212963   3.338   3.814   5.737
 4022SOL     OW12964   3.668   6.790   0.704
 4022SOL    HW112965   3.575   6.786   0.739
 4022SOL    HW212966   3.728   6.735   0.762
 4023SOL     OW12967   0.241   1.707   5.463
 4023SOL    HW112968   0.150   1.693   5.502
 4023SOL    HW212969   0.257   1.640   5.390
 4024SOL     OW12970   1.640   4.993   4.081
 4024SOL    HW112971   1.627   5.051   4.162
 4024SOL    HW212972   1.730   5.010   4.042
 4025SOL     OW12973   0.951   6.112   3.980
 4025SOL    HW112974   1.006   6.035   4.014
 4025SOL    HW212975   1.009   6.192   3.968
 4026SOL     OW12976   6.565   5.828   4.114
 4026SOL    HW112977   6.629   5.812   4.189
 4026SOL    HW212978   6.537   5.925   4.115
 4027SOL     OW12979   2.760   2.188   6.713
 4027SOL    HW112980   2.699   2.149   6.781
 4027SOL    HW212981   2.714   2.190   6.624
 4028SOL     OW12982   4.340   1.675   3.286
 4028SOL    HW112983   4.316   1.588   3.329
 4028SOL    HW212984   4.417   1.661   3.224
 4029SOL     OW12985   2.875   4.037   6.239
 4029SOL    HW112986   2.850   3.986   6.157
 4029SOL    HW212987   2.945   3.987   6.290
 4030SOL     OW12988   6.822   0.858   2.109
 4030SOL    HW112989   6.769   0.788   2.062
 4030SOL    HW212990   6.858   0.822   2.195
 4031SOL     OW12991   5.507   0.320   2.346
 4031SOL    HW112992   5.517   0.224   2.318
 4031SOL    HW212993   5.473   0.374   2.269
 4032SOL     OW12994   6.348   6.635   1.810
 4032SOL    HW112995   6.344   6.635   1.710
 4032SOL    HW212996   6.294   6.559   1.846
 4033SOL     OW12997   2.923   2.161   2.661
 4033SOL    HW112998   2.861   2.216   2.605
 4033SOL    HW212999   3.000   2.131   2.606
 4034SOL     OW13000   6.231   2.555   5.346
 4034SOL    HW113001   6.274   2.469   5.316
 4034SOL    HW213002   6.207   2.609   5.266
 4035SOL     OW13003   6.515   1.821   1.603
 4035SOL    HW113004   6.607   1.859   1.590
 4035SOL    HW213005   6.474   1.860   1.686
 4036SOL     OW13006   3.785   4.897   2.459
 4036SOL    HW113007   3.815   4.972   2.400
 4036SOL    HW213008   3.864   4.864   2.512
 4037SOL     OW13009   2.897   0.870   5.875
 4037SOL    HW113010   2.809   0.861   5.921
 4037SOL    HW213011   2.962   0.804   5.914
 4038SOL     OW13012   4.540   3.419   0.240
 4038SOL    HW113013   4.569   3.325   0.224
 4038SOL    HW213014   4.473   3.422   0.315
 4039SOL     OW13015   5.208   5.863   1.705
 4039SOL    HW113016   5.156   5.866   1.790
 4039SOL    HW213017   5.304   5.884   1.725
 4040SOL     OW13018   3.315   5.881   4.526
 4040SOL    HW113019   3.312   5.929   4.614
 4040SOL    HW213020   3.293   5.784   4.541
 4041SOL     OW13021   1.615   6.636   1.616
 4041SOL    HW113022   1.674   6.716   1.628
 4041SOL    HW213023   1.672   6.553   1.612
 4042SOL     OW13024   5.715   6.307   3.023
 4042SOL    HW113025   5.707   6.395   3.069
 4042SOL    HW213026   5.679   6.315   2.930
 4043SOL     OW13027   6.759   2.021   6.741
 4043SOL    HW113028   6.846   2.067   6.760
 4043SOL    HW213029   6.728   2.045   6.649
 4044SOL     OW13030   5.143   4.704   2.410
 4044SOL    HW113031   5.189   4.788   2.381
 4044SOL    HW213032   5.171   4.682   2.504
 4045SOL     OW13033   3.676   6.644   5.981
 4045SOL    HW113034   3.772   6.657   6.002
 4045SOL    HW213035   3.660   6.550   5.950
 4046SOL     OW13036   0.732   1.845   2.576
 4046SOL    HW113037   0.717   1.785   2.654
 4046SOL    HW213038   0.644   1.872   2.537
 4047SOL     OW13039   1.948   2.383   6.889
 4047SOL    HW113040   1.902   2.445   6.826
 4047SOL    HW213041   1.884   2.313   6.921
 4048SOL     OW13042   5.560   1.118   1.859
 4048SOL    HW113043   5.507   1.203   1.864
 4048SOL    HW213044   5.498   1.040   1.865
 4049SOL     OW13045   4.447   6.320   6.527
 4049SOL    HW113046   4.399   6.407   6.516
 4049SOL    HW213047   4.447   6.271   6.440
 4050SOL     OW13048   0.895   6.448   2.142
 4050SOL    HW113049   0.858   6.434   2.050
 4050SOL    HW213050   0.987   6.485   2.135
 4051SOL     OW13051   4.800   1.450   6.539
 4051SOL    HW113052   4.776   1.356   6.518
 4051SOL    HW213053   4.773   1.471   6.633
 4052SOL     OW13054   5.806   2.222   3.278
 4052SOL    HW113055   5.852   2.189   3.361
 4052SOL    HW213056   5.872   2.226   3.203
 4053SOL     OW13057   1.748   6.023   4.775
 4053SOL    HW113058   1.699   5.937   4.760
 4053SOL    HW213059   1.841   6.004   4.807
 4054SOL     OW13060   4.670   4.556   0.962
 4054SOL    HW113061   4.681   4.478   1.024
 4054SOL    HW213062   4.750   4.616   0.971
 4055SOL     OW13063   1.401   4.042   1.312
 4055SOL    HW113064   1.412   3.998   1.223
 4055SOL    HW213065   1.486   4.090   1.335
 4056SOL     OW13066   4.913   3.760   1.164
 4056SOL    HW113067   4.864   3.831   1.216
 4056SOL    HW213068   4.895   3.671   1.206
 4057SOL     OW13069   6.650   3.193   6.979
 4057SOL    HW113070   6.551   3.202   6.969
 4057SOL    HW213071   6.673   3.102   7.014
 4058SOL     OW13072   2.765   6.473   4.913
 4058SOL    HW113073   2.810   6.488   5.001
 4058SOL    HW213074   2.799   6.388   4.872
 4059SOL     OW13075   0.163   2.647   3.140
 4059SOL    HW113076   0.113   2.560   3.140
 4059SOL    HW213077   0.167   2.682   3.046
 4060SOL     OW13078   6.136   4.685   5.841
 4060SOL    HW113079   6.154   4.719   5.749
 4060SOL    HW213080   6.043   4.651   5.847
 4061SOL     OW13081   2.642   4.663   2.162
 4061SOL    HW113082   2.708   4.638   2.091
 4061SOL    HW213083   2.690   4.706   2.238
 4062SOL     OW13084   2.862   0.290   1.948
 4062SOL    HW113085   2.789   0.299   1.880
 4062SOL    HW213086   2.823   0.289   2.040
 4063SOL     OW13087   6.163   6.941   0.877
 4063SOL    HW113088   6.261   6.927   0.891
 4063SOL    HW213089   6.124   6.861   0.831
 4064SOL     OW13090   2.688   2.297   4.778
 4064SOL    HW113091   2.773   2.300   4.830
 4064SOL    HW213092   2.613   2.272   4.838
 4065SOL     OW13093   0.441   0.607   1.401
 4065SOL    HW113094   0.348   0.591   1.367
 4065SOL    HW213095   0.506   0.555   1.345
 4066SOL     OW13096   6.821   4.195   2.980
 4066SOL    HW113097   6.785   4.103   2.999
 4066SOL    HW213098   6.825   4.209   2.881
 4067SOL     OW13099   5.274   3.931   3.693
 4067SOL    HW113100   5.314   3.922   3.784
 4067SOL    HW213101   5.348   3.937   3.625
 4068SOL     OW13102   1.984   2.293   4.233
 4068SOL    HW113103   1.984   2.391   4.212
 4068SOL    HW213104   2.063   2.249   4.189
 4069SOL     OW13105   3.258   5.398   0.065
 4069SOL    HW113106   3.232   5.437   6.995
 4069SOL    HW213107   3.176   5.374   0.117
 4070SOL     OW13108   0.766   2.951   2.739
 4070SOL    HW113109   0.776   2.983   2.645
 4070SOL    HW213110   0.806   3.018   2.802
 4071SOL     OW13111   1.399   1.136   4.658
 4071SOL    HW113112   1.397   1.101   4.751
 4071SOL    HW213113   1.306   1.137   4.621
 4072SOL     OW13114   0.539   5.343   5.189
 4072SOL    HW113115   0.607   5.299   5.247
 4072SOL    HW213116   0.534   5.294   5.101
 4073SOL     OW13117   2.761   5.236   5.939
 4073SOL    HW113118   2.703   5.228   5.858
 4073SOL    HW213119   2.704   5.231   6.021
 4074SOL     OW13120   0.571   4.798   1.211
 4074SOL    HW113121   0.605   4.865   1.276
 4074SOL    HW213122   0.514   4.844   1.143
 4075SOL     OW13123   4.778   2.132   1.210
 4075SOL    HW113124   4.807   2.225   1.234
 4075SOL    HW213125   4.767   2.079   1.294
 4076SOL     OW13126   3.056   3.575   5.785
 4076SOL    HW113127   2.973   3.542   5.831
 4076SOL    HW213128   3.033   3.602   5.692
 4077SOL     OW13129   3.973   1.760   1.055
 4077SOL    HW113130   4.022   1.824   1.114
 4077SOL    HW213131   3.875   1.774   1.065
 4078SOL     OW13132   2.311   5.128   2.291
 4078SOL    HW113133   2.221   5.088   2.307
 4078SOL    HW213134   2.371   5.060   2.251
 4079SOL     OW13135   2.572   1.168   2.867
 4079SOL    HW113136   2.593   1.085   2.817
 4079SOL    HW213137   2.645   1.187   2.933
 4080SOL     OW13138   4.936   2.585   5.871
 4080SOL    HW113139   4.863   2.633   5.920
 4080SOL    HW213140   4.991   2.651   5.820
 4081SOL     OW13141   1.520   2.639   3.973
 4081SOL    HW113142   1.529   2.705   4.047
 4081SOL    HW213143   1.529   2.546   4.010
 4082SOL     OW13144   0.522   3.980   0.510
 4082SOL    HW113145   0.579   3.983   0.592
 4082SOL    HW213146   0.471   4.065   0.502
 4083SOL     OW13147   6.381   3.170   3.033
 4083SOL    HW113148   6.343   3.241   2.973
 4083SOL    HW213149   6.481   3.174   3.030
 4084SOL     OW13150   5.863   1.862   3.541
 4084SOL    HW113151   5.915   1.846   3.625
 4084SOL    HW213152   5.922   1.847   3.462
 4085SOL     OW13153   3.858   5.449   0.485
 4085SOL    HW113154   3.789   5.442   0.557
 4085SOL    HW213155   3.947   5.470   0.527
 4086SOL     OW13156   2.741   6.366   1.331
 4086SOL    HW113157   2.649   6.341   1.300
 4086SOL    HW213158   2.753   6.336   1.426
 4087SOL     OW13159   3.044   2.186   3.340
 4087SOL    HW113160   2.967   2.229   3.388
 4087SOL    HW213161   3.055   2.228   3.250
 4088SOL     OW13162   6.904   1.667   0.987
 4088SOL    HW113163   6.930   1.758   0.955
 4088SOL    HW213164   6.975   1.601   0.960
 4089SOL     OW13165   6.575   6.277   3.409
 4089SOL    HW113166   6.593   6.299   3.504
 4089SOL    HW213167   6.510   6.342   3.370
 4090SOL     OW13168   2.614   4.142   5.718
 4090SOL    HW113169   2.643   4.237   5.713
 4090SOL    HW213170   2.531   4.129   5.664
 4091SOL     OW13171   6.622   6.392   0.558
 4091SOL    HW113172   6.563   6.347   0.491
 4091SOL    HW213173   6.580   6.387   0.649
 4092SOL     OW13174   6.381   2.949   5.144
 4092SOL    HW113175   6.465   2.993   5.175
 4092SOL    HW213176   6.311   3.018   5.126
 4093SOL     OW13177   4.354   0.553   3.526
 4093SOL    HW113178   4.263   0.589   3.544
 4093SOL    HW213179   4.408   0.558   3.610
 4094SOL     OW13180   2.247   5.694   4.771
 4094SOL    HW113181   2.223   5.767   4.707
 4094SOL    HW213182   2.182   5.693   4.847
 4095SOL     OW13183   0.996   3.720   6.634
 4095SOL    HW113184   0.953   3.785   6.572
 4095SOL    HW213185   1.095   3.726   6.624
 4096SOL     OW13186   4.200   5.114   1.136
 4096SOL    HW113187   4.180   5.212   1.139
 4096SOL    HW213188   4.277   5.098   1.074
 4097SOL     OW13189   3.894   3.861   5.989
 4097SOL    HW113190   3.810   3.812   6.011
 4097SOL    HW213191   3.876   3.928   5.916
 4098SOL     OW13192   6.934   3.219   1.978
 4098SOL    HW113193   6.887   3.227   2.066
 4098SOL    HW213194   0.009   3.254   1.987
 4099SOL     OW13195   2.818   4.576   1.501
 4099SOL    HW113196   2.819   4.674   1.478
 4099SOL    HW213197   2.768   4.526   1.430
 4100SOL     OW13198   6.304   5.845   5.132
 4100SOL    HW113199   6.223   5.889   5.170
 4100SOL    HW213200   6.382   5.908   5.138
 4101SOL     OW13201   5.676   0.739   0.376
 4101SOL    HW113202   5.642   0.822   0.418
 4101SOL    HW213203   5.735   0.762   0.298
 4102SOL     OW13204   6.623   0.675   2.044
 4102SOL    HW113205   6.649   0.587   2.005
 4102SOL    HW213206   6.569   0.726   1.977
 4103SOL     OW13207   0.493   1.126   1.694
 4103SOL    HW113208   0.482   1.081   1.605
 4103SOL    HW213209   0.498   1.057   1.766
 4104SOL     OW13210   1.001   4.531   2.188
 4104SOL    HW113211   0.918   4.546   2.241
 4104SOL    HW213212   0.976   4.496   2.098
 4105SOL     OW13213   3.842   5.508   1.401
 4105SOL    HW113214   3.824   5.530   1.496
 4105SOL    HW213215   3.786   5.428   1.374
 4106SOL     OW13216   0.446   1.963   5.248
 4106SOL    HW113217   0.503   1.892   5.290
 4106SOL    HW213218   0.494   2.050   5.249
 4107SOL     OW13219   1.417   6.289   0.726
 4107SOL    HW113220   1.431   6.321   0.633
 4107SOL    HW213221   1.438   6.363   0.790
 4108SOL     OW13222   0.412   5.021   5.818
 4108SOL    HW113223   0.352   5.044   5.741
 4108SOL    HW213224   0.373   5.059   5.903
 4109SOL     OW13225   4.443   6.411   5.206
 4109SOL    HW113226   4.464   6.315   5.226
 4109SOL    HW213227   4.410   6.418   5.112
 4110SOL     OW13228   4.688   3.250   6.660
 4110SOL    HW113229   4.626   3.311   6.612
 4110SOL    HW213230   4.659   3.241   6.756
 4111SOL     OW13231   4.055   2.945   6.447
 4111SOL    HW113232   4.125   2.999   6.400
 4111SOL    HW213233   4.072   2.949   6.546
 4112SOL     OW13234   5.066   0.906   5.678
 4112SOL    HW113235   4.999   0.895   5.605
 4112SOL    HW213236   5.141   0.964   5.647
 4113SOL     OW13237   4.609   6.583   4.771
 4113SOL    HW113238   4.520   6.622   4.794
 4113SOL    HW213239   4.596   6.502   4.714
 4114SOL     OW13240   3.986   2.211   3.418
 4114SOL    HW113241   4.053   2.138   3.400
 4114SOL    HW213242   3.942   2.237   3.332
 4115SOL     OW13243   4.616   5.669   2.051
 4115SOL    HW113244   4.574   5.737   2.111
 4115SOL    HW213245   4.635   5.586   2.103
 4116SOL     OW13246   4.356   2.111   1.510
 4116SOL    HW113247   4.263   2.125   1.543
 4116SOL    HW213248   4.372   2.170   1.431
 4117SOL     OW13249   0.756   5.158   1.782
 4117SOL    HW113250   0.747   5.097   1.861
 4117SOL    HW213251   0.667   5.197   1.759
 4118SOL     OW13252   1.690   6.272   0.784
 4118SOL    HW113253   1.598   6.248   0.754
 4118SOL    HW213254   1.697   6.261   0.883
 4119SOL     OW13255   4.115   1.603   3.167
 4119SOL    HW113256   4.203   1.645   3.189
 4119SOL    HW213257   4.130   1.524   3.107
 4120SOL     OW13258   4.306   0.666   0.639
 4120SOL    HW113259   4.372   0.741   0.639
 4120SOL    HW213260   4.256   0.665   0.726
 4121SOL     OW13261   5.767   1.089   5.178
 4121SOL    HW113262   5.813   1.177   5.187
 4121SOL    HW213263   5.760   1.065   5.081
 4122SOL     OW13264   0.931   6.530   5.630
 4122SOL    HW113265   0.967   6.571   5.546
 4122SOL    HW213266   0.983   6.447   5.651
 4123SOL     OW13267   4.898   4.679   5.490
 4123SOL    HW113268   4.868   4.772   5.468
 4123SOL    HW213269   4.861   4.652   5.579
 4124SOL     OW13270   6.070   5.076   5.960
 4124SOL    HW113271   6.124   5.103   5.880
 4124SOL    HW213272   5.978   5.049   5.931
 4125SOL     OW13273   4.435   1.105   1.861
 4125SOL    HW113274   4.473   1.163   1.790
 4125SOL    HW213275   4.343   1.076   1.835
 4126SOL     OW13276   1.298   4.914   3.967
 4126SOL    HW113277   1.305   4.851   4.044
 4126SOL    HW213278   1.329   5.005   3.994
 4127SOL     OW13279   4.681   4.481   4.565
 4127SOL    HW113280   4.715   4.402   4.616
 4127SOL    HW213281   4.644   4.549   4.629
 4128SOL     OW13282   1.840   3.595   2.002
 4128SOL    HW113283   1.828   3.599   2.101
 4128SOL    HW213284   1.932   3.624   1.978
 4129SOL     OW13285   5.251   1.062   6.565
 4129SOL    HW113286   5.243   1.080   6.664
 4129SOL    HW213287   5.343   1.028   6.546
 4130SOL     OW13288   6.931   3.530   5.629
 4130SOL    HW113289   6.862   3.600   5.646
 4130SOL    HW213290   6.929   3.463   5.703
 4131SOL     OW13291   1.165   5.889   3.815
 4131SOL    HW113292   1.116   5.845   3.891
 4131SOL    HW213293   1.252   5.926   3.849
 4132SOL     OW13294   5.471   4.589   3.838
 4132SOL    HW113295   5.426   4.525   3.775
 4132SOL    HW213296   5.401   4.636   3.892
 4133SOL     OW13297   2.930   6.893   1.954
 4133SOL    HW113298   2.851   6.914   2.011
 4133SOL    HW213299   2.962   6.800   1.974
 4134SOL     OW13300   1.934   2.136   0.698
 4134SOL    HW113301   1.950   2.180   0.610
 4134SOL    HW213302   1.882   2.197   0.757
 4135SOL     OW13303   1.936   0.465   2.861
 4135SOL    HW113304   1.908   0.456   2.957
 4135SOL    HW213305   2.008   0.534   2.854
 4136SOL     OW13306   0.867   2.111   2.778
 4136SOL    HW113307   0.887   2.048   2.854
 4136SOL    HW213308   0.812   2.063   2.710
 4137SOL     OW13309   1.935   4.114   1.310
 4137SOL    HW113310   1.975   4.113   1.218
 4137SOL    HW213311   1.937   4.022   1.348
 4138SOL     OW13312   3.577   5.540   3.505
 4138SOL    HW113313   3.584   5.444   3.534
 4138SOL    HW213314   3.650   5.594   3.547
 4139SOL     OW13315   2.140   2.248   5.391
 4139SOL    HW113316   2.138   2.170   5.328
 4139SOL    HW213317   2.138   2.215   5.485
 4140SOL     OW13318   2.710   0.429   5.331
 4140SOL    HW113319   2.701   0.412   5.429
 4140SOL    HW213320   2.756   0.352   5.288
 4141SOL     OW13321   5.195   6.101   1.543
 4141SOL    HW113322   5.295   6.104   1.545
 4141SOL    HW213323   5.163   6.014   1.580
 4142SOL     OW13324   6.905   5.745   0.751
 4142SOL    HW113325   6.826   5.746   0.812
 4142SOL    HW213326   6.876   5.714   0.660
 4143SOL     OW13327   6.761   2.780   0.025
 4143SOL    HW113328   6.758   2.844   0.102
 4143SOL    HW213329   6.721   2.823   6.963
 4144SOL     OW13330   5.796   2.842   0.497
 4144SOL    HW113331   5.781   2.926   0.444
 4144SOL    HW213332   5.805   2.765   0.434
 4145SOL     OW13333   0.193   6.270   1.835
 4145SOL    HW113334   0.221   6.177   1.810
 4145SOL    HW213335   0.271   6.332   1.827
 4146SOL     OW13336   6.298   0.439   5.568
 4146SOL    HW113337   6.395   0.437   5.594
 4146SOL    HW213338   6.291   0.448   5.468
 4147SOL     OW13339   4.110   1.894   5.500
 4147SOL    HW113340   4.087   1.879   5.404
 4147SOL    HW213341   4.089   1.988   5.525
 4148SOL     OW13342   0.446   0.103   3.878
 4148SOL    HW113343   0.520   0.154   3.923
 4148SOL    HW213344   0.376   0.081   3.946
 4149SOL     OW13345   0.586   3.164   6.906
 4149SOL    HW113346   0.598   3.210   6.995
 4149SOL    HW213347   0.500   3.194   6.865
 4150SOL     OW13348   6.602   0.695   5.947
 4150SOL    HW113349   6.578   0.625   6.015
 4150SOL    HW213350   6.532   0.767   5.948
 4151SOL     OW13351   4.705   6.454   6.546
 4151SOL    HW113352   4.747   6.453   6.636
 4151SOL    HW213353   4.642   6.377   6.538
 4152SOL     OW13354   2.939   5.514   1.117
 4152SOL    HW113355   3.016   5.507   1.054
 4152SOL    HW213356   2.965   5.479   1.206
 4153SOL     OW13357   4.862   4.946   6.214
 4153SOL    HW113358   4.883   4.854   6.179
 4153SOL    HW213359   4.943   5.004   6.204
 4154SOL     OW13360   0.176   4.158   4.950
 4154SOL    HW113361   0.163   4.233   5.015
 4154SOL    HW213362   0.268   4.164   4.912
 4155SOL     OW13363   5.924   2.799   3.538
 4155SOL    HW113364   5.942   2.752   3.625
 4155SOL    HW213365   6.010   2.831   3.500
 4156SOL     OW13366   5.383   0.155   5.539
 4156SOL    HW113367   5.446   0.118   5.608
 4156SOL    HW213368   5.352   0.246   5.567
 4157SOL     OW13369   3.996   6.937   3.899
 4157SOL    HW113370   3.949   6.852   3.923
 4157SOL    HW213371   4.020   6.986   3.982
 4158SOL     OW13372   1.720   5.654   4.212
 4158SOL    HW113373   1.753   5.667   4.119
 4158SOL    HW213374   1.671   5.736   4.242
 4159SOL     OW13375   1.872   3.282   4.070
 4159SOL    HW113376   1.843   3.287   3.974
 4159SOL    HW213377   1.928   3.362   4.092
 4160SOL     OW13378   6.582   0.569   1.348
 4160SOL    HW113379   6.510   0.639   1.353
 4160SOL    HW213380   6.650   0.596   1.280
 4161SOL     OW13381   2.230   6.140   6.140
 4161SOL    HW113382   2.165   6.176   6.208
 4161SOL    HW213383   2.302   6.089   6.187
 4162SOL     OW13384   6.473   0.255   5.149
 4162SOL    HW113385   6.510   0.236   5.058
 4162SOL    HW213386   6.545   0.244   5.217
 4163SOL     OW13387   5.681   1.351   3.269
 4163SOL    HW113388   5.685   1.450   3.282
 4163SOL    HW213389   5.772   1.316   3.247
 4164SOL     OW13390   1.108   6.699   6.015
 4164SOL    HW113391   1.160   6.618   5.989
 4164SOL    HW213392   1.010   6.679   6.008
 4165SOL     OW13393   4.742   0.426   0.622
 4165SOL    HW113394   4.697   0.432   0.711
 4165SOL    HW213395   4.736   0.333   0.588
 4166SOL     OW13396   5.730   2.929   1.087
 4166SOL    HW113397   5.825   2.961   1.092
 4166SOL    HW213398   5.670   3.005   1.061
 4167SOL     OW13399   2.447   3.548   0.346
 4167SOL    HW113400   2.388   3.487   0.294
 4167SOL    HW213401   2.542   3.532   0.321
 4168SOL     OW13402   0.851   5.046   0.945
 4168SOL    HW113403   0.881   5.044   1.041
 4168SOL    HW213404   0.915   4.992   0.890
 4169SOL     OW13405   5.631   3.994   4.306
 4169SOL    HW113406   5.541   4.005   4.349
 4169SOL    HW213407   5.638   3.902   4.266
 4170SOL     OW13408   3.522   3.250   5.236
 4170SOL    HW113409   3.485   3.158   5.241
 4170SOL    HW213410   3.535   3.275   5.140
 4171SOL     OW13411   5.299   4.587   0.934
 4171SOL    HW113412   5.365   4.523   0.894
 4171SOL    HW213413   5.217   4.590   0.876
 4172SOL     OW13414   0.036   2.225   5.967
 4172SOL    HW113415   0.089   2.310   5.964
 4172SOL    HW213416   7.011   2.209   5.879
 4173SOL     OW13417   5.976   3.473   4.515
 4173SOL    HW113418   5.938   3.425   4.593
 4173SOL    HW213419   6.051   3.419   4.476
 4174SOL     OW13420   5.655   0.981   3.501
 4174SOL    HW113421   5.624   1.075   3.513
 4174SOL    HW213422   5.591   0.931   3.443
 4175SOL     OW13423   2.681   6.340   4.195
 4175SOL    HW113424   2.633   6.283   4.128
 4175SOL    HW213425   2.620   6.413   4.226
 4176SOL     OW13426   3.645   0.049   2.441
 4176SOL    HW113427   3.671   6.990   2.499
 4176SOL    HW213428   3.546   0.049   2.428
 4177SOL     OW13429   0.738   5.255   5.382
 4177SOL    HW113430   0.674   5.291   5.450
 4177SOL    HW213431   0.827   5.299   5.393
 4178SOL     OW13432   3.437   1.095   4.202
 4178SOL    HW113433   3.506   1.023   4.213
 4178SOL    HW213434   3.475   1.169   4.146
 4179SOL     OW13435   4.874   3.400   4.256
 4179SOL    HW113436   4.862   3.482   4.312
 4179SOL    HW213437   4.851   3.420   4.161
 4180SOL     OW13438   5.415   3.504   2.737
 4180SOL    HW113439   5.435   3.483   2.641
 4180SOL    HW213440   5.492   3.556   2.776
 4181SOL     OW13441   2.125   1.848   5.931
 4181SOL    HW113442   2.218   1.870   5.961
 4181SOL    HW213443   2.108   1.750   5.946
 4182SOL     OW13444   0.130   0.051   3.154
 4182SOL    HW113445   0.134   0.015   3.248
 4182SOL    HW213446   0.144   6.994   3.090
 4183SOL     OW13447   3.390   1.117   1.331
 4183SOL    HW113448   3.339   1.170   1.400
 4183SOL    HW213449   3.397   1.170   1.247
 4184SOL     OW13450   3.876   4.731   1.252
 4184SOL    HW113451   3.788   4.695   1.222
 4184SOL    HW213452   3.920   4.665   1.313
 4185SOL     OW13453   0.512   5.084   3.098
 4185SOL    HW113454   0.543   5.177   3.118
 4185SOL    HW213455   0.472   5.043   3.180
 4186SOL     OW13456   1.899   4.205   0.397
 4186SOL    HW113457   1.888   4.149   0.315
 4186SOL    HW213458   1.982   4.178   0.445
 4187SOL     OW13459   3.629   3.301   6.001
 4187SOL    HW113460   3.545   3.264   6.040
 4187SOL    HW213461   3.708   3.261   6.046
 4188SOL     OW13462   5.357   6.915   4.723
 4188SOL    HW113463   5.405   6.924   4.810
 4188SOL    HW213464   5.258   6.913   4.739
 4189SOL     OW13465   3.004   1.638   4.631
 4189SOL    HW113466   3.057   1.723   4.635
 4189SOL    HW213467   2.918   1.654   4.583
 4190SOL     OW13468   2.435   0.023   6.357
 4190SOL    HW113469   2.532   0.015   6.339
 4190SOL    HW213470   2.411   6.985   6.436
 4191SOL     OW13471   5.973   3.403   3.095
 4191SOL    HW113472   5.891   3.431   3.144
 4191SOL    HW213473   6.024   3.484   3.066
 4192SOL     OW13474   0.229   1.655   3.602
 4192SOL    HW113475   0.238   1.620   3.509
 4192SOL    HW213476   0.182   1.743   3.600
 4193SOL     OW13477   2.107   6.380   1.245
 4193SOL    HW113478   2.046   6.459   1.241
 4193SOL    HW213479   2.066   6.303   1.195
 4194SOL     OW13480   6.752   2.321   5.094
 4194SOL    HW113481   6.799   2.233   5.088
 4194SOL    HW213482   6.816   2.391   5.125
 4195SOL     OW13483   3.642   0.604   1.811
 4195SOL    HW113484   3.595   0.517   1.825
 4195SOL    HW213485   3.708   0.618   1.886
 4196SOL     OW13486   6.356   1.846   4.532
 4196SOL    HW113487   6.407   1.771   4.489
 4196SOL    HW213488   6.259   1.837   4.510
 4197SOL     OW13489   5.152   4.813   4.167
 4197SOL    HW113490   5.248   4.835   4.151
 4197SOL    HW213491   5.096   4.893   4.144
 4198SOL     OW13492   6.147   3.625   0.121
 4198SOL    HW113493   6.114   3.715   0.094
 4198SOL    HW213494   6.236   3.633   0.165
 4199SOL     OW13495   2.329   3.455   6.015
 4199SOL    HW113496   2.306   3.485   5.923
 4199SOL    HW213497   2.377   3.528   6.064
 4200SOL     OW13498   2.992   6.480   5.515
 4200SOL    HW113499   3.022   6.452   5.424
 4200SOL    HW213500   3.009   6.578   5.527
 4201SOL     OW13501   5.688   6.280   3.941
 4201SOL    HW113502   5.621   6.217   3.981
 4201SOL    HW213503   5.681   6.369   3.985
 4202SOL     OW13504   4.095   4.845   5.848
 4202SOL    HW113505   4.193   4.827   5.863
 4202SOL    HW213506   4.083   4.941   5.822
 4203SOL     OW13507   4.174   6.096   3.023
 4203SOL    HW113508   4.233   6.174   3.003
 4203SOL    HW213509   4.115   6.078   2.944
 4204SOL     OW13510   3.157   2.842   1.826
 4204SOL    HW113511   3.196   2.851   1.734
 4204SOL    HW213512   3.099   2.922   1.846
 4205SOL     OW13513   3.984   5.165   4.173
 4205SOL    HW113514   3.958   5.167   4.077
 4205SOL    HW213515   3.901   5.172   4.230
 4206SOL     OW13516   4.840   0.687   6.039
 4206SOL    HW113517   4.861   0.749   5.963
 4206SOL    HW213518   4.854   0.593   6.009
 4207SOL     OW13519   2.144   1.504   1.689
 4207SOL    HW113520   2.120   1.410   1.712
 4207SOL    HW213521   2.068   1.565   1.714
 4208SOL     OW13522   1.478   2.340   0.912
 4208SOL    HW113523   1.561   2.359   0.860
 4208SOL    HW213524   1.421   2.274   0.863
 4209SOL     OW13525   1.162   1.307   5.013
 4209SOL    HW113526   1.138   1.248   4.936
 4209SOL    HW213527   1.246   1.357   4.991
 4210SOL     OW13528   3.279   3.310   1.916
 4210SOL    HW113529   3.235   3.398   1.900
 4210SOL    HW213530   3.377   3.318   1.899
 4211SOL     OW13531   5.058   5.516   5.703
 4211SOL    HW113532   5.083   5.445   5.638
 4211SOL    HW213533   5.139   5.549   5.750
 4212SOL     OW13534   6.420   2.156   2.113
 4212SOL    HW113535   6.363   2.150   2.031
 4212SOL    HW213536   6.511   2.120   2.092
 4213SOL     OW13537   2.344   0.694   2.448
 4213SOL    HW113538   2.389   0.619   2.400
 4213SOL    HW213539   2.324   0.666   2.542
 4214SOL     OW13540   0.988   4.069   6.220
 4214SOL    HW113541   1.018   4.089   6.313
 4214SOL    HW213542   0.933   4.145   6.185
 4215SOL     OW13543   0.145   5.883   4.529
 4215SOL    HW113544   0.182   5.955   4.471
 4215SOL    HW213545   0.121   5.922   4.618
 4216SOL     OW13546   1.449   2.033   3.847
 4216SOL    HW113547   1.466   2.069   3.939
 4216SOL    HW213548   1.362   2.070   3.812
 4217SOL     OW13549   6.616   0.134   3.023
 4217SOL    HW113550   6.690   0.119   3.088
 4217SOL    HW213551   6.631   0.222   2.976
 4218SOL     OW13552   5.165   6.889   1.723
 4218SOL    HW113553   5.131   6.961   1.784
 4218SOL    HW213554   5.262   6.906   1.703
 4219SOL     OW13555   2.795   4.889   5.197
 4219SOL    HW113556   2.799   4.902   5.296
 4219SOL    HW213557   2.810   4.793   5.175
 4220SOL     OW13558   6.671   3.654   2.843
 4220SOL    HW113559   6.641   3.697   2.927
 4220SOL    HW213560   6.695   3.725   2.776
 4221SOL     OW13561   6.276   5.647   6.186
 4221SOL    HW113562   6.317   5.593   6.112
 4221SOL    HW213563   6.315   5.739   6.185
 4222SOL     OW13564   6.198   1.872   2.351
 4222SOL    HW113565   6.232   1.912   2.436
 4222SOL    HW213566   6.160   1.944   2.293
 4223SOL     OW13567   3.801   3.082   3.335
 4223SOL    HW113568   3.827   2.989   3.308
 4223SOL    HW213569   3.758   3.128   3.258
 4224SOL     OW13570   4.891   3.128   4.129
 4224SOL    HW113571   4.851   3.047   4.170
 4224SOL    HW213572   4.886   3.205   4.194
 4225SOL     OW13573   5.446   0.508   5.388
 4225SOL    HW113574   5.460   0.457   5.303
 4225SOL    HW213575   5.533   0.546   5.419
 4226SOL     OW13576   2.094   1.470   3.608
 4226SOL    HW113577   2.166   1.539   3.602
 4226SOL    HW213578   2.135   1.379   3.604
 4227SOL     OW13579   3.447   4.257   6.419
 4227SOL    HW113580   3.526   4.195   6.421
 4227SOL    HW213581   3.398   4.245   6.333
 4228SOL     OW13582   5.551   5.945   4.174
 4228SOL    HW113583   5.552   5.855   4.216
 4228SOL    HW213584   5.629   5.998   4.207
 4229SOL     OW13585   4.033   5.155   5.840
 4229SOL    HW113586   3.963   5.127   5.906
 4229SOL    HW213587   4.080   5.237   5.875
 4230SOL     OW13588   2.261   0.003   4.825
 4230SOL    HW113589   2.185   7.011   4.761
 4230SOL    HW213590   2.295   0.097   4.821
 4231SOL     OW13591   5.044   6.337   5.466
 4231SOL    HW113592   4.975   6.409   5.461
 4231SOL    HW213593   5.058   6.311   5.562
 4232SOL     OW13594   0.976   5.170   2.322
 4232SOL    HW113595   0.981   5.254   2.268
 4232SOL    HW213596   1.062   5.156   2.371
 4233SOL     OW13597   6.121   0.356   0.361
 4233SOL    HW113598   6.194   0.288   0.368
 4233SOL    HW213599   6.156   0.446   0.389
 4234SOL     OW13600   2.023   5.466   5.830
 4234SOL    HW113601   1.992   5.437   5.739
 4234SOL    HW213602   2.077   5.550   5.821
 4235SOL     OW13603   6.562   4.275   5.469
 4235SOL    HW113604   6.540   4.363   5.511
 4235SOL    HW213605   6.578   4.207   5.541
 4236SOL     OW13606   6.720   2.953   3.761
 4236SOL    HW113607   6.710   3.020   3.687
 4236SOL    HW213608   6.670   2.984   3.842
 4237SOL     OW13609   6.301   4.348   4.306
 4237SOL    HW113610   6.292   4.375   4.402
 4237SOL    HW213611   6.384   4.294   4.295
 4238SOL     OW13612   4.345   4.918   3.777
 4238SOL    HW113613   4.404   4.920   3.696
 4238SOL    HW213614   4.249   4.930   3.749
 4239SOL     OW13615   4.809   6.964   4.343
 4239SOL    HW113616   4.755   7.014   4.275
 4239SOL    HW213617   4.885   0.003   4.374
 4240SOL     OW13618   2.822   6.098   5.968
 4240SOL    HW113619   2.743   6.117   6.026
 4240SOL    HW213620   2.864   6.185   5.939
 4241SOL     OW13621   5.497   0.404   1.098
 4241SOL    HW113622   5.484   0.367   1.190
 4241SOL    HW213623   5.595   0.406   1.078
 4242SOL     OW13624   2.581   6.700   2.993
 4242SOL    HW113625   2.575   6.780   2.933
 4242SOL    HW213626   2.642   6.720   3.070
 4243SOL     OW13627   0.459   3.905   2.384
 4243SOL    HW113628   0.530   3.966   2.348
 4243SOL    HW213629   0.454   3.823   2.327
 4244SOL     OW13630   5.122   5.851   0.918
 4244SOL    HW113631   5.088   5.797   0.841
 4244SOL    HW213632   5.209   5.894   0.893
 4245SOL     OW13633   6.364   2.615   0.028
 4245SOL    HW113634   6.411   2.584   0.111
 4245SOL    HW213635   6.423   2.597   6.967
 4246SOL     OW13636   5.087   2.550   2.821
 4246SOL    HW113637   5.042   2.616   2.762
 4246SOL    HW213638   5.183   2.540   2.794
 4247SOL     OW13639   2.624   5.625   4.165
 4247SOL    HW113640   2.708   5.609   4.216
 4247SOL    HW213641   2.595   5.720   4.177
 4248SOL     OW13642   1.858   0.524   3.105
 4248SOL    HW113643   1.839   0.493   3.198
 4248SOL    HW213644   1.820   0.616   3.092
 4249SOL     OW13645   0.269   1.264   3.685
 4249SOL    HW113646   0.238   1.283   3.778
 4249SOL    HW213647   0.337   1.332   3.658
 4250SOL     OW13648   0.312   5.950   4.022
 4250SOL    HW113649   0.221   5.944   4.063
 4250SOL    HW213650   0.307   5.925   3.925
 4251SOL     OW13651   5.761   2.655   0.032
 4251SOL    HW113652   5.827   2.720   7.012
 4251SOL    HW213653   5.717   2.604   6.977
 4252SOL     OW13654   5.987   5.646   6.208
 4252SOL    HW113655   5.993   5.655   6.108
 4252SOL    HW213656   6.075   5.618   6.244
 4253SOL     OW13657   3.908   6.431   1.958
 4253SOL    HW113658   3.910   6.353   2.020
 4253SOL    HW213659   3.936   6.402   1.867
 4254SOL     OW13660   2.239   3.873   0.351
 4254SOL    HW113661   2.161   3.819   0.321
 4254SOL    HW213662   2.267   3.936   0.279
 4255SOL     OW13663   0.743   4.626   3.963
 4255SOL    HW113664   0.762   4.557   4.033
 4255SOL    HW213665   0.823   4.685   3.951
 4256SOL     OW13666   0.810   5.316   1.008
 4256SOL    HW113667   0.830   5.219   0.995
 4256SOL    HW213668   0.864   5.370   0.944
 4257SOL     OW13669   6.106   1.517   5.209
 4257SOL    HW113670   6.150   1.571   5.137
 4257SOL    HW213671   6.067   1.579   5.277
 4258SOL     OW13672   3.489   5.535   1.053
 4258SOL    HW113673   3.415   5.575   0.997
 4258SOL    HW213674   3.454   5.515   1.144
 4259SOL     OW13675   1.654   0.139   1.834
 4259SOL    HW113676   1.613   0.091   1.911
 4259SOL    HW213677   1.589   0.138   1.757
 4260SOL     OW13678   4.994   0.253   4.186
 4260SOL    HW113679   5.033   0.161   4.186
 4260SOL    HW213680   5.046   0.312   4.248
 4261SOL     OW13681   1.982   0.439   4.305
 4261SOL    HW113682   1.895   0.411   4.345
 4261SOL    HW213683   1.992   0.538   4.312
 4262SOL     OW13684   1.757   5.246   5.732
 4262SOL    HW113685   1.743   5.246   5.831
 4262SOL    HW213686   1.802   5.161   5.704
 4263SOL     OW13687   2.797   2.284   3.387
 4263SOL    HW113688   2.774   2.286   3.290
 4263SOL    HW213689   2.716   2.257   3.440
 4264SOL     OW13690   5.819   1.241   4.293
 4264SOL    HW113691   5.881   1.168   4.321
 4264SOL    HW213692   5.727   1.204   4.281
 4265SOL     OW13693   3.355   0.156   0.802
 4265SOL    HW113694   3.280   0.222   0.803
 4265SOL    HW213695   3.441   0.204   0.784
 4266SOL     OW13696   1.209   0.531   6.869
 4266SOL    HW113697   1.258   0.468   6.930
 4266SOL    HW213698   1.186   0.484   6.784
 4267SOL     OW13699   2.195   4.003   4.008
 4267SOL    HW113700   2.145   3.960   3.933
 4267SOL    HW213701   2.240   3.933   4.063
 4268SOL     OW13702   1.213   4.951   6.870
 4268SOL    HW113703   1.154   4.985   6.944
 4268SOL    HW213704   1.261   5.028   6.828
 4269SOL     OW13705   3.724   1.794   3.733
 4269SOL    HW113706   3.740   1.774   3.637
 4269SOL    HW213707   3.752   1.888   3.752
 4270SOL     OW13708   3.555   2.967   1.264
 4270SOL    HW113709   3.541   2.875   1.228
 4270SOL    HW213710   3.559   3.033   1.189
 4271SOL     OW13711   6.105   0.753   1.534
 4271SOL    HW113712   6.051   0.673   1.507
 4271SOL    HW213713   6.049   0.835   1.529
 4272SOL     OW13714   6.846   3.403   5.891
 4272SOL    HW113715   6.789   3.429   5.969
 4272SOL    HW213716   6.815   3.314   5.856
 4273SOL     OW13717   4.587   6.594   5.371
 4273SOL    HW113718   4.559   6.579   5.466
 4273SOL    HW213719   4.537   6.532   5.311
 4274SOL     OW13720   0.351   6.682   1.998
 4274SOL    HW113721   0.319   6.598   2.042
 4274SOL    HW213722   0.341   6.758   2.062
 4275SOL     OW13723   0.220   2.314   4.074
 4275SOL    HW113724   0.296   2.352   4.022
 4275SOL    HW213725   0.255   2.251   4.143
 4276SOL     OW13726   2.916   4.907   4.012
 4276SOL    HW113727   2.843   4.876   3.951
 4276SOL    HW213728   2.876   4.946   4.094
 4277SOL     OW13729   6.785   4.692   3.967
 4277SOL    HW113730   6.880   4.723   3.965
 4277SOL    HW213731   6.774   4.624   4.039
 4278SOL     OW13732   6.353   6.459   3.265
 4278SOL    HW113733   6.307   6.370   3.273
 4278SOL    HW213734   6.284   6.531   3.260
 4279SOL     OW13735   1.634   1.718   2.841
 4279SOL    HW113736   1.705   1.688   2.905
 4279SOL    HW213737   1.583   1.638   2.809
 4280SOL     OW13738   6.623   6.564   6.460
 4280SOL    HW113739   6.723   6.568   6.454
 4280SOL    HW213740   6.585   6.544   6.370
 4281SOL     OW13741   4.782   5.722   3.906
 4281SOL    HW113742   4.768   5.690   3.812
 4281SOL    HW213743   4.879   5.741   3.921
 4282SOL     OW13744   3.193   3.867   0.691
 4282SOL    HW113745   3.094   3.853   0.692
 4282SOL    HW213746   3.214   3.951   0.641
 4283SOL     OW13747   5.264   0.544   2.755
 4283SOL    HW113748   5.167   0.532   2.777
 4283SOL    HW213749   5.275   0.627   2.700
 4284SOL     OW13750   4.512   5.410   0.257
 4284SOL    HW113751   4.477   5.490   0.305
 4284SOL    HW213752   4.442   5.338   0.256
 4285SOL     OW13753   3.631   0.609   6.106
 4285SOL    HW113754   3.680   0.532   6.144
 4285SOL    HW213755   3.661   0.625   6.012
 4286SOL     OW13756   6.560   1.162   0.162
 4286SOL    HW113757   6.524   1.107   0.237
 4286SOL    HW213758   6.646   1.124   0.130
 4287SOL     OW13759   4.549   0.671   0.116
 4287SOL    HW113760   4.593   0.761   0.109
 4287SOL    HW213761   4.604   0.612   0.175
 4288SOL     OW13762   6.389   6.309   1.973
 4288SOL    HW113763   6.370   6.212   1.985
 4288SOL    HW213764   6.484   6.327   1.997
 4289SOL     OW13765   0.372   2.675   5.278
 4289SOL    HW113766   0.315   2.681   5.360
 4289SOL    HW213767   0.367   2.583   5.240
 4290SOL     OW13768   0.317   0.257   3.207
 4290SOL    HW113769   0.253   0.181   3.191
 4290SOL    HW213770   0.291   0.304   3.291
 4291SOL     OW13771   4.824   3.157   6.082
 4291SOL    HW113772   4.828   3.071   6.030
 4291SOL    HW213773   4.821   3.234   6.018
 4292SOL     OW13774   4.887   2.119   6.978
 4292SOL    HW113775   4.847   2.195   6.927
 4292SOL    HW213776   4.924   2.052   6.914
 4293SOL     OW13777   5.223   3.758   6.811
 4293SOL    HW113778   5.204   3.762   6.713
 4293SOL    HW213779   5.227   3.851   6.848
 4294SOL     OW13780   2.783   1.877   6.209
 4294SOL    HW113781   2.796   1.971   6.241
 4294SOL    HW213782   2.843   1.861   6.130
 4295SOL     OW13783   4.126   6.547   2.386
 4295SOL    HW113784   4.167   6.629   2.345
 4295SOL    HW213785   4.148   6.543   2.483
 4296SOL     OW13786   2.914   6.581   0.970
 4296SOL    HW113787   2.887   6.552   1.062
 4296SOL    HW213788   2.853   6.540   0.903
 4297SOL     OW13789   6.768   5.505   1.096
 4297SOL    HW113790   6.719   5.589   1.073
 4297SOL    HW213791   6.867   5.523   1.097
 4298SOL     OW13792   3.842   6.041   1.398
 4298SOL    HW113793   3.935   6.004   1.394
 4298SOL    HW213794   3.802   6.041   1.306
 4299SOL     OW13795   0.973   2.731   7.002
 4299SOL    HW113796   1.031   2.734   0.065
 4299SOL    HW213797   0.941   2.824   6.981
 4300SOL     OW13798   3.143   0.275   0.967
 4300SOL    HW113799   3.233   0.314   0.984
 4300SOL    HW213800   3.089   0.338   0.911
 4301SOL     OW13801   2.940   6.024   1.636
 4301SOL    HW113802   3.002   6.096   1.606
 4301SOL    HW213803   2.971   5.988   1.724
 4302SOL     OW13804   0.251   6.772   6.756
 4302SOL    HW113805   0.254   6.821   6.843
 4302SOL    HW213806   0.311   6.692   6.761
 4303SOL     OW13807   6.984   4.968   3.762
 4303SOL    HW113808   6.897   5.014   3.777
 4303SOL    HW213809   6.990   4.889   3.823
 4304SOL     OW13810   3.514   4.185   1.951
 4304SOL    HW113811   3.576   4.211   2.025
 4304SOL    HW213812   3.426   4.157   1.990
 4305SOL     OW13813   0.810   6.990   5.498
 4305SOL    HW113814   0.765   0.005   5.580
 4305SOL    HW213815   0.789   6.893   5.485
 4306SOL     OW13816   4.930   3.869   4.612
 4306SOL    HW113817   4.940   3.792   4.674
 4306SOL    HW213818   4.959   3.953   4.658
 4307SOL     OW13819   6.179   2.726   5.756
 4307SOL    HW113820   6.104   2.693   5.698
 4307SOL    HW213821   6.210   2.814   5.722
 4308SOL     OW13822   5.159   5.332   1.654
 4308SOL    HW113823   5.120   5.420   1.682
 4308SOL    HW213824   5.178   5.276   1.735
 4309SOL     OW13825   0.899   3.461   6.574
 4309SOL    HW113826   0.864   3.427   6.661
 4309SOL    HW213827   0.909   3.560   6.578
 4310SOL     OW13828   1.502   2.233   2.838
 4310SOL    HW113829   1.517   2.247   2.740
 4310SOL    HW213830   1.514   2.136   2.861
 4311SOL     OW13831   1.370   6.442   2.242
 4311SOL    HW113832   1.316   6.475   2.319
 4311SOL    HW213833   1.377   6.515   2.173
 4312SOL     OW13834   1.099   5.072   2.046
 4312SOL    HW113835   1.053   5.095   2.132
 4312SOL    HW213836   1.156   4.991   2.059
 4313SOL     OW13837   4.960   1.967   0.387
 4313SOL    HW113838   5.025   1.909   0.437
 4313SOL    HW213839   4.903   1.909   0.328
 4314SOL     OW13840   6.671   2.610   6.019
 4314SOL    HW113841   6.703   2.518   5.997
 4314SOL    HW213842   6.730   2.677   5.974
 4315SOL     OW13843   1.842   1.779   3.015
 4315SOL    HW113844   1.913   1.812   3.078
 4315SOL    HW213845   1.786   1.855   2.984
 4316SOL     OW13846   4.939   0.593   2.711
 4316SOL    HW113847   4.998   0.647   2.651
 4316SOL    HW213848   4.917   0.506   2.666
 4317SOL     OW13849   4.438   0.723   5.275
 4317SOL    HW113850   4.463   0.809   5.230
 4317SOL    HW213851   4.499   0.708   5.353
 4318SOL     OW13852   0.591   1.036   4.448
 4318SOL    HW113853   0.575   0.948   4.494
 4318SOL    HW213854   0.504   1.074   4.418
 4319SOL     OW13855   1.691   2.018   1.803
 4319SOL    HW113856   1.671   1.974   1.715
 4319SOL    HW213857   1.645   2.106   1.807
 4320SOL     OW13858   3.890   6.319   0.550
 4320SOL    HW113859   3.848   6.236   0.515
 4320SOL    HW213860   3.818   6.383   0.578
 4321SOL     OW13861   6.765   5.862   3.127
 4321SOL    HW113862   6.797   5.882   3.034
 4321SOL    HW213863   6.840   5.820   3.180
 4322SOL     OW13864   0.682   2.579   5.157
 4322SOL    HW113865   0.609   2.540   5.101
 4322SOL    HW213866   0.668   2.556   5.253
 4323SOL     OW13867   4.301   5.306   7.016
 4323SOL    HW113868   4.294   5.238   0.071
 4323SOL    HW213869   4.381   5.286   6.960
 4324SOL     OW13870   0.029   3.775   5.504
 4324SOL    HW113871   0.000   3.688   5.543
 4324SOL    HW213872   0.127   3.774   5.488
 4325SOL     OW13873   3.202   1.023   3.013
 4325SOL    HW113874   3.234   1.027   2.918
 4325SOL    HW213875   3.132   0.952   3.021
 4326SOL     OW13876   5.128   2.886   2.354
 4326SOL    HW113877   5.172   2.799   2.334
 4326SOL    HW213878   5.029   2.877   2.342
 4327SOL     OW13879   3.499   5.463   3.240
 4327SOL    HW113880   3.539   5.499   3.156
 4327SOL    HW213881   3.543   5.505   3.319
 4328SOL     OW13882   5.913   4.842   5.328
 4328SOL    HW113883   5.982   4.890   5.383
 4328SOL    HW213884   5.936   4.745   5.324
 4329SOL     OW13885   5.846   3.293   5.319
 4329SOL    HW113886   5.816   3.388   5.306
 4329SOL    HW213887   5.910   3.289   5.395
 4330SOL     OW13888   2.473   6.128   5.088
 4330SOL    HW113889   2.561   6.155   5.128
 4330SOL    HW213890   2.480   6.128   4.988
 4331SOL     OW13891   6.977   0.485   1.435
 4331SOL    HW113892   6.945   0.406   1.382
 4331SOL    HW213893   0.042   0.521   1.393
 4332SOL     OW13894   6.096   3.611   2.994
 4332SOL    HW113895   6.162   3.638   3.064
 4332SOL    HW213896   6.144   3.574   2.914
 4333SOL     OW13897   4.706   2.239   4.861
 4333SOL    HW113898   4.792   2.207   4.821
 4333SOL    HW213899   4.718   2.250   4.960
 4334SOL     OW13900   1.011   2.743   2.514
 4334SOL    HW113901   1.107   2.720   2.495
 4334SOL    HW213902   1.000   2.759   2.612
 4335SOL     OW13903   3.067   2.815   0.662
 4335SOL    HW113904   2.977   2.814   0.618
 4335SOL    HW213905   3.076   2.899   0.715
 4336SOL     OW13906   1.946   5.413   5.568
 4336SOL    HW113907   2.022   5.374   5.516
 4336SOL    HW213908   1.886   5.339   5.600
 4337SOL     OW13909   1.347   5.818   2.624
 4337SOL    HW113910   1.247   5.819   2.612
 4337SOL    HW213911   1.389   5.874   2.552
 4338SOL     OW13912   6.417   6.891   5.974
 4338SOL    HW113913   6.354   6.833   5.922
 4338SOL    HW213914   6.380   6.984   5.979
 4339SOL     OW13915   3.892   2.538   0.016
 4339SOL    HW113916   3.810   2.553   6.979
 4339SOL    HW213917   3.866   2.506   0.107
 4340SOL     OW13918   6.236   3.341   0.858
 4340SOL    HW113919   6.138   3.326   0.856
 4340SOL    HW213920   6.272   3.346   0.765
 4341SOL     OW13921   0.864   5.734   2.023
 4341SOL    HW113922   0.816   5.810   2.067
 4341SOL    HW213923   0.913   5.768   1.943
 4342SOL     OW13924   4.913   3.484   2.699
 4342SOL    HW113925   5.011   3.462   2.697
 4342SOL    HW213926   4.860   3.400   2.715
 4343SOL     OW13927   3.653   0.289   5.640
 4343SOL    HW113928   3.578   0.308   5.704
 4343SOL    HW213929   3.663   0.366   5.577
 4344SOL     OW13930   0.385   3.198   4.008
 4344SOL    HW113931   0.379   3.105   3.971
 4344SOL    HW213932   0.432   3.196   4.096
 4345SOL     OW13933   2.875   3.522   2.525
 4345SOL    HW113934   2.899   3.608   2.570
 4345SOL    HW213935   2.775   3.518   2.513
 4346SOL     OW13936   2.224   2.928   3.040
 4346SOL    HW113937   2.126   2.950   3.038
 4346SOL    HW213938   2.247   2.872   2.960
 4347SOL     OW13939   6.165   5.686   1.293
 4347SOL    HW113940   6.229   5.723   1.225
 4347SOL    HW213941   6.095   5.632   1.247
 4348SOL     OW13942   6.795   6.280   3.836
 4348SOL    HW113943   6.895   6.277   3.838
 4348SOL    HW213944   6.762   6.339   3.910
 4349SOL     OW13945   0.435   4.350   3.547
 4349SOL    HW113946   0.381   4.275   3.585
 4349SOL    HW213947   0.376   4.408   3.491
 4350SOL     OW13948   5.792   1.490   4.837
 4350SOL    HW113949   5.875   1.542   4.817
 4350SOL    HW213950   5.720   1.518   4.774
 4351SOL     OW13951   1.304   6.307   1.659
 4351SOL    HW113952   1.253   6.222   1.670
 4351SOL    HW213953   1.277   6.352   1.574
 4352SOL     OW13954   5.505   4.384   1.295
 4352SOL    HW113955   5.522   4.382   1.393
 4352SOL    HW213956   5.431   4.320   1.273
 4353SOL     OW13957   3.324   3.409   6.786
 4353SOL    HW113958   3.283   3.478   6.726
 4353SOL    HW213959   3.409   3.445   6.824
 4354SOL     OW13960   0.317   0.260   4.718
 4354SOL    HW113961   0.352   0.311   4.797
 4354SOL    HW213962   0.287   0.324   4.648
 4355SOL     OW13963   1.325   0.203   4.114
 4355SOL    HW113964   1.421   0.219   4.091
 4355SOL    HW213965   1.271   0.284   4.089
 4356SOL     OW13966   4.901   2.959   5.883
 4356SOL    HW113967   4.956   2.905   5.819
 4356SOL    HW213968   4.905   3.056   5.856
 4357SOL     OW13969   6.798   1.364   2.259
 4357SOL    HW113970   6.898   1.373   2.260
 4357SOL    HW213971   6.763   1.400   2.172
 4358SOL     OW13972   0.129   1.166   0.203
 4358SOL    HW113973   0.214   1.121   0.231
 4358SOL    HW213974   0.051   1.121   0.247
 4359SOL     OW13975   2.346   0.716   6.142
 4359SOL    HW113976   2.318   0.724   6.046
 4359SOL    HW213977   2.301   0.636   6.183
 4360SOL     OW13978   0.680   2.760   3.305
 4360SOL    HW113979   0.751   2.808   3.357
 4360SOL    HW213980   0.722   2.691   3.247
 4361SOL     OW13981   1.664   2.359   1.190
 4361SOL    HW113982   1.669   2.428   1.117
 4361SOL    HW213983   1.645   2.269   1.149
 4362SOL     OW13984   0.767   6.447   4.088
 4362SOL    HW113985   0.748   6.350   4.073
 4362SOL    HW213986   0.802   6.460   4.181
 4363SOL     OW13987   4.332   0.688   3.277
 4363SOL    HW113988   4.299   0.604   3.321
 4363SOL    HW213989   4.260   0.726   3.220
 4364SOL     OW13990   2.971   3.777   2.644
 4364SOL    HW113991   3.000   3.864   2.606
 4364SOL    HW213992   3.050   3.718   2.656
 4365SOL     OW13993   2.987   1.950   1.546
 4365SOL    HW113994   2.891   1.976   1.538
 4365SOL    HW213995   3.008   1.930   1.642
 4366SOL     OW13996   5.469   5.542   5.523
 4366SOL    HW113997   5.418   5.628   5.530
 4366SOL    HW213998   5.408   5.465   5.541
 4367SOL     OW13999   3.062   4.825   3.028
 4367SOL    HW114000   3.104   4.759   3.090
 4367SOL    HW214001   3.121   4.838   2.948
 4368SOL     OW14002   4.600   5.956   2.628
 4368SOL    HW114003   4.693   5.962   2.664
 4368SOL    HW214004   4.598   5.991   2.535
 4369SOL     OW14005   5.199   5.493   3.300
 4369SOL    HW114006   5.153   5.467   3.385
 4369SOL    HW214007   5.252   5.415   3.267
 4370SOL     OW14008   3.884   4.071   1.504
 4370SOL    HW114009   3.930   4.030   1.425
 4370SOL    HW214010   3.786   4.077   1.486
 4371SOL     OW14011   2.677   0.279   2.190
 4371SOL    HW114012   2.648   0.344   2.259
 4371SOL    HW214013   2.600   0.257   2.129
 4372SOL     OW14014   1.410   2.559   4.877
 4372SOL    HW114015   1.412   2.500   4.958
 4372SOL    HW214016   1.322   2.548   4.831
 4373SOL     OW14017   4.652   0.812   6.187
 4373SOL    HW114018   4.711   0.769   6.119
 4373SOL    HW214019   4.621   0.901   6.153
 4374SOL     OW14020   2.407   1.929   1.229
 4374SOL    HW114021   2.325   1.901   1.280
 4374SOL    HW214022   2.420   1.867   1.151
 4375SOL     OW14023   3.650   0.150   3.493
 4375SOL    HW114024   3.707   0.086   3.545
 4375SOL    HW214025   3.709   0.217   3.448
 4376SOL     OW14026   6.596   6.124   1.099
 4376SOL    HW114027   6.563   6.126   1.194
 4376SOL    HW214028   6.634   6.213   1.075
 4377SOL     OW14029   6.113   6.145   0.126
 4377SOL    HW114030   6.072   6.095   0.049
 4377SOL    HW214031   6.043   6.159   0.197
 4378SOL     OW14032   1.721   5.452   2.226
 4378SOL    HW114033   1.819   5.467   2.239
 4378SOL    HW214034   1.696   5.361   2.260
 4379SOL     OW14035   1.705   0.589   1.676
 4379SOL    HW114036   1.650   0.647   1.615
 4379SOL    HW214037   1.773   0.646   1.723
 4380SOL     OW14038   2.015   5.878   4.897
 4380SOL    HW114039   2.058   5.967   4.886
 4380SOL    HW214040   2.003   5.858   4.994
 4381SOL     OW14041   3.632   5.531   4.568
 4381SOL    HW114042   3.562   5.489   4.625
 4381SOL    HW214043   3.595   5.614   4.525
 4382SOL     OW14044   4.796   4.606   4.346
 4382SOL    HW114045   4.747   4.557   4.418
 4382SOL    HW214046   4.749   4.692   4.326
 4383SOL     OW14047   1.500   1.930   5.781
 4383SOL    HW114048   1.545   2.001   5.728
 4383SOL    HW214049   1.528   1.840   5.746
 4384SOL     OW14050   4.228   0.389   1.364
 4384SOL    HW114051   4.265   0.352   1.279
 4384SOL    HW214052   4.154   0.331   1.397
 4385SOL     OW14053   0.147   1.580   3.854
 4385SOL    HW114054   0.183   1.621   3.770
 4385SOL    HW214055   0.101   1.649   3.909
 4386SOL     OW14056   1.066   4.064   6.513
 4386SOL    HW114057   1.111   4.153   6.509
 4386SOL    HW214058   1.040   4.044   6.607
 4387SOL     OW14059   6.479   2.641   1.010
 4387SOL    HW114060   6.546   2.697   1.059
 4387SOL    HW214061   6.433   2.697   0.942
 4388SOL     OW14062   3.963   0.569   6.499
 4388SOL    HW114063   3.965   0.575   6.599
 4388SOL    HW214064   4.023   0.638   6.460
 4389SOL     OW14065   5.454   2.172   1.616
 4389SOL    HW114066   5.473   2.270   1.630
 4389SOL    HW214067   5.539   2.126   1.588
 4390SOL     OW14068   4.604   2.087   1.889
 4390SOL    HW114069   4.529   2.036   1.930
 4390SOL    HW214070   4.577   2.119   1.798
 4391SOL     OW14071   1.432   5.759   6.147
 4391SOL    HW114072   1.453   5.766   6.050
 4391SOL    HW214073   1.469   5.839   6.195
 4392SOL     OW14074   5.168   3.262   4.937
 4392SOL    HW114075   5.124   3.225   5.019
 4392SOL    HW214076   5.100   3.271   4.864
 4393SOL     OW14077   4.784   0.135   3.911
 4393SOL    HW114078   4.710   0.103   3.851
 4393SOL    HW214079   4.836   0.057   3.945
 4394SOL     OW14080   5.979   5.689   2.672
 4394SOL    HW114081   5.984   5.766   2.609
 4394SOL    HW214082   5.884   5.660   2.683
 4395SOL     OW14083   4.574   1.672   1.147
 4395SOL    HW114084   4.563   1.772   1.152
 4395SOL    HW214085   4.489   1.632   1.112
 4396SOL     OW14086   2.041   1.873   4.252
 4396SOL    HW114087   2.053   1.900   4.348
 4396SOL    HW214088   2.123   1.827   4.220
 4397SOL     OW14089   0.527   1.417   3.905
 4397SOL    HW114090   0.522   1.434   3.806
 4397SOL    HW214091   0.439   1.381   3.937
 4398SOL     OW14092   1.453   4.398   4.603
 4398SOL    HW114093   1.399   4.338   4.544
 4398SOL    HW214094   1.506   4.342   4.667
 4399SOL     OW14095   2.535   0.572   0.719
 4399SOL    HW114096   2.446   0.528   0.707
 4399SOL    HW214097   2.582   0.533   0.798
 4400SOL     OW14098   1.835   6.840   4.359
 4400SOL    HW114099   1.846   6.936   4.330
 4400SOL    HW214100   1.824   6.782   4.279
 4401SOL     OW14101   5.900   5.884   5.466
 4401SOL    HW114102   5.860   5.917   5.381
 4401SOL    HW214103   5.872   5.944   5.541
 4402SOL     OW14104   1.084   5.689   3.130
 4402SOL    HW114105   1.001   5.726   3.089
 4402SOL    HW214106   1.120   5.754   3.197
 4403SOL     OW14107   6.508   0.172   3.344
 4403SOL    HW114108   6.558   0.165   3.258
 4403SOL    HW214109   6.502   0.082   3.387
 4404SOL     OW14110   1.269   3.613   4.331
 4404SOL    HW114111   1.191   3.575   4.281
 4404SOL    HW214112   1.287   3.558   4.412
 4405SOL     OW14113   3.053   4.609   5.572
 4405SOL    HW114114   3.003   4.642   5.652
 4405SOL    HW214115   3.152   4.621   5.588
 4406SOL     OW14116   4.856   4.975   1.111
 4406SOL    HW114117   4.842   5.038   1.187
 4406SOL    HW214118   4.945   4.992   1.070
 4407SOL     OW14119   0.024   5.941   0.636
 4407SOL    HW114120   7.004   5.862   0.683
 4407SOL    HW214121   0.097   5.981   0.691
 4408SOL     OW14122   4.552   0.400   0.834
 4408SOL    HW114123   4.532   0.302   0.840
 4408SOL    HW214124   4.608   0.427   0.912
 4409SOL     OW14125   4.041   1.272   1.514
 4409SOL    HW114126   3.988   1.313   1.440
 4409SOL    HW214127   3.980   1.235   1.583
 4410SOL     OW14128   2.531   4.273   0.016
 4410SOL    HW114129   2.436   4.286   0.047
 4410SOL    HW214130   2.533   4.200   6.966
 4411SOL     OW14131   3.245   3.276   3.087
 4411SOL    HW114132   3.166   3.223   3.117
 4411SOL    HW214133   3.216   3.338   3.013
 4412SOL     OW14134   4.715   1.543   5.663
 4412SOL    HW114135   4.760   1.555   5.751
 4412SOL    HW214136   4.646   1.614   5.650
 4413SOL     OW14137   4.527   5.753   4.591
 4413SOL    HW114138   4.500   5.832   4.647
 4413SOL    HW214139   4.592   5.783   4.521
 4414SOL     OW14140   4.871   4.978   2.473
 4414SOL    HW114141   4.825   5.065   2.459
 4414SOL    HW214142   4.939   4.987   2.547
 4415SOL     OW14143   5.652   3.774   6.274
 4415SOL    HW114144   5.746   3.805   6.286
 4415SOL    HW214145   5.593   3.852   6.255
 4416SOL     OW14146   2.873   1.659   3.837
 4416SOL    HW114147   2.849   1.670   3.741
 4416SOL    HW214148   2.960   1.705   3.854
 4417SOL     OW14149   6.919   4.449   2.653
 4417SOL    HW114150   7.003   4.479   2.608
 4417SOL    HW214151   6.921   4.475   2.749
 4418SOL     OW14152   4.218   6.668   4.002
 4418SOL    HW114153   4.194   6.708   4.090
 4418SOL    HW214154   4.228   6.569   4.013
 4419SOL     OW14155   5.924   5.486   0.301
 4419SOL    HW114156   5.824   5.488   0.311
 4419SOL    HW214157   5.966   5.476   0.391
 4420SOL     OW14158   4.540   0.898   0.700
 4420SOL    HW114159   4.548   0.969   0.629
 4420SOL    HW214160   4.607   0.916   0.772
 4421SOL     OW14161   2.543   1.464   2.265
 4421SOL    HW114162   2.625   1.512   2.295
 4421SOL    HW214163   2.491   1.522   2.203
 4422SOL     OW14164   2.927   3.179   5.903
 4422SOL    HW114165   2.967   3.161   5.813
 4422SOL    HW214166   2.953   3.271   5.933
 4423SOL     OW14167   1.465   2.305   5.487
 4423SOL    HW114168   1.458   2.358   5.402
 4423SOL    HW214169   1.418   2.353   5.561
 4424SOL     OW14170   4.974   6.511   3.236
 4424SOL    HW114171   5.032   6.441   3.279
 4424SOL    HW214172   4.898   6.532   3.297
 4425SOL     OW14173   3.717   5.467   6.176
 4425SOL    HW114174   3.786   5.398   6.198
 4425SOL    HW214175   3.659   5.435   6.101
 4426SOL     OW14176   7.005   0.985   5.548
 4426SOL    HW114177   0.048   0.981   5.469
 4426SOL    HW214178   6.918   0.940   5.525
 4427SOL     OW14179   0.422   0.884   3.281
 4427SOL    HW114180   0.364   0.960   3.312
 4427SOL    HW214181   0.411   0.872   3.183
 4428SOL     OW14182   2.798   4.996   4.239
 4428SOL    HW114183   2.793   4.950   4.328
 4428SOL    HW214184   2.706   5.021   4.209
 4429SOL     OW14185   3.164   0.056   3.575
 4429SOL    HW114186   3.253   0.031   3.615
 4429SOL    HW214187   3.173   0.143   3.527
 4430SOL     OW14188   4.551   2.465   3.258
 4430SOL    HW114189   4.582   2.394   3.320
 4430SOL    HW214190   4.511   2.423   3.176
 4431SOL     OW14191   2.779   1.216   2.540
 4431SOL    HW114192   2.829   1.165   2.470
 4431SOL    HW214193   2.686   1.232   2.510
 4432SOL     OW14194   3.437   2.895   3.633
 4432SOL    HW114195   3.531   2.862   3.641
 4432SOL    HW214196   3.392   2.893   3.722
 4433SOL     OW14197   6.107   0.162   3.412
 4433SOL    HW114198   6.106   0.114   3.499
 4433SOL    HW214199   6.095   0.260   3.428
 4434SOL     OW14200   4.686   1.350   4.167
 4434SOL    HW114201   4.785   1.362   4.178
 4434SOL    HW214202   4.645   1.435   4.135
 4435SOL     OW14203   3.555   3.090   0.791
 4435SOL    HW114204   3.483   3.022   0.803
 4435SOL    HW214205   3.640   3.056   0.832
 4436SOL     OW14206   3.160   1.782   6.728
 4436SOL    HW114207   3.214   1.838   6.665
 4436SOL    HW214208   3.084   1.740   6.678
 4437SOL     OW14209   4.236   0.823   4.401
 4437SOL    HW114210   4.166   0.753   4.386
 4437SOL    HW214211   4.198   0.914   4.380
 4438SOL     OW14212   4.459   1.594   0.085
 4438SOL    HW114213   4.521   1.588   0.164
 4438SOL    HW214214   4.466   1.685   0.044
 4439SOL     OW14215   0.975   5.199   1.420
 4439SOL    HW114216   1.008   5.291   1.437
 4439SOL    HW214217   0.876   5.195   1.436
 4440SOL     OW14218   1.848   5.463   0.141
 4440SOL    HW114219   1.760   5.446   0.097
 4440SOL    HW214220   1.921   5.424   0.085
 4441SOL     OW14221   6.391   1.901   1.828
 4441SOL    HW114222   6.428   1.981   1.876
 4441SOL    HW214223   6.292   1.912   1.816
 4442SOL     OW14224   3.474   6.359   3.686
 4442SOL    HW114225   3.465   6.421   3.764
 4442SOL    HW214226   3.526   6.404   3.614
 4443SOL     OW14227   1.353   2.185   6.703
 4443SOL    HW114228   1.453   2.177   6.705
 4443SOL    HW214229   1.321   2.171   6.609
 4444SOL     OW14230   3.828   6.104   6.528
 4444SOL    HW114231   3.927   6.114   6.520
 4444SOL    HW214232   3.804   6.089   6.624
 4445SOL     OW14233   1.338   1.227   6.284
 4445SOL    HW114234   1.359   1.137   6.322
 4445SOL    HW214235   1.262   1.219   6.219
 4446SOL     OW14236   6.059   1.026   1.451
 4446SOL    HW114237   5.964   1.001   1.436
 4446SOL    HW214238   6.069   1.125   1.446
 4447SOL     OW14239   5.116   3.457   5.352
 4447SOL    HW114240   5.094   3.484   5.259
 4447SOL    HW214241   5.084   3.527   5.416
 4448SOL     OW14242   3.136   4.047   0.053
 4448SOL    HW114243   3.121   3.949   0.067
 4448SOL    HW214244   3.055   4.087   0.011
 4449SOL     OW14245   3.415   0.565   5.887
 4449SOL    HW114246   3.501   0.594   5.929
 4449SOL    HW214247   3.412   0.597   5.792
 4450SOL     OW14248   3.262   2.878   3.081
 4450SOL    HW114249   3.332   2.925   3.134
 4450SOL    HW214250   3.275   2.779   3.088
 4451SOL     OW14251   5.795   4.328   2.572
 4451SOL    HW114252   5.721   4.282   2.620
 4451SOL    HW214253   5.775   4.426   2.565
 4452SOL     OW14254   6.189   6.444   4.919
 4452SOL    HW114255   6.133   6.502   4.977
 4452SOL    HW214256   6.130   6.384   4.865
 4453SOL     OW14257   5.987   3.059   1.185
 4453SOL    HW114258   6.046   3.139   1.179
 4453SOL    HW214259   5.938   3.060   1.273
 4454SOL     OW14260   5.340   2.124   1.052
 4454SOL    HW114261   5.402   2.091   1.123
 4454SOL    HW214262   5.387   2.125   0.964
 4455SOL     OW14263   2.985   6.091   1.330
 4455SOL    HW114264   2.909   6.034   1.361
 4455SOL    HW214265   3.049   6.036   1.277
 4456SOL     OW14266   2.417   5.490   2.461
 4456SOL    HW114267   2.451   5.467   2.552
 4456SOL    HW214268   2.341   5.428   2.438
 4457SOL     OW14269   4.271   2.659   6.695
 4457SOL    HW114270   4.297   2.716   6.616
 4457SOL    HW214271   4.173   2.644   6.694
 4458SOL     OW14272   1.992   2.950   6.569
 4458SOL    HW114273   1.912   2.890   6.566
 4458SOL    HW214274   2.013   2.983   6.476
 4459SOL     OW14275   5.089   7.015   4.136
 4459SOL    HW114276   5.023   6.976   4.072
 4459SOL    HW214277   5.133   6.941   4.186
 4460SOL     OW14278   2.218   2.912   6.305
 4460SOL    HW114279   2.156   2.989   6.292
 4460SOL    HW214280   2.277   2.903   6.224
 4461SOL     OW14281   1.062   7.007   2.752
 4461SOL    HW114282   1.031   6.990   2.846
 4461SOL    HW214283   1.003   0.056   2.709
 4462SOL     OW14284   6.731   4.160   1.091
 4462SOL    HW114285   6.759   4.068   1.118
 4462SOL    HW214286   6.678   4.202   1.165
 4463SOL     OW14287   1.712   2.765   6.814
 4463SOL    HW114288   1.669   2.718   6.892
 4463SOL    HW214289   1.745   2.854   6.843
 4464SOL     OW14290   6.076   4.965   0.619
 4464SOL    HW114291   6.092   4.879   0.571
 4464SOL    HW214292   6.068   4.948   0.717
 4465SOL     OW14293   1.932   6.334   2.523
 4465SOL    HW114294   2.006   6.317   2.589
 4465SOL    HW214295   1.950   6.283   2.439
 4466SOL     OW14296   0.788   0.816   2.749
 4466SOL    HW114297   0.820   0.829   2.655
 4466SOL    HW214298   0.836   0.880   2.809
 4467SOL     OW14299   1.034   6.792   3.253
 4467SOL    HW114300   1.114   6.829   3.300
 4467SOL    HW214301   1.039   6.692   3.252
 4468SOL     OW14302   0.729   2.000   0.222
 4468SOL    HW114303   0.640   1.975   0.262
 4468SOL    HW214304   0.726   2.096   0.193
 4469SOL     OW14305   3.046   6.607   1.928
 4469SOL    HW114306   2.966   6.547   1.921
 4469SOL    HW214307   3.104   6.595   1.848
 4470SOL     OW14308   5.319   3.664   1.672
 4470SOL    HW114309   5.303   3.691   1.577
 4470SOL    HW214310   5.352   3.570   1.676
 4471SOL     OW14311   0.247   2.807   0.102
 4471SOL    HW114312   0.321   2.779   0.164
 4471SOL    HW214313   0.172   2.740   0.108
 4472SOL     OW14314   1.771   4.349   2.871
 4472SOL    HW114315   1.804   4.261   2.838
 4472SOL    HW214316   1.791   4.357   2.968
 4473SOL     OW14317   0.021   0.368   4.938
 4473SOL    HW114318   0.080   0.364   5.018
 4473SOL    HW214319   7.006   0.276   4.917
 4474SOL     OW14320   3.024   0.181   2.604
 4474SOL    HW114321   2.962   0.105   2.589
 4474SOL    HW214322   3.047   0.224   2.517
 4475SOL     OW14323   1.289   3.718   1.218
 4475SOL    HW114324   1.211   3.779   1.226
 4475SOL    HW214325   1.372   3.771   1.203
 4476SOL     OW14326   5.270   6.329   3.004
 4476SOL    HW114327   5.332   6.281   3.066
 4476SOL    HW214328   5.201   6.265   2.970
 4477SOL     OW14329   1.625   0.341   6.680
 4477SOL    HW114330   1.587   0.249   6.688
 4477SOL    HW214331   1.628   0.368   6.584
 4478SOL     OW14332   2.559   6.523   2.554
 4478SOL    HW114333   2.490   6.588   2.587
 4478SOL    HW214334   2.544   6.434   2.596
 4479SOL     OW14335   1.353   0.389   6.326
 4479SOL    HW114336   1.335   0.377   6.228
 4479SOL    HW214337   1.273   0.358   6.378
 4480SOL     OW14338   2.006   3.356   4.444
 4480SOL    HW114339   1.950   3.431   4.409
 4480SOL    HW214340   2.062   3.389   4.521
 4481SOL     OW14341   2.159   6.516   4.480
 4481SOL    HW114342   2.251   6.492   4.448
 4481SOL    HW214343   2.141   6.612   4.459
 4482SOL     OW14344   0.767   3.964   4.160
 4482SOL    HW114345   0.786   3.892   4.093
 4482SOL    HW214346   0.678   4.006   4.140
 4483SOL     OW14347   0.029   3.246   0.978
 4483SOL    HW114348   0.004   3.177   1.047
 4483SOL    HW214349   7.015   3.336   1.007
 4484SOL     OW14350   3.859   2.022   5.423
 4484SOL    HW114351   3.762   2.012   5.398
 4484SOL    HW214352   3.913   2.039   5.340
 4485SOL     OW14353   4.944   2.550   6.428
 4485SOL    HW114354   4.925   2.642   6.462
 4485SOL    HW214355   5.038   2.545   6.395
 4486SOL     OW14356   6.803   4.024   4.859
 4486SOL    HW114357   6.768   4.061   4.946
 4486SOL    HW214358   6.777   3.927   4.851
 4487SOL     OW14359   2.375   3.162   6.877
 4487SOL    HW114360   2.290   3.115   6.856
 4487SOL    HW214361   2.360   3.227   6.951
 4488SOL     OW14362   5.655   2.634   6.320
 4488SOL    HW114363   5.576   2.584   6.283
 4488SOL    HW214364   5.648   2.636   6.420
 4489SOL     OW14365   5.443   5.727   4.374
 4489SOL    HW114366   5.464   5.637   4.336
 4489SOL    HW214367   5.347   5.732   4.399
 4490SOL     OW14368   5.520   1.584   1.436
 4490SOL    HW114369   5.496   1.679   1.416
 4490SOL    HW214370   5.609   1.582   1.482
 4491SOL     OW14371   1.029   3.295   2.746
 4491SOL    HW114372   1.058   3.237   2.669
 4491SOL    HW214373   0.987   3.238   2.817
 4492SOL     OW14374   5.391   2.584   0.602
 4492SOL    HW114375   5.382   2.628   0.691
 4492SOL    HW214376   5.352   2.491   0.607
 4493SOL     OW14377   4.078   5.041   4.622
 4493SOL    HW114378   4.131   5.126   4.619
 4493SOL    HW214379   4.137   4.967   4.654
 4494SOL     OW14380   7.018   2.593   5.873
 4494SOL    HW114381   6.948   2.663   5.877
 4494SOL    HW214382   0.052   2.602   5.788
 4495SOL     OW14383   5.102   6.760   3.413
 4495SOL    HW114384   5.070   6.673   3.377
 4495SOL    HW214385   5.033   6.831   3.397
 4496SOL     OW14386   5.316   4.937   0.485
 4496SOL    HW114387   5.340   4.970   0.393
 4496SOL    HW214388   5.291   4.840   0.480
 4497SOL     OW14389   5.464   5.964   0.003
 4497SOL    HW114390   5.483   6.051   0.048
 4497SOL    HW214391   5.529   5.951   6.947
 4498SOL     OW14392   0.268   3.574   6.566
 4498SOL    HW114393   0.208   3.611   6.637
 4498SOL    HW214394   0.361   3.564   6.603
 4499SOL     OW14395   6.324   3.187   4.145
 4499SOL    HW114396   6.384   3.267   4.147
 4499SOL    HW214397   6.366   3.112   4.196
 4500SOL     OW14398   2.948   3.683   4.079
 4500SOL    HW114399   2.982   3.693   3.986
 4500SOL    HW214400   2.973   3.764   4.133
 4501SOL     OW14401   0.890   3.721   5.721
 4501SOL    HW114402   0.874   3.810   5.679
 4501SOL    HW214403   0.891   3.651   5.649
 4502SOL     OW14404   2.047   2.659   5.926
 4502SOL    HW114405   2.056   2.559   5.931
 4502SOL    HW214406   2.071   2.689   5.834
 4503SOL     OW14407   2.366   0.950   3.393
 4503SOL    HW114408   2.311   0.966   3.475
 4503SOL    HW214409   2.411   0.861   3.400
 4504SOL     OW14410   6.478   2.359   5.536
 4504SOL    HW114411   6.501   2.364   5.439
 4504SOL    HW214412   6.413   2.431   5.559
 4505SOL     OW14413   0.474   6.010   4.943
 4505SOL    HW114414   0.458   5.959   4.859
 4505SOL    HW214415   0.388   6.023   4.991
 4506SOL     OW14416   4.080   1.983   4.525
 4506SOL    HW114417   4.096   2.061   4.465
 4506SOL    HW214418   3.989   1.946   4.507
 4507SOL     OW14419   4.912   4.653   1.735
 4507SOL    HW114420   4.848   4.587   1.696
 4507SOL    HW214421   4.890   4.668   1.831
 4508SOL     OW14422   1.541   3.907   6.792
 4508SOL    HW114423   1.479   3.951   6.728
 4508SOL    HW214424   1.509   3.814   6.810
 4509SOL     OW14425   4.443   1.802   4.361
 4509SOL    HW114426   4.525   1.845   4.322
 4509SOL    HW214427   4.457   1.703   4.366
 4510SOL     OW14428   5.371   0.145   5.001
 4510SOL    HW114429   5.397   0.221   5.059
 4510SOL    HW214430   5.445   0.078   4.999
 4511SOL     OW14431   0.266   3.161   6.619
 4511SOL    HW114432   0.272   3.153   6.519
 4511SOL    HW214433   0.225   3.078   6.657
 4512SOL     OW14434   2.492   6.658   6.108
 4512SOL    HW114435   2.435   6.667   6.027
 4512SOL    HW214436   2.585   6.688   6.087
 4513SOL     OW14437   4.895   6.658   1.470
 4513SOL    HW114438   4.806   6.670   1.514
 4513SOL    HW214439   4.902   6.565   1.434
 4514SOL     OW14440   3.811   1.128   4.726
 4514SOL    HW114441   3.854   1.158   4.641
 4514SOL    HW214442   3.876   1.136   4.801
 4515SOL     OW14443   6.603   4.151   0.204
 4515SOL    HW114444   6.553   4.194   0.278
 4515SOL    HW214445   6.591   4.204   0.120
 4516SOL     OW14446   1.150   1.136   6.089
 4516SOL    HW114447   1.088   1.059   6.100
 4516SOL    HW214448   1.100   1.216   6.055
 4517SOL     OW14449   2.645   6.911   5.950
 4517SOL    HW114450   2.673   6.877   5.860
 4517SOL    HW214451   2.695   6.862   6.021
 4518SOL     OW14452   0.093   2.529   3.785
 4518SOL    HW114453   0.070   2.432   3.794
 4518SOL    HW214454   0.016   2.578   3.742
 4519SOL     OW14455   0.186   1.571   2.489
 4519SOL    HW114456   0.113   1.639   2.491
 4519SOL    HW214457   0.259   1.599   2.551
 4520SOL     OW14458   5.858   4.918   2.967
 4520SOL    HW114459   5.916   4.903   3.047
 4520SOL    HW214460   5.788   4.986   2.989
 4521SOL     OW14461   5.033   2.024   5.923
 4521SOL    HW114462   5.007   2.041   6.018
 4521SOL    HW214463   4.965   2.063   5.861
 4522SOL     OW14464   4.936   6.920   3.923
 4522SOL    HW114465   4.985   6.902   3.838
 4522SOL    HW214466   4.879   6.842   3.946
 4523SOL     OW14467   2.202   4.249   6.843
 4523SOL    HW114468   2.231   4.159   6.809
 4523SOL    HW214469   2.103   4.249   6.857
 4524SOL     OW14470   5.431   1.700   5.660
 4524SOL    HW114471   5.400   1.628   5.723
 4524SOL    HW214472   5.523   1.679   5.627
 4525SOL     OW14473   6.650   1.711   3.973
 4525SOL    HW114474   6.682   1.791   4.023
 4525SOL    HW214475   6.636   1.635   4.037
 4526SOL     OW14476   5.218   0.091   1.380
 4526SOL    HW114477   5.197   0.015   1.442
 4526SOL    HW214478   5.216   0.176   1.431
 4527SOL     OW14479   4.368   0.979   3.757
 4527SOL    HW114480   4.428   0.920   3.810
 4527SOL    HW214481   4.353   0.938   3.667
 4528SOL     OW14482   4.776   6.575   0.019
 4528SOL    HW114483   4.830   6.493   0.041
 4528SOL    HW214484   4.742   6.616   0.103
 4529SOL     OW14485   2.655   0.994   3.374
 4529SOL    HW114486   2.697   1.083   3.357
 4529SOL    HW214487   2.559   1.008   3.401
 4530SOL     OW14488   0.399   3.486   5.808
 4530SOL    HW114489   0.489   3.528   5.818
 4530SOL    HW214490   0.333   3.531   5.869
 4531SOL     OW14491   1.228   3.873   3.235
 4531SOL    HW114492   1.324   3.856   3.211
 4531SOL    HW214493   1.184   3.787   3.261
 4532SOL     OW14494   6.997   1.730   1.909
 4532SOL    HW114495   6.902   1.760   1.900
 4532SOL    HW214496   0.031   1.763   1.831
 4533SOL     OW14497   1.600   0.580   3.468
 4533SOL    HW114498   1.546   0.588   3.384
 4533SOL    HW214499   1.697   0.570   3.446
 4534SOL     OW14500   6.260   3.427   5.097
 4534SOL    HW114501   6.212   3.460   5.178
 4534SOL    HW214502   6.288   3.505   5.041
 4535SOL     OW14503   4.392   1.891   2.445
 4535SOL    HW114504   4.492   1.901   2.440
 4535SOL    HW214505   4.354   1.971   2.491
 4536SOL     OW14506   4.892   1.369   4.547
 4536SOL    HW114507   4.865   1.463   4.526
 4536SOL    HW214508   4.837   1.334   4.622
 4537SOL     OW14509   3.661   3.133   6.333
 4537SOL    HW114510   3.702   3.069   6.267
 4537SOL    HW214511   3.570   3.159   6.301
 4538SOL     OW14512   3.226   2.018   3.969
 4538SOL    HW114513   3.307   2.018   4.028
 4538SOL    HW214514   3.255   2.034   3.875
 4539SOL     OW14515   2.725   2.287   4.029
 4539SOL    HW114516   2.795   2.216   4.033
 4539SOL    HW214517   2.734   2.337   3.943
 4540SOL     OW14518   3.991   3.480   3.892
 4540SOL    HW114519   3.907   3.526   3.864
 4540SOL    HW214520   4.061   3.548   3.912
 4541SOL     OW14521   5.252   0.379   0.215
 4541SOL    HW114522   5.257   0.409   0.311
 4541SOL    HW214523   5.293   0.449   0.156
 4542SOL     OW14524   6.104   6.185   2.030
 4542SOL    HW114525   6.186   6.137   1.999
 4542SOL    HW214526   6.051   6.126   2.090
 4543SOL     OW14527   4.449   1.391   6.864
 4543SOL    HW114528   4.354   1.420   6.877
 4543SOL    HW214529   4.509   1.472   6.867
 4544SOL     OW14530   2.555   6.099   6.518
 4544SOL    HW114531   2.611   6.162   6.464
 4544SOL    HW214532   2.518   6.147   6.597
 4545SOL     OW14533   4.644   2.433   5.226
 4545SOL    HW114534   4.708   2.489   5.277
 4545SOL    HW214535   4.694   2.365   5.172
 4546SOL     OW14536   0.946   6.954   6.447
 4546SOL    HW114537   0.896   0.016   6.415
 4546SOL    HW214538   0.931   6.878   6.383
 4547SOL     OW14539   5.795   3.118   1.951
 4547SOL    HW114540   5.703   3.116   1.991
 4547SOL    HW214541   5.855   3.059   2.004
 4548SOL     OW14542   1.302   5.287   3.973
 4548SOL    HW114543   1.316   5.386   3.978
 4548SOL    HW214544   1.390   5.240   3.977
 4549SOL     OW14545   6.803   3.536   3.160
 4549SOL    HW114546   6.816   3.551   3.062
 4549SOL    HW214547   6.893   3.530   3.205
 4550SOL     OW14548   0.791   5.818   3.889
 4550SOL    HW114549   0.739   5.840   3.972
 4550SOL    HW214550   0.731   5.828   3.810
 4551SOL     OW14551   6.994   1.889   5.351
 4551SOL    HW114552   6.948   1.816   5.300
 4551SOL    HW214553   0.064   1.909   5.307
 4552SOL     OW14554   0.164   3.153   5.924
 4552SOL    HW114555   0.148   3.233   5.981
 4552SOL    HW214556   0.262   3.133   5.921
 4553SOL     OW14557   4.130   4.887   6.545
 4553SOL    HW114558   4.107   4.792   6.568
 4553SOL    HW214559   4.181   4.928   6.621
 4554SOL     OW14560   4.064   1.267   1.920
 4554SOL    HW114561   4.073   1.345   1.858
 4554SOL    HW214562   4.088   1.183   1.871
 4555SOL     OW14563   4.432   1.339   6.476
 4555SOL    HW114564   4.464   1.245   6.489
 4555SOL    HW214565   4.467   1.397   6.549
 4556SOL     OW14566   4.147   1.137   3.824
 4556SOL    HW114567   4.219   1.087   3.776
 4556SOL    HW214568   4.114   1.083   3.900
 4557SOL     OW14569   5.043   0.353   4.631
 4557SOL    HW114570   4.953   0.383   4.662
 4557SOL    HW214571   5.094   0.314   4.708
 4558SOL     OW14572   6.704   3.941   6.690
 4558SOL    HW114573   6.678   3.958   6.785
 4558SOL    HW214574   6.746   4.022   6.651
 4559SOL     OW14575   1.668   6.660   2.142
 4559SOL    HW114576   1.697   6.625   2.231
 4559SOL    HW214577   1.717   6.744   2.122
 4560SOL     OW14578   5.235   4.301   3.053
 4560SOL    HW114579   5.231   4.300   2.953
 4560SOL    HW214580   5.232   4.207   3.087
 4561SOL     OW14581   2.586   0.480   0.984
 4561SOL    HW114582   2.490   0.482   1.012
 4561SOL    HW214583   2.643   0.520   1.056
 4562SOL     OW14584   2.867   5.731   5.354
 4562SOL    HW114585   2.858   5.684   5.266
 4562SOL    HW214586   2.891   5.664   5.425
 4563SOL     OW14587   5.494   3.442   0.342
 4563SOL    HW114588   5.428   3.492   0.397
 4563SOL    HW214589   5.552   3.507   0.293
 4564SOL     OW14590   1.278   5.515   1.357
 4564SOL    HW114591   1.282   5.434   1.416
 4564SOL    HW214592   1.183   5.541   1.343
 4565SOL     OW14593   0.278   1.484   5.317
 4565SOL    HW114594   0.281   1.521   5.224
 4565SOL    HW214595   0.369   1.491   5.358
 4566SOL     OW14596   6.802   0.603   0.411
 4566SOL    HW114597   6.830   0.580   0.318
 4566SOL    HW214598   6.766   0.696   0.413
 4567SOL     OW14599   0.354   1.175   0.878
 4567SOL    HW114600   0.275   1.113   0.875
 4567SOL    HW214601   0.323   1.267   0.856
 4568SOL     OW14602   1.858   4.168   4.972
 4568SOL    HW114603   1.939   4.187   5.027
 4568SOL    HW214604   1.885   4.139   4.881
 4569SOL     OW14605   1.848   2.209   3.806
 4569SOL    HW114606   1.804   2.282   3.755
 4569SOL    HW214607   1.784   2.170   3.871
 4570SOL     OW14608   6.899   6.168   3.200
 4570SOL    HW114609   6.837   6.109   3.252
 4570SOL    HW214610   6.870   6.263   3.209
 4571SOL     OW14611   3.514   3.880   4.795
 4571SOL    HW114612   3.508   3.889   4.894
 4571SOL    HW214613   3.448   3.812   4.764
 4572SOL     OW14614   0.376   7.003   1.051
 4572SOL    HW114615   0.322   6.926   1.016
 4572SOL    HW214616   0.400   6.986   1.147
 4573SOL     OW14617   6.039   5.724   0.676
 4573SOL    HW114618   5.981   5.765   0.746
 4573SOL    HW214619   6.094   5.796   0.633
 4574SOL     OW14620   0.201   4.861   0.909
 4574SOL    HW114621   0.192   4.778   0.854
 4574SOL    HW214622   0.191   4.942   0.851
 4575SOL     OW14623   0.262   1.902   0.615
 4575SOL    HW114624   0.236   1.814   0.576
 4575SOL    HW214625   0.288   1.890   0.711
 4576SOL     OW14626   2.828   5.741   6.306
 4576SOL    HW114627   2.907   5.756   6.366
 4576SOL    HW214628   2.860   5.732   6.211
 4577SOL     OW14629   0.355   3.580   2.895
 4577SOL    HW114630   0.315   3.656   2.844
 4577SOL    HW214631   0.453   3.573   2.873
 4578SOL     OW14632   0.732   3.975   3.537
 4578SOL    HW114633   0.665   3.912   3.498
 4578SOL    HW214634   0.688   4.029   3.609
 4579SOL     OW14635   4.413   1.265   2.946
 4579SOL    HW114636   4.486   1.332   2.939
 4579SOL    HW214637   4.380   1.242   2.855
 4580SOL     OW14638   6.445   5.078   0.755
 4580SOL    HW114639   6.378   5.150   0.738
 4580SOL    HW214640   6.455   5.021   0.674
 4581SOL     OW14641   3.253   4.861   2.563
 4581SOL    HW114642   3.213   4.770   2.560
 4581SOL    HW214643   3.332   4.865   2.501
 4582SOL     OW14644   5.935   6.532   4.578
 4582SOL    HW114645   6.023   6.494   4.604
 4582SOL    HW214646   5.861   6.473   4.613
 4583SOL     OW14647   3.092   1.880   4.936
 4583SOL    HW114648   3.148   1.910   5.013
 4583SOL    HW214649   3.114   1.785   4.914
 4584SOL     OW14650   0.524   5.760   6.337
 4584SOL    HW114651   0.560   5.852   6.353
 4584SOL    HW214652   0.435   5.766   6.292
 4585SOL     OW14653   2.726   6.306   2.970
 4585SOL    HW114654   2.798   6.320   3.038
 4585SOL    HW214655   2.721   6.387   2.911
 4586SOL     OW14656   3.403   4.842   1.027
 4586SOL    HW114657   3.349   4.797   1.097
 4586SOL    HW214658   3.367   4.934   1.011
 4587SOL     OW14659   4.281   3.503   1.772
 4587SOL    HW114660   4.244   3.466   1.858
 4587SOL    HW214661   4.344   3.437   1.732
 4588SOL     OW14662   4.077   3.410   5.442
 4588SOL    HW114663   4.131   3.330   5.417
 4588SOL    HW214664   4.095   3.484   5.378
 4589SOL     OW14665   5.681   1.883   2.598
 4589SOL    HW114666   5.697   1.972   2.640
 4589SOL    HW214667   5.640   1.821   2.664
 4590SOL     OW14668   4.439   6.019   1.805
 4590SOL    HW114669   4.403   5.968   1.883
 4590SOL    HW214670   4.416   5.971   1.721
 4591SOL     OW14671   6.908   5.885   5.364
 4591SOL    HW114672   6.845   5.936   5.423
 4591SOL    HW214673   6.979   5.842   5.420
 4592SOL     OW14674   3.973   3.022   1.311
 4592SOL    HW114675   4.035   3.032   1.232
 4592SOL    HW214676   3.997   2.939   1.361
 4593SOL     OW14677   4.732   5.212   3.243
 4593SOL    HW114678   4.723   5.304   3.280
 4593SOL    HW214679   4.783   5.215   3.157
 4594SOL     OW14680   4.153   1.490   1.746
 4594SOL    HW114681   4.122   1.583   1.726
 4594SOL    HW214682   4.208   1.456   1.669
 4595SOL     OW14683   3.515   2.884   6.493
 4595SOL    HW114684   3.481   2.978   6.501
 4595SOL    HW214685   3.614   2.883   6.511
 4596SOL     OW14686   6.108   6.447   2.105
 4596SOL    HW114687   6.091   6.490   2.016
 4596SOL    HW214688   6.102   6.348   2.096
 4597SOL     OW14689   5.336   5.292   6.644
 4597SOL    HW114690   5.382   5.233   6.710
 4597SOL    HW214691   5.277   5.236   6.585
 4598SOL     OW14692   1.148   5.125   6.407
 4598SOL    HW114693   1.054   5.155   6.425
 4598SOL    HW214694   1.147   5.042   6.352
 4599SOL     OW14695   1.515   3.501   1.092
 4599SOL    HW114696   1.424   3.521   1.054
 4599SOL    HW214697   1.566   3.443   1.028
 4600SOL     OW14698   3.130   5.175   5.913
 4600SOL    HW114699   3.155   5.152   6.007
 4600SOL    HW214700   3.064   5.108   5.879
 4601SOL     OW14701   1.792   1.145   5.151
 4601SOL    HW114702   1.847   1.066   5.174
 4601SOL    HW214703   1.798   1.163   5.053
 4602SOL     OW14704   1.340   6.712   1.574
 4602SOL    HW114705   1.341   6.812   1.564
 4602SOL    HW214706   1.428   6.681   1.610
 4603SOL     OW14707   3.525   6.348   1.132
 4603SOL    HW114708   3.431   6.320   1.112
 4603SOL    HW214709   3.524   6.433   1.185
 4604SOL     OW14710   4.208   0.988   0.961
 4604SOL    HW114711   4.142   0.982   1.037
 4604SOL    HW214712   4.176   1.056   0.895
 4605SOL     OW14713   5.036   0.709   3.902
 4605SOL    HW114714   5.061   0.793   3.950
 4605SOL    HW214715   5.018   0.637   3.969
 4606SOL     OW14716   0.152   6.909   2.930
 4606SOL    HW114717   0.249   6.929   2.918
 4606SOL    HW214718   0.129   6.823   2.883
 4607SOL     OW14719   2.277   1.971   0.689
 4607SOL    HW114720   2.313   2.001   0.777
 4607SOL    HW214721   2.334   2.006   0.615
 4608SOL     OW14722   1.317   5.030   5.102
 4608SOL    HW114723   1.349   5.062   5.013
 4608SOL    HW214724   1.238   5.085   5.130
 4609SOL     OW14725   4.550   5.647   6.321
 4609SOL    HW114726   4.545   5.621   6.224
 4609SOL    HW214727   4.538   5.565   6.377
 4610SOL     OW14728   7.012   2.429   0.329
 4610SOL    HW114729   6.915   2.452   0.325
 4610SOL    HW214730   0.030   2.454   0.419
 4611SOL     OW14731   6.809   3.935   0.218
 4611SOL    HW114732   6.760   4.021   0.232
 4611SOL    HW214733   6.897   3.954   0.175
 4612SOL     OW14734   1.849   6.360   6.840
 4612SOL    HW114735   1.829   6.271   6.799
 4612SOL    HW214736   1.763   6.402   6.871
 4613SOL     OW14737   2.448   5.883   2.801
 4613SOL    HW114738   2.499   5.963   2.833
 4613SOL    HW214739   2.475   5.862   2.707
 4614SOL     OW14740   1.839   5.001   6.213
 4614SOL    HW114741   1.813   5.050   6.296
 4614SOL    HW214742   1.879   4.912   6.238
 4615SOL     OW14743   1.711   1.468   0.224
 4615SOL    HW114744   1.619   1.452   0.260
 4615SOL    HW214745   1.708   1.466   0.124
 4616SOL     OW14746   6.833   0.696   6.449
 4616SOL    HW114747   6.816   0.748   6.366
 4616SOL    HW214748   6.913   0.732   6.496
 4617SOL     OW14749   1.127   2.565   2.264
 4617SOL    HW114750   1.130   2.466   2.279
 4617SOL    HW214751   1.047   2.587   2.208
 4618SOL     OW14752   1.395   2.420   5.108
 4618SOL    HW114753   1.406   2.478   5.189
 4618SOL    HW214754   1.467   2.351   5.106
 4619SOL     OW14755   4.464   7.007   3.500
 4619SOL    HW114756   4.377   6.968   3.471
 4619SOL    HW214757   4.507   0.034   3.422
 4620SOL     OW14758   3.336   3.930   6.823
 4620SOL    HW114759   3.255   3.878   6.794
 4620SOL    HW214760   3.311   4.024   6.842
 4621SOL     OW14761   6.472   2.210   4.852
 4621SOL    HW114762   6.380   2.242   4.875
 4621SOL    HW214763   6.538   2.282   4.871
 4622SOL     OW14764   1.415   2.711   0.918
 4622SOL    HW114765   1.419   2.805   0.951
 4622SOL    HW214766   1.321   2.678   0.925
 4623SOL     OW14767   0.462   5.270   1.064
 4623SOL    HW114768   0.465   5.216   0.981
 4623SOL    HW214769   0.500   5.361   1.047
 4624SOL     OW14770   4.766   0.574   4.061
 4624SOL    HW114771   4.686   0.515   4.052
 4624SOL    HW214772   4.841   0.539   4.005
 4625SOL     OW14773   1.481   4.133   6.941
 4625SOL    HW114774   1.502   4.044   6.901
 4625SOL    HW214775   1.408   4.177   6.888
 4626SOL     OW14776   6.196   4.901   1.668
 4626SOL    HW114777   6.295   4.910   1.675
 4626SOL    HW214778   6.173   4.812   1.629
 4627SOL     OW14779   3.418   5.747   5.455
 4627SOL    HW114780   3.501   5.754   5.399
 4627SOL    HW214781   3.351   5.691   5.407
 4628SOL     OW14782   5.738   4.350   2.927
 4628SOL    HW114783   5.724   4.449   2.926
 4628SOL    HW214784   5.766   4.321   3.019
 4629SOL     OW14785   2.116   4.850   6.064
 4629SOL    HW114786   2.099   4.848   6.162
 4629SOL    HW214787   2.066   4.926   6.022
 4630SOL     OW14788   3.124   5.597   3.627
 4630SOL    HW114789   3.158   5.584   3.534
 4630SOL    HW214790   3.186   5.554   3.692
 4631SOL     OW14791   2.753   6.921   3.767
 4631SOL    HW114792   2.826   6.966   3.820
 4631SOL    HW214793   2.688   6.990   3.735
 4632SOL     OW14794   4.578   5.057   2.979
 4632SOL    HW114795   4.511   5.049   3.053
 4632SOL    HW214796   4.540   5.113   2.905
 4633SOL     OW14797   6.725   1.469   4.416
 4633SOL    HW114798   6.767   1.397   4.471
 4633SOL    HW214799   6.676   1.532   4.476
 4634SOL     OW14800   2.965   4.570   6.504
 4634SOL    HW114801   2.979   4.512   6.585
 4634SOL    HW214802   3.020   4.653   6.514
 4635SOL     OW14803   5.834   3.265   2.349
 4635SOL    HW114804   5.862   3.331   2.418
 4635SOL    HW214805   5.905   3.195   2.339
 4636SOL     OW14806   2.939   5.183   6.846
 4636SOL    HW114807   2.983   5.167   6.758
 4636SOL    HW214808   2.864   5.119   6.858
 4637SOL     OW14809   1.496   0.789   6.780
 4637SOL    HW114810   1.476   0.885   6.797
 4637SOL    HW214811   1.499   0.773   6.681
 4638SOL     OW14812   4.001   2.680   6.430
 4638SOL    HW114813   4.027   2.776   6.422
 4638SOL    HW214814   4.009   2.652   6.526
 4639SOL     OW14815   1.241   4.070   5.726
 4639SOL    HW114816   1.237   4.144   5.794
 4639SOL    HW214817   1.301   4.098   5.651
 4640SOL     OW14818   5.023   5.401   4.175
 4640SOL    HW114819   4.992   5.400   4.270
 4640SOL    HW214820   5.071   5.487   4.156
 4641SOL     OW14821   2.635   5.170   4.534
 4641SOL    HW114822   2.653   5.265   4.508
 4641SOL    HW214823   2.620   5.165   4.632
 4642SOL     OW14824   6.239   5.584   5.177
 4642SOL    HW114825   6.182   5.591   5.259
 4642SOL    HW214826   6.273   5.675   5.152
 4643SOL     OW14827   4.648   2.428   0.129
 4643SOL    HW114828   4.594   2.506   0.099
 4643SOL    HW214829   4.704   2.395   0.053
 4644SOL     OW14830   1.416   5.337   5.340
 4644SOL    HW114831   1.420   5.240   5.365
 4644SOL    HW214832   1.372   5.346   5.251
 4645SOL     OW14833   1.765   0.095   4.306
 4645SOL    HW114834   1.667   0.105   4.316
 4645SOL    HW214835   1.789   0.097   4.208
 4646SOL     OW14836   2.668   6.753   2.253
 4646SOL    HW114837   2.696   6.705   2.336
 4646SOL    HW214838   2.609   6.693   2.199
 4647SOL     OW14839   0.944   6.624   2.959
 4647SOL    HW114840   0.991   6.567   2.892
 4647SOL    HW214841   0.887   6.692   2.911
 4648SOL     OW14842   3.426   6.705   1.544
 4648SOL    HW114843   3.498   6.636   1.530
 4648SOL    HW214844   3.364   6.705   1.466
 4649SOL     OW14845   5.026   0.822   5.425
 4649SOL    HW114846   4.996   0.729   5.405
 4649SOL    HW214847   5.123   0.831   5.404
 4650SOL     OW14848   3.881   5.834   3.001
 4650SOL    HW114849   3.919   5.854   3.091
 4650SOL    HW214850   3.935   5.880   2.931
 4651SOL     OW14851   0.180   2.168   1.733
 4651SOL    HW114852   0.132   2.124   1.656
 4651SOL    HW214853   0.193   2.265   1.713
 4652SOL     OW14854   0.676   6.995   3.763
 4652SOL    HW114855   0.583   0.010   3.773
 4652SOL    HW214856   0.732   0.013   3.837
 4653SOL     OW14857   6.601   5.651   0.356
 4653SOL    HW114858   6.695   5.630   0.384
 4653SOL    HW214859   6.603   5.724   0.287
 4654SOL     OW14860   0.636   0.221   0.411
 4654SOL    HW114861   0.641   0.273   0.325
 4654SOL    HW214862   0.579   0.271   0.477
 4655SOL     OW14863   0.529   4.894   2.315
 4655SOL    HW114864   0.439   4.871   2.354
 4655SOL    HW214865   0.516   4.938   2.226
 4656SOL     OW14866   1.043   6.957   3.029
 4656SOL    HW114867   1.117   7.009   3.072
 4656SOL    HW214868   1.027   6.873   3.081
 4657SOL     OW14869   5.389   6.945   2.068
 4657SOL    HW114870   5.447   6.979   1.994
 4657SOL    HW214871   5.408   6.995   2.152
 4658SOL     OW14872   3.718   0.645   2.599
 4658SOL    HW114873   3.731   0.649   2.698
 4658SOL    HW214874   3.668   0.562   2.575
 4659SOL     OW14875   1.817   3.229   5.008
 4659SOL    HW114876   1.858   3.145   4.972
 4659SOL    HW214877   1.800   3.293   4.932
 4660SOL     OW14878   1.202   2.115   4.489
 4660SOL    HW114879   1.295   2.117   4.452
 4660SOL    HW214880   1.206   2.091   4.586
 4661SOL     OW14881   3.728   3.718   4.717
 4661SOL    HW114882   3.711   3.637   4.660
 4661SOL    HW214883   3.645   3.742   4.767
 4662SOL     OW14884   4.821   0.624   5.317
 4662SOL    HW114885   4.749   0.690   5.337
 4662SOL    HW214886   4.798   0.574   5.233
 4663SOL     OW14887   6.622   1.712   2.834
 4663SOL    HW114888   6.568   1.733   2.916
 4663SOL    HW214889   6.665   1.622   2.845
 4664SOL     OW14890   2.344   2.252   6.561
 4664SOL    HW114891   2.293   2.220   6.640
 4664SOL    HW214892   2.304   2.338   6.527
 4665SOL     OW14893   4.681   6.905   6.814
 4665SOL    HW114894   4.747   6.831   6.821
 4665SOL    HW214895   4.719   6.978   6.756
 4666SOL     OW14896   2.514   1.074   6.923
 4666SOL    HW114897   2.527   0.979   6.950
 4666SOL    HW214898   2.419   1.101   6.940
 4667SOL     OW14899   6.764   4.815   0.065
 4667SOL    HW114900   6.786   4.885   7.016
 4667SOL    HW214901   6.681   4.840   0.114
 4668SOL     OW14902   0.202   1.507   4.273
 4668SOL    HW114903   0.275   1.566   4.238
 4668SOL    HW214904   0.117   1.527   4.225
 4669SOL     OW14905   3.085   6.550   0.443
 4669SOL    HW114906   3.109   6.644   0.419
 4669SOL    HW214907   3.066   6.545   0.541
 4670SOL     OW14908   3.412   1.093   5.090
 4670SOL    HW114909   3.412   1.125   5.184
 4670SOL    HW214910   3.497   1.121   5.045
 4671SOL     OW14911   5.755   3.518   1.465
 4671SOL    HW114912   5.730   3.580   1.540
 4671SOL    HW214913   5.695   3.438   1.467
 4672SOL     OW14914   2.632   4.971   6.018
 4672SOL    HW114915   2.726   4.976   6.053
 4672SOL    HW214916   2.628   5.011   5.927
 4673SOL     OW14917   3.912   0.184   1.157
 4673SOL    HW114918   3.823   0.224   1.179
 4673SOL    HW214919   3.917   0.166   1.059
 4674SOL     OW14920   5.514   6.016   6.499
 4674SOL    HW114921   5.475   6.008   6.408
 4674SOL    HW214922   5.538   5.925   6.533
 4675SOL     OW14923   0.821   3.661   0.944
 4675SOL    HW114924   0.756   3.589   0.921
 4675SOL    HW214925   0.777   3.728   1.003
 4676SOL     OW14926   0.762   5.292   3.578
 4676SOL    HW114927   0.804   5.228   3.641
 4676SOL    HW214928   0.832   5.330   3.517
 4677SOL     OW14929   1.583   1.749   0.315
 4677SOL    HW114930   1.567   1.789   0.405
 4677SOL    HW214931   1.525   1.668   0.303
 4678SOL     OW14932   2.401   4.324   2.897
 4678SOL    HW114933   2.442   4.386   2.830
 4678SOL    HW214934   2.468   4.256   2.925
 4679SOL     OW14935   4.842   6.782   2.147
 4679SOL    HW114936   4.814   6.690   2.175
 4679SOL    HW214937   4.835   6.789   2.047
 4680SOL     OW14938   4.168   1.091   1.330
 4680SOL    HW114939   4.115   1.028   1.273
 4680SOL    HW214940   4.107   1.159   1.371
 4681SOL     OW14941   4.598   4.945   6.643
 4681SOL    HW114942   4.654   4.874   6.686
 4681SOL    HW214943   4.653   4.995   6.576
 4682SOL     OW14944   5.432   3.455   6.201
 4682SOL    HW114945   5.355   3.414   6.152
 4682SOL    HW214946   5.516   3.436   6.152
 4683SOL     OW14947   6.142   5.190   3.089
 4683SOL    HW114948   6.062   5.155   3.136
 4683SOL    HW214949   6.128   5.187   2.990
 4684SOL     OW14950   4.554   5.858   5.951
 4684SOL    HW114951   4.556   5.759   5.962
 4684SOL    HW214952   4.600   5.901   6.029
 4685SOL     OW14953   2.163   3.807   6.142
 4685SOL    HW114954   2.217   3.797   6.225
 4685SOL    HW214955   2.215   3.860   6.075
 4686SOL     OW14956   3.790   5.666   0.324
 4686SOL    HW114957   3.784   5.637   0.229
 4686SOL    HW214958   3.813   5.587   0.381
 4687SOL     OW14959   3.994   2.036   3.757
 4687SOL    HW114960   3.950   2.008   3.842
 4687SOL    HW214961   3.924   2.049   3.687
 4688SOL     OW14962   5.998   2.692   6.038
 4688SOL    HW114963   5.899   2.697   6.057
 4688SOL    HW214964   6.039   2.782   6.051
 4689SOL     OW14965   5.463   0.306   1.346
 4689SOL    HW114966   5.372   0.345   1.326
 4689SOL    HW214967   5.512   0.367   1.408
 4690SOL     OW14968   1.689   0.956   0.406
 4690SOL    HW114969   1.674   0.978   0.502
 4690SOL    HW214970   1.788   0.952   0.388
 4691SOL     OW14971   4.433   4.233   0.523
 4691SOL    HW114972   4.451   4.220   0.621
 4691SOL    HW214973   4.351   4.289   0.511
 4692SOL     OW14974   6.049   4.468   3.185
 4692SOL    HW114975   6.084   4.501   3.097
 4692SOL    HW214976   6.124   4.463   3.250
 4693SOL     OW14977   1.521   1.149   4.196
 4693SOL    HW114978   1.618   1.169   4.213
 4693SOL    HW214979   1.494   1.186   4.108
 4694SOL     OW14980   2.543   1.983   0.516
 4694SOL    HW114981   2.620   2.026   0.563
 4694SOL    HW214982   2.530   2.026   0.426
 4695SOL     OW14983   1.517   5.821   0.680
 4695SOL    HW114984   1.595   5.850   0.623
 4695SOL    HW214985   1.436   5.811   0.622
 4696SOL     OW14986   0.467   5.481   6.368
 4696SOL    HW114987   0.417   5.426   6.435
 4696SOL    HW214988   0.453   5.578   6.388
 4697SOL     OW14989   1.368   3.505   2.322
 4697SOL    HW114990   1.402   3.595   2.293
 4697SOL    HW214991   1.329   3.512   2.414
 4698SOL     OW14992   3.688   6.872   3.369
 4698SOL    HW114993   3.621   6.811   3.328
 4698SOL    HW214994   3.677   6.964   3.331
 4699SOL     OW14995   0.466   6.630   2.612
 4699SOL    HW114996   0.370   6.600   2.611
 4699SOL    HW214997   0.510   6.597   2.695
 4700SOL     OW14998   6.850   1.694   2.179
 4700SOL    HW114999   6.950   1.696   2.187
 4700SOL    HW215000   6.821   1.608   2.136
 4701SOL     OW15001   3.229   2.077   2.075
 4701SOL    HW115002   3.242   2.163   2.125
 4701SOL    HW215003   3.295   2.071   2.001
 4702SOL     OW15004   4.825   5.380   0.606
 4702SOL    HW115005   4.862   5.444   0.673
 4702SOL    HW215006   4.726   5.393   0.598
 4703SOL     OW15007   1.443   5.682   2.846
 4703SOL    HW115008   1.429   5.730   2.759
 4703SOL    HW215009   1.354   5.660   2.886
 4704SOL     OW15010   0.430   6.285   5.672
 4704SOL    HW115011   0.480   6.318   5.592
 4704SOL    HW215012   0.358   6.349   5.696
 4705SOL     OW15013   3.303   2.229   0.823
 4705SOL    HW115014   3.365   2.306   0.809
 4705SOL    HW215015   3.292   2.212   0.921
 4706SOL     OW15016   1.381   0.336   0.891
 4706SOL    HW115017   1.394   0.311   0.796
 4706SOL    HW215018   1.323   0.417   0.897
 4707SOL     OW15019   1.321   5.751   1.777
 4707SOL    HW115020   1.253   5.718   1.844
 4707SOL    HW215021   1.351   5.843   1.804
 4708SOL     OW15022   1.003   2.113   5.646
 4708SOL    HW115023   1.065   2.036   5.659
 4708SOL    HW215024   1.038   2.171   5.573
 4709SOL     OW15025   4.829   5.111   4.604
 4709SOL    HW115026   4.767   5.034   4.589
 4709SOL    HW215027   4.818   5.176   4.528
 4710SOL     OW15028   6.203   0.244   5.201
 4710SOL    HW115029   6.159   0.329   5.172
 4710SOL    HW215030   6.298   0.243   5.169
 4711SOL     OW15031   6.142   2.676   3.336
 4711SOL    HW115032   6.175   2.714   3.249
 4711SOL    HW215033   6.163   2.740   3.410
 4712SOL     OW15034   4.069   4.486   5.978
 4712SOL    HW115035   3.997   4.553   5.992
 4712SOL    HW215036   4.030   4.400   5.945
 4713SOL     OW15037   5.453   5.733   0.933
 4713SOL    HW115038   5.464   5.752   1.030
 4713SOL    HW215039   5.389   5.657   0.921
 4714SOL     OW15040   6.910   1.684   6.613
 4714SOL    HW115041   6.997   1.651   6.576
 4714SOL    HW215042   6.927   1.728   6.701
 4715SOL     OW15043   5.949   2.584   1.150
 4715SOL    HW115044   5.958   2.514   1.079
 4715SOL    HW215045   6.001   2.666   1.124
 4716SOL     OW15046   4.796   5.421   5.724
 4716SOL    HW115047   4.888   5.460   5.718
 4716SOL    HW215048   4.794   5.351   5.795
 4717SOL     OW15049   1.925   5.271   5.258
 4717SOL    HW115050   1.929   5.179   5.219
 4717SOL    HW215051   1.834   5.310   5.243
 4718SOL     OW15052   4.968   2.826   1.025
 4718SOL    HW115053   5.053   2.780   1.050
 4718SOL    HW215054   4.972   2.853   0.929
 4719SOL     OW15055   5.239   3.719   2.812
 4719SOL    HW115056   5.260   3.653   2.740
 4719SOL    HW215057   5.198   3.801   2.772
 4720SOL     OW15058   2.415   4.514   5.850
 4720SOL    HW115059   2.391   4.607   5.880
 4720SOL    HW215060   2.400   4.507   5.751
 4721SOL     OW15061   5.994   2.602   1.626
 4721SOL    HW115062   5.920   2.630   1.686
 4721SOL    HW215063   5.965   2.612   1.531
 4722SOL     OW15064   1.288   5.506   0.084
 4722SOL    HW115065   1.192   5.515   0.060
 4722SOL    HW215066   1.336   5.456   0.012
 4723SOL     OW15067   3.805   4.225   5.422
 4723SOL    HW115068   3.841   4.294   5.484
 4723SOL    HW215069   3.868   4.212   5.346
 4724SOL     OW15070   6.959   6.626   3.696
 4724SOL    HW115071   7.016   6.594   3.772
 4724SOL    HW215072   6.896   6.697   3.729
 4725SOL     OW15073   6.116   4.855   0.121
 4725SOL    HW115074   6.160   4.862   0.211
 4725SOL    HW215075   6.022   4.887   0.127
 4726SOL     OW15076   1.029   2.997   6.019
 4726SOL    HW115077   1.080   2.964   5.939
 4726SOL    HW215078   1.057   2.946   6.100
 4727SOL     OW15079   0.421   5.864   0.194
 4727SOL    HW115080   0.456   5.935   0.255
 4727SOL    HW215081   0.353   5.810   0.243
 4728SOL     OW15082   6.454   1.830   2.664
 4728SOL    HW115083   6.503   1.756   2.710
 4728SOL    HW215084   6.472   1.916   2.712
 4729SOL     OW15085   4.708   0.148   0.503
 4729SOL    HW115086   4.750   0.073   0.554
 4729SOL    HW215087   4.775   0.188   0.441
 4730SOL     OW15088   3.573   6.222   5.029
 4730SOL    HW115089   3.560   6.155   5.101
 4730SOL    HW215090   3.503   6.293   5.035
 4731SOL     OW15091   3.008   0.834   0.820
 4731SOL    HW115092   3.077   0.860   0.753
 4731SOL    HW215093   3.006   0.902   0.894
 4732SOL     OW15094   0.675   3.970   5.053
 4732SOL    HW115095   0.653   3.976   4.956
 4732SOL    HW215096   0.721   3.883   5.071
 4733SOL     OW15097   1.840   4.640   2.878
 4733SOL    HW115098   1.783   4.568   2.919
 4733SOL    HW215099   1.926   4.600   2.846
 4734SOL     OW15100   5.285   3.390   6.949
 4734SOL    HW115101   5.238   3.409   6.862
 4734SOL    HW215102   5.245   3.446   0.003
 4735SOL     OW15103   6.746   5.615   3.515
 4735SOL    HW115104   6.721   5.580   3.425
 4735SOL    HW215105   6.670   5.667   3.554
 4736SOL     OW15106   5.816   2.044   4.446
 4736SOL    HW115107   5.819   1.983   4.525
 4736SOL    HW215108   5.755   2.007   4.377
 4737SOL     OW15109   2.367   4.222   0.789
 4737SOL    HW115110   2.445   4.193   0.844
 4737SOL    HW215111   2.360   4.322   0.792
 4738SOL     OW15112   3.471   6.716   4.176
 4738SOL    HW115113   3.449   6.813   4.164
 4738SOL    HW215114   3.402   6.674   4.236
 4739SOL     OW15115   5.716   2.149   3.932
 4739SOL    HW115116   5.687   2.106   3.846
 4739SOL    HW215117   5.670   2.237   3.942
 4740SOL     OW15118   0.686   0.950   0.962
 4740SOL    HW115119   0.591   0.928   0.982
 4740SOL    HW215120   0.708   0.925   0.868
 4741SOL     OW15121   4.409   4.915   1.093
 4741SOL    HW115122   4.433   4.870   1.180
 4741SOL    HW215123   4.488   4.966   1.059
 4742SOL     OW15124   2.824   5.167   1.280
 4742SOL    HW115125   2.759   5.097   1.252
 4742SOL    HW215126   2.812   5.187   1.377
 4743SOL     OW15127   1.911   1.336   5.582
 4743SOL    HW115128   1.836   1.269   5.586
 4743SOL    HW215129   1.976   1.308   5.512
 4744SOL     OW15130   2.408   2.855   5.319
 4744SOL    HW115131   2.477   2.857   5.391
 4744SOL    HW215132   2.410   2.941   5.268
 4745SOL     OW15133   2.436   4.890   5.408
 4745SOL    HW115134   2.407   4.815   5.348
 4745SOL    HW215135   2.360   4.954   5.419
 4746SOL     OW15136   5.811   5.977   1.064
 4746SOL    HW115137   5.867   5.945   1.140
 4746SOL    HW215138   5.813   6.077   1.060
 4747SOL     OW15139   1.037   3.324   6.369
 4747SOL    HW115140   0.993   3.356   6.453
 4747SOL    HW215141   1.003   3.378   6.292
 4748SOL     OW15142   1.295   0.439   1.460
 4748SOL    HW115143   1.385   0.399   1.443
 4748SOL    HW215144   1.234   0.369   1.498
 4749SOL     OW15145   3.065   6.415   5.972
 4749SOL    HW115146   3.048   6.508   6.003
 4749SOL    HW215147   3.039   6.406   5.876
 4750SOL     OW15148   0.292   1.938   4.117
 4750SOL    HW115149   0.337   2.011   4.169
 4750SOL    HW215150   0.281   1.967   4.022
 4751SOL     OW15151   2.146   3.146   0.105
 4751SOL    HW115152   2.143   3.051   0.074
 4751SOL    HW215153   2.115   3.206   0.032
 4752SOL     OW15154   2.977   6.611   0.704
 4752SOL    HW115155   2.991   6.597   0.802
 4752SOL    HW215156   2.890   6.658   0.689
 4753SOL     OW15157   5.618   6.702   4.437
 4753SOL    HW115158   5.684   6.777   4.438
 4753SOL    HW215159   5.580   6.690   4.529
 4754SOL     OW15160   6.353   0.341   6.033
 4754SOL    HW115161   6.448   0.355   6.005
 4754SOL    HW215162   6.296   0.412   5.993
 4755SOL     OW15163   2.329   0.372   6.747
 4755SOL    HW115164   2.306   0.341   6.655
 4755SOL    HW215165   2.309   0.300   6.813
 4756SOL     OW15166   5.991   2.169   1.815
 4756SOL    HW115167   5.977   2.232   1.738
 4756SOL    HW215168   6.030   2.219   1.892
 4757SOL     OW15169   2.248   2.092   1.917
 4757SOL    HW115170   2.321   2.110   1.852
 4757SOL    HW215171   2.209   2.002   1.900
 4758SOL     OW15172   3.270   5.696   5.157
 4758SOL    HW115173   3.274   5.786   5.112
 4758SOL    HW215174   3.328   5.632   5.106
 4759SOL     OW15175   4.955   5.578   4.773
 4759SOL    HW115176   5.014   5.585   4.853
 4759SOL    HW215177   4.868   5.536   4.799
 4760SOL     OW15178   3.215   1.475   1.385
 4760SOL    HW115179   3.131   1.508   1.428
 4760SOL    HW215180   3.233   1.528   1.302
 4761SOL     OW15181   6.641   0.504   0.029
 4761SOL    HW115182   6.572   0.507   0.101
 4761SOL    HW215183   6.731   0.522   0.069
 4762SOL     OW15184   2.600   4.799   3.354
 4762SOL    HW115185   2.635   4.856   3.280
 4762SOL    HW215186   2.504   4.820   3.370
 4763SOL     OW15187   5.895   5.764   3.002
 4763SOL    HW115188   5.955   5.802   2.931
 4763SOL    HW215189   5.805   5.744   2.962
 4764SOL     OW15190   4.733   4.056   5.047
 4764SOL    HW115191   4.770   4.008   4.968
 4764SOL    HW215192   4.774   4.020   5.131
 4765SOL     OW15193   4.901   6.628   4.595
 4765SOL    HW115194   4.944   6.549   4.639
 4765SOL    HW215195   4.937   6.712   4.636
 4766SOL     OW15196   4.273   0.874   4.051
 4766SOL    HW115197   4.339   0.818   4.102
 4766SOL    HW215198   4.308   0.967   4.044
 4767SOL     OW15199   4.599   5.924   0.263
 4767SOL    HW115200   4.599   6.024   0.273
 4767SOL    HW215201   4.515   5.887   0.302
 4768SOL     OW15202   5.328   1.810   4.902
 4768SOL    HW115203   5.353   1.759   4.984
 4768SOL    HW215204   5.229   1.825   4.901
 4769SOL     OW15205   4.319   5.259   1.629
 4769SOL    HW115206   4.241   5.295   1.680
 4769SOL    HW215207   4.286   5.205   1.552
 4770SOL     OW15208   2.258   6.988   3.659
 4770SOL    HW115209   2.343   6.962   3.615
 4770SOL    HW215210   2.270   6.988   3.759
 4771SOL     OW15211   2.970   4.875   6.249
 4771SOL    HW115212   3.058   4.828   6.238
 4771SOL    HW215213   2.955   4.937   6.173
 4772SOL     OW15214   2.373   6.477   1.751
 4772SOL    HW115215   2.354   6.401   1.688
 4772SOL    HW215216   2.337   6.455   1.841
 4773SOL     OW15217   6.775   5.585   4.465
 4773SOL    HW115218   6.825   5.620   4.545
 4773SOL    HW215219   6.688   5.545   4.495
 4774SOL     OW15220   0.561   2.894   2.196
 4774SOL    HW115221   0.615   2.891   2.112
 4774SOL    HW215222   0.621   2.876   2.274
 4775SOL     OW15223   5.571   0.418   3.144
 4775SOL    HW115224   5.629   0.447   3.068
 4775SOL    HW215225   5.508   0.348   3.112
 4776SOL     OW15226   2.595   6.714   3.469
 4776SOL    HW115227   2.506   6.669   3.464
 4776SOL    HW215228   2.647   6.676   3.546
 4777SOL     OW15229   2.510   4.410   1.060
 4777SOL    HW115230   2.526   4.463   0.976
 4777SOL    HW215231   2.577   4.336   1.066
 4778SOL     OW15232   5.487   2.312   1.917
 4778SOL    HW115233   5.494   2.342   1.821
 4778SOL    HW215234   5.432   2.229   1.922
 4779SOL     OW15235   6.050   6.848   1.884
 4779SOL    HW115236   6.020   6.914   1.816
 4779SOL    HW215237   6.140   6.874   1.920
 4780SOL     OW15238   0.867   6.796   6.784
 4780SOL    HW115239   0.966   6.809   6.788
 4780SOL    HW215240   0.844   6.737   6.707
 4781SOL     OW15241   3.151   6.178   0.868
 4781SOL    HW115242   3.180   6.226   0.785
 4781SOL    HW215243   3.052   6.168   0.868
 4782SOL     OW15244   4.653   6.670   0.237
 4782SOL    HW115245   4.672   6.620   0.321
 4782SOL    HW215246   4.643   6.767   0.257
 4783SOL     OW15247   4.454   4.542   0.434
 4783SOL    HW115248   4.536   4.513   0.385
 4783SOL    HW215249   4.374   4.493   0.398
 4784SOL     OW15250   6.252   4.734   6.919
 4784SOL    HW115251   6.227   4.808   6.982
 4784SOL    HW215252   6.323   4.766   6.856
 4785SOL     OW15253   6.577   6.144   1.441
 4785SOL    HW115254   6.576   6.053   1.483
 4785SOL    HW215255   6.635   6.205   1.496
 4786SOL     OW15256   1.773   2.318   2.357
 4786SOL    HW115257   1.822   2.372   2.425
 4786SOL    HW215258   1.723   2.245   2.403
 4787SOL     OW15259   3.497   2.060   3.429
 4787SOL    HW115260   3.399   2.039   3.432
 4787SOL    HW215261   3.535   2.058   3.521
 4788SOL     OW15262   1.823   5.130   6.443
 4788SOL    HW115263   1.772   5.108   6.527
 4788SOL    HW215264   1.913   5.166   6.467
 4789SOL     OW15265   5.700   0.779   0.111
 4789SOL    HW115266   5.637   0.857   0.118
 4789SOL    HW215267   5.678   0.726   0.030
 4790SOL     OW15268   6.383   3.544   6.809
 4790SOL    HW115269   6.410   3.556   6.904
 4790SOL    HW215270   6.329   3.623   6.780
 4791SOL     OW15271   5.804   1.973   1.754
 4791SOL    HW115272   5.870   2.041   1.787
 4791SOL    HW215273   5.797   1.899   1.821
 4792SOL     OW15274   1.467   2.980   2.553
 4792SOL    HW115275   1.470   3.042   2.631
 4792SOL    HW215276   1.380   2.931   2.553
 4793SOL     OW15277   1.121   2.340   5.553
 4793SOL    HW115278   1.028   2.357   5.586
 4793SOL    HW215279   1.183   2.333   5.631
 4794SOL     OW15280   3.929   0.703   3.310
 4794SOL    HW115281   3.852   0.720   3.372
 4794SOL    HW215282   4.009   0.755   3.341
 4795SOL     OW15283   6.754   2.323   4.026
 4795SOL    HW115284   6.826   2.373   4.075
 4795SOL    HW215285   6.686   2.387   3.991
 4796SOL     OW15286   4.732   2.013   6.531
 4796SOL    HW115287   4.725   2.113   6.525
 4796SOL    HW215288   4.772   1.988   6.620
 4797SOL     OW15289   1.488   5.965   5.013
 4797SOL    HW115290   1.548   6.026   5.065
 4797SOL    HW215291   1.393   5.997   5.022
 4798SOL     OW15292   0.169   4.219   5.678
 4798SOL    HW115293   0.132   4.259   5.594
 4798SOL    HW215294   0.260   4.255   5.695
 4799SOL     OW15295   4.917   2.307   5.879
 4799SOL    HW115296   4.921   2.407   5.877
 4799SOL    HW215297   4.916   2.276   5.974
 4800SOL     OW15298   3.420   2.997   5.991
 4800SOL    HW115299   3.424   3.056   5.910
 4800SOL    HW215300   3.455   2.906   5.969
 4801SOL     OW15301   2.450   1.882   0.139
 4801SOL    HW115302   2.400   1.820   0.200
 4801SOL    HW215303   2.466   1.969   0.187
 4802SOL     OW15304   1.441   6.598   2.007
 4802SOL    HW115305   1.532   6.603   2.049
 4802SOL    HW215306   1.443   6.532   1.932
 4803SOL     OW15307   0.876   6.669   0.480
 4803SOL    HW115308   0.933   6.670   0.562
 4803SOL    HW215309   0.906   6.596   0.419
 4804SOL     OW15310   4.119   5.011   6.241
 4804SOL    HW115311   4.173   4.935   6.277
 4804SOL    HW215312   4.089   5.069   6.317
 4805SOL     OW15313   6.740   6.793   1.204
 4805SOL    HW115314   6.833   6.765   1.177
 4805SOL    HW215315   6.703   6.726   1.268
 4806SOL     OW15316   6.827   3.533   3.682
 4806SOL    HW115317   6.735   3.494   3.669
 4806SOL    HW215318   6.825   3.630   3.660
 4807SOL     OW15319   1.431   5.547   1.058
 4807SOL    HW115320   1.448   5.449   1.064
 4807SOL    HW215321   1.457   5.590   1.145
 4808SOL     OW15322   6.084   3.667   0.817
 4808SOL    HW115323   5.993   3.656   0.856
 4808SOL    HW215324   6.086   3.625   0.726
 4809SOL     OW15325   3.899   4.095   6.740
 4809SOL    HW115326   3.810   4.078   6.699
 4809SOL    HW215327   3.897   4.069   6.837
 4810SOL     OW15328   1.602   4.556   2.217
 4810SOL    HW115329   1.633   4.524   2.128
 4810SOL    HW215330   1.577   4.477   2.273
 4811SOL     OW15331   2.542   4.708   2.522
 4811SOL    HW115332   2.598   4.697   2.440
 4811SOL    HW215333   2.580   4.782   2.578
 4812SOL     OW15334   6.599   4.993   5.383
 4812SOL    HW115335   6.672   5.027   5.324
 4812SOL    HW215336   6.539   5.069   5.408
 4813SOL     OW15337   5.163   1.300   1.899
 4813SOL    HW115338   5.142   1.227   1.835
 4813SOL    HW215339   5.236   1.357   1.863
 4814SOL     OW15340   5.948   4.484   0.255
 4814SOL    HW115341   6.042   4.496   0.286
 4814SOL    HW215342   5.905   4.574   0.243
 4815SOL     OW15343   5.139   4.633   1.954
 4815SOL    HW115344   5.072   4.564   1.925
 4815SOL    HW215345   5.201   4.654   1.879
 4816SOL     OW15346   6.139   5.217   2.823
 4816SOL    HW115347   6.232   5.253   2.811
 4816SOL    HW215348   6.075   5.294   2.834
 4817SOL     OW15349   0.419   2.054   6.054
 4817SOL    HW115350   0.389   2.039   6.149
 4817SOL    HW215351   0.513   2.022   6.044
 4818SOL     OW15352   1.084   0.096   4.609
 4818SOL    HW115353   1.025   0.113   4.688
 4818SOL    HW215354   1.163   0.158   4.612
 4819SOL     OW15355   1.789   3.250   0.520
 4819SOL    HW115356   1.718   3.241   0.450
 4819SOL    HW215357   1.877   3.265   0.477
 4820SOL     OW15358   0.224   3.099   1.748
 4820SOL    HW115359   0.317   3.073   1.722
 4820SOL    HW215360   0.171   3.122   1.666
 4821SOL     OW15361   1.022   5.870   2.653
 4821SOL    HW115362   0.980   5.791   2.609
 4821SOL    HW215363   0.997   5.872   2.749
 4822SOL     OW15364   1.403   3.680   4.107
 4822SOL    HW115365   1.341   3.693   4.030
 4822SOL    HW215366   1.351   3.649   4.186
 4823SOL     OW15367   1.459   1.941   2.881
 4823SOL    HW115368   1.502   1.857   2.847
 4823SOL    HW215369   1.374   1.957   2.831
 4824SOL     OW15370   5.170   2.262   5.425
 4824SOL    HW115371   5.179   2.167   5.395
 4824SOL    HW215372   5.218   2.274   5.512
 4825SOL     OW15373   1.107   1.593   4.175
 4825SOL    HW115374   1.118   1.495   4.192
 4825SOL    HW215375   1.152   1.617   4.088
 4826SOL     OW15376   5.028   0.495   0.633
 4826SOL    HW115377   4.941   0.452   0.607
 4826SOL    HW215378   5.012   0.591   0.653
 4827SOL     OW15379   6.099   1.720   0.270
 4827SOL    HW115380   6.134   1.813   0.276
 4827SOL    HW215381   6.153   1.668   0.204
 4828SOL     OW15382   4.486   0.808   1.393
 4828SOL    HW115383   4.458   0.848   1.306
 4828SOL    HW215384   4.586   0.815   1.403
 4829SOL     OW15385   4.066   6.281   6.525
 4829SOL    HW115386   4.080   6.336   6.443
 4829SOL    HW215387   4.087   6.337   6.606
 4830SOL     OW15388   4.061   5.835   3.923
 4830SOL    HW115389   4.131   5.865   3.988
 4830SOL    HW215390   3.974   5.826   3.971
 4831SOL     OW15391   2.526   5.227   5.436
 4831SOL    HW115392   2.455   5.286   5.398
 4831SOL    HW215393   2.572   5.178   5.362
 4832SOL     OW15394   3.583   2.998   4.752
 4832SOL    HW115395   3.649   3.072   4.745
 4832SOL    HW215396   3.606   2.939   4.829
 4833SOL     OW15397   5.582   2.306   3.144
 4833SOL    HW115398   5.619   2.363   3.070
 4833SOL    HW215399   5.652   2.295   3.215
 4834SOL     OW15400   2.924   5.918   2.127
 4834SOL    HW115401   2.993   5.911   2.056
 4834SOL    HW215402   2.962   5.967   2.206
 4835SOL     OW15403   5.996   3.342   6.154
 4835SOL    HW115404   5.946   3.427   6.169
 4835SOL    HW215405   5.949   3.267   6.202
 4836SOL     OW15406   5.005   1.716   5.473
 4836SOL    HW115407   4.962   1.662   5.545
 4836SOL    HW215408   5.098   1.684   5.456
 4837SOL     OW15409   6.675   3.378   2.832
 4837SOL    HW115410   6.703   3.474   2.832
 4837SOL    HW215411   6.731   3.327   2.766
 4838SOL     OW15412   2.075   5.222   6.522
 4838SOL    HW115413   2.159   5.177   6.491
 4838SOL    HW215414   2.099   5.299   6.582
 4839SOL     OW15415   1.304   3.300   6.934
 4839SOL    HW115416   1.261   3.278   0.003
 4839SOL    HW215417   1.255   3.253   6.860
 4840SOL     OW15418   5.098   3.938   5.219
 4840SOL    HW115419   5.124   3.953   5.315
 4840SOL    HW215420   5.163   3.984   5.159
 4841SOL     OW15421   3.131   5.859   3.075
 4841SOL    HW115422   3.174   5.858   2.985
 4841SOL    HW215423   3.043   5.812   3.071
 4842SOL     OW15424   2.643   5.426   3.223
 4842SOL    HW115425   2.621   5.502   3.285
 4842SOL    HW215426   2.559   5.378   3.198
 4843SOL     OW15427   6.493   2.686   1.814
 4843SOL    HW115428   6.436   2.604   1.803
 4843SOL    HW215429   6.589   2.658   1.823
 4844SOL     OW15430   1.229   3.672   5.301
 4844SOL    HW115431   1.212   3.728   5.382
 4844SOL    HW215432   1.166   3.594   5.300
 4845SOL     OW15433   4.754   4.750   5.200
 4845SOL    HW115434   4.779   4.843   5.227
 4845SOL    HW215435   4.657   4.748   5.174
 4846SOL     OW15436   0.014   1.984   3.315
 4846SOL    HW115437   0.065   1.901   3.296
 4846SOL    HW215438   6.948   1.962   3.364
 4847SOL     OW15439   2.550   0.702   5.309
 4847SOL    HW115440   2.532   0.700   5.408
 4847SOL    HW215441   2.568   0.610   5.276
 4848SOL     OW15442   2.153   1.208   3.622
 4848SOL    HW115443   2.191   1.221   3.714
 4848SOL    HW215444   2.149   1.110   3.602
 4849SOL     OW15445   1.807   0.164   1.063
 4849SOL    HW115446   1.819   0.176   1.162
 4849SOL    HW215447   1.791   0.252   1.020
 4850SOL     OW15448   4.292   0.440   1.624
 4850SOL    HW115449   4.267   0.428   1.528
 4850SOL    HW215450   4.328   0.533   1.638
 4851SOL     OW15451   3.883   5.435   6.564
 4851SOL    HW115452   3.797   5.385   6.578
 4851SOL    HW215453   3.956   5.390   6.615
 4852SOL     OW15454   3.537   5.742   4.409
 4852SOL    HW115455   3.455   5.798   4.420
 4852SOL    HW215456   3.611   5.799   4.374
 4853SOL     OW15457   3.599   1.174   2.807
 4853SOL    HW115458   3.500   1.180   2.798
 4853SOL    HW215459   3.633   1.252   2.860
 4854SOL     OW15460   5.700   6.660   1.829
 4854SOL    HW115461   5.627   6.599   1.858
 4854SOL    HW215462   5.746   6.698   1.909
 4855SOL     OW15463   0.062   3.459   4.785
 4855SOL    HW115464   0.097   3.484   4.694
 4855SOL    HW215465   0.069   3.538   4.846
 4856SOL     OW15466   0.550   3.324   2.327
 4856SOL    HW115467   0.518   3.309   2.420
 4856SOL    HW215468   0.486   3.283   2.262
 4857SOL     OW15469   3.302   2.046   3.704
 4857SOL    HW115470   3.381   2.107   3.696
 4857SOL    HW215471   3.261   2.033   3.614
 4858SOL     OW15472   0.922   0.175   4.815
 4858SOL    HW115473   0.981   0.235   4.869
 4858SOL    HW215474   0.879   0.108   4.876
 4859SOL     OW15475   1.100   4.837   1.705
 4859SOL    HW115476   1.035   4.890   1.650
 4859SOL    HW215477   1.193   4.852   1.671
 4860SOL     OW15478   3.784   4.581   0.125
 4860SOL    HW115479   3.692   4.605   0.154
 4860SOL    HW215480   3.783   4.493   0.078
 4861SOL     OW15481   6.567   4.884   5.998
 4861SOL    HW115482   6.554   4.982   6.011
 4861SOL    HW215483   6.478   4.839   5.996
 4862SOL     OW15484   2.845   4.801   4.879
 4862SOL    HW115485   2.857   4.738   4.955
 4862SOL    HW215486   2.775   4.868   4.901
 4863SOL     OW15487   4.908   3.527   2.423
 4863SOL    HW115488   4.956   3.613   2.406
 4863SOL    HW215489   4.890   3.518   2.521
 4864SOL     OW15490   3.149   1.425   1.760
 4864SOL    HW115491   3.113   1.403   1.851
 4864SOL    HW215492   3.243   1.458   1.770
 4865SOL     OW15493   2.918   5.013   6.009
 4865SOL    HW115494   2.943   4.956   5.931
 4865SOL    HW215495   2.858   5.087   5.979
 4866SOL     OW15496   6.469   4.967   1.920
 4866SOL    HW115497   6.418   4.912   1.986
 4866SOL    HW215498   6.487   4.913   1.838
 4867SOL     OW15499   5.206   6.087   3.144
 4867SOL    HW115500   5.289   6.128   3.180
 4867SOL    HW215501   5.198   5.993   3.178
 4868SOL     OW15502   0.982   5.514   1.451
 4868SOL    HW115503   0.998   5.612   1.458
 4868SOL    HW215504   0.914   5.496   1.379
 4869SOL     OW15505   0.184   2.155   0.625
 4869SOL    HW115506   0.161   2.196   0.714
 4869SOL    HW215507   0.220   2.063   0.639
 4870SOL     OW15508   3.981   5.923   1.757
 4870SOL    HW115509   4.069   5.900   1.715
 4870SOL    HW215510   3.915   5.949   1.687
 4871SOL     OW15511   1.466   1.662   3.339
 4871SOL    HW115512   1.464   1.741   3.279
 4871SOL    HW215513   1.551   1.611   3.325
 4872SOL     OW15514   1.237   0.087   3.134
 4872SOL    HW115515   1.282   0.054   3.217
 4872SOL    HW215516   1.271   0.178   3.112
 4873SOL     OW15517   0.321   4.933   5.076
 4873SOL    HW115518   0.246   4.973   5.023
 4873SOL    HW215519   0.322   4.834   5.063
 4874SOL     OW15520   5.529   3.997   2.390
 4874SOL    HW115521   5.568   4.012   2.300
 4874SOL    HW215522   5.602   3.987   2.458
 4875SOL     OW15523   5.484   1.529   1.113
 4875SOL    HW115524   5.556   1.592   1.142
 4875SOL    HW215525   5.400   1.548   1.164
 4876SOL     OW15526   5.765   0.319   5.929
 4876SOL    HW115527   5.714   0.234   5.918
 4876SOL    HW215528   5.702   0.396   5.922
 4877SOL     OW15529   6.381   1.661   0.934
 4877SOL    HW115530   6.347   1.657   1.028
 4877SOL    HW215531   6.480   1.669   0.934
 4878SOL     OW15532   0.420   1.962   1.809
 4878SOL    HW115533   0.424   2.023   1.730
 4878SOL    HW215534   0.457   2.008   1.889
 4879SOL     OW15535   4.166   4.746   2.807
 4879SOL    HW115536   4.176   4.843   2.827
 4879SOL    HW215537   4.207   4.692   2.880
 4880SOL     OW15538   5.231   1.834   0.297
 4880SOL    HW115539   5.249   1.789   0.385
 4880SOL    HW215540   5.263   1.928   0.301
 4881SOL     OW15541   2.775   6.370   5.760
 4881SOL    HW115542   2.715   6.444   5.729
 4881SOL    HW215543   2.865   6.380   5.717
 4882SOL     OW15544   6.374   1.543   5.480
 4882SOL    HW115545   6.353   1.640   5.463
 4882SOL    HW215546   6.309   1.507   5.548
 4883SOL     OW15547   5.753   4.599   2.494
 4883SOL    HW115548   5.669   4.608   2.547
 4883SOL    HW215549   5.779   4.688   2.457
 4884SOL     OW15550   4.569   0.320   1.718
 4884SOL    HW115551   4.484   0.326   1.665
 4884SOL    HW215552   4.646   0.349   1.660
 4885SOL     OW15553   2.014   6.549   1.861
 4885SOL    HW115554   2.061   6.628   1.900
 4885SOL    HW215555   2.042   6.537   1.766
 4886SOL     OW15556   0.352   6.522   6.759
 4886SOL    HW115557   0.260   6.499   6.790
 4886SOL    HW215558   0.391   6.445   6.708
 4887SOL     OW15559   6.544   2.000   3.889
 4887SOL    HW115560   6.600   1.983   3.970
 4887SOL    HW215561   6.487   2.081   3.905
 4888SOL     OW15562   1.813   6.748   3.518
 4888SOL    HW115563   1.910   6.773   3.528
 4888SOL    HW215564   1.785   6.765   3.423
 4889SOL     OW15565   0.714   2.318   0.296
 4889SOL    HW115566   0.698   2.286   0.389
 4889SOL    HW215567   0.809   2.345   0.286
 4890SOL     OW15568   0.882   1.346   4.173
 4890SOL    HW115569   0.974   1.315   4.198
 4890SOL    HW215570   0.842   1.397   4.249
 4891SOL     OW15571   1.085   5.082   0.637
 4891SOL    HW115572   1.062   4.990   0.665
 4891SOL    HW215573   1.184   5.088   0.620
 4892SOL     OW15574   0.956   5.683   2.275
 4892SOL    HW115575   1.050   5.718   2.279
 4892SOL    HW215576   0.920   5.695   2.182
 4893SOL     OW15577   6.708   4.543   0.007
 4893SOL    HW115578   6.613   4.525   0.035
 4893SOL    HW215579   6.739   4.628   0.048
 4894SOL     OW15580   2.153   0.424   3.430
 4894SOL    HW115581   2.237   0.370   3.437
 4894SOL    HW215582   2.141   0.478   3.513
 4895SOL     OW15583   1.218   3.602   0.636
 4895SOL    HW115584   1.199   3.697   0.610
 4895SOL    HW215585   1.136   3.546   0.619
 4896SOL     OW15586   3.300   5.259   3.636
 4896SOL    HW115587   3.342   5.259   3.545
 4896SOL    HW215588   3.201   5.249   3.627
 4897SOL     OW15589   3.303   4.881   6.426
 4897SOL    HW115590   3.278   4.874   6.522
 4897SOL    HW215591   3.257   4.809   6.374
 4898SOL     OW15592   5.457   2.251   5.608
 4898SOL    HW115593   5.461   2.153   5.625
 4898SOL    HW215594   5.540   2.294   5.644
 4899SOL     OW15595   6.423   4.894   2.569
 4899SOL    HW115596   6.384   4.856   2.485
 4899SOL    HW215597   6.418   4.994   2.566
 4900SOL     OW15598   0.118   6.580   5.614
 4900SOL    HW115599   0.061   6.501   5.635
 4900SOL    HW215600   0.061   6.652   5.574
 4901SOL     OW15601   1.735   0.412   4.426
 4901SOL    HW115602   1.715   0.384   4.520
 4901SOL    HW215603   1.651   0.406   4.371
 4902SOL     OW15604   1.330   3.920   2.390
 4902SOL    HW115605   1.333   4.005   2.337
 4902SOL    HW215606   1.391   3.853   2.348
 4903SOL     OW15607   3.899   6.625   6.806
 4903SOL    HW115608   3.933   6.695   6.744
 4903SOL    HW215609   3.799   6.627   6.807
 4904SOL     OW15610   2.121   5.806   4.325
 4904SOL    HW115611   2.069   5.721   4.316
 4904SOL    HW215612   2.193   5.808   4.256
 4905SOL     OW15613   4.566   2.475   2.071
 4905SOL    HW115614   4.514   2.403   2.117
 4905SOL    HW215615   4.649   2.436   2.032
 4906SOL     OW15616   4.477   6.798   0.554
 4906SOL    HW115617   4.428   6.712   0.536
 4906SOL    HW215618   4.524   6.791   0.642
 4907SOL     OW15619   4.073   6.444   3.145
 4907SOL    HW115620   3.976   6.455   3.123
 4907SOL    HW215621   4.085   6.361   3.199
 4908SOL     OW15622   3.902   5.622   6.763
 4908SOL    HW115623   3.858   5.580   6.684
 4908SOL    HW215624   3.906   5.721   6.750
 4909SOL     OW15625   5.820   6.999   5.767
 4909SOL    HW115626   5.805   6.991   5.865
 4909SOL    HW215627   5.826   0.077   5.742
 4910SOL     OW15628   5.024   0.229   5.507
 4910SOL    HW115629   5.041   0.146   5.453
 4910SOL    HW215630   5.008   0.204   5.603
 4911SOL     OW15631   6.867   1.788   6.020
 4911SOL    HW115632   6.869   1.755   6.115
 4911SOL    HW215633   6.816   1.874   6.016
 4912SOL     OW15634   4.283   1.514   1.993
 4912SOL    HW115635   4.235   1.459   1.925
 4912SOL    HW215636   4.240   1.500   2.083
 4913SOL     OW15637   3.438   4.129   3.780
 4913SOL    HW115638   3.534   4.102   3.771
 4913SOL    HW215639   3.414   4.133   3.877
 4914SOL     OW15640   2.790   0.851   4.343
 4914SOL    HW115641   2.839   0.880   4.425
 4914SOL    HW215642   2.849   0.859   4.263
 4915SOL     OW15643   4.424   6.524   4.316
 4915SOL    HW115644   4.482   6.502   4.395
 4915SOL    HW215645   4.465   6.600   4.265
 4916SOL     OW15646   2.572   2.081   3.072
 4916SOL    HW115647   2.509   2.058   2.998
 4916SOL    HW215648   2.621   2.165   3.049
 4917SOL     OW15649   1.587   3.802   0.818
 4917SOL    HW115650   1.677   3.820   0.779
 4917SOL    HW215651   1.535   3.742   0.757
 4918SOL     OW15652   2.808   0.424   3.029
 4918SOL    HW115653   2.799   0.336   2.983
 4918SOL    HW215654   2.832   0.495   2.962
 4919SOL     OW15655   1.504   1.873   3.155
 4919SOL    HW115656   1.449   1.878   3.071
 4919SOL    HW215657   1.601   1.879   3.132
 4920SOL     OW15658   3.983   0.543   6.777
 4920SOL    HW115659   3.977   0.519   6.873
 4920SOL    HW215660   4.079   0.539   6.747
 4921SOL     OW15661   2.365   3.994   1.835
 4921SOL    HW115662   2.303   3.926   1.795
 4921SOL    HW215663   2.322   4.034   1.916
 4922SOL     OW15664   1.096   3.222   5.450
 4922SOL    HW115665   1.067   3.150   5.387
 4922SOL    HW215666   1.165   3.186   5.512
 4923SOL     OW15667   5.069   6.894   2.239
 4923SOL    HW115668   4.989   6.849   2.200
 4923SOL    HW215669   5.134   6.824   2.270
 4924SOL     OW15670   1.768   3.449   4.301
 4924SOL    HW115671   1.705   3.492   4.236
 4924SOL    HW215672   1.777   3.352   4.279
 4925SOL     OW15673   5.397   6.376   0.809
 4925SOL    HW115674   5.334   6.326   0.868
 4925SOL    HW215675   5.349   6.452   0.765
 4926SOL     OW15676   5.370   2.786   1.521
 4926SOL    HW115677   5.302   2.730   1.473
 4926SOL    HW215678   5.388   2.745   1.611
 4927SOL     OW15679   3.616   2.923   2.887
 4927SOL    HW115680   3.705   2.916   2.842
 4927SOL    HW215681   3.547   2.874   2.834
 4928SOL     OW15682   0.542   6.659   6.467
 4928SOL    HW115683   0.576   6.724   6.400
 4928SOL    HW215684   0.471   6.702   6.523
 4929SOL     OW15685   1.297   4.318   5.118
 4929SOL    HW115686   1.203   4.351   5.123
 4929SOL    HW215687   1.314   4.253   5.192
 4930SOL     OW15688   0.760   1.279   0.420
 4930SOL    HW115689   0.858   1.297   0.412
 4930SOL    HW215690   0.719   1.344   0.484
 4931SOL     OW15691   0.575   0.807   0.030
 4931SOL    HW115692   0.578   0.907   0.023
 4931SOL    HW215693   0.659   0.775   0.074
 4932SOL     OW15694   2.483   2.752   1.585
 4932SOL    HW115695   2.522   2.844   1.596
 4932SOL    HW215696   2.556   2.688   1.562
 4933SOL     OW15697   2.452   1.340   4.251
 4933SOL    HW115698   2.354   1.330   4.270
 4933SOL    HW215699   2.504   1.298   4.326
 4934SOL     OW15700   0.737   5.290   4.365
 4934SOL    HW115701   0.779   5.233   4.436
 4934SOL    HW215702   0.644   5.314   4.392
 4935SOL     OW15703   1.378   1.097   6.634
 4935SOL    HW115704   1.473   1.066   6.642
 4935SOL    HW215705   1.375   1.196   6.643
 4936SOL     OW15706   2.687   5.920   1.702
 4936SOL    HW115707   2.769   5.949   1.653
 4936SOL    HW215708   2.694   5.949   1.798
 4937SOL     OW15709   0.955   3.509   6.171
 4937SOL    HW115710   0.861   3.492   6.143
 4937SOL    HW215711   1.007   3.545   6.094
 4938SOL     OW15712   3.308   4.379   1.593
 4938SOL    HW115713   3.232   4.438   1.622
 4938SOL    HW215714   3.391   4.406   1.640
 4939SOL     OW15715   1.833   1.501   2.034
 4939SOL    HW115716   1.917   1.538   2.073
 4939SOL    HW215717   1.789   1.571   1.977
 4940SOL     OW15718   0.059   1.977   4.919
 4940SOL    HW115719   7.002   2.016   4.972
 4940SOL    HW215720   0.120   1.927   4.981
 4941SOL     OW15721   4.171   2.497   5.437
 4941SOL    HW115722   4.090   2.439   5.443
 4941SOL    HW215723   4.180   2.533   5.344
 4942SOL     OW15724   5.333   3.189   4.032
 4942SOL    HW115725   5.427   3.200   4.064
 4942SOL    HW215726   5.270   3.233   4.096
 4943SOL     OW15727   5.966   3.894   6.852
 4943SOL    HW115728   5.983   3.922   6.758
 4943SOL    HW215729   5.909   3.811   6.852
 4944SOL     OW15730   1.900   4.451   0.459
 4944SOL    HW115731   1.881   4.362   0.419
 4944SOL    HW215732   1.976   4.495   0.411
 4945SOL     OW15733   1.535   1.225   5.144
 4945SOL    HW115734   1.498   1.192   5.058
 4945SOL    HW215735   1.633   1.242   5.133
 4946SOL     OW15736   1.279   4.514   0.322
 4946SOL    HW115737   1.185   4.497   0.352
 4946SOL    HW215738   1.307   4.443   0.258
 4947SOL     OW15739   2.774   0.710   2.468
 4947SOL    HW115740   2.710   0.785   2.457
 4947SOL    HW215741   2.867   0.742   2.451
 4948SOL     OW15742   1.834   2.402   2.650
 4948SOL    HW115743   1.810   2.409   2.747
 4948SOL    HW215744   1.872   2.489   2.619
 4949SOL     OW15745   6.506   3.654   6.206
 4949SOL    HW115746   6.429   3.601   6.243
 4949SOL    HW215747   6.520   3.736   6.261
 4950SOL     OW15748   2.082   4.161   5.109
 4950SOL    HW115749   2.144   4.122   5.041
 4950SOL    HW215750   2.099   4.259   5.117
 4951SOL     OW15751   6.375   5.949   3.765
 4951SOL    HW115752   6.437   6.014   3.721
 4951SOL    HW215753   6.280   5.978   3.750
 4952SOL     OW15754   6.782   0.418   6.479
 4952SOL    HW115755   6.814   0.512   6.465
 4952SOL    HW215756   6.819   0.383   6.565
 4953SOL     OW15757   1.824   1.702   4.166
 4953SOL    HW115758   1.867   1.771   4.224
 4953SOL    HW215759   1.843   1.723   4.070
 4954SOL     OW15760   2.221   3.879   5.706
 4954SOL    HW115761   2.123   3.886   5.724
 4954SOL    HW215762   2.237   3.812   5.634
 4955SOL     OW15763   2.914   5.203   0.455
 4955SOL    HW115764   2.925   5.114   0.411
 4955SOL    HW215765   2.908   5.274   0.385
 4956SOL     OW15766   2.881   0.636   5.325
 4956SOL    HW115767   2.962   0.580   5.308
 4956SOL    HW215768   2.802   0.577   5.338
 4957SOL     OW15769   5.891   3.798   0.536
 4957SOL    HW115770   5.892   3.887   0.581
 4957SOL    HW215771   5.803   3.784   0.491
 4958SOL     OW15772   2.118   6.190   5.414
 4958SOL    HW115773   2.053   6.123   5.379
 4958SOL    HW215774   2.211   6.163   5.387
 4959SOL     OW15775   6.714   1.920   1.306
 4959SOL    HW115776   6.728   1.864   1.387
 4959SOL    HW215777   6.798   1.971   1.285
 4960SOL     OW15778   4.046   4.850   3.773
 4960SOL    HW115779   4.002   4.889   3.692
 4960SOL    HW215780   3.993   4.874   3.854
 4961SOL     OW15781   3.134   0.751   6.883
 4961SOL    HW115782   3.129   0.817   6.957
 4961SOL    HW215783   3.054   0.691   6.886
 4962SOL     OW15784   5.722   2.040   0.753
 4962SOL    HW115785   5.716   2.060   0.656
 4962SOL    HW215786   5.797   2.093   0.794
 4963SOL     OW15787   1.447   6.014   0.851
 4963SOL    HW115788   1.405   6.084   0.793
 4963SOL    HW215789   1.453   5.928   0.801
 4964SOL     OW15790   2.207   6.693   4.870
 4964SOL    HW115791   2.281   6.626   4.881
 4964SOL    HW215792   2.227   6.752   4.792
 4965SOL     OW15793   0.719   6.826   2.982
 4965SOL    HW115794   0.800   6.871   3.020
 4965SOL    HW215795   0.638   6.881   3.002
 4966SOL     OW15796   2.388   6.416   4.391
 4966SOL    HW115797   2.380   6.331   4.339
 4966SOL    HW215798   2.406   6.492   4.328
 4967SOL     OW15799   3.236   4.641   5.961
 4967SOL    HW115800   3.254   4.646   5.863
 4967SOL    HW215801   3.149   4.596   5.977
 4968SOL     OW15802   0.337   0.748   4.128
 4968SOL    HW115803   0.317   0.840   4.094
 4968SOL    HW215804   0.251   0.700   4.148
 4969SOL     OW15805   0.213   6.484   2.600
 4969SOL    HW115806   0.222   6.400   2.653
 4969SOL    HW215807   0.146   6.471   2.527
 4970SOL     OW15808   2.088   1.235   1.763
 4970SOL    HW115809   2.160   1.166   1.749
 4970SOL    HW215810   2.071   1.245   1.861
 4971SOL     OW15811   5.970   5.421   2.835
 4971SOL    HW115812   5.978   5.511   2.792
 4971SOL    HW215813   5.979   5.431   2.935
 4972SOL     OW15814   1.415   4.249   0.388
 4972SOL    HW115815   1.454   4.236   0.296
 4972SOL    HW215816   1.418   4.347   0.411
 4973SOL     OW15817   0.318   0.721   1.860
 4973SOL    HW115818   0.377   0.699   1.783
 4973SOL    HW215819   0.226   0.744   1.827
 4974SOL     OW15820   4.886   4.583   0.073
 4974SOL    HW115821   4.933   4.601   7.005
 4974SOL    HW215822   4.937   4.514   0.125
 4975SOL     OW15823   5.123   4.158   0.933
 4975SOL    HW115824   5.125   4.063   0.902
 4975SOL    HW215825   5.136   4.219   0.854
 4976SOL     OW15826   1.310   0.688   4.419
 4976SOL    HW115827   1.212   0.669   4.428
 4976SOL    HW215828   1.342   0.735   4.501
 4977SOL     OW15829   3.557   3.533   6.853
 4977SOL    HW115830   3.548   3.616   6.909
 4977SOL    HW215831   3.643   3.487   6.876
 4978SOL     OW15832   5.085   4.509   5.595
 4978SOL    HW115833   5.035   4.565   5.530
 4978SOL    HW215834   5.093   4.558   5.682
 4979SOL     OW15835   0.551   6.759   0.212
 4979SOL    HW115836   0.606   6.744   0.130
 4979SOL    HW215837   0.585   6.838   0.263
 4980SOL     OW15838   6.474   4.537   2.621
 4980SOL    HW115839   6.509   4.617   2.670
 4980SOL    HW215840   6.549   4.473   2.604
 4981SOL     OW15841   3.213   5.720   1.690
 4981SOL    HW115842   3.302   5.678   1.677
 4981SOL    HW215843   3.174   5.745   1.601
 4982SOL     OW15844   4.002   1.849   6.980
 4982SOL    HW115845   3.949   1.786   6.922
 4982SOL    HW215846   4.031   1.928   6.925
 4983SOL     OW15847   6.109   5.092   4.265
 4983SOL    HW115848   6.170   5.032   4.212
 4983SOL    HW215849   6.150   5.110   4.354
 4984SOL     OW15850   4.705   4.229   2.709
 4984SOL    HW115851   4.732   4.213   2.614
 4984SOL    HW215852   4.647   4.310   2.714
 4985SOL     OW15853   4.918   6.405   2.772
 4985SOL    HW115854   5.000   6.349   2.784
 4985SOL    HW215855   4.862   6.400   2.855
 4986SOL     OW15856   6.515   4.788   1.130
 4986SOL    HW115857   6.434   4.794   1.071
 4986SOL    HW215858   6.514   4.863   1.195
 4987SOL     OW15859   1.239   6.393   2.938
 4987SOL    HW115860   1.162   6.444   2.901
 4987SOL    HW215861   1.316   6.456   2.953
 4988SOL     OW15862   6.074   1.321   3.454
 4988SOL    HW115863   6.084   1.404   3.510
 4988SOL    HW215864   6.099   1.241   3.509
 4989SOL     OW15865   4.627   0.519   1.916
 4989SOL    HW115866   4.723   0.521   1.888
 4989SOL    HW215867   4.581   0.443   1.870
 4990SOL     OW15868   3.890   1.674   6.808
 4990SOL    HW115869   3.923   1.720   6.726
 4990SOL    HW215870   3.805   1.718   6.839
 4991SOL     OW15871   0.004   5.999   3.877
 4991SOL    HW115872   0.014   6.097   3.856
 4991SOL    HW215873   0.032   5.945   3.797
 4992SOL     OW15874   6.144   1.602   2.760
 4992SOL    HW115875   6.150   1.694   2.799
 4992SOL    HW215876   6.093   1.543   2.822
 4993SOL     OW15877   4.005   6.724   4.955
 4993SOL    HW115878   4.022   6.645   4.896
 4993SOL    HW215879   3.967   6.798   4.901
 4994SOL     OW15880   2.070   5.391   4.707
 4994SOL    HW115881   2.032   5.414   4.617
 4994SOL    HW215882   2.163   5.427   4.713
 4995SOL     OW15883   0.421   0.891   5.131
 4995SOL    HW115884   0.400   0.808   5.079
 4995SOL    HW215885   0.424   0.870   5.229
 4996SOL     OW15886   6.835   1.206   3.606
 4996SOL    HW115887   6.857   1.294   3.565
 4996SOL    HW215888   6.834   1.135   3.536
 4997SOL     OW15889   3.542   2.316   1.475
 4997SOL    HW115890   3.605   2.333   1.399
 4997SOL    HW215891   3.582   2.352   1.560
 4998SOL     OW15892   1.592   3.477   3.673
 4998SOL    HW115893   1.569   3.380   3.664
 4998SOL    HW215894   1.521   3.532   3.629
 4999SOL     OW15895   0.149   3.673   4.954
 4999SOL    HW115896   0.109   3.764   4.952
 4999SOL    HW215897   0.248   3.679   4.947
 5000SOL     OW15898   3.117   6.343   3.381
 5000SOL    HW115899   3.194   6.283   3.359
 5000SOL    HW215900   3.031   6.299   3.353
 5001SOL     OW15901   0.397   5.487   2.498
 5001SOL    HW115902   0.492   5.508   2.521
 5001SOL    HW215903   0.378   5.519   2.405
 5002SOL     OW15904   0.452   5.025   2.074
 5002SOL    HW115905   0.410   5.054   1.988
 5002SOL    HW215906   0.487   5.105   2.122
 5003SOL     OW15907   4.014   6.393   2.852
 5003SOL    HW115908   4.053   6.428   2.938
 5003SOL    HW215909   3.945   6.324   2.873
 5004SOL     OW15910   2.263   5.076   5.481
 5004SOL    HW115911   2.198   5.056   5.554
 5004SOL    HW215912   2.236   5.160   5.435
 5005SOL     OW15913   2.357   3.268   6.191
 5005SOL    HW115914   2.353   3.177   6.150
 5005SOL    HW215915   2.336   3.336   6.121
 5006SOL     OW15916   5.712   1.046   2.174
 5006SOL    HW115917   5.705   1.053   2.075
 5006SOL    HW215918   5.794   0.995   2.199
 5007SOL     OW15919   6.742   0.662   1.127
 5007SOL    HW115920   6.815   0.730   1.123
 5007SOL    HW215921   6.760   0.590   1.060
 5008SOL     OW15922   6.652   5.482   1.365
 5008SOL    HW115923   6.601   5.562   1.396
 5008SOL    HW215924   6.716   5.508   1.293
 5009SOL     OW15925   1.172   2.930   0.601
 5009SOL    HW115926   1.135   2.943   0.509
 5009SOL    HW215927   1.263   2.889   0.594
 5010SOL     OW15928   4.074   2.572   0.830
 5010SOL    HW115929   4.020   2.562   0.746
 5010SOL    HW215930   4.168   2.543   0.813
 5011SOL     OW15931   2.148   3.897   1.480
 5011SOL    HW115932   2.097   3.873   1.397
 5011SOL    HW215933   2.127   3.991   1.506
 5012SOL     OW15934   6.219   3.173   5.369
 5012SOL    HW115935   6.173   3.230   5.438
 5012SOL    HW215936   6.317   3.194   5.369
 5013SOL     OW15937   5.560   0.484   5.885
 5013SOL    HW115938   5.480   0.515   5.936
 5013SOL    HW215939   5.530   0.440   5.800
 5014SOL     OW15940   6.590   4.627   0.432
 5014SOL    HW115941   6.529   4.687   0.484
 5014SOL    HW215942   6.677   4.618   0.480
 5015SOL     OW15943   5.033   0.668   4.749
 5015SOL    HW115944   5.044   0.595   4.815
 5015SOL    HW215945   5.028   0.629   4.656
 5016SOL     OW15946   0.755   3.319   4.704
 5016SOL    HW115947   0.745   3.296   4.607
 5016SOL    HW215948   0.738   3.237   4.759
 5017SOL     OW15949   1.374   2.134   1.164
 5017SOL    HW115950   1.403   2.094   1.251
 5017SOL    HW215951   1.349   2.230   1.179
 5018SOL     OW15952   1.279   5.367   2.369
 5018SOL    HW115953   1.271   5.292   2.434
 5018SOL    HW215954   1.212   5.356   2.296
 5019SOL     OW15955   2.392   6.122   5.664
 5019SOL    HW115956   2.423   6.107   5.758
 5019SOL    HW215957   2.445   6.064   5.602
 5020SOL     OW15958   0.002   6.937   5.286
 5020SOL    HW115959   0.012   7.012   5.352
 5020SOL    HW215960   0.076   6.871   5.299
 5021SOL     OW15961   1.258   0.707   1.253
 5021SOL    HW115962   1.264   0.722   1.351
 5021SOL    HW215963   1.169   0.668   1.230
 5022SOL     OW15964   1.038   2.773   1.731
 5022SOL    HW115965   1.127   2.762   1.688
 5022SOL    HW215966   1.048   2.826   1.816
 5023SOL     OW15967   0.311   4.560   1.678
 5023SOL    HW115968   0.255   4.477   1.684
 5023SOL    HW215969   0.327   4.583   1.582
 5024SOL     OW15970   6.138   5.125   0.929
 5024SOL    HW115971   6.217   5.114   0.869
 5024SOL    HW215972   6.144   5.213   0.976
 5025SOL     OW15973   4.145   2.269   3.689
 5025SOL    HW115974   4.156   2.278   3.590
 5025SOL    HW215975   4.063   2.216   3.709
 5026SOL     OW15976   6.844   5.236   4.776
 5026SOL    HW115977   6.892   5.264   4.859
 5026SOL    HW215978   6.749   5.268   4.781
 5027SOL     OW15979   6.100   0.217   1.837
 5027SOL    HW115980   6.112   0.235   1.740
 5027SOL    HW215981   6.187   0.189   1.878
 5028SOL     OW15982   6.377   1.830   3.701
 5028SOL    HW115983   6.435   1.894   3.752
 5028SOL    HW215984   6.358   1.750   3.757
 5029SOL     OW15985   6.301   2.578   2.348
 5029SOL    HW115986   6.240   2.619   2.417
 5029SOL    HW215987   6.343   2.651   2.294
 5030SOL     OW15988   6.851   6.003   5.985
 5030SOL    HW115989   6.903   6.018   6.068
 5030SOL    HW215990   6.912   6.004   5.906
 5031SOL     OW15991   0.109   1.237   5.557
 5031SOL    HW115992   0.205   1.211   5.563
 5031SOL    HW215993   0.051   1.161   5.586
 5032SOL     OW15994   2.717   1.452   5.934
 5032SOL    HW115995   2.742   1.378   5.872
 5032SOL    HW215996   2.628   1.432   5.975
 5033SOL     OW15997   2.022   0.415   0.276
 5033SOL    HW115998   2.005   0.390   0.181
 5033SOL    HW215999   2.018   0.332   0.332
 5034SOL     OW16000   5.521   6.565   4.231
 5034SOL    HW116001   5.566   6.621   4.300
 5034SOL    HW216002   5.429   6.600   4.213
 5035SOL     OW16003   0.622   4.111   5.570
 5035SOL    HW116004   0.693   4.057   5.615
 5035SOL    HW216005   0.633   4.102   5.470
 5036SOL     OW16006   6.667   5.079   6.691
 5036SOL    HW116007   6.727   5.002   6.668
 5036SOL    HW216008   6.694   5.117   6.780
 5037SOL     OW16009   4.662   4.627   1.295
 5037SOL    HW116010   4.750   4.626   1.248
 5037SOL    HW216011   4.619   4.717   1.283
 5038SOL     OW16012   3.728   2.961   4.005
 5038SOL    HW116013   3.631   2.942   4.017
 5038SOL    HW216014   3.761   3.011   4.085
 5039SOL     OW16015   2.017   3.505   5.413
 5039SOL    HW116016   2.048   3.432   5.352
 5039SOL    HW216017   1.966   3.465   5.489
 5040SOL     OW16018   1.000   6.322   5.363
 5040SOL    HW116019   0.918   6.340   5.309
 5040SOL    HW216020   0.975   6.273   5.446
 5041SOL     OW16021   1.023   2.469   1.799
 5041SOL    HW116022   1.071   2.527   1.865
 5041SOL    HW216023   0.926   2.493   1.799
 5042SOL     OW16024   0.088   2.743   0.407
 5042SOL    HW116025   0.029   2.728   0.328
 5042SOL    HW216026   0.046   2.703   0.489
 5043SOL     OW16027   4.214   0.773   6.853
 5043SOL    HW116028   4.164   0.839   6.796
 5043SOL    HW216029   4.307   0.806   6.868
 5044SOL     OW16030   0.783   5.423   1.262
 5044SOL    HW116031   0.684   5.429   1.273
 5044SOL    HW216032   0.805   5.396   1.168
 5045SOL     OW16033   6.378   5.841   5.820
 5045SOL    HW116034   6.287   5.803   5.809
 5045SOL    HW216035   6.421   5.802   5.902
 5046SOL     OW16036   3.899   3.895   3.577
 5046SOL    HW116037   3.987   3.908   3.532
 5046SOL    HW216038   3.828   3.876   3.509
 5047SOL     OW16039   2.192   4.346   3.084
 5047SOL    HW116040   2.174   4.445   3.084
 5047SOL    HW216041   2.236   4.320   2.999
 5048SOL     OW16042   1.383   1.253   3.988
 5048SOL    HW116043   1.404   1.350   3.978
 5048SOL    HW216044   1.285   1.241   4.000
 5049SOL     OW16045   4.627   0.936   0.059
 5049SOL    HW116046   4.600   0.981   0.144
 5049SOL    HW216047   4.556   0.951   7.008
 5050SOL     OW16048   1.676   1.340   6.649
 5050SOL    HW116049   1.722   1.275   6.588
 5050SOL    HW216050   1.620   1.289   6.714
 5051SOL     OW16051   4.615   4.286   1.640
 5051SOL    HW116052   4.630   4.189   1.622
 5051SOL    HW216053   4.569   4.297   1.728
 5052SOL     OW16054   3.177   1.857   5.794
 5052SOL    HW116055   3.096   1.908   5.764
 5052SOL    HW216056   3.259   1.897   5.753
 5053SOL     OW16057   0.993   4.961   3.026
 5053SOL    HW116058   0.960   5.055   3.041
 5053SOL    HW216059   1.091   4.956   3.046
 5054SOL     OW16060   2.575   5.183   4.789
 5054SOL    HW116061   2.595   5.103   4.845
 5054SOL    HW216062   2.482   5.178   4.755
 5055SOL     OW16063   0.760   2.135   5.790
 5055SOL    HW116064   0.792   2.120   5.884
 5055SOL    HW216065   0.837   2.128   5.727
 5056SOL     OW16066   5.318   3.628   5.860
 5056SOL    HW116067   5.306   3.674   5.948
 5056SOL    HW216068   5.360   3.539   5.874
 5057SOL     OW16069   6.786   0.088   3.208
 5057SOL    HW116070   6.787   7.012   3.240
 5057SOL    HW216071   6.828   0.147   3.277
 5058SOL     OW16072   3.354   3.589   6.441
 5058SOL    HW116073   3.443   3.569   6.401
 5058SOL    HW216074   3.331   3.686   6.426
 5059SOL     OW16075   0.256   0.583   3.225
 5059SOL    HW116076   0.246   0.537   3.137
 5059SOL    HW216077   0.287   0.677   3.211
 5060SOL     OW16078   0.356   2.607   6.282
 5060SOL    HW116079   0.420   2.673   6.244
 5060SOL    HW216080   0.379   2.590   6.378
 5061SOL     OW16081   4.870   2.622   0.461
 5061SOL    HW116082   4.960   2.664   0.474
 5061SOL    HW216083   4.876   2.551   0.391
 5062SOL     OW16084   5.652   0.195   2.583
 5062SOL    HW116085   5.662   0.113   2.527
 5062SOL    HW216086   5.689   0.274   2.533
 5063SOL     OW16087   0.059   6.815   2.355
 5063SOL    HW116088   0.034   6.718   2.365
 5063SOL    HW216089   0.018   6.868   2.429
 5064SOL     OW16090   5.046   3.618   0.958
 5064SOL    HW116091   5.005   3.631   1.049
 5064SOL    HW216092   5.105   3.537   0.959
 5065SOL     OW16093   3.088   0.481   5.797
 5065SOL    HW116094   3.064   0.404   5.738
 5065SOL    HW216095   3.187   0.490   5.801
 5066SOL     OW16096   4.785   4.875   1.977
 5066SOL    HW116097   4.836   4.811   2.034
 5066SOL    HW216098   4.779   4.963   2.024
 5067SOL     OW16099   4.797   1.486   1.033
 5067SOL    HW116100   4.750   1.563   1.076
 5067SOL    HW216101   4.829   1.423   1.105
 5068SOL     OW16102   2.397   4.842   0.899
 5068SOL    HW116103   2.396   4.830   0.800
 5068SOL    HW216104   2.492   4.851   0.930
 5069SOL     OW16105   1.827   4.956   3.084
 5069SOL    HW116106   1.795   4.890   3.151
 5069SOL    HW216107   1.918   4.929   3.051
 5070SOL     OW16108   4.870   3.385   3.789
 5070SOL    HW116109   4.895   3.449   3.861
 5070SOL    HW216110   4.890   3.291   3.819
 5071SOL     OW16111   4.579   2.583   4.611
 5071SOL    HW116112   4.670   2.558   4.646
 5071SOL    HW216113   4.509   2.533   4.663
 5072SOL     OW16114   0.848   6.129   0.793
 5072SOL    HW116115   0.935   6.175   0.774
 5072SOL    HW216116   0.812   6.161   0.880
 5073SOL     OW16117   6.186   6.703   3.233
 5073SOL    HW116118   6.217   6.795   3.255
 5073SOL    HW216119   6.132   6.705   3.149
 5074SOL     OW16120   3.545   3.170   6.567
 5074SOL    HW116121   3.598   3.175   6.482
 5074SOL    HW216122   3.450   3.195   6.547
 5075SOL     OW16123   0.348   1.176   5.670
 5075SOL    HW116124   0.419   1.146   5.606
 5075SOL    HW216125   0.353   1.276   5.680
 5076SOL     OW16126   3.613   0.946   1.086
 5076SOL    HW116127   3.588   0.856   1.121
 5076SOL    HW216128   3.546   1.014   1.116
 5077SOL     OW16129   0.224   2.596   4.005
 5077SOL    HW116130   0.174   2.572   4.088
 5077SOL    HW216131   0.184   2.548   3.927
 5078SOL     OW16132   0.801   2.002   3.390
 5078SOL    HW116133   0.891   1.964   3.410
 5078SOL    HW216134   0.808   2.069   3.315
 5079SOL     OW16135   2.809   4.674   6.255
 5079SOL    HW116136   2.842   4.608   6.323
 5079SOL    HW216137   2.857   4.761   6.267
 5080SOL     OW16138   5.676   6.521   5.397
 5080SOL    HW116139   5.618   6.589   5.443
 5080SOL    HW216140   5.687   6.442   5.457
 5081SOL     OW16141   4.039   3.145   2.999
 5081SOL    HW116142   3.962   3.082   3.010
 5081SOL    HW216143   4.042   3.207   3.078
 5082SOL     OW16144   5.830   5.221   5.359
 5082SOL    HW116145   5.785   5.304   5.392
 5082SOL    HW216146   5.879   5.241   5.274
 5083SOL     OW16147   2.152   6.350   2.719
 5083SOL    HW116148   2.080   6.402   2.763
 5083SOL    HW216149   2.210   6.307   2.789
 5084SOL     OW16150   0.858   4.937   4.819
 5084SOL    HW116151   0.834   4.994   4.740
 5084SOL    HW216152   0.871   4.842   4.789
 5085SOL     OW16153   5.695   2.410   6.719
 5085SOL    HW116154   5.674   2.336   6.655
 5085SOL    HW216155   5.649   2.393   6.806
 5086SOL     OW16156   6.346   5.242   4.202
 5086SOL    HW116157   6.397   5.171   4.251
 5086SOL    HW216158   6.291   5.294   4.266
 5087SOL     OW16159   6.740   6.011   3.363
 5087SOL    HW116160   6.648   6.049   3.372
 5087SOL    HW216161   6.738   5.933   3.301
 5088SOL     OW16162   5.843   1.355   5.212
 5088SOL    HW116163   5.898   1.438   5.222
 5088SOL    HW216164   5.746   1.378   5.212
 5089SOL     OW16165   6.546   3.505   3.220
 5089SOL    HW116166   6.530   3.414   3.259
 5089SOL    HW216167   6.644   3.517   3.204
 5090SOL     OW16168   2.072   3.787   1.219
 5090SOL    HW116169   2.134   3.764   1.144
 5090SOL    HW216170   1.977   3.780   1.187
 5091SOL     OW16171   0.752   5.931   3.192
 5091SOL    HW116172   0.669   5.986   3.191
 5091SOL    HW216173   0.826   5.982   3.235
 5092SOL     OW16174   3.298   2.558   1.107
 5092SOL    HW116175   3.198   2.567   1.107
 5092SOL    HW216176   3.323   2.461   1.106
 5093SOL     OW16177   1.492   1.937   1.638
 5093SOL    HW116178   1.394   1.919   1.646
 5093SOL    HW216179   1.509   1.993   1.557
 5094SOL     OW16180   1.082   0.271   5.486
 5094SOL    HW116181   1.155   0.337   5.502
 5094SOL    HW216182   1.064   0.221   5.571
 5095SOL     OW16183   1.153   1.109   4.541
 5095SOL    HW116184   1.192   1.045   4.476
 5095SOL    HW216185   1.085   1.166   4.496
 5096SOL     OW16186   4.185   3.901   0.955
 5096SOL    HW116187   4.119   3.836   0.994
 5096SOL    HW216188   4.278   3.869   0.973
 5097SOL     OW16189   1.628   0.421   6.418
 5097SOL    HW116190   1.659   0.501   6.367
 5097SOL    HW216191   1.542   0.388   6.381
 5098SOL     OW16192   0.134   0.841   1.644
 5098SOL    HW116193   0.103   0.933   1.669
 5098SOL    HW216194   0.207   0.848   1.576
 5099SOL     OW16195   1.035   0.635   6.094
 5099SOL    HW116196   1.048   0.685   6.008
 5099SOL    HW216197   1.114   0.576   6.111
 5100SOL     OW16198   4.675   6.607   5.879
 5100SOL    HW116199   4.769   6.593   5.908
 5100SOL    HW216200   4.648   6.702   5.896
 5101SOL     OW16201   5.385   6.368   6.992
 5101SOL    HW116202   5.426   6.442   0.027
 5101SOL    HW216203   5.413   6.378   6.896
 5102SOL     OW16204   5.947   0.719   5.706
 5102SOL    HW116205   5.973   0.632   5.664
 5102SOL    HW216206   5.898   0.701   5.792
 5103SOL     OW16207   6.878   0.994   4.475
 5103SOL    HW116208   6.835   0.958   4.558
 5103SOL    HW216209   6.978   0.989   4.484
 5104SOL     OW16210   1.785   6.857   1.626
 5104SOL    HW116211   1.760   6.865   1.723
 5104SOL    HW216212   1.877   6.895   1.612
 5105SOL     OW16213   4.039   3.567   6.915
 5105SOL    HW116214   3.975   3.490   6.919
 5105SOL    HW216215   4.021   3.621   6.833
 5106SOL     OW16216   3.680   0.350   2.468
 5106SOL    HW116217   3.693   0.258   2.505
 5106SOL    HW216218   3.769   0.394   2.457
 5107SOL     OW16219   3.112   0.584   0.205
 5107SOL    HW116220   3.033   0.536   0.243
 5107SOL    HW216221   3.118   0.566   0.107
 5108SOL     OW16222   3.084   3.731   3.839
 5108SOL    HW116223   3.158   3.666   3.849
 5108SOL    HW216224   3.117   3.812   3.789
 5109SOL     OW16225   0.996   1.747   0.655
 5109SOL    HW116226   0.915   1.775   0.603
 5109SOL    HW216227   1.069   1.814   0.642
 5110SOL     OW16228   1.189   6.862   6.559
 5110SOL    HW116229   1.238   6.843   6.474
 5110SOL    HW216230   1.096   6.893   6.538
 5111SOL     OW16231   0.796   1.020   5.535
 5111SOL    HW116232   0.829   1.022   5.630
 5111SOL    HW216233   0.869   1.054   5.475
 5112SOL     OW16234   0.757   6.779   3.336
 5112SOL    HW116235   0.847   6.781   3.291
 5112SOL    HW216236   0.742   6.865   3.383
 5113SOL     OW16237   1.326   0.084   1.049
 5113SOL    HW116238   1.334   0.158   0.982
 5113SOL    HW216239   1.326   7.015   1.001
 5114SOL     OW16240   3.265   2.923   0.095
 5114SOL    HW116241   3.321   3.005   0.105
 5114SOL    HW216242   3.314   2.855   0.041
 5115SOL     OW16243   1.634   4.387   5.361
 5115SOL    HW116244   1.701   4.424   5.297
 5115SOL    HW216245   1.601   4.299   5.326
 5116SOL     OW16246   5.334   5.623   5.925
 5116SOL    HW116247   5.347   5.722   5.929
 5116SOL    HW216248   5.412   5.581   5.881
 5117SOL     OW16249   2.110   4.410   4.043
 5117SOL    HW116250   2.118   4.347   3.965
 5117SOL    HW216251   2.194   4.407   4.097
 5118SOL     OW16252   4.697   6.197   0.338
 5118SOL    HW116253   4.787   6.233   0.364
 5118SOL    HW216254   4.684   6.210   0.239
 5119SOL     OW16255   4.840   0.404   1.735
 5119SOL    HW116256   4.885   0.371   1.818
 5119SOL    HW216257   4.839   0.504   1.735
 5120SOL     OW16258   5.741   1.617   3.281
 5120SOL    HW116259   5.836   1.633   3.311
 5120SOL    HW216260   5.739   1.611   3.181
 5121SOL     OW16261   1.272   2.820   6.460
 5121SOL    HW116262   1.302   2.725   6.468
 5121SOL    HW216263   1.350   2.881   6.471
 5122SOL     OW16264   3.006   0.851   4.160
 5122SOL    HW116265   2.952   0.935   4.156
 5122SOL    HW216266   3.075   0.852   4.087
 5123SOL     OW16267   5.233   3.619   4.673
 5123SOL    HW116268   5.322   3.624   4.720
 5123SOL    HW216269   5.161   3.606   4.741
 5124SOL     OW16270   2.626   5.339   6.708
 5124SOL    HW116271   2.542   5.344   6.654
 5124SOL    HW216272   2.702   5.380   6.657
 5125SOL     OW16273   0.199   3.840   4.282
 5125SOL    HW116274   0.265   3.892   4.228
 5125SOL    HW216275   0.244   3.760   4.322
 5126SOL     OW16276   6.282   4.432   5.781
 5126SOL    HW116277   6.225   4.472   5.853
 5126SOL    HW216278   6.376   4.422   5.815
 5127SOL     OW16279   5.628   4.135   1.455
 5127SOL    HW116280   5.605   4.232   1.450
 5127SOL    HW216281   5.550   4.081   1.424
 5128SOL     OW16282   0.914   0.481   0.227
 5128SOL    HW116283   0.853   0.435   0.163
 5128SOL    HW216284   1.009   0.453   0.209
 5129SOL     OW16285   5.307   0.884   2.969
 5129SOL    HW116286   5.347   0.844   2.886
 5129SOL    HW216287   5.285   0.811   3.034
 5130SOL     OW16288   0.852   5.820   4.774
 5130SOL    HW116289   0.894   5.910   4.757
 5130SOL    HW216290   0.824   5.815   4.870
 5131SOL     OW16291   3.083   5.053   3.345
 5131SOL    HW116292   3.059   5.112   3.422
 5131SOL    HW216293   3.024   5.074   3.267
 5132SOL     OW16294   3.275   1.348   6.451
 5132SOL    HW116295   3.345   1.414   6.478
 5132SOL    HW216296   3.253   1.360   6.354
 5133SOL     OW16297   3.234   5.266   6.172
 5133SOL    HW116298   3.200   5.338   6.111
 5133SOL    HW216299   3.333   5.278   6.186
 5134SOL     OW16300   6.318   6.866   1.982
 5134SOL    HW116301   6.336   6.793   1.916
 5134SOL    HW216302   6.402   6.887   2.032
 5135SOL     OW16303   6.476   3.646   2.533
 5135SOL    HW116304   6.460   3.552   2.563
 5135SOL    HW216305   6.574   3.662   2.524
 5136SOL     OW16306   6.687   1.372   5.598
 5136SOL    HW116307   6.704   1.304   5.526
 5136SOL    HW216308   6.765   1.377   5.659
 5137SOL     OW16309   4.805   3.055   5.152
 5137SOL    HW116310   4.784   3.152   5.147
 5137SOL    HW216311   4.904   3.042   5.141
 5138SOL     OW16312   3.749   3.769   3.995
 5138SOL    HW116313   3.803   3.830   3.936
 5138SOL    HW216314   3.701   3.703   3.938
 5139SOL     OW16315   1.044   0.624   4.477
 5139SOL    HW116316   1.011   0.634   4.383
 5139SOL    HW216317   1.015   0.703   4.531
 5140SOL     OW16318   3.981   1.881   6.291
 5140SOL    HW116319   3.900   1.888   6.233
 5140SOL    HW216320   4.063   1.902   6.238
 5141SOL     OW16321   6.298   2.257   0.599
 5141SOL    HW116322   6.315   2.356   0.601
 5141SOL    HW216323   6.318   2.218   0.688
 5142SOL     OW16324   5.882   7.016   4.151
 5142SOL    HW116325   5.973   0.014   4.189
 5142SOL    HW216326   5.866   6.918   4.145
 5143SOL     OW16327   0.877   4.177   4.297
 5143SOL    HW116328   0.942   4.151   4.369
 5143SOL    HW216329   0.862   4.099   4.236
 5144SOL     OW16330   2.229   3.589   6.838
 5144SOL    HW116331   2.259   3.554   6.927
 5144SOL    HW216332   2.146   3.541   6.809
 5145SOL     OW16333   3.432   6.034   6.432
 5145SOL    HW116334   3.463   5.979   6.510
 5145SOL    HW216335   3.410   5.974   6.355
 5146SOL     OW16336   3.997   4.383   5.575
 5146SOL    HW116337   3.920   4.378   5.640
 5146SOL    HW216338   4.044   4.470   5.586
 5147SOL     OW16339   5.305   4.043   3.180
 5147SOL    HW116340   5.322   4.081   3.271
 5147SOL    HW216341   5.355   3.957   3.170
 5148SOL     OW16342   0.892   0.774   2.096
 5148SOL    HW116343   0.945   0.739   2.173
 5148SOL    HW216344   0.796   0.781   2.123
 5149SOL     OW16345   5.701   4.870   4.011
 5149SOL    HW116346   5.761   4.794   4.034
 5149SOL    HW216347   5.616   4.862   4.062
 5150SOL     OW16348   1.345   5.166   3.536
 5150SOL    HW116349   1.442   5.147   3.525
 5150SOL    HW216350   1.298   5.152   3.449
 5151SOL     OW16351   5.589   4.650   1.598
 5151SOL    HW116352   5.654   4.710   1.644
 5151SOL    HW216353   5.536   4.702   1.530
 5152SOL     OW16354   1.327   6.372   6.922
 5152SOL    HW116355   1.315   6.355   6.824
 5152SOL    HW216356   1.295   6.292   6.973
 5153SOL     OW16357   1.560   1.184   0.279
 5153SOL    HW116358   1.597   1.101   0.321
 5153SOL    HW216359   1.536   1.250   0.351
 5154SOL     OW16360   1.029   2.791   6.603
 5154SOL    HW116361   1.090   2.808   6.526
 5154SOL    HW216362   1.024   2.873   6.661
 5155SOL     OW16363   2.562   1.545   0.589
 5155SOL    HW116364   2.617   1.597   0.655
 5155SOL    HW216365   2.488   1.603   0.554
 5156SOL     OW16366   5.449   4.874   5.337
 5156SOL    HW116367   5.369   4.832   5.380
 5156SOL    HW216368   5.420   4.925   5.255
 5157SOL     OW16369   3.383   1.511   1.879
 5157SOL    HW116370   3.444   1.591   1.877
 5157SOL    HW216371   3.439   1.427   1.880
 5158SOL     OW16372   3.597   1.719   0.884
 5158SOL    HW116373   3.662   1.742   0.956
 5158SOL    HW216374   3.585   1.798   0.823
 5159SOL     OW16375   6.197   3.747   6.773
 5159SOL    HW116376   6.114   3.742   6.828
 5159SOL    HW216377   6.173   3.742   6.676
 5160SOL     OW16378   6.182   6.259   3.294
 5160SOL    HW116379   6.177   6.269   3.393
 5160SOL    HW216380   6.092   6.277   3.254
 5161SOL     OW16381   1.381   3.138   6.562
 5161SOL    HW116382   1.461   3.110   6.617
 5161SOL    HW216383   1.297   3.116   6.612
 5162SOL     OW16384   0.157   5.330   2.548
 5162SOL    HW116385   0.180   5.277   2.629
 5162SOL    HW216386   0.214   5.412   2.544
 5163SOL     OW16387   3.234   6.283   1.793
 5163SOL    HW116388   3.213   6.211   1.728
 5163SOL    HW216389   3.223   6.372   1.749
 5164SOL     OW16390   2.868   2.934   0.411
 5164SOL    HW116391   2.868   2.838   0.382
 5164SOL    HW216392   2.948   2.981   0.372
 5165SOL     OW16393   1.496   4.490   0.032
 5165SOL    HW116394   1.411   4.521   7.008
 5165SOL    HW216395   1.544   4.568   0.073
 5166SOL     OW16396   1.794   5.329   1.964
 5166SOL    HW116397   1.805   5.258   2.034
 5166SOL    HW216398   1.744   5.406   2.003
 5167SOL     OW16399   5.982   3.969   5.420
 5167SOL    HW116400   5.986   4.022   5.505
 5167SOL    HW216401   5.999   4.029   5.342
 5168SOL     OW16402   4.913   2.184   2.280
 5168SOL    HW116403   4.945   2.174   2.374
 5168SOL    HW216404   4.988   2.163   2.217
 5169SOL     OW16405   4.047   1.634   3.927
 5169SOL    HW116406   3.970   1.570   3.932
 5169SOL    HW216407   4.029   1.702   3.856
 5170SOL     OW16408   1.520   3.484   6.136
 5170SOL    HW116409   1.617   3.509   6.136
 5170SOL    HW216410   1.511   3.387   6.113
 5171SOL     OW16411   1.452   5.074   5.411
 5171SOL    HW116412   1.456   5.084   5.510
 5171SOL    HW216413   1.401   4.991   5.387
 5172SOL     OW16414   1.535   5.474   4.090
 5172SOL    HW116415   1.582   5.536   4.152
 5172SOL    HW216416   1.438   5.498   4.085
 5173SOL     OW16417   4.321   3.920   6.288
 5173SOL    HW116418   4.390   3.962   6.228
 5173SOL    HW216419   4.268   3.991   6.333
 5174SOL     OW16420   1.670   6.965   3.840
 5174SOL    HW116421   1.630   6.960   3.748
 5174SOL    HW216422   1.757   6.916   3.841
 5175SOL     OW16423   3.128   4.431   6.263
 5175SOL    HW116424   3.171   4.346   6.232
 5175SOL    HW216425   3.049   4.409   6.320
 5176SOL     OW16426   5.180   5.358   5.918
 5176SOL    HW116427   5.240   5.438   5.920
 5176SOL    HW216428   5.227   5.282   5.871
 5177SOL     OW16429   5.310   6.827   0.986
 5177SOL    HW116430   5.251   6.838   1.066
 5177SOL    HW216431   5.256   6.795   0.908
 5178SOL     OW16432   0.658   4.255   2.029
 5178SOL    HW116433   0.599   4.223   1.955
 5178SOL    HW216434   0.681   4.351   2.014
 5179SOL     OW16435   5.164   4.033   2.923
 5179SOL    HW116436   5.258   4.002   2.942
 5179SOL    HW216437   5.166   4.101   2.850
 5180SOL     OW16438   2.878   6.855   1.316
 5180SOL    HW116439   2.953   6.885   1.376
 5180SOL    HW216440   2.798   6.833   1.371
 5181SOL     OW16441   0.191   0.573   6.943
 5181SOL    HW116442   0.226   0.664   6.922
 5181SOL    HW216443   0.135   0.541   6.866
 5182SOL     OW16444   4.448   4.515   2.182
 5182SOL    HW116445   4.488   4.443   2.125
 5182SOL    HW216446   4.357   4.538   2.147
 5183SOL     OW16447   3.994   2.180   2.892
 5183SOL    HW116448   4.041   2.096   2.866
 5183SOL    HW216449   4.061   2.248   2.922
 5184SOL     OW16450   2.074   2.580   3.628
 5184SOL    HW116451   2.046   2.539   3.715
 5184SOL    HW216452   2.133   2.516   3.578
 5185SOL     OW16453   4.731   0.363   2.734
 5185SOL    HW116454   4.777   0.319   2.811
 5185SOL    HW216455   4.780   0.343   2.649
 5186SOL     OW16456   6.270   3.048   6.204
 5186SOL    HW116457   6.209   3.019   6.130
 5186SOL    HW216458   6.321   3.129   6.174
 5187SOL     OW16459   2.338   5.446   4.694
 5187SOL    HW116460   2.338   5.539   4.730
 5187SOL    HW216461   2.410   5.437   4.625
 5188SOL     OW16462   6.983   6.374   1.735
 5188SOL    HW116463   7.001   6.470   1.715
 5188SOL    HW216464   0.048   6.331   1.771
 5189SOL     OW16465   5.732   6.758   6.334
 5189SOL    HW116466   5.802   6.701   6.291
 5189SOL    HW216467   5.774   6.819   6.401
 5190SOL     OW16468   1.813   2.937   2.519
 5190SOL    HW116469   1.889   2.996   2.549
 5190SOL    HW216470   1.774   2.974   2.435
 5191SOL     OW16471   2.919   6.019   2.792
 5191SOL    HW116472   2.945   5.931   2.751
 5191SOL    HW216473   2.985   6.043   2.863
 5192SOL     OW16474   1.748   6.160   1.723
 5192SOL    HW116475   1.703   6.175   1.811
 5192SOL    HW216476   1.690   6.102   1.666
 5193SOL     OW16477   5.299   0.161   6.832
 5193SOL    HW116478   5.259   0.240   6.785
 5193SOL    HW216479   5.290   0.080   6.774
 5194SOL     OW16480   3.295   1.867   6.522
 5194SOL    HW116481   3.277   1.840   6.427
 5194SOL    HW216482   3.389   1.843   6.545
 5195SOL     OW16483   0.586   0.716   3.466
 5195SOL    HW116484   0.571   0.623   3.432
 5195SOL    HW216485   0.509   0.774   3.440
 5196SOL     OW16486   4.514   6.605   2.915
 5196SOL    HW116487   4.536   6.683   2.857
 5196SOL    HW216488   4.599   6.566   2.952
 5197SOL     OW16489   2.036   3.270   6.581
 5197SOL    HW116490   2.102   3.196   6.568
 5197SOL    HW216491   2.077   3.356   6.551
 5198SOL     OW16492   4.572   5.450   3.012
 5198SOL    HW116493   4.497   5.400   2.969
 5198SOL    HW216494   4.536   5.524   3.068
 5199SOL     OW16495   0.190   5.334   1.154
 5199SOL    HW116496   0.282   5.310   1.125
 5199SOL    HW216497   0.193   5.415   1.212
 5200SOL     OW16498   0.416   3.976   5.127
 5200SOL    HW116499   0.515   3.967   5.138
 5200SOL    HW216500   0.379   3.892   5.088
 5201SOL     OW16501   0.425   6.700   3.956
 5201SOL    HW116502   0.382   6.665   3.872
 5201SOL    HW216503   0.389   6.651   4.035
 5202SOL     OW16504   6.953   3.096   6.524
 5202SOL    HW116505   6.988   3.020   6.469
 5202SOL    HW216506   6.872   3.134   6.480
 5203SOL     OW16507   0.810   2.490   0.032
 5203SOL    HW116508   0.876   2.562   0.014
 5203SOL    HW216509   0.853   2.401   0.016
 5204SOL     OW16510   4.085   5.248   0.411
 5204SOL    HW116511   4.018   5.199   0.467
 5204SOL    HW216512   4.037   5.311   0.351
 5205SOL     OW16513   1.916   0.179   1.746
 5205SOL    HW116514   1.840   0.169   1.810
 5205SOL    HW216515   1.960   0.267   1.760
 5206SOL     OW16516   0.789   4.524   6.836
 5206SOL    HW116517   0.762   4.446   6.780
 5206SOL    HW216518   0.889   4.527   6.845
 5207SOL     OW16519   1.256   5.544   4.069
 5207SOL    HW116520   1.177   5.565   4.011
 5207SOL    HW216521   1.230   5.552   4.165
 5208SOL     OW16522   3.447   1.008   0.573
 5208SOL    HW116523   3.445   1.074   0.497
 5208SOL    HW216524   3.459   1.056   0.659
 5209SOL     OW16525   5.879   5.735   3.727
 5209SOL    HW116526   5.858   5.831   3.710
 5209SOL    HW216527   5.835   5.705   3.812
 5210SOL     OW16528   5.613   4.008   5.187
 5210SOL    HW116529   5.677   3.934   5.208
 5210SOL    HW216530   5.606   4.069   5.266
 5211SOL     OW16531   3.436   3.246   3.583
 5211SOL    HW116532   3.359   3.190   3.613
 5211SOL    HW216533   3.519   3.189   3.577
 5212SOL     OW16534   6.669   2.427   1.004
 5212SOL    HW116535   6.593   2.487   1.026
 5212SOL    HW216536   6.684   2.426   0.905
 5213SOL     OW16537   5.259   1.434   6.514
 5213SOL    HW116538   5.196   1.512   6.509
 5213SOL    HW216539   5.276   1.412   6.610
 5214SOL     OW16540   5.515   1.249   6.555
 5214SOL    HW116541   5.457   1.173   6.529
 5214SOL    HW216542   5.461   1.317   6.604
 5215SOL     OW16543   5.654   5.363   3.175
 5215SOL    HW116544   5.676   5.371   3.078
 5215SOL    HW216545   5.736   5.381   3.230
 5216SOL     OW16546   5.000   6.029   1.291
 5216SOL    HW116547   4.932   6.045   1.363
 5216SOL    HW216548   5.092   6.039   1.328
 5217SOL     OW16549   3.081   5.248   4.023
 5217SOL    HW116550   3.154   5.221   4.087
 5217SOL    HW216551   3.085   5.189   3.942
 5218SOL     OW16552   1.716   0.484   3.730
 5218SOL    HW116553   1.681   0.566   3.684
 5218SOL    HW216554   1.679   0.403   3.686
 5219SOL     OW16555   3.463   6.861   6.602
 5219SOL    HW116556   3.537   6.807   6.562
 5219SOL    HW216557   3.490   6.957   6.605
 5220SOL     OW16558   1.134   5.502   2.614
 5220SOL    HW116559   1.051   5.533   2.568
 5220SOL    HW216560   1.207   5.490   2.547
 5221SOL     OW16561   5.678   2.258   4.596
 5221SOL    HW116562   5.759   2.200   4.609
 5221SOL    HW216563   5.614   2.211   4.536
 5222SOL     OW16564   2.640   6.885   4.487
 5222SOL    HW116565   2.691   6.836   4.557
 5222SOL    HW216566   2.552   6.914   4.524
 5223SOL     OW16567   4.663   0.532   1.128
 5223SOL    HW116568   4.762   0.513   1.130
 5223SOL    HW216569   4.622   0.501   1.214
 5224SOL     OW16570   6.980   1.455   3.392
 5224SOL    HW116571   6.912   1.518   3.354
 5224SOL    HW216572   0.053   1.486   3.366
 5225SOL     OW16573   6.249   1.006   2.985
 5225SOL    HW116574   6.152   1.003   2.964
 5225SOL    HW216575   6.262   0.999   3.084
 5226SOL     OW16576   0.277   6.438   5.358
 5226SOL    HW116577   0.343   6.470   5.426
 5226SOL    HW216578   0.186   6.436   5.398
 5227SOL     OW16579   0.862   5.091   4.095
 5227SOL    HW116580   0.781   5.140   4.064
 5227SOL    HW216581   0.944   5.141   4.067
 5228SOL     OW16582   6.461   2.554   0.337
 5228SOL    HW116583   6.410   2.536   0.421
 5228SOL    HW216584   6.476   2.652   0.327
 5229SOL     OW16585   2.222   4.351   6.596
 5229SOL    HW116586   2.314   4.337   6.561
 5229SOL    HW216587   2.217   4.319   6.691
 5230SOL     OW16588   0.701   0.322   0.764
 5230SOL    HW116589   0.609   0.346   0.733
 5230SOL    HW216590   0.760   0.403   0.759
 5231SOL     OW16591   3.015   3.209   4.794
 5231SOL    HW116592   2.976   3.301   4.793
 5231SOL    HW216593   3.045   3.187   4.887
 5232SOL     OW16594   3.408   2.070   6.345
 5232SOL    HW116595   3.391   1.974   6.364
 5232SOL    HW216596   3.502   2.093   6.369
 5233SOL     OW16597   6.698   6.569   1.366
 5233SOL    HW116598   6.629   6.543   1.434
 5233SOL    HW216599   6.760   6.492   1.352
 5234SOL     OW16600   3.367   0.012   0.085
 5234SOL    HW116601   3.363   0.040   0.180
 5234SOL    HW216602   3.368   0.092   0.026
 5235SOL     OW16603   1.772   2.922   1.397
 5235SOL    HW116604   1.754   2.933   1.495
 5235SOL    HW216605   1.851   2.977   1.371
 5236SOL     OW16606   5.393   3.252   1.316
 5236SOL    HW116607   5.365   3.305   1.236
 5236SOL    HW216608   5.378   3.154   1.298
 5237SOL     OW16609   2.593   1.913   5.211
 5237SOL    HW116610   2.602   1.895   5.113
 5237SOL    HW216611   2.519   1.857   5.248
 5238SOL     OW16612   1.916   5.591   0.432
 5238SOL    HW116613   1.881   5.554   0.518
 5238SOL    HW216614   1.916   5.520   0.363
 5239SOL     OW16615   3.804   3.613   4.220
 5239SOL    HW116616   3.719   3.572   4.251
 5239SOL    HW216617   3.788   3.663   4.135
 5240SOL     OW16618   3.195   2.277   5.724
 5240SOL    HW116619   3.183   2.234   5.635
 5240SOL    HW216620   3.120   2.251   5.785
 5241SOL     OW16621   1.572   5.692   6.419
 5241SOL    HW116622   1.564   5.770   6.356
 5241SOL    HW216623   1.617   5.722   6.503
 5242SOL     OW16624   5.827   0.233   4.981
 5242SOL    HW116625   5.775   0.241   5.066
 5242SOL    HW216626   5.912   0.183   4.999
 5243SOL     OW16627   1.424   6.424   0.993
 5243SOL    HW116628   1.429   6.347   1.056
 5243SOL    HW216629   1.398   6.507   1.043
 5244SOL     OW16630   4.352   4.192   6.008
 5244SOL    HW116631   4.348   4.154   5.915
 5244SOL    HW216632   4.404   4.277   6.006
 5245SOL     OW16633   4.247   4.115   6.654
 5245SOL    HW116634   4.189   4.043   6.617
 5245SOL    HW216635   4.287   4.168   6.579
 5246SOL     OW16636   6.630   4.100   2.402
 5246SOL    HW116637   6.611   4.019   2.458
 5246SOL    HW216638   6.547   4.128   2.355
 5247SOL     OW16639   1.076   6.521   0.187
 5247SOL    HW116640   1.072   6.474   0.099
 5247SOL    HW216641   1.020   6.472   0.254
 5248SOL     OW16642   5.226   6.846   5.835
 5248SOL    HW116643   5.159   6.863   5.907
 5248SOL    HW216644   5.178   6.812   5.753
 5249SOL     OW16645   0.374   5.540   5.056
 5249SOL    HW116646   0.434   5.571   4.983
 5249SOL    HW216647   0.429   5.511   5.135
 5250SOL     OW16648   0.142   1.087   6.054
 5250SOL    HW116649   0.154   1.083   5.955
 5250SOL    HW216650   0.225   1.056   6.099
 5251SOL     OW16651   0.187   2.866   1.107
 5251SOL    HW116652   0.140   2.816   1.180
 5251SOL    HW216653   0.238   2.802   1.050
 5252SOL     OW16654   2.132   5.524   1.128
 5252SOL    HW116655   2.228   5.504   1.147
 5252SOL    HW216656   2.104   5.606   1.177
 5253SOL     OW16657   5.728   4.107   4.795
 5253SOL    HW116658   5.736   4.192   4.743
 5253SOL    HW216659   5.698   4.033   4.735
 5254SOL     OW16660   5.150   1.481   3.577
 5254SOL    HW116661   5.086   1.545   3.619
 5254SOL    HW216662   5.101   1.421   3.514
 5255SOL     OW16663   3.769   0.376   4.657
 5255SOL    HW116664   3.808   0.466   4.680
 5255SOL    HW216665   3.702   0.386   4.584
 5256SOL     OW16666   5.211   0.790   3.272
 5256SOL    HW116667   5.122   0.799   3.317
 5256SOL    HW216668   5.282   0.824   3.333
 5257SOL     OW16669   4.687   0.025   2.169
 5257SOL    HW116670   4.757   6.974   2.150
 5257SOL    HW216671   4.679   0.087   2.092
 5258SOL     OW16672   5.112   4.771   1.622
 5258SOL    HW116673   5.035   4.729   1.671
 5258SOL    HW216674   5.198   4.732   1.656
 5259SOL     OW16675   4.587   6.373   1.344
 5259SOL    HW116676   4.531   6.421   1.277
 5259SOL    HW216677   4.678   6.356   1.305
 5260SOL     OW16678   4.975   3.220   0.918
 5260SOL    HW116679   4.998   3.129   0.885
 5260SOL    HW216680   5.024   3.288   0.864
 5261SOL     OW16681   1.129   2.562   5.389
 5261SOL    HW116682   1.119   2.484   5.450
 5261SOL    HW216683   1.049   2.570   5.330
 5262SOL     OW16684   2.465   6.903   2.824
 5262SOL    HW116685   2.384   6.953   2.792
 5262SOL    HW216686   2.547   6.943   2.783
 5263SOL     OW16687   0.857   0.212   6.340
 5263SOL    HW116688   0.782   0.220   6.405
 5263SOL    HW216689   0.943   0.234   6.385
 5264SOL     OW16690   6.346   1.153   1.658
 5264SOL    HW116691   6.310   1.245   1.672
 5264SOL    HW216692   6.293   1.088   1.713
 5265SOL     OW16693   5.088   4.199   2.425
 5265SOL    HW116694   5.129   4.207   2.334
 5265SOL    HW216695   5.152   4.151   2.485
 5266SOL     OW16696   2.338   6.519   1.301
 5266SOL    HW116697   2.253   6.468   1.285
 5266SOL    HW216698   2.408   6.458   1.336
 5267SOL     OW16699   4.498   4.732   5.645
 5267SOL    HW116700   4.458   4.727   5.737
 5267SOL    HW216701   4.553   4.651   5.628
 5268SOL     OW16702   6.453   5.270   5.456
 5268SOL    HW116703   6.508   5.323   5.391
 5268SOL    HW216704   6.356   5.281   5.434
 5269SOL     OW16705   2.135   6.407   4.017
 5269SOL    HW116706   2.105   6.424   4.111
 5269SOL    HW216707   2.230   6.439   4.007
 5270SOL     OW16708   4.872   2.149   1.878
 5270SOL    HW116709   4.883   2.184   1.785
 5270SOL    HW216710   4.776   2.125   1.893
 5271SOL     OW16711   4.477   5.242   4.198
 5271SOL    HW116712   4.440   5.164   4.147
 5271SOL    HW216713   4.430   5.326   4.170
 5272SOL     OW16714   1.024   6.101   3.683
 5272SOL    HW116715   1.051   6.039   3.757
 5272SOL    HW216716   0.929   6.131   3.697
 5273SOL     OW16717   1.119   2.897   3.613
 5273SOL    HW116718   1.110   2.994   3.635
 5273SOL    HW216719   1.178   2.887   3.533
 5274SOL     OW16720   6.110   5.001   2.661
 5274SOL    HW116721   6.127   5.064   2.736
 5274SOL    HW216722   6.150   4.912   2.682
 5275SOL     OW16723   3.132   1.021   6.220
 5275SOL    HW116724   3.043   0.981   6.242
 5275SOL    HW216725   3.151   1.008   6.123
 5276SOL     OW16726   0.369   5.908   0.635
 5276SOL    HW116727   0.293   5.854   0.672
 5276SOL    HW216728   0.349   6.005   0.644
 5277SOL     OW16729   1.747   2.047   2.961
 5277SOL    HW116730   1.701   2.111   3.022
 5277SOL    HW216731   1.787   2.096   2.884
 5278SOL     OW16732   5.494   6.969   5.700
 5278SOL    HW116733   5.560   6.976   5.625
 5278SOL    HW216734   5.453   6.878   5.700
 5279SOL     OW16735   1.121   6.489   6.276
 5279SOL    HW116736   1.063   6.441   6.209
 5279SOL    HW216737   1.199   6.431   6.300
 5280SOL     OW16738   3.519   5.993   5.203
 5280SOL    HW116739   3.543   5.922   5.270
 5280SOL    HW216740   3.420   6.003   5.198
 5281SOL     OW16741   1.089   1.840   3.793
 5281SOL    HW116742   1.086   1.902   3.714
 5281SOL    HW216743   1.041   1.756   3.770
 5282SOL     OW16744   1.923   0.378   2.355
 5282SOL    HW116745   1.825   0.358   2.344
 5282SOL    HW216746   1.969   0.300   2.397
 5283SOL     OW16747   1.344   1.005   3.208
 5283SOL    HW116748   1.326   1.101   3.189
 5283SOL    HW216749   1.258   0.959   3.231
 5284SOL     OW16750   4.702   2.672   3.131
 5284SOL    HW116751   4.641   2.607   3.176
 5284SOL    HW216752   4.723   2.746   3.194
 5285SOL     OW16753   1.058   3.502   4.173
 5285SOL    HW116754   1.138   3.443   4.181
 5285SOL    HW216755   1.014   3.488   4.084
 5286SOL     OW16756   6.332   3.233   1.088
 5286SOL    HW116757   6.351   3.135   1.093
 5286SOL    HW216758   6.278   3.252   1.006
 5287SOL     OW16759   3.043   5.424   1.341
 5287SOL    HW116760   3.074   5.336   1.376
 5287SOL    HW216761   2.984   5.469   1.408
 5288SOL     OW16762   4.132   0.266   2.841
 5288SOL    HW116763   4.176   0.199   2.901
 5288SOL    HW216764   4.143   0.357   2.880
 5289SOL     OW16765   2.409   5.267   6.035
 5289SOL    HW116766   2.336   5.238   6.097
 5289SOL    HW216767   2.495   5.273   6.086
 5290SOL     OW16768   1.668   3.647   5.387
 5290SOL    HW116769   1.669   3.615   5.292
 5290SOL    HW216770   1.633   3.574   5.446
 5291SOL     OW16771   2.903   4.553   6.015
 5291SOL    HW116772   2.872   4.585   6.104
 5291SOL    HW216773   2.905   4.453   6.014
 5292SOL     OW16774   5.859   4.648   6.153
 5292SOL    HW116775   5.859   4.641   6.053
 5292SOL    HW216776   5.768   4.676   6.184
 5293SOL     OW16777   1.756   7.016   5.283
 5293SOL    HW116778   1.667   0.004   5.238
 5293SOL    HW216779   1.805   6.935   5.248
 5294SOL     OW16780   4.692   1.978   5.234
 5294SOL    HW116781   4.614   2.023   5.190
 5294SOL    HW216782   4.670   1.882   5.250
 5295SOL     OW16783   3.664   0.843   3.094
 5295SOL    HW116784   3.672   0.864   2.997
 5295SOL    HW216785   3.698   0.920   3.148
 5296SOL     OW16786   3.301   4.196   6.885
 5296SOL    HW116787   3.240   4.203   6.806
 5296SOL    HW216788   3.252   4.156   6.962
 5297SOL     OW16789   1.453   3.476   0.040
 5297SOL    HW116790   1.404   3.525   0.112
 5297SOL    HW216791   1.389   3.421   7.006
 5298SOL     OW16792   1.617   6.416   6.952
 5298SOL    HW116793   1.637   6.495   7.010
 5298SOL    HW216794   1.518   6.403   6.946
 5299SOL     OW16795   2.867   2.678   0.296
 5299SOL    HW116796   2.902   2.708   0.207
 5299SOL    HW216797   2.935   2.622   0.342
 5300SOL     OW16798   0.368   5.859   1.463
 5300SOL    HW116799   0.304   5.813   1.523
 5300SOL    HW216800   0.367   5.816   1.373
 5301SOL     OW16801   4.260   1.934   6.201
 5301SOL    HW116802   4.239   1.876   6.122
 5301SOL    HW216803   4.335   1.894   6.253
 5302SOL     OW16804   5.848   5.838   3.253
 5302SOL    HW116805   5.881   5.808   3.163
 5302SOL    HW216806   5.908   5.802   3.324
 5303SOL     OW16807   6.995   5.278   5.040
 5303SOL    HW116808   7.015   5.217   5.117
 5303SOL    HW216809   0.060   5.293   4.988
 5304SOL     OW16810   5.932   0.535   0.178
 5304SOL    HW116811   5.973   0.473   0.246
 5304SOL    HW216812   5.835   0.545   0.197
 5305SOL     OW16813   0.847   5.290   2.557
 5305SOL    HW116814   0.864   5.226   2.483
 5305SOL    HW216815   0.863   5.245   2.645
 5306SOL     OW16816   0.839   4.832   5.728
 5306SOL    HW116817   0.911   4.769   5.700
 5306SOL    HW216818   0.846   4.916   5.674
 5307SOL     OW16819   3.676   1.488   0.262
 5307SOL    HW116820   3.655   1.586   0.255
 5307SOL    HW216821   3.618   1.437   0.198
 5308SOL     OW16822   1.519   4.430   2.686
 5308SOL    HW116823   1.576   4.489   2.627
 5308SOL    HW216824   1.428   4.471   2.695
 5309SOL     OW16825   3.814   4.899   2.059
 5309SOL    HW116826   3.726   4.852   2.052
 5309SOL    HW216827   3.868   4.858   2.131
 5310SOL     OW16828   5.996   3.449   1.920
 5310SOL    HW116829   5.964   3.426   1.828
 5310SOL    HW216830   5.976   3.545   1.939
 5311SOL     OW16831   6.101   6.738   0.379
 5311SOL    HW116832   6.119   6.738   0.281
 5311SOL    HW216833   6.057   6.824   0.405
 5312SOL     OW16834   0.856   5.532   1.703
 5312SOL    HW116835   0.926   5.549   1.773
 5312SOL    HW216836   0.897   5.480   1.628
 5313SOL     OW16837   1.131   2.830   6.236
 5313SOL    HW116838   1.200   2.857   6.303
 5313SOL    HW216839   1.152   2.738   6.201
 5314SOL     OW16840   4.177   6.474   0.107
 5314SOL    HW116841   4.106   6.537   0.077
 5314SOL    HW216842   4.249   6.524   0.153
 5315SOL     OW16843   5.131   3.530   1.939
 5315SOL    HW116844   5.152   3.624   1.912
 5315SOL    HW216845   5.063   3.531   2.013
 5316SOL     OW16846   0.766   3.416   5.309
 5316SOL    HW116847   0.741   3.335   5.255
 5316SOL    HW216848   0.708   3.493   5.282
 5317SOL     OW16849   6.019   1.697   5.410
 5317SOL    HW116850   6.026   1.664   5.504
 5317SOL    HW216851   6.044   1.794   5.407
 5318SOL     OW16852   0.722   2.480   0.676
 5318SOL    HW116853   0.688   2.386   0.669
 5318SOL    HW216854   0.741   2.501   0.772
 5319SOL     OW16855   4.323   5.979   0.358
 5319SOL    HW116856   4.243   5.931   0.395
 5319SOL    HW216857   4.292   6.060   0.307
 5320SOL     OW16858   4.271   4.896   0.726
 5320SOL    HW116859   4.351   4.946   0.692
 5320SOL    HW216860   4.202   4.890   0.654
 5321SOL     OW16861   2.061   4.765   4.462
 5321SOL    HW116862   2.037   4.671   4.435
 5321SOL    HW216863   2.070   4.770   4.561
 5322SOL     OW16864   5.315   5.979   0.312
 5322SOL    HW116865   5.360   6.052   0.261
 5322SOL    HW216866   5.272   6.017   0.394
 5323SOL     OW16867   3.947   1.725   5.996
 5323SOL    HW116868   3.913   1.671   5.919
 5323SOL    HW216869   3.939   1.671   6.080
 5324SOL     OW16870   3.453   2.449   0.845
 5324SOL    HW116871   3.402   2.521   0.799
 5324SOL    HW216872   3.551   2.465   0.835
 5325SOL     OW16873   3.965   0.488   4.269
 5325SOL    HW116874   4.027   0.412   4.287
 5325SOL    HW216875   3.893   0.458   4.206
 5326SOL     OW16876   6.695   5.124   3.299
 5326SOL    HW116877   6.702   5.187   3.377
 5326SOL    HW216878   6.640   5.165   3.227
 5327SOL     OW16879   5.936   3.080   5.566
 5327SOL    HW116880   5.837   3.086   5.581
 5327SOL    HW216881   5.980   3.045   5.649
 5328SOL     OW16882   3.686   3.758   5.724
 5328SOL    HW116883   3.692   3.711   5.812
 5328SOL    HW216884   3.752   3.716   5.660
 5329SOL     OW16885   0.643   4.577   6.476
 5329SOL    HW116886   0.562   4.562   6.419
 5329SOL    HW216887   0.726   4.557   6.423
 5330SOL     OW16888   4.645   3.788   0.212
 5330SOL    HW116889   4.639   3.869   0.154
 5330SOL    HW216890   4.572   3.790   0.280
 5331SOL     OW16891   6.223   1.438   6.536
 5331SOL    HW116892   6.207   1.531   6.571
 5331SOL    HW216893   6.316   1.410   6.558
 5332SOL     OW16894   0.661   3.098   1.325
 5332SOL    HW116895   0.591   3.063   1.263
 5332SOL    HW216896   0.751   3.080   1.286
 5333SOL     OW16897   0.784   0.629   2.950
 5333SOL    HW116898   0.760   0.711   2.897
 5333SOL    HW216899   0.866   0.647   3.004
 5334SOL     OW16900   3.173   0.071   4.137
 5334SOL    HW116901   3.215   7.008   4.098
 5334SOL    HW216902   3.198   0.151   4.083
 5335SOL     OW16903   0.172   6.021   0.862
 5335SOL    HW116904   0.270   6.042   0.861
 5335SOL    HW216905   0.160   5.922   0.872
 5336SOL     OW16906   1.847   3.554   3.056
 5336SOL    HW116907   1.790   3.567   2.975
 5336SOL    HW216908   1.840   3.634   3.116
 5337SOL     OW16909   5.020   4.427   1.377
 5337SOL    HW116910   4.934   4.436   1.427
 5337SOL    HW216911   5.005   4.373   1.294
 5338SOL     OW16912   5.552   1.542   0.484
 5338SOL    HW116913   5.649   1.519   0.469
 5338SOL    HW216914   5.538   1.566   0.580
 5339SOL     OW16915   0.044   1.828   4.180
 5339SOL    HW116916   0.133   1.871   4.186
 5339SOL    HW216917   0.008   1.838   4.087
 5340SOL     OW16918   4.685   4.317   1.091
 5340SOL    HW116919   4.668   4.343   1.186
 5340SOL    HW216920   4.705   4.219   1.085
 5341SOL     OW16921   3.378   2.756   6.291
 5341SOL    HW116922   3.325   2.821   6.238
 5341SOL    HW216923   3.415   2.800   6.373
 5342SOL     OW16924   4.013   7.006   4.173
 5342SOL    HW116925   4.049   0.081   4.173
 5342SOL    HW216926   3.914   7.009   4.157
 5343SOL     OW16927   3.552   4.093   4.608
 5343SOL    HW116928   3.560   3.999   4.643
 5343SOL    HW216929   3.614   4.105   4.530
 5344SOL     OW16930   2.245   2.883   2.579
 5344SOL    HW116931   2.273   2.815   2.648
 5344SOL    HW216932   2.256   2.844   2.488
 5345SOL     OW16933   3.989   5.953   1.115
 5345SOL    HW116934   3.962   5.865   1.155
 5345SOL    HW216935   3.927   5.974   1.039
 5346SOL     OW16936   3.297   5.986   4.022
 5346SOL    HW116937   3.286   6.049   3.945
 5346SOL    HW216938   3.389   5.993   4.059
 5347SOL     OW16939   0.773   2.737   2.325
 5347SOL    HW116940   0.856   2.767   2.373
 5347SOL    HW216941   0.799   2.684   2.244
 5348SOL     OW16942   0.293   1.909   0.871
 5348SOL    HW116943   0.309   1.842   0.943
 5348SOL    HW216944   0.280   1.999   0.912
 5349SOL     OW16945   1.151   2.644   0.175
 5349SOL    HW116946   1.238   2.684   0.203
 5349SOL    HW216947   1.163   2.594   0.089
 5350SOL     OW16948   1.982   0.408   5.421
 5350SOL    HW116949   1.999   0.496   5.465
 5350SOL    HW216950   2.002   0.333   5.484
 5351SOL     OW16951   6.302   5.820   1.886
 5351SOL    HW116952   6.208   5.785   1.884
 5351SOL    HW216953   6.362   5.756   1.838
 5352SOL     OW16954   1.982   5.638   3.542
 5352SOL    HW116955   1.998   5.657   3.639
 5352SOL    HW216956   2.040   5.698   3.487
 5353SOL     OW16957   3.897   5.277   3.675
 5353SOL    HW116958   3.944   5.358   3.639
 5353SOL    HW216959   3.800   5.283   3.655
 5354SOL     OW16960   2.321   5.411   1.741
 5354SOL    HW116961   2.265   5.431   1.822
 5354SOL    HW216962   2.335   5.312   1.735
 5355SOL     OW16963   5.078   3.056   3.655
 5355SOL    HW116964   5.025   3.071   3.572
 5355SOL    HW216965   5.175   3.057   3.633
 5356SOL     OW16966   5.837   4.465   1.727
 5356SOL    HW116967   5.789   4.543   1.687
 5356SOL    HW216968   5.777   4.385   1.727
 5357SOL     OW16969   4.156   6.249   6.962
 5357SOL    HW116970   4.213   6.168   6.953
 5357SOL    HW216971   4.181   6.298   0.027
 5358SOL     OW16972   4.337   1.334   0.228
 5358SOL    HW116973   4.241   1.350   0.253
 5358SOL    HW216974   4.366   1.402   0.161
 5359SOL     OW16975   1.613   1.937   6.950
 5359SOL    HW116976   1.560   1.955   0.014
 5359SOL    HW216977   1.666   2.019   6.926
 5360SOL     OW16978   4.509   6.573   5.622
 5360SOL    HW116979   4.565   6.562   5.704
 5360SOL    HW216980   4.442   6.499   5.617
 5361SOL     OW16981   1.956   0.232   4.925
 5361SOL    HW116982   2.021   0.302   4.952
 5361SOL    HW216983   1.906   0.263   4.844
 5362SOL     OW16984   5.506   5.215   3.417
 5362SOL    HW116985   5.527   5.295   3.474
 5362SOL    HW216986   5.462   5.245   3.332
 5363SOL     OW16987   0.493   0.016   6.414
 5363SOL    HW116988   0.503   0.013   6.315
 5363SOL    HW216989   0.417   6.975   6.442
 5364SOL     OW16990   6.864   5.821   1.863
 5364SOL    HW116991   6.796   5.812   1.936
 5364SOL    HW216992   6.931   5.891   1.888
 5365SOL     OW16993   3.517   3.131   6.827
 5365SOL    HW116994   3.487   3.135   6.731
 5365SOL    HW216995   3.442   3.159   6.887
 5366SOL     OW16996   5.089   5.697   1.512
 5366SOL    HW116997   5.159   5.644   1.465
 5366SOL    HW216998   5.131   5.748   1.587
 5367SOL     OW16999   0.811   5.782   0.884
 5367SOL    HW117000   0.730   5.791   0.826
 5367SOL    HW217001   0.858   5.870   0.890
 5368SOL     OW17002   5.405   0.281   2.743
 5368SOL    HW117003   5.475   0.277   2.672
 5368SOL    HW217004   5.359   0.369   2.740
 5369SOL     OW17005   3.172   0.002   2.065
 5369SOL    HW117006   3.254   7.011   2.008
 5369SOL    HW217007   3.099   6.965   2.027
 5370SOL     OW17008   4.330   2.875   1.339
 5370SOL    HW117009   4.392   2.807   1.380
 5370SOL    HW217010   4.237   2.857   1.370
 5371SOL     OW17011   1.536   4.124   4.289
 5371SOL    HW117012   1.564   4.028   4.286
 5371SOL    HW217013   1.552   4.166   4.199
 5372SOL     OW17014   2.157   5.926   3.696
 5372SOL    HW117015   2.249   5.907   3.661
 5372SOL    HW217016   2.125   5.848   3.749
 5373SOL     OW17017   3.781   6.195   3.760
 5373SOL    HW117018   3.868   6.146   3.774
 5373SOL    HW217019   3.799   6.281   3.713
 5374SOL     OW17020   1.067   4.251   0.072
 5374SOL    HW117021   1.063   4.153   0.052
 5374SOL    HW217022   0.975   4.290   0.070
 5375SOL     OW17023   1.874   4.958   4.539
 5375SOL    HW117024   1.816   4.885   4.576
 5375SOL    HW217025   1.951   4.918   4.489
 5376SOL     OW17026   2.060   3.246   0.416
 5376SOL    HW117027   2.074   3.153   0.449
 5376SOL    HW217028   2.068   3.247   0.316
 5377SOL     OW17029   0.331   0.498   1.989
 5377SOL    HW117030   0.333   0.580   1.932
 5377SOL    HW217031   0.364   0.420   1.936
 5378SOL     OW17032   0.213   0.446   2.225
 5378SOL    HW117033   0.264   0.470   2.143
 5378SOL    HW217034   0.251   0.496   2.303
 5379SOL     OW17035   1.975   5.715   5.137
 5379SOL    HW117036   1.913   5.707   5.215
 5379SOL    HW217037   1.932   5.675   5.056
 5380SOL     OW17038   2.123   1.740   3.754
 5380SOL    HW117039   2.187   1.814   3.735
 5380SOL    HW217040   2.076   1.714   3.670
 5381SOL     OW17041   6.372   3.934   0.977
 5381SOL    HW117042   6.305   3.999   0.940
 5381SOL    HW217043   6.358   3.844   0.936
 5382SOL     OW17044   3.075   0.420   2.430
 5382SOL    HW117045   3.154   0.477   2.456
 5382SOL    HW217046   3.103   0.358   2.356
 5383SOL     OW17047   2.304   2.468   5.387
 5383SOL    HW117048   2.304   2.516   5.299
 5383SOL    HW217049   2.244   2.387   5.380
 5384SOL     OW17050   6.054   0.363   4.409
 5384SOL    HW117051   5.970   0.330   4.364
 5384SOL    HW217052   6.049   0.345   4.507
 5385SOL     OW17053   3.030   3.174   4.238
 5385SOL    HW117054   3.019   3.154   4.335
 5385SOL    HW217055   3.007   3.270   4.221
 5386SOL     OW17056   4.718   0.045   4.628
 5386SOL    HW117057   4.817   0.043   4.613
 5386SOL    HW217058   4.698   0.080   4.719
 5387SOL     OW17059   3.139   6.469   3.867
 5387SOL    HW117060   3.150   6.566   3.842
 5387SOL    HW217061   3.050   6.437   3.835
 5388SOL     OW17062   6.292   0.269   3.641
 5388SOL    HW117063   6.216   0.266   3.705
 5388SOL    HW217064   6.263   0.232   3.553
 5389SOL     OW17065   4.608   0.954   1.673
 5389SOL    HW117066   4.688   0.913   1.715
 5389SOL    HW217067   4.556   1.005   1.742
 5390SOL     OW17068   4.785   4.025   3.319
 5390SOL    HW117069   4.738   4.062   3.239
 5390SOL    HW217070   4.868   3.978   3.290
 5391SOL     OW17071   1.554   2.472   1.411
 5391SOL    HW117072   1.621   2.418   1.359
 5391SOL    HW217073   1.478   2.498   1.351
 5392SOL     OW17074   5.734   3.122   1.336
 5392SOL    HW117075   5.725   3.207   1.286
 5392SOL    HW217076   5.667   3.119   1.410
 5393SOL     OW17077   5.371   6.959   6.686
 5393SOL    HW117078   5.378   7.009   6.599
 5393SOL    HW217079   5.408   6.867   6.674
 5394SOL     OW17080   6.890   4.374   6.942
 5394SOL    HW117081   6.913   4.310   7.014
 5394SOL    HW217082   6.820   4.438   6.975
 5395SOL     OW17083   4.830   1.152   1.734
 5395SOL    HW117084   4.838   1.154   1.833
 5395SOL    HW217085   4.739   1.183   1.706
 5396SOL     OW17086   4.881   4.450   2.877
 5396SOL    HW117087   4.880   4.356   2.842
 5396SOL    HW217088   4.884   4.514   2.800
 5397SOL     OW17089   6.959   2.999   1.825
 5397SOL    HW117090   6.966   3.060   1.903
 5397SOL    HW217091   6.982   3.050   1.741
 5398SOL     OW17092   3.353   1.823   2.675
 5398SOL    HW117093   3.401   1.852   2.593
 5398SOL    HW217094   3.303   1.901   2.714
 5399SOL     OW17095   2.527   5.574   6.827
 5399SOL    HW117096   2.563   5.487   6.793
 5399SOL    HW217097   2.509   5.566   6.925
 5400SOL     OW17098   2.606   4.082   0.846
 5400SOL    HW117099   2.562   3.992   0.844
 5400SOL    HW217100   2.642   4.103   0.756
 5401SOL     OW17101   5.475   3.668   2.042
 5401SOL    HW117102   5.410   3.694   2.113
 5401SOL    HW217103   5.448   3.579   2.004
 5402SOL     OW17104   1.958   4.567   1.960
 5402SOL    HW117105   2.041   4.527   1.923
 5402SOL    HW217106   1.981   4.641   2.024
 5403SOL     OW17107   6.440   2.382   6.337
 5403SOL    HW117108   6.423   2.334   6.422
 5403SOL    HW217109   6.353   2.416   6.300
 5404SOL     OW17110   0.870   1.291   2.822
 5404SOL    HW117111   0.933   1.361   2.788
 5404SOL    HW217112   0.777   1.313   2.794
 5405SOL     OW17113   5.732   5.916   6.886
 5405SOL    HW117114   5.732   5.974   6.804
 5405SOL    HW217115   5.749   5.821   6.859
 5406SOL     OW17116   2.660   0.550   0.075
 5406SOL    HW117117   2.690   0.459   0.103
 5406SOL    HW217118   2.571   0.544   0.030
 5407SOL     OW17119   4.135   2.992   1.111
 5407SOL    HW117120   4.102   2.913   1.059
 5407SOL    HW217121   4.232   3.005   1.092
 5408SOL     OW17122   3.401   1.109   6.359
 5408SOL    HW117123   3.378   1.150   6.448
 5408SOL    HW217124   3.317   1.084   6.311
 5409SOL     OW17125   6.080   1.112   3.967
 5409SOL    HW117126   6.067   1.153   4.058
 5409SOL    HW217127   5.994   1.119   3.916
 5410SOL     OW17128   2.260   2.930   1.460
 5410SOL    HW117129   2.344   2.878   1.475
 5410SOL    HW217130   2.182   2.867   1.453
 5411SOL     OW17131   6.203   5.182   5.742
 5411SOL    HW117132   6.240   5.273   5.729
 5411SOL    HW217133   6.127   5.167   5.679
 5412SOL     OW17134   4.170   1.070   6.461
 5412SOL    HW117135   4.086   1.018   6.449
 5412SOL    HW217136   4.192   1.119   6.377
 5413SOL     OW17137   1.920   1.419   1.326
 5413SOL    HW117138   1.950   1.371   1.409
 5413SOL    HW217139   1.955   1.513   1.328
 5414SOL     OW17140   5.765   2.708   5.202
 5414SOL    HW117141   5.711   2.792   5.201
 5414SOL    HW217142   5.706   2.630   5.220
 5415SOL     OW17143   1.500   6.161   1.097
 5415SOL    HW117144   1.586   6.140   1.144
 5415SOL    HW217145   1.488   6.100   1.019
 5416SOL     OW17146   4.723   4.537   6.211
 5416SOL    HW117147   4.699   4.609   6.275
 5416SOL    HW217148   4.652   4.529   6.141
 5417SOL     OW17149   4.021   6.702   5.608
 5417SOL    HW117150   3.944   6.639   5.612
 5417SOL    HW217151   3.992   6.793   5.639
 5418SOL     OW17152   3.886   6.695   3.954
 5418SOL    HW117153   3.967   6.637   3.959
 5418SOL    HW217154   3.854   6.716   4.047
 5419SOL     OW17155   2.938   4.932   0.364
 5419SOL    HW117156   3.004   4.876   0.415
 5419SOL    HW217157   2.939   4.905   0.268
 5420SOL     OW17158   1.152   2.264   2.282
 5420SOL    HW117159   1.090   2.187   2.266
 5420SOL    HW217160   1.230   2.257   2.219
 5421SOL     OW17161   1.966   3.192   2.848
 5421SOL    HW117162   2.014   3.246   2.917
 5421SOL    HW217163   1.878   3.161   2.885
 5422SOL     OW17164   0.901   5.520   0.040
 5422SOL    HW117165   0.899   5.578   6.977
 5422SOL    HW217166   0.907   5.577   0.122
 5423SOL     OW17167   5.790   2.607   0.310
 5423SOL    HW117168   5.794   2.648   0.219
 5423SOL    HW217169   5.839   2.521   0.311
 5424SOL     OW17170   5.027   2.928   4.350
 5424SOL    HW117171   5.096   2.862   4.320
 5424SOL    HW217172   4.952   2.931   4.283
 5425SOL     OW17173   4.251   1.563   4.097
 5425SOL    HW117174   4.205   1.603   4.018
 5425SOL    HW217175   4.223   1.467   4.108
 5426SOL     OW17176   6.026   5.183   4.006
 5426SOL    HW117177   6.096   5.122   3.968
 5426SOL    HW217178   6.014   5.164   4.103
 5427SOL     OW17179   4.837   4.766   0.488
 5427SOL    HW117180   4.739   4.781   0.493
 5427SOL    HW217181   4.882   4.815   0.563
 5428SOL     OW17182   0.075   0.407   1.880
 5428SOL    HW117183   0.096   0.450   1.792
 5428SOL    HW217184   0.134   0.445   1.951
 5429SOL     OW17185   1.240   1.953   5.900
 5429SOL    HW117186   1.244   1.950   5.999
 5429SOL    HW217187   1.328   1.924   5.862
 5430SOL     OW17188   0.658   3.593   5.833
 5430SOL    HW117189   0.729   3.660   5.811
 5430SOL    HW217190   0.671   3.511   5.777
 5431SOL     OW17191   3.466   5.659   0.263
 5431SOL    HW117192   3.562   5.638   0.281
 5431SOL    HW217193   3.411   5.575   0.275
 5432SOL     OW17194   4.940   6.375   6.790
 5432SOL    HW117195   4.870   6.305   6.779
 5432SOL    HW217196   4.964   6.384   6.886
 5433SOL     OW17197   0.539   1.869   3.657
 5433SOL    HW117198   0.568   1.788   3.607
 5433SOL    HW217199   0.599   1.882   3.736
 5434SOL     OW17200   3.990   1.089   4.917
 5434SOL    HW117201   4.055   1.029   4.964
 5434SOL    HW217202   3.962   1.163   4.978
 5435SOL     OW17203   5.108   1.083   1.704
 5435SOL    HW117204   5.009   1.091   1.717
 5435SOL    HW217205   5.128   1.080   1.606
 5436SOL     OW17206   5.094   3.715   3.836
 5436SOL    HW117207   5.184   3.672   3.838
 5436SOL    HW217208   5.079   3.757   3.747
 5437SOL     OW17209   3.218   4.694   6.251
 5437SOL    HW117210   3.190   4.598   6.247
 5437SOL    HW217211   3.267   4.717   6.167
 5438SOL     OW17212   6.415   3.914   2.504
 5438SOL    HW117213   6.434   3.819   2.529
 5438SOL    HW217214   6.395   3.967   2.586
 5439SOL     OW17215   1.105   2.888   1.359
 5439SOL    HW117216   1.123   2.820   1.430
 5439SOL    HW217217   1.115   2.980   1.398
 5440SOL     OW17218   0.589   1.451   2.122
 5440SOL    HW117219   0.615   1.547   2.136
 5440SOL    HW217220   0.662   1.391   2.153
 5441SOL     OW17221   4.965   2.157   2.555
 5441SOL    HW117222   5.019   2.238   2.579
 5441SOL    HW217223   5.024   2.076   2.559
 5442SOL     OW17224   3.788   5.980   3.409
 5442SOL    HW117225   3.776   5.909   3.478
 5442SOL    HW217226   3.706   6.037   3.407
 5443SOL     OW17227   2.767   0.595   3.939
 5443SOL    HW117228   2.842   0.660   3.931
 5443SOL    HW217229   2.681   0.640   3.912
 5444SOL     OW17230   1.736   0.656   4.270
 5444SOL    HW117231   1.769   0.605   4.350
 5444SOL    HW217232   1.641   0.631   4.253
 5445SOL     OW17233   6.007   3.968   3.820
 5445SOL    HW117234   6.088   4.026   3.811
 5445SOL    HW217235   5.995   3.944   3.917
 5446SOL     OW17236   6.389   4.836   4.912
 5446SOL    HW117237   6.306   4.892   4.910
 5446SOL    HW217238   6.469   4.896   4.910
 5447SOL     OW17239   2.252   1.791   6.439
 5447SOL    HW117240   2.186   1.724   6.472
 5447SOL    HW217241   2.321   1.744   6.383
 5448SOL     OW17242   4.801   3.107   4.792
 5448SOL    HW117243   4.812   3.054   4.708
 5448SOL    HW217244   4.707   3.101   4.824
 5449SOL     OW17245   1.772   2.321   6.547
 5449SOL    HW117246   1.867   2.346   6.560
 5449SOL    HW217247   1.731   2.380   6.476
 5450SOL     OW17248   1.426   0.668   2.027
 5450SOL    HW117249   1.525   0.679   2.024
 5450SOL    HW217250   1.392   0.643   1.936
 5451SOL     OW17251   0.953   6.128   3.297
 5451SOL    HW117252   1.010   6.111   3.378
 5451SOL    HW217253   1.011   6.130   3.216
 5452SOL     OW17254   2.557   4.096   6.807
 5452SOL    HW117255   2.558   4.185   6.761
 5452SOL    HW217256   2.496   4.034   6.759
 5453SOL     OW17257   5.312   4.630   1.716
 5453SOL    HW117258   5.252   4.563   1.672
 5453SOL    HW217259   5.407   4.612   1.688
 5454SOL     OW17260   6.992   3.832   6.547
 5454SOL    HW117261   0.067   3.826   6.584
 5454SOL    HW217262   6.927   3.808   6.619
 5455SOL     OW17263   6.335   2.817   0.712
 5455SOL    HW117264   6.336   2.851   0.618
 5455SOL    HW217265   6.409   2.860   0.763
 5456SOL     OW17266   2.999   0.384   6.958
 5456SOL    HW117267   3.094   0.409   6.941
 5456SOL    HW217268   2.959   0.344   6.876
 5457SOL     OW17269   6.669   2.186   6.539
 5457SOL    HW117270   6.739   2.256   6.547
 5457SOL    HW217271   6.579   2.227   6.550
 5458SOL     OW17272   0.556   4.423   0.177
 5458SOL    HW117273   0.483   4.358   0.156
 5458SOL    HW217274   0.560   4.493   0.105
 5459SOL     OW17275   2.260   4.045   6.659
 5459SOL    HW117276   2.175   3.993   6.646
 5459SOL    HW217277   2.298   4.070   6.570
 5460SOL     OW17278   3.652   0.528   3.258
 5460SOL    HW117279   3.593   0.452   3.231
 5460SOL    HW217280   3.620   0.612   3.213
 5461SOL     OW17281   5.939   6.927   5.533
 5461SOL    HW117282   6.011   6.992   5.509
 5461SOL    HW217283   5.908   6.945   5.626
 5462SOL     OW17284   0.681   7.004   6.756
 5462SOL    HW117285   0.732   6.919   6.738
 5462SOL    HW217286   0.704   0.054   6.687
 5463SOL     OW17287   6.730   2.118   0.415
 5463SOL    HW117288   6.680   2.178   0.353
 5463SOL    HW217289   6.675   2.104   0.498
 5464SOL     OW17290   1.133   1.137   4.014
 5464SOL    HW117291   1.043   1.157   3.975
 5464SOL    HW217292   1.122   1.078   4.094
 5465SOL     OW17293   3.557   6.147   3.354
 5465SOL    HW117294   3.483   6.083   3.372
 5465SOL    HW217295   3.536   6.236   3.395
 5466SOL     OW17296   5.588   3.591   5.445
 5466SOL    HW117297   5.659   3.609   5.376
 5466SOL    HW217298   5.542   3.677   5.469
 5467SOL     OW17299   5.052   2.854   2.857
 5467SOL    HW117300   5.017   2.802   2.779
 5467SOL    HW217301   5.002   2.828   2.940
 5468SOL     OW17302   5.740   2.501   4.693
 5468SOL    HW117303   5.703   2.415   4.657
 5468SOL    HW217304   5.839   2.501   4.685
 5469SOL     OW17305   4.239   5.579   6.381
 5469SOL    HW117306   4.147   5.580   6.419
 5469SOL    HW217307   4.305   5.599   6.454
 5470SOL     OW17308   3.538   6.139   2.577
 5470SOL    HW117309   3.471   6.209   2.553
 5470SOL    HW217310   3.513   6.052   2.535
 5471SOL     OW17311   4.876   7.010   2.479
 5471SOL    HW117312   4.940   6.971   2.413
 5471SOL    HW217313   4.879   6.957   2.564
 5472SOL     OW17314   4.278   3.574   5.808
 5472SOL    HW117315   4.216   3.509   5.853
 5472SOL    HW217316   4.253   3.667   5.835
 5473SOL     OW17317   0.234   3.308   2.876
 5473SOL    HW117318   0.176   3.372   2.827
 5473SOL    HW217319   0.310   3.280   2.818
 5474SOL     OW17320   1.546   4.757   4.343
 5474SOL    HW117321   1.593   4.674   4.373
 5474SOL    HW217322   1.612   4.818   4.300
 5475SOL     OW17323   2.111   3.129   1.569
 5475SOL    HW117324   2.127   3.168   1.660
 5475SOL    HW217325   2.191   3.076   1.541
 5476SOL     OW17326   1.858   4.300   5.604
 5476SOL    HW117327   1.935   4.308   5.667
 5476SOL    HW217328   1.887   4.330   5.512
 5477SOL     OW17329   2.317   4.805   3.386
 5477SOL    HW117330   2.258   4.725   3.393
 5477SOL    HW217331   2.316   4.856   3.472
 5478SOL     OW17332   4.035   5.401   4.941
 5478SOL    HW117333   3.958   5.373   4.883
 5478SOL    HW217334   4.120   5.395   4.888
 5479SOL     OW17335   5.025   1.326   6.092
 5479SOL    HW117336   4.992   1.232   6.097
 5479SOL    HW217337   5.094   1.341   6.163
 5480SOL     OW17338   6.716   4.331   3.184
 5480SOL    HW117339   6.777   4.409   3.197
 5480SOL    HW217340   6.748   4.277   3.106
 5481SOL     OW17341   4.442   1.527   4.383
 5481SOL    HW117342   4.344   1.514   4.399
 5481SOL    HW217343   4.492   1.507   4.467
 5482SOL     OW17344   3.375   5.079   1.299
 5482SOL    HW117345   3.356   5.093   1.202
 5482SOL    HW217346   3.397   5.167   1.342
 5483SOL     OW17347   6.986   1.871   5.649
 5483SOL    HW117348   6.967   1.968   5.665
 5483SOL    HW217349   6.987   1.853   5.550
 5484SOL     OW17350   4.146   1.374   4.727
 5484SOL    HW117351   4.068   1.399   4.785
 5484SOL    HW217352   4.217   1.332   4.783
 5485SOL     OW17353   4.416   0.213   5.663
 5485SOL    HW117354   4.351   0.288   5.654
 5485SOL    HW217355   4.435   0.174   5.573
 5486SOL     OW17356   2.586   5.749   5.469
 5486SOL    HW117357   2.679   5.735   5.436
 5486SOL    HW217358   2.521   5.713   5.403
 5487SOL     OW17359   4.047   3.186   6.733
 5487SOL    HW117360   3.957   3.214   6.764
 5487SOL    HW217361   4.088   3.258   6.677
 5488SOL     OW17362   6.108   0.524   1.311
 5488SOL    HW117363   6.153   0.456   1.368
 5488SOL    HW217364   6.094   0.487   1.219
 5489SOL     OW17365   0.303   3.767   1.416
 5489SOL    HW117366   0.297   3.843   1.482
 5489SOL    HW217367   0.223   3.769   1.356
 5490SOL     OW17368   2.449   0.444   2.293
 5490SOL    HW117369   2.447   0.368   2.228
 5490SOL    HW217370   2.446   0.409   2.386
 5491SOL     OW17371   0.759   2.939   6.939
 5491SOL    HW117372   0.678   2.998   6.940
 5491SOL    HW217373   0.731   2.845   6.917
 5492SOL     OW17374   0.542   3.036   6.307
 5492SOL    HW117375   0.529   3.071   6.400
 5492SOL    HW217376   0.618   3.083   6.263
 5493SOL     OW17377   4.110   3.391   3.170
 5493SOL    HW117378   4.203   3.423   3.153
 5493SOL    HW217379   4.058   3.464   3.215
 5494SOL     OW17380   6.675   3.574   5.406
 5494SOL    HW117381   6.743   3.645   5.389
 5494SOL    HW217382   6.716   3.484   5.390
 5495SOL     OW17383   5.624   0.736   1.354
 5495SOL    HW117384   5.535   0.737   1.309
 5495SOL    HW217385   5.692   0.693   1.294
 5496SOL     OW17386   4.539   0.811   3.903
 5496SOL    HW117387   4.537   0.794   4.002
 5496SOL    HW217388   4.626   0.856   3.879
 5497SOL     OW17389   0.486   1.189   5.240
 5497SOL    HW117390   0.483   1.288   5.224
 5497SOL    HW217391   0.471   1.141   5.153
 5498SOL     OW17392   6.937   4.834   2.137
 5498SOL    HW117393   6.843   4.858   2.112
 5498SOL    HW217394   6.988   4.807   2.056
 5499SOL     OW17395   0.817   0.578   3.998
 5499SOL    HW117396   0.821   0.478   3.990
 5499SOL    HW217397   0.763   0.615   3.922
 5500SOL     OW17398   0.872   0.900   6.783
 5500SOL    HW117399   0.888   0.805   6.809
 5500SOL    HW217400   0.953   0.936   6.737
 5501SOL     OW17401   3.857   1.853   0.789
 5501SOL    HW117402   3.874   1.952   0.786
 5501SOL    HW217403   3.853   1.823   0.884
 5502SOL     OW17404   5.632   3.295   6.373
 5502SOL    HW117405   5.549   3.252   6.337
 5502SOL    HW217406   5.645   3.267   6.468
 5503SOL     OW17407   0.349   4.214   0.954
 5503SOL    HW117408   0.346   4.122   0.995
 5503SOL    HW217409   0.287   4.216   0.874
 5504SOL     OW17410   4.638   1.286   5.024
 5504SOL    HW117411   4.620   1.377   5.060
 5504SOL    HW217412   4.670   1.226   5.098
 5505SOL     OW17413   2.141   5.050   3.363
 5505SOL    HW117414   2.230   5.096   3.366
 5505SOL    HW217415   2.121   5.010   3.453
 5506SOL     OW17416   0.263   3.574   0.396
 5506SOL    HW117417   0.204   3.530   0.329
 5506SOL    HW217418   0.348   3.522   0.405
 5507SOL     OW17419   3.309   0.830   5.028
 5507SOL    HW117420   3.305   0.806   5.125
 5507SOL    HW217421   3.355   0.917   5.017
 5508SOL     OW17422   1.224   0.619   0.220
 5508SOL    HW117423   1.197   0.534   0.266
 5508SOL    HW217424   1.293   0.599   0.150
 5509SOL     OW17425   0.824   5.747   0.559
 5509SOL    HW117426   0.808   5.729   0.461
 5509SOL    HW217427   0.922   5.751   0.576
 5510SOL     OW17428   4.263   5.260   6.627
 5510SOL    HW117429   4.190   5.295   6.686
 5510SOL    HW217430   4.344   5.318   6.636
 5511SOL     OW17431   1.227   0.946   5.262
 5511SOL    HW117432   1.203   0.934   5.166
 5511SOL    HW217433   1.308   0.891   5.284
 5512SOL     OW17434   3.537   1.205   0.778
 5512SOL    HW117435   3.592   1.285   0.754
 5512SOL    HW217436   3.453   1.235   0.823
 5513SOL     OW17437   3.470   5.334   5.887
 5513SOL    HW117438   3.448   5.246   5.845
 5513SOL    HW217439   3.386   5.379   5.919
 5514SOL     OW17440   3.340   0.248   5.000
 5514SOL    HW117441   3.295   0.302   4.928
 5514SOL    HW217442   3.438   0.270   5.002
 5515SOL     OW17443   1.797   5.634   1.794
 5515SOL    HW117444   1.825   5.730   1.800
 5515SOL    HW217445   1.815   5.599   1.702
 5516SOL     OW17446   2.272   2.781   4.926
 5516SOL    HW117447   2.314   2.858   4.975
 5516SOL    HW217448   2.285   2.792   4.828
 5517SOL     OW17449   2.052   3.574   1.802
 5517SOL    HW117450   2.122   3.643   1.779
 5517SOL    HW217451   2.082   3.522   1.881
 5518SOL     OW17452   6.290   4.851   5.970
 5518SOL    HW117453   6.236   4.785   5.919
 5518SOL    HW217454   6.243   4.939   5.973
 5519SOL     OW17455   5.640   3.111   3.591
 5519SOL    HW117456   5.729   3.130   3.549
 5519SOL    HW217457   5.615   3.186   3.652
 5520SOL     OW17458   5.315   6.653   2.325
 5520SOL    HW117459   5.268   6.718   2.384
 5520SOL    HW217460   5.411   6.648   2.351
 5521SOL     OW17461   5.909   5.805   1.666
 5521SOL    HW117462   6.008   5.794   1.655
 5521SOL    HW217463   5.889   5.899   1.693
 5522SOL     OW17464   6.415   5.260   1.594
 5522SOL    HW117465   6.360   5.194   1.645
 5522SOL    HW217466   6.354   5.324   1.546
 5523SOL     OW17467   4.883   1.151   2.025
 5523SOL    HW117468   4.868   1.053   2.039
 5523SOL    HW217469   4.970   1.178   2.067
 5524SOL     OW17470   3.315   7.006   4.893
 5524SOL    HW117471   3.323   0.068   4.951
 5524SOL    HW217472   3.278   0.014   4.804
 5525SOL     OW17473   0.879   2.634   0.529
 5525SOL    HW117474   0.843   2.548   0.566
 5525SOL    HW217475   0.897   2.697   0.604
 5526SOL     OW17476   4.746   4.174   3.086
 5526SOL    HW117477   4.751   4.244   3.158
 5526SOL    HW217478   4.669   4.194   3.025
 5527SOL     OW17479   4.979   4.047   3.132
 5527SOL    HW117480   4.897   4.099   3.109
 5527SOL    HW217481   5.039   4.042   3.053
 5528SOL     OW17482   1.820   0.792   1.215
 5528SOL    HW117483   1.867   0.880   1.229
 5528SOL    HW217484   1.885   0.726   1.178
 5529SOL     OW17485   2.874   6.853   4.096
 5529SOL    HW117486   2.904   6.759   4.083
 5529SOL    HW217487   2.917   6.912   4.027
 5530SOL     OW17488   6.074   2.152   1.221
 5530SOL    HW117489   6.132   2.076   1.250
 5530SOL    HW217490   6.129   2.217   1.168
 5531SOL     OW17491   3.650   3.717   1.374
 5531SOL    HW117492   3.684   3.635   1.421
 5531SOL    HW217493   3.621   3.784   1.443
 5532SOL     OW17494   2.054   3.018   0.604
 5532SOL    HW117495   2.038   2.921   0.583
 5532SOL    HW217496   2.000   3.043   0.684
 5533SOL     OW17497   4.663   1.614   3.829
 5533SOL    HW117498   4.577   1.592   3.875
 5533SOL    HW217499   4.710   1.529   3.803
 5534SOL     OW17500   1.017   0.796   6.448
 5534SOL    HW117501   1.053   0.877   6.494
 5534SOL    HW217502   1.075   0.775   6.369
 5535SOL     OW17503   1.047   1.208   2.588
 5535SOL    HW117504   0.991   1.157   2.654
 5535SOL    HW217505   1.136   1.227   2.629
 5536SOL     OW17506   4.031   0.675   4.438
 5536SOL    HW117507   3.973   0.676   4.519
 5536SOL    HW217508   4.007   0.596   4.381
 5537SOL     OW17509   3.695   1.676   2.568
 5537SOL    HW117510   3.755   1.613   2.519
 5537SOL    HW217511   3.678   1.757   2.512
 5538SOL     OW17512   3.965   6.274   4.791
 5538SOL    HW117513   3.904   6.304   4.864
 5538SOL    HW217514   3.918   6.206   4.734
 5539SOL     OW17515   1.750   3.609   1.478
 5539SOL    HW117516   1.684   3.620   1.552
 5539SOL    HW217517   1.705   3.566   1.400
 5540SOL     OW17518   4.765   4.690   3.734
 5540SOL    HW117519   4.760   4.598   3.773
 5540SOL    HW217520   4.775   4.757   3.808
 5541SOL     OW17521   5.108   0.517   6.457
 5541SOL    HW117522   5.036   0.546   6.520
 5541SOL    HW217523   5.164   0.596   6.432
 5542SOL     OW17524   4.349   3.352   6.206
 5542SOL    HW117525   4.411   3.369   6.129
 5542SOL    HW217526   4.339   3.435   6.260
 5543SOL     OW17527   5.926   3.920   6.555
 5543SOL    HW117528   5.845   3.880   6.599
 5543SOL    HW217529   5.987   3.846   6.524
 5544SOL     OW17530   5.354   0.109   6.454
 5544SOL    HW117531   5.280   0.143   6.513
 5544SOL    HW217532   5.315   0.077   6.367
 5545SOL     OW17533   4.030   1.849   2.970
 5545SOL    HW117534   3.989   1.884   3.055
 5545SOL    HW217535   4.112   1.796   2.993
 5546SOL     OW17536   1.224   5.580   5.468
 5546SOL    HW117537   1.208   5.574   5.369
 5546SOL    HW217538   1.254   5.492   5.503
 5547SOL     OW17539   2.984   5.963   4.664
 5547SOL    HW117540   3.023   5.890   4.719
 5547SOL    HW217541   2.951   5.926   4.577
 5548SOL     OW17542   6.449   3.387   5.886
 5548SOL    HW117543   6.456   3.486   5.900
 5548SOL    HW217544   6.501   3.361   5.805
 5549SOL     OW17545   3.573   4.599   6.911
 5549SOL    HW117546   3.528   4.669   6.855
 5549SOL    HW217547   3.540   4.605   7.005
 5550SOL     OW17548   2.472   5.685   1.940
 5550SOL    HW117549   2.497   5.780   1.956
 5550SOL    HW217550   2.554   5.629   1.931
 5551SOL     OW17551   1.632   0.739   2.898
 5551SOL    HW117552   1.670   0.747   2.806
 5551SOL    HW217553   1.534   0.759   2.894
 5552SOL     OW17554   6.895   1.719   0.603
 5552SOL    HW117555   6.872   1.767   0.518
 5552SOL    HW217556   6.988   1.683   0.597
 5553SOL     OW17557   4.410   0.030   0.015
 5553SOL    HW117558   4.413   6.975   6.965
 5553SOL    HW217559   4.449   7.015   0.101
 5554SOL     OW17560   2.970   2.505   5.537
 5554SOL    HW117561   2.878   2.486   5.570
 5554SOL    HW217562   2.994   2.440   5.466
 5555SOL     OW17563   0.433   5.533   3.295
 5555SOL    HW117564   0.493   5.613   3.303
 5555SOL    HW217565   0.366   5.535   3.369
 5556SOL     OW17566   0.942   2.259   4.715
 5556SOL    HW117567   0.991   2.319   4.651
 5556SOL    HW217568   0.926   2.170   4.671
 5557SOL     OW17569   2.479   6.081   3.826
 5557SOL    HW117570   2.419   6.103   3.749
 5557SOL    HW217571   2.574   6.081   3.795
 5558SOL     OW17572   5.001   2.963   4.969
 5558SOL    HW117573   5.040   2.897   4.905
 5558SOL    HW217574   4.927   3.013   4.925
 5559SOL     OW17575   2.147   0.352   1.188
 5559SOL    HW117576   2.195   0.264   1.185
 5559SOL    HW217577   2.057   0.339   1.231
 5560SOL     OW17578   0.409   0.891   2.991
 5560SOL    HW117579   0.391   0.810   2.934
 5560SOL    HW217580   0.327   0.947   2.996
 5561SOL     OW17581   1.353   3.012   4.053
 5561SOL    HW117582   1.277   2.951   4.029
 5561SOL    HW217583   1.424   2.959   4.099
 5562SOL     OW17584   1.831   2.541   6.093
 5562SOL    HW117585   1.881   2.455   6.101
 5562SOL    HW217586   1.877   2.599   6.025
 5563SOL     OW17587   4.442   6.268   2.326
 5563SOL    HW117588   4.460   6.355   2.372
 5563SOL    HW217589   4.372   6.217   2.378
 5564SOL     OW17590   4.932   4.023   1.694
 5564SOL    HW117591   4.939   3.932   1.653
 5564SOL    HW217592   4.850   4.028   1.751
 5565SOL     OW17593   4.585   2.147   5.783
 5565SOL    HW117594   4.592   2.234   5.832
 5565SOL    HW217595   4.519   2.157   5.708
 5566SOL     OW17596   1.730   5.576   0.929
 5566SOL    HW117597   1.714   5.551   1.024
 5566SOL    HW217598   1.682   5.660   0.908
 5567SOL     OW17599   1.796   5.760   1.269
 5567SOL    HW117600   1.775   5.662   1.263
 5567SOL    HW217601   1.731   5.812   1.214
 5568SOL     OW17602   4.537   1.808   0.678
 5568SOL    HW117603   4.547   1.898   0.634
 5568SOL    HW217604   4.457   1.809   0.737
 5569SOL     OW17605   4.083   1.747   1.580
 5569SOL    HW117606   4.029   1.819   1.536
 5569SOL    HW217607   4.144   1.705   1.513
 5570SOL     OW17608   6.507   4.509   5.592
 5570SOL    HW117609   6.538   4.603   5.581
 5570SOL    HW217610   6.413   4.509   5.628
 5571SOL     OW17611   0.589   5.737   0.700
 5571SOL    HW117612   0.534   5.815   0.671
 5571SOL    HW217613   0.674   5.733   0.646
 5572SOL     OW17614   4.277   2.452   6.212
 5572SOL    HW117615   4.219   2.438   6.292
 5572SOL    HW217616   4.273   2.370   6.154
 5573SOL     OW17617   1.372   3.794   0.404
 5573SOL    HW117618   1.347   3.855   0.480
 5573SOL    HW217619   1.471   3.791   0.395
 5574SOL     OW17620   0.470   6.587   4.681
 5574SOL    HW117621   0.492   6.525   4.606
 5574SOL    HW217622   0.436   6.673   4.644
 5575SOL     OW17623   1.615   1.017   1.013
 5575SOL    HW117624   1.543   1.050   0.952
 5575SOL    HW217625   1.575   0.960   1.085
 5576SOL     OW17626   6.037   5.476   0.545
 5576SOL    HW117627   5.981   5.397   0.568
 5576SOL    HW217628   6.001   5.557   0.594
 5577SOL     OW17629   2.435   3.458   5.457
 5577SOL    HW117630   2.375   3.529   5.494
 5577SOL    HW217631   2.380   3.383   5.420
 5578SOL     OW17632   4.500   2.440   0.400
 5578SOL    HW117633   4.450   2.505   0.342
 5578SOL    HW217634   4.586   2.481   0.428
 5579SOL     OW17635   5.413   3.653   7.000
 5579SOL    HW117636   5.403   3.723   6.929
 5579SOL    HW217637   5.381   3.565   6.966
 5580SOL     OW17638   5.102   1.288   0.591
 5580SOL    HW117639   5.022   1.269   0.647
 5580SOL    HW217640   5.142   1.202   0.559
 5581SOL     OW17641   1.990   0.503   6.558
 5581SOL    HW117642   2.050   0.539   6.630
 5581SOL    HW217643   1.895   0.525   6.580
 5582SOL     OW17644   3.674   3.238   4.136
 5582SOL    HW117645   3.588   3.222   4.186
 5582SOL    HW217646   3.655   3.246   4.038
 5583SOL     OW17647   3.382   6.980   1.914
 5583SOL    HW117648   3.427   0.033   1.860
 5583SOL    HW217649   3.435   6.961   1.996
 5584SOL     OW17650   6.330   4.167   2.972
 5584SOL    HW117651   6.283   4.249   2.941
 5584SOL    HW217652   6.393   4.136   2.901
 5585SOL     OW17653   6.595   0.736   3.648
 5585SOL    HW117654   6.575   0.690   3.734
 5585SOL    HW217655   6.674   0.693   3.605
 5586SOL     OW17656   2.437   1.582   5.882
 5586SOL    HW117657   2.401   1.538   5.800
 5586SOL    HW217658   2.492   1.661   5.856
 5587SOL     OW17659   4.096   0.636   3.648
 5587SOL    HW117660   4.110   0.709   3.581
 5587SOL    HW217661   4.014   0.583   3.624
 5588SOL     OW17662   2.180   0.073   5.434
 5588SOL    HW117663   2.239   0.124   5.371
 5588SOL    HW217664   2.164   7.000   5.398
 5589SOL     OW17665   5.179   2.571   6.278
 5589SOL    HW117666   5.161   2.646   6.215
 5589SOL    HW217667   5.238   2.602   6.353
 5590SOL     OW17668   6.612   6.072   4.379
 5590SOL    HW117669   6.547   6.029   4.442
 5590SOL    HW217670   6.656   6.149   4.425
 5591SOL     OW17671   5.948   0.834   0.008
 5591SOL    HW117672   5.956   0.756   6.963
 5591SOL    HW217673   5.855   0.838   0.044
 5592SOL     OW17674   1.590   4.163   2.689
 5592SOL    HW117675   1.563   4.259   2.681
 5592SOL    HW217676   1.517   4.110   2.731
 5593SOL     OW17677   1.163   2.745   5.868
 5593SOL    HW117678   1.158   2.647   5.848
 5593SOL    HW217679   1.139   2.797   5.785
 5594SOL     OW17680   2.286   0.170   0.291
 5594SOL    HW117681   2.308   0.095   0.229
 5594SOL    HW217682   2.365   0.187   0.350
 5595SOL     OW17683   6.554   1.344   5.922
 5595SOL    HW117684   6.513   1.435   5.928
 5595SOL    HW217685   6.513   1.294   5.846
 5596SOL     OW17686   4.845   0.795   2.281
 5596SOL    HW117687   4.942   0.771   2.289
 5596SOL    HW217688   4.790   0.728   2.332
 5597SOL     OW17689   6.059   1.014   6.302
 5597SOL    HW117690   6.088   0.942   6.364
 5597SOL    HW217691   6.122   1.092   6.310
 5598SOL     OW17692   5.665   2.037   3.674
 5598SOL    HW117693   5.748   1.994   3.639
 5598SOL    HW217694   5.610   2.071   3.597
 5599SOL     OW17695   4.854   3.942   2.060
 5599SOL    HW117696   4.815   4.015   2.004
 5599SOL    HW217697   4.820   3.950   2.153
 5600SOL     OW17698   2.283   0.636   3.169
 5600SOL    HW117699   2.343   0.616   3.246
 5600SOL    HW217700   2.275   0.555   3.111
 5601SOL     OW17701   5.300   3.310   5.654
 5601SOL    HW117702   5.230   3.380   5.640
 5601SOL    HW217703   5.336   3.280   5.566
 5602SOL     OW17704   0.536   2.431   3.361
 5602SOL    HW117705   0.599   2.464   3.431
 5602SOL    HW217706   0.579   2.436   3.271
 5603SOL     OW17707   4.396   2.431   4.762
 5603SOL    HW117708   4.361   2.370   4.690
 5603SOL    HW217709   4.325   2.447   4.830
 5604SOL     OW17710   1.059   0.284   4.089
 5604SOL    HW117711   1.042   0.227   4.170
 5604SOL    HW217712   0.973   0.299   4.040
 5605SOL     OW17713   1.985   6.408   4.254
 5605SOL    HW117714   2.028   6.455   4.331
 5605SOL    HW217715   1.891   6.383   4.280
 5606SOL     OW17716   4.804   2.328   0.563
 5606SOL    HW117717   4.865   2.407   0.549
 5606SOL    HW217718   4.858   2.250   0.594
 5607SOL     OW17719   6.077   2.724   2.452
 5607SOL    HW117720   6.150   2.759   2.511
 5607SOL    HW217721   5.989   2.738   2.496
 5608SOL     OW17722   5.602   1.131   3.911
 5608SOL    HW117723   5.561   1.047   3.875
 5608SOL    HW217724   5.554   1.211   3.874
 5609SOL     OW17725   6.187   6.593   1.415
 5609SOL    HW117726   6.135   6.678   1.422
 5609SOL    HW217727   6.281   6.609   1.447
 5610SOL     OW17728   5.437   4.361   0.025
 5610SOL    HW117729   5.477   4.448   7.017
 5610SOL    HW217730   5.489   4.321   0.100
 5611SOL     OW17731   0.709   5.216   1.486
 5611SOL    HW117732   0.633   5.191   1.547
 5611SOL    HW217733   0.695   5.309   1.451
 5612SOL     OW17734   3.085   1.316   0.711
 5612SOL    HW117735   3.168   1.351   0.755
 5612SOL    HW217736   3.111   1.260   0.633
 5613SOL     OW17737   6.878   4.878   5.003
 5613SOL    HW117738   6.941   4.801   5.012
 5613SOL    HW217739   6.922   4.951   4.950
 5614SOL     OW17740   5.873   2.103   4.799
 5614SOL    HW117741   5.859   2.012   4.760
 5614SOL    HW217742   5.787   2.135   4.839
 5615SOL     OW17743   6.627   2.677   2.347
 5615SOL    HW117744   6.615   2.598   2.286
 5615SOL    HW217745   6.663   2.646   2.435
 5616SOL     OW17746   1.656   3.531   3.303
 5616SOL    HW117747   1.722   3.460   3.328
 5616SOL    HW217748   1.704   3.618   3.293
 5617SOL     OW17749   2.442   5.533   5.910
 5617SOL    HW117750   2.359   5.587   5.904
 5617SOL    HW217751   2.419   5.439   5.938
 5618SOL     OW17752   6.767   5.336   4.045
 5618SOL    HW117753   6.713   5.421   4.046
 5618SOL    HW217754   6.860   5.355   4.073
 5619SOL     OW17755   3.615   3.295   4.624
 5619SOL    HW117756   3.622   3.389   4.592
 5619SOL    HW217757   3.534   3.284   4.681
 5620SOL     OW17758   4.174   4.618   5.617
 5620SOL    HW117759   4.106   4.679   5.577
 5620SOL    HW217760   4.202   4.653   5.707
 5621SOL     OW17761   1.552   2.967   4.676
 5621SOL    HW117762   1.598   2.885   4.642
 5621SOL    HW217763   1.610   3.046   4.660
 5622SOL     OW17764   4.707   5.431   4.781
 5622SOL    HW117765   4.772   5.366   4.818
 5622SOL    HW217766   4.665   5.393   4.699
 5623SOL     OW17767   4.304   6.414   4.095
 5623SOL    HW117768   4.335   6.452   4.182
 5623SOL    HW217769   4.249   6.332   4.112
 5624SOL     OW17770   0.061   6.026   4.142
 5624SOL    HW117771   0.054   6.025   4.042
 5624SOL    HW217772   7.006   5.971   4.181
 5625SOL     OW17773   1.221   5.850   4.711
 5625SOL    HW117774   1.236   5.796   4.628
 5625SOL    HW217775   1.252   5.797   4.790
 5626SOL     OW17776   2.195   4.009   4.493
 5626SOL    HW117777   2.156   3.925   4.457
 5626SOL    HW217778   2.203   4.076   4.420
 5627SOL     OW17779   1.363   5.924   0.459
 5627SOL    HW117780   1.439   5.986   0.436
 5627SOL    HW217781   1.333   5.876   0.376
 5628SOL     OW17782   3.008   2.564   0.515
 5628SOL    HW117783   3.045   2.505   0.587
 5628SOL    HW217784   3.050   2.655   0.522
 5629SOL     OW17785   5.122   4.031   1.249
 5629SOL    HW117786   5.040   3.974   1.240
 5629SOL    HW217787   5.144   4.043   1.345
 5630SOL     OW17788   1.881   3.910   6.246
 5630SOL    HW117789   1.951   3.841   6.232
 5630SOL    HW217790   1.834   3.927   6.159
 5631SOL     OW17791   4.246   0.675   2.233
 5631SOL    HW117792   4.335   0.713   2.211
 5631SOL    HW217793   4.254   0.610   2.309
 5632SOL     OW17794   5.754   7.010   6.041
 5632SOL    HW117795   5.821   0.005   6.114
 5632SOL    HW217796   5.682   0.061   6.049
 5633SOL     OW17797   0.614   4.441   6.047
 5633SOL    HW117798   0.608   4.391   5.960
 5633SOL    HW217799   0.559   4.524   6.041
 5634SOL     OW17800   2.929   6.185   6.508
 5634SOL    HW117801   2.942   6.130   6.425
 5634SOL    HW217802   2.849   6.243   6.498
 5635SOL     OW17803   2.581   6.630   6.582
 5635SOL    HW117804   2.569   6.683   6.666
 5635SOL    HW217805   2.495   6.585   6.559
 5636SOL     OW17806   6.242   0.825   5.494
 5636SOL    HW117807   6.223   0.905   5.551
 5636SOL    HW217808   6.321   0.776   5.530
 5637SOL     OW17809   5.264   6.066   4.601
 5637SOL    HW117810   5.356   6.026   4.594
 5637SOL    HW217811   5.226   6.077   4.509
 5638SOL     OW17812   5.139   5.788   1.176
 5638SOL    HW117813   5.080   5.863   1.203
 5638SOL    HW217814   5.151   5.790   1.076
 5639SOL     OW17815   1.329   6.987   1.600
 5639SOL    HW117816   1.274   6.988   1.684
 5639SOL    HW217817   1.270   7.002   1.521
 5640SOL     OW17818   2.629   6.072   2.894
 5640SOL    HW117819   2.707   6.012   2.879
 5640SOL    HW217820   2.659   6.159   2.934
 5641SOL     OW17821   1.460   5.004   4.525
 5641SOL    HW117822   1.373   5.001   4.475
 5641SOL    HW217823   1.446   4.968   4.617
 5642SOL     OW17824   1.336   4.669   6.865
 5642SOL    HW117825   1.428   4.672   6.824
 5642SOL    HW217826   1.298   4.761   6.868
 5643SOL     OW17827   3.733   2.110   4.334
 5643SOL    HW117828   3.670   2.136   4.407
 5643SOL    HW217829   3.814   2.169   4.337
 5644SOL     OW17830   5.470   1.106   4.959
 5644SOL    HW117831   5.475   1.175   4.887
 5644SOL    HW217832   5.496   1.146   5.047
 5645SOL     OW17833   4.974   5.410   2.243
 5645SOL    HW117834   4.970   5.433   2.146
 5645SOL    HW217835   5.063   5.367   2.263
 5646SOL     OW17836   0.464   5.847   3.551
 5646SOL    HW117837   0.562   5.829   3.551
 5646SOL    HW217838   0.431   5.850   3.456
 5647SOL     OW17839   6.017   6.022   6.897
 5647SOL    HW117840   5.932   5.971   6.894
 5647SOL    HW217841   6.094   5.961   6.876
 5648SOL     OW17842   2.150   1.837   3.446
 5648SOL    HW117843   2.104   1.893   3.377
 5648SOL    HW217844   2.222   1.891   3.490
 5649SOL     OW17845   1.460   0.442   4.348
 5649SOL    HW117846   1.448   0.409   4.254
 5649SOL    HW217847   1.417   0.532   4.358
 5650SOL     OW17848   6.797   4.941   0.592
 5650SOL    HW117849   6.775   4.959   0.688
 5650SOL    HW217850   6.828   4.847   0.582
 5651SOL     OW17851   0.270   1.290   1.816
 5651SOL    HW117852   0.340   1.248   1.758
 5651SOL    HW217853   0.270   1.389   1.802
 5652SOL     OW17854   5.504   5.733   1.605
 5652SOL    HW117855   5.571   5.721   1.532
 5652SOL    HW217856   5.459   5.646   1.623
 5653SOL     OW17857   6.637   5.862   5.651
 5653SOL    HW117858   6.720   5.905   5.615
 5653SOL    HW217859   6.663   5.780   5.703
 5654SOL     OW17860   0.379   0.349   5.767
 5654SOL    HW117861   0.297   0.380   5.720
 5654SOL    HW217862   0.458   0.399   5.731
 5655SOL     OW17863   0.987   3.424   3.920
 5655SOL    HW117864   0.951   3.332   3.938
 5655SOL    HW217865   0.954   3.455   3.831
 5656SOL     OW17866   2.922   3.945   0.684
 5656SOL    HW117867   2.917   3.993   0.771
 5656SOL    HW217868   2.835   3.955   0.635
 5657SOL     OW17869   4.542   0.187   1.420
 5657SOL    HW117870   4.479   0.134   1.363
 5657SOL    HW217871   4.544   0.149   1.512
 5658SOL     OW17872   3.365   0.040   5.339
 5658SOL    HW117873   3.395   0.069   5.430
 5658SOL    HW217874   3.366   6.959   5.333
 5659SOL     OW17875   3.127   3.585   3.160
 5659SOL    HW117876   3.131   3.542   3.070
 5659SOL    HW217877   3.146   3.517   3.231
 5660SOL     OW17878   5.070   0.106   0.551
 5660SOL    HW117879   5.126   0.170   0.604
 5660SOL    HW217880   5.119   0.079   0.468
 5661SOL     OW17881   0.123   6.060   5.538
 5661SOL    HW117882   0.175   5.975   5.547
 5661SOL    HW217883   0.107   6.099   5.628
 5662SOL     OW17884   2.401   4.636   3.980
 5662SOL    HW117885   2.373   4.716   3.926
 5662SOL    HW217886   2.394   4.554   3.923
 5663SOL     OW17887   1.195   4.199   0.554
 5663SOL    HW117888   1.133   4.126   0.526
 5663SOL    HW217889   1.277   4.197   0.498
 5664SOL     OW17890   0.232   4.652   2.851
 5664SOL    HW117891   0.232   4.727   2.785
 5664SOL    HW217892   0.209   4.688   2.942
 5665SOL     OW17893   2.029   2.452   6.458
 5665SOL    HW117894   2.067   2.380   6.400
 5665SOL    HW217895   2.037   2.540   6.411
 5666SOL     OW17896   4.720   5.481   0.995
 5666SOL    HW117897   4.774   5.553   0.951
 5666SOL    HW217898   4.746   5.393   0.957
 5667SOL     OW17899   0.003   5.113   2.969
 5667SOL    HW117900   0.030   5.181   3.038
 5667SOL    HW217901   6.961   5.045   3.010
 5668SOL     OW17902   4.786   1.684   6.154
 5668SOL    HW117903   4.707   1.700   6.095
 5668SOL    HW217904   4.764   1.612   6.220
 5669SOL     OW17905   0.346   5.443   5.655
 5669SOL    HW117906   0.318   5.348   5.649
 5669SOL    HW217907   0.288   5.490   5.722
 5670SOL     OW17908   0.405   3.185   3.626
 5670SOL    HW117909   0.363   3.260   3.677
 5670SOL    HW217910   0.341   3.151   3.557
 5671SOL     OW17911   2.384   6.704   6.364
 5671SOL    HW117912   2.402   6.662   6.275
 5671SOL    HW217913   2.462   6.760   6.391
 5672SOL     OW17914   5.105   3.805   6.012
 5672SOL    HW117915   5.043   3.758   6.074
 5672SOL    HW217916   5.198   3.804   6.049
 5673SOL     OW17917   0.464   0.806   2.386
 5673SOL    HW117918   0.470   0.904   2.371
 5673SOL    HW217919   0.430   0.788   2.479
 5674SOL     OW17920   0.299   3.806   1.765
 5674SOL    HW117921   0.311   3.882   1.701
 5674SOL    HW217922   0.234   3.741   1.728
 5675SOL     OW17923   4.461   2.675   5.330
 5675SOL    HW117924   4.492   2.607   5.396
 5675SOL    HW217925   4.391   2.733   5.373
 5676SOL     OW17926   1.552   0.825   1.204
 5676SOL    HW117927   1.649   0.802   1.194
 5676SOL    HW217928   1.539   0.881   1.286
 5677SOL     OW17929   6.773   2.127   3.773
 5677SOL    HW117930   6.714   2.096   3.848
 5677SOL    HW217931   6.849   2.180   3.811
 5678SOL     OW17932   3.840   6.105   2.496
 5678SOL    HW117933   3.891   6.191   2.492
 5678SOL    HW217934   3.743   6.123   2.477
 5679SOL     OW17935   1.325   6.838   4.804
 5679SOL    HW117936   1.406   6.864   4.856
 5679SOL    HW217937   1.246   6.888   4.840
 5680SOL     OW17938   1.651   5.080   6.693
 5680SOL    HW117939   1.698   5.015   6.751
 5680SOL    HW217940   1.668   5.173   6.726
 5681SOL     OW17941   0.878   2.732   6.268
 5681SOL    HW117942   0.851   2.822   6.303
 5681SOL    HW217943   0.975   2.734   6.243
 5682SOL     OW17944   1.088   2.935   5.685
 5682SOL    HW117945   1.065   2.896   5.595
 5682SOL    HW217946   1.026   3.011   5.705
 5683SOL     OW17947   3.497   2.602   6.589
 5683SOL    HW117948   3.578   2.588   6.532
 5683SOL    HW217949   3.461   2.694   6.574
 5684SOL     OW17950   3.755   3.301   4.374
 5684SOL    HW117951   3.710   3.261   4.454
 5684SOL    HW217952   3.721   3.257   4.291
 5685SOL     OW17953   0.650   5.193   2.200
 5685SOL    HW117954   0.600   5.187   2.286
 5685SOL    HW217955   0.706   5.276   2.199
 5686SOL     OW17956   3.510   0.017   0.370
 5686SOL    HW117957   3.428   0.017   0.426
 5686SOL    HW217958   3.552   0.107   0.372
 5687SOL     OW17959   6.313   4.228   4.643
 5687SOL    HW117960   6.388   4.195   4.700
 5687SOL    HW217961   6.340   4.314   4.598
 5688SOL     OW17962   6.035   2.014   0.820
 5688SOL    HW117963   5.998   1.924   0.846
 5688SOL    HW217964   5.973   2.086   0.850
 5689SOL     OW17965   4.612   1.293   0.372
 5689SOL    HW117966   4.523   1.326   0.342
 5689SOL    HW217967   4.606   1.257   0.465
 5690SOL     OW17968   3.476   6.060   0.658
 5690SOL    HW117969   3.398   6.072   0.597
 5690SOL    HW217970   3.474   6.132   0.728
 5691SOL     OW17971   2.997   6.358   2.359
 5691SOL    HW117972   2.997   6.288   2.431
 5691SOL    HW217973   3.050   6.437   2.388
 5692SOL     OW17974   6.683   1.724   5.780
 5692SOL    HW117975   6.676   1.682   5.689
 5692SOL    HW217976   6.753   1.676   5.833
 5693SOL     OW17977   4.964   2.660   2.185
 5693SOL    HW117978   4.900   2.703   2.121
 5693SOL    HW217979   4.912   2.604   2.250
 5694SOL     OW17980   0.384   1.113   3.466
 5694SOL    HW117981   0.341   1.171   3.535
 5694SOL    HW217982   0.478   1.093   3.493
 5695SOL     OW17983   1.381   2.413   3.722
 5695SOL    HW117984   1.308   2.408   3.791
 5695SOL    HW217985   1.351   2.472   3.646
 5696SOL     OW17986   3.192   1.171   4.954
 5696SOL    HW117987   3.263   1.127   5.009
 5696SOL    HW217988   3.227   1.187   4.862
 5697SOL     OW17989   0.094   2.319   0.872
 5697SOL    HW117990   0.039   2.240   0.897
 5697SOL    HW217991   0.041   2.403   0.884
 5698SOL     OW17992   0.267   2.380   2.263
 5698SOL    HW117993   0.345   2.318   2.254
 5698SOL    HW217994   0.292   2.457   2.321
 5699SOL     OW17995   6.292   1.264   4.054
 5699SOL    HW117996   6.219   1.208   4.016
 5699SOL    HW217997   6.253   1.338   4.109
 5700SOL     OW17998   1.207   6.285   4.257
 5700SOL    HW117999   1.168   6.369   4.220
 5700SOL    HW218000   1.278   6.308   4.324
 5701SOL     OW18001   0.485   6.004   2.661
 5701SOL    HW118002   0.536   5.937   2.714
 5701SOL    HW218003   0.422   5.957   2.599
 5702SOL     OW18004   1.588   0.211   5.927
 5702SOL    HW118005   1.642   0.247   6.003
 5702SOL    HW218006   1.639   0.138   5.881
 5703SOL     OW18007   4.610   5.162   6.827
 5703SOL    HW118008   4.620   5.170   6.927
 5703SOL    HW218009   4.608   5.066   6.801
 5704SOL     OW18010   4.845   5.437   3.123
 5704SOL    HW118011   4.892   5.373   3.063
 5704SOL    HW218012   4.747   5.437   3.101
 5705SOL     OW18013   6.077   0.804   0.947
 5705SOL    HW118014   6.070   0.801   1.046
 5705SOL    HW218015   6.140   0.876   0.920
 5706SOL     OW18016   1.522   1.963   0.185
 5706SOL    HW118017   1.549   1.877   0.228
 5706SOL    HW218018   1.431   1.990   0.217
 5707SOL     OW18019   1.296   0.083   6.621
 5707SOL    HW118020   1.249   7.014   6.603
 5707SOL    HW218021   1.233   0.145   6.668
 5708SOL     OW18022   5.228   0.096   2.277
 5708SOL    HW118023   5.316   0.070   2.317
 5708SOL    HW218024   5.165   0.019   2.280
 5709SOL     OW18025   0.423   6.474   3.217
 5709SOL    HW118026   0.423   6.449   3.120
 5709SOL    HW218027   0.393   6.569   3.227
 5710SOL     OW18028   2.816   3.924   5.983
 5710SOL    HW118029   2.746   3.877   5.929
 5710SOL    HW218030   2.897   3.940   5.927
 5711SOL     OW18031   4.826   1.016   3.945
 5711SOL    HW118032   4.864   0.977   4.028
 5711SOL    HW218033   4.882   0.988   3.866
 5712SOL     OW18034   0.082   0.114   5.457
 5712SOL    HW118035   0.069   0.212   5.442
 5712SOL    HW218036   0.099   0.097   5.554
 5713SOL     OW18037   0.031   2.456   1.863
 5713SOL    HW118038   0.081   2.412   1.788
 5713SOL    HW218039   6.976   2.512   1.825
 5714SOL     OW18040   1.441   0.080   7.013
 5714SOL    HW118041   1.366   0.014   7.005
 5714SOL    HW218042   1.517   0.051   6.956
 5715SOL     OW18043   1.174   6.167   3.092
 5715SOL    HW118044   1.197   6.239   3.027
 5715SOL    HW218045   1.251   6.153   3.155
 5716SOL     OW18046   1.574   4.367   5.702
 5716SOL    HW118047   1.540   4.285   5.748
 5716SOL    HW218048   1.663   4.347   5.660
 5717SOL     OW18049   1.501   4.852   1.064
 5717SOL    HW118050   1.535   4.852   1.158
 5717SOL    HW218051   1.420   4.909   1.057
 5718SOL     OW18052   1.979   4.538   6.976
 5718SOL    HW118053   1.970   4.637   6.966
 5718SOL    HW218054   1.987   4.496   6.885
 5719SOL     OW18055   2.628   0.937   5.678
 5719SOL    HW118056   2.713   0.924   5.627
 5719SOL    HW218057   2.644   0.914   5.775
 5720SOL     OW18058   0.170   5.080   4.866
 5720SOL    HW118059   0.239   5.060   4.796
 5720SOL    HW218060   0.167   5.178   4.884
 5721SOL     OW18061   1.041   3.589   0.171
 5721SOL    HW118062   0.944   3.613   0.179
 5721SOL    HW218063   1.066   3.583   0.074
 5722SOL     OW18064   5.680   0.929   4.955
 5722SOL    HW118065   5.607   0.997   4.949
 5722SOL    HW218066   5.641   0.837   4.948
 5723SOL     OW18067   3.796   4.825   0.743
 5723SOL    HW118068   3.866   4.892   0.767
 5723SOL    HW218069   3.787   4.821   0.643
 5724SOL     OW18070   4.164   2.180   6.053
 5724SOL    HW118071   4.200   2.200   5.962
 5724SOL    HW218072   4.232   2.128   6.105
 5725SOL     OW18073   5.400   5.704   3.467
 5725SOL    HW118074   5.412   5.798   3.500
 5725SOL    HW218075   5.472   5.683   3.401
 5726SOL     OW18076   6.287   3.596   4.869
 5726SOL    HW118077   6.204   3.640   4.903
 5726SOL    HW218078   6.277   3.576   4.772
 5727SOL     OW18079   5.596   2.684   3.201
 5727SOL    HW118080   5.640   2.675   3.112
 5727SOL    HW218081   5.497   2.678   3.190
 5728SOL     OW18082   5.817   1.019   6.175
 5728SOL    HW118083   5.766   1.104   6.163
 5728SOL    HW218084   5.893   1.034   6.238
 5729SOL     OW18085   0.437   1.681   0.420
 5729SOL    HW118086   0.442   1.773   0.382
 5729SOL    HW218087   0.462   1.684   0.517
 5730SOL     OW18088   3.625   5.745   5.285
 5730SOL    HW118089   3.722   5.766   5.276
 5730SOL    HW218090   3.603   5.663   5.232
 5731SOL     OW18091   1.276   6.634   3.890
 5731SOL    HW118092   1.212   6.695   3.843
 5731SOL    HW218093   1.359   6.684   3.915
 5732SOL     OW18094   6.204   5.044   4.509
 5732SOL    HW118095   6.142   5.081   4.578
 5732SOL    HW218096   6.297   5.077   4.528
 5733SOL     OW18097   3.667   0.796   6.466
 5733SOL    HW118098   3.660   0.697   6.465
 5733SOL    HW218099   3.757   0.823   6.500
 5734SOL     OW18100   1.318   6.850   5.370
 5734SOL    HW118101   1.408   6.837   5.412
 5734SOL    HW218102   1.262   6.910   5.427
 5735SOL     OW18103   3.836   1.094   1.926
 5735SOL    HW118104   3.741   1.110   1.953
 5735SOL    HW218105   3.866   1.168   1.866
 5736SOL     OW18106   5.237   4.461   6.390
 5736SOL    HW118107   5.172   4.524   6.434
 5736SOL    HW218108   5.220   4.458   6.292
 5737SOL     OW18109   5.269   6.353   1.255
 5737SOL    HW118110   5.330   6.423   1.292
 5737SOL    HW218111   5.199   6.332   1.323
 5738SOL     OW18112   3.737   1.090   6.401
 5738SOL    HW118113   3.734   1.188   6.379
 5738SOL    HW218114   3.725   1.078   6.499
 5739SOL     OW18115   1.637   6.592   5.671
 5739SOL    HW118116   1.651   6.577   5.573
 5739SOL    HW218117   1.616   6.505   5.715
 5740SOL     OW18118   4.702   3.435   1.012
 5740SOL    HW118119   4.649   3.517   0.991
 5740SOL    HW218120   4.700   3.372   0.934
 5741SOL     OW18121   0.836   3.760   3.970
 5741SOL    HW118122   0.852   3.728   4.063
 5741SOL    HW218123   0.778   3.694   3.921
 5742SOL     OW18124   3.636   6.639   3.840
 5742SOL    HW118125   3.723   6.669   3.878
 5742SOL    HW218126   3.585   6.589   3.910
 5743SOL     OW18127   3.687   5.041   6.253
 5743SOL    HW118128   3.749   4.986   6.308
 5743SOL    HW218129   3.613   4.982   6.217
 5744SOL     OW18130   6.184   0.631   3.001
 5744SOL    HW118131   6.239   0.609   3.082
 5744SOL    HW218132   6.197   0.560   2.932
 5745SOL     OW18133   2.619   2.493   3.500
 5745SOL    HW118134   2.705   2.462   3.461
 5745SOL    HW218135   2.619   2.477   3.599
 5746SOL     OW18136   3.977   0.124   3.740
 5746SOL    HW118137   3.972   0.037   3.788
 5746SOL    HW218138   4.040   0.185   3.788
 5747SOL     OW18139   1.091   6.129   1.941
 5747SOL    HW118140   1.018   6.094   1.999
 5747SOL    HW218141   1.144   6.197   1.991
 5748SOL     OW18142   0.592   6.311   0.745
 5748SOL    HW118143   0.687   6.289   0.769
 5748SOL    HW218144   0.590   6.393   0.688
 5749SOL     OW18145   1.989   6.853   4.910
 5749SOL    HW118146   1.981   6.904   4.824
 5749SOL    HW218147   2.058   6.781   4.900
 5750SOL     OW18148   6.840   4.326   5.013
 5750SOL    HW118149   6.781   4.388   4.963
 5750SOL    HW218150   6.804   4.312   5.105
 5751SOL     OW18151   1.667   3.275   4.660
 5751SOL    HW118152   1.736   3.338   4.696
 5751SOL    HW218153   1.613   3.322   4.590
 5752SOL     OW18154   5.546   0.551   1.551
 5752SOL    HW118155   5.626   0.500   1.580
 5752SOL    HW218156   5.571   0.615   1.479
 5753SOL     OW18157   2.825   3.782   5.225
 5753SOL    HW118158   2.899   3.822   5.280
 5753SOL    HW218159   2.820   3.828   5.137
 5754SOL     OW18160   1.732   6.141   2.232
 5754SOL    HW118161   1.656   6.182   2.282
 5754SOL    HW218162   1.701   6.057   2.188
 5755SOL     OW18163   1.860   1.832   6.073
 5755SOL    HW118164   1.917   1.872   6.001
 5755SOL    HW218165   1.884   1.873   6.161
 5756SOL     OW18166   6.530   0.143   2.459
 5756SOL    HW118167   6.556   0.047   2.466
 5756SOL    HW218168   6.561   0.193   2.540
 5757SOL     OW18169   0.164   5.634   3.967
 5757SOL    HW118170   0.078   5.672   4.000
 5757SOL    HW218171   0.215   5.596   4.045
 5758SOL     OW18172   2.515   6.944   3.551
 5758SOL    HW118173   2.510   7.015   3.480
 5758SOL    HW218174   2.551   6.859   3.511
 5759SOL     OW18175   4.791   6.899   1.857
 5759SOL    HW118176   4.696   6.910   1.884
 5759SOL    HW218177   4.809   6.954   1.775
 5760SOL     OW18178   6.715   3.319   2.128
 5760SOL    HW118179   6.760   3.408   2.116
 5760SOL    HW218180   6.624   3.333   2.167
 5761SOL     OW18181   5.076   5.866   5.060
 5761SOL    HW118182   5.025   5.780   5.067
 5761SOL    HW218183   5.012   5.942   5.069
 5762SOL     OW18184   4.479   4.501   0.716
 5762SOL    HW118185   4.531   4.416   0.728
 5762SOL    HW218186   4.444   4.505   0.622
 5763SOL     OW18187   5.307   6.347   0.460
 5763SOL    HW118188   5.361   6.309   0.385
 5763SOL    HW218189   5.333   6.443   0.475
 5764SOL     OW18190   4.329   5.251   2.984
 5764SOL    HW118191   4.233   5.279   2.978
 5764SOL    HW218192   4.368   5.285   3.070
 5765SOL     OW18193   6.622   3.893   0.847
 5765SOL    HW118194   6.534   3.920   0.887
 5765SOL    HW218195   6.661   3.818   0.900
 5766SOL     OW18196   2.152   2.095   4.704
 5766SOL    HW118197   2.148   1.998   4.679
 5766SOL    HW218198   2.166   2.103   4.802
 5767SOL     OW18199   2.300   0.289   6.998
 5767SOL    HW118200   2.290   0.285   0.079
 5767SOL    HW218201   2.233   0.227   6.956
 5768SOL     OW18202   6.788   6.906   3.572
 5768SOL    HW118203   6.881   6.932   3.599
 5768SOL    HW218204   6.788   6.811   3.539
 5769SOL     OW18205   2.457   5.276   5.710
 5769SOL    HW118206   2.470   5.244   5.616
 5769SOL    HW218207   2.380   5.228   5.752
 5770SOL     OW18208   0.501   6.292   0.032
 5770SOL    HW118209   0.415   6.337   0.055
 5770SOL    HW218210   0.577   6.351   0.057
 5771SOL     OW18211   1.800   0.111   4.035
 5771SOL    HW118212   1.760   0.055   3.962
 5771SOL    HW218213   1.836   0.195   3.995
 5772SOL     OW18214   4.436   1.554   1.570
 5772SOL    HW118215   4.414   1.582   1.477
 5772SOL    HW218216   4.397   1.620   1.634
 5773SOL     OW18217   4.333   1.129   2.457
 5773SOL    HW118218   4.389   1.200   2.413
 5773SOL    HW218219   4.257   1.106   2.397
 5774SOL     OW18220   1.751   0.840   4.570
 5774SOL    HW118221   1.677   0.836   4.503
 5774SOL    HW218222   1.811   0.761   4.557
 5775SOL     OW18223   1.405   6.042   2.824
 5775SOL    HW118224   1.460   6.055   2.741
 5775SOL    HW218225   1.320   5.994   2.800
 5776SOL     OW18226   1.347   0.306   3.400
 5776SOL    HW118227   1.251   0.314   3.426
 5776SOL    HW218228   1.368   0.375   3.331
 5777SOL     OW18229   1.102   0.417   3.489
 5777SOL    HW118230   1.061   0.398   3.400
 5777SOL    HW218231   1.070   0.506   3.522
 5778SOL     OW18232   2.004   0.667   0.145
 5778SOL    HW118233   1.910   0.654   0.177
 5778SOL    HW218234   2.056   0.583   0.161
 5779SOL     OW18235   4.818   2.389   6.919
 5779SOL    HW118236   4.781   2.451   6.851
 5779SOL    HW218237   4.917   2.382   6.908
 5780SOL     OW18238   5.188   5.806   4.671
 5780SOL    HW118239   5.227   5.898   4.664
 5780SOL    HW218240   5.089   5.812   4.679
 5781SOL     OW18241   6.505   4.103   4.817
 5781SOL    HW118242   6.556   4.084   4.902
 5781SOL    HW218243   6.487   4.017   4.769
 5782SOL     OW18244   1.441   1.464   0.306
 5782SOL    HW118245   1.396   1.408   0.237
 5782SOL    HW218246   1.381   1.473   0.386
 5783SOL     OW18247   1.120   0.879   2.464
 5783SOL    HW118248   1.189   0.860   2.535
 5783SOL    HW218249   1.142   0.966   2.420
 5784SOL     OW18250   0.384   6.296   6.604
 5784SOL    HW118251   0.337   6.237   6.538
 5784SOL    HW218252   0.420   6.239   6.679
 5785SOL     OW18253   1.937   1.945   0.111
 5785SOL    HW118254   1.863   2.005   0.142
 5785SOL    HW218255   1.911   1.849   0.128
 5786SOL     OW18256   6.997   4.347   0.863
 5786SOL    HW118257   6.935   4.416   0.825
 5786SOL    HW218258   6.946   4.264   0.884
 5787SOL     OW18259   2.222   2.006   5.224
 5787SOL    HW118260   2.268   2.013   5.135
 5787SOL    HW218261   2.283   1.961   5.289
 5788SOL     OW18262   2.476   1.502   2.765
 5788SOL    HW118263   2.493   1.409   2.798
 5788SOL    HW218264   2.562   1.544   2.737
 5789SOL     OW18265   3.728   4.436   6.726
 5789SOL    HW118266   3.685   4.472   6.643
 5789SOL    HW218267   3.700   4.493   6.804
 5790SOL     OW18268   1.879   3.890   4.257
 5790SOL    HW118269   1.850   3.852   4.345
 5790SOL    HW218270   1.901   3.815   4.195
 5791SOL     OW18271   4.152   0.334   1.840
 5791SOL    HW118272   4.200   0.359   1.755
 5791SOL    HW218273   4.060   0.372   1.838
 5792SOL     OW18274   6.679   2.606   2.601
 5792SOL    HW118275   6.773   2.572   2.607
 5792SOL    HW218276   6.663   2.673   2.674
 5793SOL     OW18277   5.158   0.851   3.541
 5793SOL    HW118278   5.176   0.949   3.536
 5793SOL    HW218279   5.205   0.813   3.621
 5794SOL     OW18280   4.132   2.017   0.369
 5794SOL    HW118281   4.075   1.939   0.341
 5794SOL    HW218282   4.160   2.006   0.464
 5795SOL     OW18283   6.728   5.187   6.444
 5795SOL    HW118284   6.693   5.095   6.427
 5795SOL    HW218285   6.729   5.204   6.543
 5796SOL     OW18286   3.864   0.839   6.706
 5796SOL    HW118287   3.943   0.899   6.718
 5796SOL    HW218288   3.867   0.765   6.773
 5797SOL     OW18289   4.359   1.844   5.330
 5797SOL    HW118290   4.396   1.768   5.277
 5797SOL    HW218291   4.259   1.841   5.327
 5798SOL     OW18292   0.793   4.362   5.345
 5798SOL    HW118293   0.748   4.411   5.271
 5798SOL    HW218294   0.773   4.407   5.432
 5799SOL     OW18295   5.389   1.527   3.644
 5799SOL    HW118296   5.295   1.505   3.618
 5799SOL    HW218297   5.434   1.576   3.568
 5800SOL     OW18298   5.843   6.149   0.767
 5800SOL    HW118299   5.888   6.225   0.812
 5800SOL    HW218300   5.799   6.090   0.836
 5801SOL     OW18301   1.162   2.398   4.559
 5801SOL    HW118302   1.164   2.473   4.493
 5801SOL    HW218303   1.189   2.313   4.513
 5802SOL     OW18304   0.792   4.514   0.491
 5802SOL    HW118305   0.700   4.475   0.495
 5802SOL    HW218306   0.856   4.445   0.458
 5803SOL     OW18307   1.198   4.305   2.276
 5803SOL    HW118308   1.208   4.314   2.176
 5803SOL    HW218309   1.143   4.224   2.297
 5804SOL     OW18310   6.689   4.915   3.855
 5804SOL    HW118311   6.727   4.832   3.896
 5804SOL    HW218312   6.599   4.934   3.895
 5805SOL     OW18313   2.989   3.733   6.157
 5805SOL    HW118314   2.972   3.796   6.233
 5805SOL    HW218315   2.943   3.765   6.075
 5806SOL     OW18316   6.849   6.048   5.608
 5806SOL    HW118317   6.948   6.050   5.619
 5806SOL    HW218318   6.814   6.141   5.594
 5807SOL     OW18319   1.513   3.686   2.004
 5807SOL    HW118320   1.455   3.650   1.931
 5807SOL    HW218321   1.589   3.738   1.963
 5808SOL     OW18322   6.144   4.180   4.007
 5808SOL    HW118323   6.235   4.150   3.980
 5808SOL    HW218324   6.119   4.137   4.094
 5809SOL     OW18325   0.109   2.132   4.643
 5809SOL    HW118326   0.025   2.154   4.694
 5809SOL    HW218327   0.182   2.113   4.708
 5810SOL     OW18328   2.975   1.308   4.191
 5810SOL    HW118329   3.061   1.266   4.221
 5810SOL    HW218330   2.990   1.405   4.175
 5811SOL     OW18331   2.642   0.136   5.412
 5811SOL    HW118332   2.602   0.061   5.359
 5811SOL    HW218333   2.735   0.111   5.439
 5812SOL     OW18334   5.762   0.659   4.497
 5812SOL    HW118335   5.725   0.752   4.498
 5812SOL    HW218336   5.835   0.653   4.429
 5813SOL     OW18337   1.125   1.340   0.655
 5813SOL    HW118338   1.058   1.295   0.715
 5813SOL    HW218339   1.189   1.271   0.621
 5814SOL     OW18340   6.310   4.854   0.949
 5814SOL    HW118341   6.237   4.815   0.892
 5814SOL    HW218342   6.270   4.890   1.033
 5815SOL     OW18343   4.604   2.645   3.732
 5815SOL    HW118344   4.695   2.624   3.695
 5815SOL    HW218345   4.602   2.740   3.764
 5816SOL     OW18346   4.901   5.317   0.056
 5816SOL    HW118347   4.915   5.321   0.155
 5816SOL    HW218348   4.825   5.255   0.036
 5817SOL     OW18349   5.088   3.500   5.740
 5817SOL    HW118350   5.167   3.543   5.786
 5817SOL    HW218351   5.067   3.549   5.656
 5818SOL     OW18352   6.456   6.372   4.901
 5818SOL    HW118353   6.364   6.404   4.925
 5818SOL    HW218354   6.453   6.323   4.814
 5819SOL     OW18355   4.325   0.346   6.407
 5819SOL    HW118356   4.365   0.254   6.409
 5819SOL    HW218357   4.232   0.343   6.444
 5820SOL     OW18358   4.372   6.030   3.783
 5820SOL    HW118359   4.344   6.051   3.877
 5820SOL    HW218360   4.437   5.955   3.784
 5821SOL     OW18361   0.403   0.255   2.485
 5821SOL    HW118362   0.461   0.274   2.406
 5821SOL    HW218363   0.346   0.335   2.505
 5822SOL     OW18364   0.113   2.702   2.430
 5822SOL    HW118365   0.204   2.692   2.390
 5822SOL    HW218366   0.083   2.614   2.466
 5823SOL     OW18367   0.612   0.971   6.090
 5823SOL    HW118368   0.620   0.873   6.103
 5823SOL    HW218369   0.591   0.990   5.994
 5824SOL     OW18370   6.927   5.595   2.672
 5824SOL    HW118371   7.017   5.623   2.638
 5824SOL    HW218372   6.856   5.641   2.619
 5825SOL     OW18373   2.728   2.066   5.369
 5825SOL    HW118374   2.746   2.149   5.316
 5825SOL    HW218375   2.674   2.002   5.314
 5826SOL     OW18376   6.831   5.044   5.242
 5826SOL    HW118377   6.929   5.054   5.227
 5826SOL    HW218378   6.802   4.953   5.211
 5827SOL     OW18379   2.353   4.836   4.763
 5827SOL    HW118380   2.282   4.783   4.811
 5827SOL    HW218381   2.309   4.899   4.699
 5828SOL     OW18382   6.733   3.169   1.556
 5828SOL    HW118383   6.711   3.110   1.634
 5828SOL    HW218384   6.655   3.174   1.495
 5829SOL     OW18385   2.689   1.618   2.677
 5829SOL    HW118386   2.670   1.671   2.595
 5829SOL    HW218387   2.785   1.630   2.703
 5830SOL     OW18388   4.305   6.921   5.500
 5830SOL    HW118389   4.222   6.881   5.540
 5830SOL    HW218390   4.283   7.007   5.455
 5831SOL     OW18391   7.000   0.367   4.184
 5831SOL    HW118392   6.955   0.320   4.260
 5831SOL    HW218393   0.032   0.301   4.129
 5832SOL     OW18394   3.688   4.657   5.761
 5832SOL    HW118395   3.609   4.661   5.821
 5832SOL    HW218396   3.675   4.721   5.685
 5833SOL     OW18397   4.210   3.254   5.282
 5833SOL    HW118398   4.307   3.235   5.268
 5833SOL    HW218399   4.164   3.257   5.194
 5834SOL     OW18400   6.121   2.381   0.297
 5834SOL    HW118401   6.087   2.474   0.285
 5834SOL    HW218402   6.124   2.358   0.394
 5835SOL     OW18403   5.047   3.366   3.182
 5835SOL    HW118404   5.093   3.442   3.135
 5835SOL    HW218405   4.968   3.337   3.129
 5836SOL     OW18406   2.947   6.540   2.800
 5836SOL    HW118407   2.855   6.499   2.803
 5836SOL    HW218408   3.012   6.472   2.767
 5837SOL     OW18409   4.378   5.315   5.813
 5837SOL    HW118410   4.287   5.332   5.851
 5837SOL    HW218411   4.370   5.296   5.715
 5838SOL     OW18412   2.442   1.369   6.048
 5838SOL    HW118413   2.441   1.275   6.013
 5838SOL    HW218414   2.438   1.433   5.971
 5839SOL     OW18415   0.153   2.270   2.684
 5839SOL    HW118416   0.060   2.234   2.675
 5839SOL    HW218417   0.156   2.363   2.650
 5840SOL     OW18418   1.406   5.178   0.029
 5840SOL    HW118419   1.335   5.148   0.093
 5840SOL    HW218420   1.369   5.248   6.987
 5841SOL     OW18421   5.168   1.677   2.836
 5841SOL    HW118422   5.089   1.739   2.836
 5841SOL    HW218423   5.204   1.670   2.929
 5842SOL     OW18424   4.423   3.131   1.453
 5842SOL    HW118425   4.469   3.166   1.372
 5842SOL    HW218426   4.373   3.047   1.429
 5843SOL     OW18427   2.127   3.715   2.098
 5843SOL    HW118428   2.148   3.626   2.056
 5843SOL    HW218429   2.112   3.702   2.196
 5844SOL     OW18430   0.699   6.601   5.788
 5844SOL    HW118431   0.625   6.650   5.742
 5844SOL    HW218432   0.768   6.574   5.721
 5845SOL     OW18433   0.934   0.288   2.629
 5845SOL    HW118434   0.878   0.314   2.708
 5845SOL    HW218435   0.893   0.326   2.546
 5846SOL     OW18436   6.065   3.244   4.068
 5846SOL    HW118437   5.998   3.182   4.107
 5846SOL    HW218438   6.158   3.213   4.091
 5847SOL     OW18439   1.866   1.943   2.305
 5847SOL    HW118440   1.853   1.978   2.212
 5847SOL    HW218441   1.800   1.986   2.366
 5848SOL     OW18442   2.423   5.311   3.193
 5848SOL    HW118443   2.379   5.261   3.268
 5848SOL    HW218444   2.355   5.333   3.123
 5849SOL     OW18445   6.866   0.330   6.750
 5849SOL    HW118446   6.772   0.324   6.783
 5849SOL    HW218447   6.909   0.240   6.756
 5850SOL     OW18448   0.933   3.831   1.808
 5850SOL    HW118449   0.970   3.924   1.802
 5850SOL    HW218450   0.836   3.832   1.784
 5851SOL     OW18451   4.895   3.158   2.708
 5851SOL    HW118452   4.989   3.136   2.736
 5851SOL    HW218453   4.890   3.158   2.608
 5852SOL     OW18454   4.686   6.824   3.460
 5852SOL    HW118455   4.613   6.890   3.478
 5852SOL    HW218456   4.755   6.867   3.403
 5853SOL     OW18457   2.999   5.550   4.406
 5853SOL    HW118458   2.970   5.455   4.396
 5853SOL    HW218459   3.060   5.559   4.485
 5854SOL     OW18460   6.522   4.085   5.661
 5854SOL    HW118461   6.571   4.004   5.691
 5854SOL    HW218462   6.481   4.131   5.740
 5855SOL     OW18463   0.399   0.352   4.981
 5855SOL    HW118464   0.394   0.450   5.002
 5855SOL    HW218465   0.490   0.318   5.004
 5856SOL     OW18466   1.919   6.319   3.870
 5856SOL    HW118467   1.952   6.243   3.813
 5856SOL    HW218468   1.996   6.367   3.911
 5857SOL     OW18469   6.034   2.996   5.303
 5857SOL    HW118470   5.949   2.999   5.355
 5857SOL    HW218471   6.079   3.085   5.307
 5858SOL     OW18472   2.602   2.286   2.149
 5858SOL    HW118473   2.562   2.214   2.093
 5858SOL    HW218474   2.701   2.286   2.137
 5859SOL     OW18475   5.734   0.161   1.264
 5859SOL    HW118476   5.644   0.121   1.275
 5859SOL    HW218477   5.796   0.125   1.334
 5860SOL     OW18478   2.012   3.502   1.530
 5860SOL    HW118479   2.024   3.540   1.622
 5860SOL    HW218480   1.940   3.553   1.483
 5861SOL     OW18481   4.871   1.708   4.320
 5861SOL    HW118482   4.786   1.681   4.274
 5861SOL    HW218483   4.860   1.701   4.419
 5862SOL     OW18484   5.299   4.904   3.377
 5862SOL    HW118485   5.273   4.997   3.352
 5862SOL    HW218486   5.395   4.901   3.404
 5863SOL     OW18487   2.938   0.911   4.579
 5863SOL    HW118488   3.012   0.843   4.580
 5863SOL    HW218489   2.852   0.866   4.603
 5864SOL     OW18490   3.922   3.487   1.901
 5864SOL    HW118491   3.877   3.414   1.851
 5864SOL    HW218492   4.021   3.475   1.897
 5865SOL     OW18493   5.793   0.227   4.542
 5865SOL    HW118494   5.728   0.302   4.528
 5865SOL    HW218495   5.877   0.263   4.584
 5866SOL     OW18496   4.338   5.737   6.819
 5866SOL    HW118497   4.377   5.828   6.832
 5866SOL    HW218498   4.328   5.692   6.908
 5867SOL     OW18499   0.261   3.980   1.081
 5867SOL    HW118500   0.328   3.908   1.062
 5867SOL    HW218501   0.191   3.945   1.143
 5868SOL     OW18502   0.327   0.605   5.614
 5868SOL    HW118503   0.248   0.577   5.558
 5868SOL    HW218504   0.295   0.636   5.703
 5869SOL     OW18505   2.586   5.624   3.418
 5869SOL    HW118506   2.605   5.697   3.484
 5869SOL    HW218507   2.487   5.616   3.406
 5870SOL     OW18508   4.782   5.862   4.484
 5870SOL    HW118509   4.816   5.929   4.418
 5870SOL    HW218510   4.809   5.889   4.576
 5871SOL     OW18511   4.336   3.406   0.436
 5871SOL    HW118512   4.281   3.389   0.354
 5871SOL    HW218513   4.289   3.370   0.516
 5872SOL     OW18514   3.802   4.779   6.847
 5872SOL    HW118515   3.780   4.682   6.831
 5872SOL    HW218516   3.886   4.785   6.901
 5873SOL     OW18517   2.228   2.538   0.937
 5873SOL    HW118518   2.163   2.473   0.977
 5873SOL    HW218519   2.280   2.493   0.864
 5874SOL     OW18520   2.878   3.070   1.271
 5874SOL    HW118521   2.804   3.003   1.268
 5874SOL    HW218522   2.959   3.029   1.312
 5875SOL     OW18523   3.838   1.035   1.353
 5875SOL    HW118524   3.749   1.043   1.398
 5875SOL    HW218525   3.892   0.964   1.398
 5876SOL     OW18526   2.758   3.056   6.858
 5876SOL    HW118527   2.737   3.080   6.953
 5876SOL    HW218528   2.676   3.066   6.802
 5877SOL     OW18529   6.831   0.021   1.067
 5877SOL    HW118530   6.913   0.017   1.010
 5877SOL    HW218531   6.801   6.946   1.089
 5878SOL     OW18532   4.963   5.025   3.242
 5878SOL    HW118533   5.031   5.068   3.302
 5878SOL    HW218534   4.890   4.986   3.298
 5879SOL     OW18535   2.429   3.620   6.204
 5879SOL    HW118536   2.452   3.713   6.177
 5879SOL    HW218537   2.458   3.604   6.299
 5880SOL     OW18538   4.586   4.314   6.610
 5880SOL    HW118539   4.551   4.302   6.518
 5880SOL    HW218540   4.686   4.316   6.609
 5881SOL     OW18541   1.657   0.329   2.321
 5881SOL    HW118542   1.592   0.299   2.391
 5881SOL    HW218543   1.611   0.331   2.231
 5882SOL     OW18544   0.712   6.241   5.791
 5882SOL    HW118545   0.615   6.233   5.765
 5882SOL    HW218546   0.720   6.303   5.869
 5883SOL     OW18547   0.277   1.441   0.793
 5883SOL    HW118548   0.376   1.455   0.789
 5883SOL    HW218549   0.243   1.414   0.703
 5884SOL     OW18550   5.934   0.819   5.025
 5884SOL    HW118551   5.854   0.880   5.020
 5884SOL    HW218552   6.016   0.873   5.044
 5885SOL     OW18553   0.968   5.516   0.880
 5885SOL    HW118554   0.917   5.600   0.863
 5885SOL    HW218555   1.053   5.538   0.929
 5886SOL     OW18556   0.861   3.073   3.181
 5886SOL    HW118557   0.831   3.017   3.257
 5886SOL    HW218558   0.890   3.163   3.214
 5887SOL     OW18559   2.989   1.902   1.814
 5887SOL    HW118560   3.075   1.857   1.837
 5887SOL    HW218561   2.939   1.922   1.898
 5888SOL     OW18562   2.536   6.935   1.142
 5888SOL    HW118563   2.474   6.857   1.140
 5888SOL    HW218564   2.621   6.908   1.188
 5889SOL     OW18565   6.586   1.223   0.686
 5889SOL    HW118566   6.680   1.188   0.687
 5889SOL    HW218567   6.570   1.276   0.770
 5890SOL     OW18568   1.961   6.559   2.772
 5890SOL    HW118569   1.866   6.559   2.742
 5890SOL    HW218570   1.992   6.653   2.786
 5891SOL     OW18571   2.328   4.024   0.147
 5891SOL    HW118572   2.291   4.115   0.125
 5891SOL    HW218573   2.277   3.955   0.095
 5892SOL     OW18574   0.328   4.821   1.780
 5892SOL    HW118575   0.415   4.822   1.732
 5892SOL    HW218576   0.287   4.730   1.774
 5893SOL     OW18577   1.609   4.838   1.362
 5893SOL    HW118578   1.580   4.763   1.422
 5893SOL    HW218579   1.686   4.808   1.305
 5894SOL     OW18580   0.716   5.764   5.037
 5894SOL    HW118581   0.642   5.722   5.089
 5894SOL    HW218582   0.738   5.853   5.077
 5895SOL     OW18583   6.558   3.623   3.509
 5895SOL    HW118584   6.476   3.660   3.552
 5895SOL    HW218585   6.564   3.525   3.529
 5896SOL     OW18586   5.183   1.073   1.453
 5896SOL    HW118587   5.255   1.013   1.417
 5896SOL    HW218588   5.098   1.057   1.403
 5897SOL     OW18589   3.840   1.277   1.723
 5897SOL    HW118590   3.844   1.376   1.716
 5897SOL    HW218591   3.748   1.246   1.696
 5898SOL     OW18592   2.236   1.153   5.494
 5898SOL    HW118593   2.316   1.190   5.542
 5898SOL    HW218594   2.258   1.063   5.457
 5899SOL     OW18595   6.865   5.738   6.070
 5899SOL    HW118596   6.826   5.829   6.057
 5899SOL    HW218597   6.824   5.694   6.149
 5900SOL     OW18598   6.603   5.259   3.587
 5900SOL    HW118599   6.654   5.206   3.655
 5900SOL    HW218600   6.605   5.356   3.611
 5901SOL     OW18601   1.548   1.269   0.546
 5901SOL    HW118602   1.647   1.265   0.559
 5901SOL    HW218603   1.516   1.363   0.555
 5902SOL     OW18604   5.837   3.587   5.325
 5902SOL    HW118605   5.927   3.550   5.299
 5902SOL    HW218606   5.825   3.676   5.283
 5903SOL     OW18607   5.477   2.737   6.856
 5903SOL    HW118608   5.394   2.711   6.905
 5903SOL    HW218609   5.513   2.822   6.895
 5904SOL     OW18610   1.427   4.294   1.064
 5904SOL    HW118611   1.428   4.393   1.050
 5904SOL    HW218612   1.518   4.258   1.045
 5905SOL     OW18613   5.434   1.296   3.792
 5905SOL    HW118614   5.417   1.387   3.754
 5905SOL    HW218615   5.349   1.243   3.791
 5906SOL     OW18616   5.400   1.594   5.076
 5906SOL    HW118617   5.305   1.562   5.075
 5906SOL    HW218618   5.455   1.537   5.015
 5907SOL     OW18619   1.600   6.910   0.723
 5907SOL    HW118620   1.611   6.813   0.699
 5907SOL    HW218621   1.672   6.963   0.679
 5908SOL     OW18622   5.452   3.949   0.405
 5908SOL    HW118623   5.386   3.923   0.335
 5908SOL    HW218624   5.408   3.949   0.495
 5909SOL     OW18625   0.810   4.574   6.220
 5909SOL    HW118626   0.767   4.525   6.144
 5909SOL    HW218627   0.824   4.670   6.193
 5910SOL     OW18628   1.344   4.784   0.233
 5910SOL    HW118629   1.290   4.702   0.251
 5910SOL    HW218630   1.439   4.758   0.217
 5911SOL     OW18631   0.730   5.835   6.111
 5911SOL    HW118632   0.641   5.793   6.128
 5911SOL    HW218633   0.733   5.871   6.018
 5912SOL     OW18634   6.309   3.280   6.757
 5912SOL    HW118635   6.340   3.374   6.741
 5912SOL    HW218636   6.213   3.272   6.731
 5913SOL     OW18637   2.121   2.788   5.663
 5913SOL    HW118638   2.126   2.825   5.570
 5913SOL    HW218639   2.148   2.691   5.662
 5914SOL     OW18640   2.726   5.626   0.072
 5914SOL    HW118641   2.717   5.686   7.011
 5914SOL    HW218642   2.799   5.560   0.056
 5915SOL     OW18643   5.483   3.393   2.017
 5915SOL    HW118644   5.401   3.340   2.037
 5915SOL    HW218645   5.537   3.405   2.100
 5916SOL     OW18646   3.867   0.471   5.746
 5916SOL    HW118647   3.931   0.425   5.809
 5916SOL    HW218648   3.851   0.412   5.667
 5917SOL     OW18649   3.796   3.392   3.535
 5917SOL    HW118650   3.767   3.299   3.557
 5917SOL    HW218651   3.878   3.415   3.587
 5918SOL     OW18652   2.112   3.696   4.704
 5918SOL    HW118653   2.118   3.788   4.743
 5918SOL    HW218654   2.132   3.629   4.776
 5919SOL     OW18655   3.241   1.508   6.727
 5919SOL    HW118656   3.203   1.576   6.664
 5919SOL    HW218657   3.168   1.468   6.781
 5920SOL     OW18658   3.613   6.764   0.066
 5920SOL    HW118659   3.608   6.699   7.009
 5920SOL    HW218660   3.538   6.831   0.057
 5921SOL     OW18661   3.495   5.105   5.439
 5921SOL    HW118662   3.516   5.190   5.391
 5921SOL    HW218663   3.579   5.054   5.456
 5922SOL     OW18664   6.380   5.222   3.469
 5922SOL    HW118665   6.458   5.210   3.530
 5922SOL    HW218666   6.387   5.157   3.393
 5923SOL     OW18667   6.302   1.422   2.646
 5923SOL    HW118668   6.247   1.339   2.653
 5923SOL    HW218669   6.257   1.497   2.694
 5924SOL     OW18670   5.813   2.802   4.908
 5924SOL    HW118671   5.763   2.889   4.908
 5924SOL    HW218672   5.789   2.749   4.989
 5925SOL     OW18673   4.292   6.737   2.836
 5925SOL    HW118674   4.362   6.680   2.879
 5925SOL    HW218675   4.219   6.756   2.902
 5926SOL     OW18676   3.279   5.060   1.690
 5926SOL    HW118677   3.230   4.974   1.671
 5926SOL    HW218678   3.351   5.043   1.757
 5927SOL     OW18679   2.383   4.362   2.394
 5927SOL    HW118680   2.420   4.402   2.310
 5927SOL    HW218681   2.340   4.274   2.373
 5928SOL     OW18682   2.983   0.388   2.760
 5928SOL    HW118683   3.064   0.405   2.816
 5928SOL    HW218684   2.996   0.304   2.707
 5929SOL     OW18685   0.756   5.958   5.861
 5929SOL    HW118686   0.834   6.019   5.872
 5929SOL    HW218687   0.724   5.962   5.766
 5930SOL     OW18688   6.114   1.486   3.760
 5930SOL    HW118689   6.065   1.533   3.687
 5930SOL    HW218690   6.208   1.520   3.765
 5931SOL     OW18691   5.486   4.880   2.575
 5931SOL    HW118692   5.503   4.878   2.673
 5931SOL    HW218693   5.573   4.888   2.526
 5932SOL     OW18694   2.378   6.539   0.891
 5932SOL    HW118695   2.418   6.448   0.883
 5932SOL    HW218696   2.416   6.585   0.972
 5933SOL     OW18697   6.687   4.960   2.068
 5933SOL    HW118698   6.601   4.965   2.016
 5933SOL    HW218699   6.671   4.994   2.161
 5934SOL     OW18700   3.733   3.561   3.787
 5934SOL    HW118701   3.659   3.583   3.723
 5934SOL    HW218702   3.735   3.463   3.804
 5935SOL     OW18703   3.822   3.159   4.738
 5935SOL    HW118704   3.755   3.213   4.685
 5935SOL    HW218705   3.914   3.195   4.721
 5936SOL     OW18706   4.493   3.469   6.478
 5936SOL    HW118707   4.429   3.396   6.505
 5936SOL    HW218708   4.498   3.536   6.552
 5937SOL     OW18709   0.204   4.290   1.923
 5937SOL    HW118710   0.257   4.358   1.975
 5937SOL    HW218711   0.250   4.202   1.928
 5938SOL     OW18712   1.047   5.262   3.977
 5938SOL    HW118713   1.021   5.358   3.988
 5938SOL    HW218714   1.146   5.253   3.981
 5939SOL     OW18715   3.411   0.354   3.203
 5939SOL    HW118716   3.374   0.441   3.235
 5939SOL    HW218717   3.335   0.291   3.182
 5940SOL     OW18718   4.331   6.749   2.315
 5940SOL    HW118719   4.316   6.789   2.406
 5940SOL    HW218720   4.424   6.714   2.309
 5941SOL     OW18721   6.321   4.524   2.026
 5941SOL    HW118722   6.307   4.506   2.124
 5941SOL    HW218723   6.325   4.437   1.977
 5942SOL     OW18724   4.623   2.745   6.527
 5942SOL    HW118725   4.608   2.832   6.479
 5942SOL    HW218726   4.688   2.689   6.475
 5943SOL     OW18727   3.158   5.844   0.178
 5943SOL    HW118728   3.196   5.784   0.107
 5943SOL    HW218729   3.116   5.789   0.250
 5944SOL     OW18730   5.842   1.689   1.456
 5944SOL    HW118731   5.839   1.789   1.462
 5944SOL    HW218732   5.856   1.651   1.548
 5945SOL     OW18733   0.039   5.387   5.558
 5945SOL    HW118734   0.058   5.438   5.474
 5945SOL    HW218735   6.989   5.316   5.538
 5946SOL     OW18736   3.501   3.457   5.723
 5946SOL    HW118737   3.478   3.540   5.671
 5946SOL    HW218738   3.579   3.411   5.680
 5947SOL     OW18739   3.967   3.033   1.975
 5947SOL    HW118740   4.019   3.096   1.917
 5947SOL    HW218741   4.020   3.010   2.057
 5948SOL     OW18742   4.075   5.301   3.053
 5948SOL    HW118743   4.042   5.270   3.143
 5948SOL    HW218744   4.101   5.397   3.058
 5949SOL     OW18745   4.050   3.619   1.013
 5949SOL    HW118746   4.117   3.603   0.941
 5949SOL    HW218747   3.972   3.669   0.976
 5950SOL     OW18748   5.353   3.201   5.184
 5950SOL    HW118749   5.378   3.256   5.263
 5950SOL    HW218750   5.431   3.196   5.121
 5951SOL     OW18751   0.644   6.226   4.883
 5951SOL    HW118752   0.605   6.316   4.900
 5951SOL    HW218753   0.576   6.156   4.907
 5952SOL     OW18754   5.751   6.465   4.132
 5952SOL    HW118755   5.811   6.435   4.206
 5952SOL    HW218756   5.667   6.503   4.170
 5953SOL     OW18757   7.004   2.868   5.589
 5953SOL    HW118758   6.966   2.955   5.558
 5953SOL    HW218759   0.062   2.886   5.651
 5954SOL     OW18760   6.961   4.575   5.801
 5954SOL    HW118761   6.897   4.506   5.766
 5954SOL    HW218762   0.012   4.595   5.732
 5955SOL     OW18763   6.374   6.023   2.285
 5955SOL    HW118764   6.309   6.095   2.314
 5955SOL    HW218765   6.409   5.976   2.366
 5956SOL     OW18766   3.213   1.822   0.730
 5956SOL    HW118767   3.121   1.810   0.693
 5956SOL    HW218768   3.273   1.859   0.660
 5957SOL     OW18769   4.706   6.875   5.865
 5957SOL    HW118770   4.646   6.860   5.787
 5957SOL    HW218771   4.745   6.967   5.860
 5958SOL     OW18772   5.369   6.585   2.633
 5958SOL    HW118773   5.435   6.523   2.592
 5958SOL    HW218774   5.417   6.650   2.693
 5959SOL     OW18775   3.541   1.818   5.804
 5959SOL    HW118776   3.479   1.863   5.740
 5959SOL    HW218777   3.635   1.846   5.784
 5960SOL     OW18778   3.442   6.984   4.207
 5960SOL    HW118779   3.382   0.042   4.181
 5960SOL    HW218780   3.446   6.977   4.307
 5961SOL     OW18781   4.498   1.202   3.656
 5961SOL    HW118782   4.479   1.128   3.721
 5961SOL    HW218783   4.413   1.251   3.636
 5962SOL     OW18784   5.322   5.860   2.010
 5962SOL    HW118785   5.287   5.950   1.983
 5962SOL    HW218786   5.256   5.817   2.072
 5963SOL     OW18787   3.827   2.963   4.337
 5963SOL    HW118788   3.896   2.996   4.273
 5963SOL    HW218789   3.869   2.900   4.402
 5964SOL     OW18790   0.351   5.171   6.035
 5964SOL    HW118791   0.437   5.222   6.048
 5964SOL    HW218792   0.321   5.133   6.122
 5965SOL     OW18793   1.974   1.983   5.745
 5965SOL    HW118794   1.936   2.072   5.768
 5965SOL    HW218795   2.048   1.961   5.809
 5966SOL     OW18796   2.780   5.357   5.611
 5966SOL    HW118797   2.727   5.442   5.611
 5966SOL    HW218798   2.720   5.280   5.592
 5967SOL     OW18799   4.286   6.009   2.062
 5967SOL    HW118800   4.254   6.080   2.001
 5967SOL    HW218801   4.243   6.019   2.152
 5968SOL     OW18802   5.958   1.822   3.280
 5968SOL    HW118803   5.861   1.842   3.268
 5968SOL    HW218804   6.012   1.885   3.224
 5969SOL     OW18805   6.303   1.793   5.354
 5969SOL    HW118806   6.221   1.800   5.297
 5969SOL    HW218807   6.371   1.859   5.322
 5970SOL     OW18808   0.286   4.717   2.440
 5970SOL    HW118809   0.277   4.627   2.481
 5970SOL    HW218810   0.257   4.713   2.344
 5971SOL     OW18811   2.533   0.083   3.338
 5971SOL    HW118812   2.622   0.129   3.326
 5971SOL    HW218813   2.481   0.090   3.253
 5972SOL     OW18814   4.325   6.018   0.739
 5972SOL    HW118815   4.398   5.995   0.675
 5972SOL    HW218816   4.319   6.117   0.748
 5973SOL     OW18817   2.199   5.332   2.982
 5973SOL    HW118818   2.120   5.333   3.043
 5973SOL    HW218819   2.215   5.239   2.949
 5974SOL     OW18820   5.488   4.030   6.272
 5974SOL    HW118821   5.553   4.098   6.239
 5974SOL    HW218822   5.453   4.058   6.361
 5975SOL     OW18823   3.922   2.130   0.738
 5975SOL    HW118824   3.879   2.200   0.681
 5975SOL    HW218825   4.008   2.101   0.695
 5976SOL     OW18826   2.868   3.521   5.203
 5976SOL    HW118827   2.800   3.471   5.258
 5976SOL    HW218828   2.849   3.620   5.210
 5977SOL     OW18829   1.668   4.907   1.706
 5977SOL    HW118830   1.690   5.005   1.707
 5977SOL    HW218831   1.710   4.864   1.626
 5978SOL     OW18832   5.667   5.127   2.891
 5978SOL    HW118833   5.588   5.156   2.837
 5978SOL    HW218834   5.638   5.058   2.958
 5979SOL     OW18835   6.819   0.848   2.979
 5979SOL    HW118836   6.841   0.788   2.902
 5979SOL    HW218837   6.752   0.802   3.038
 5980SOL     OW18838   3.564   3.784   6.662
 5980SOL    HW118839   3.509   3.705   6.689
 5980SOL    HW218840   3.525   3.867   6.701
 5981SOL     OW18841   6.639   1.843   2.067
 5981SOL    HW118842   6.711   1.790   2.111
 5981SOL    HW218843   6.554   1.832   2.118
 5982SOL     OW18844   6.369   1.916   6.739
 5982SOL    HW118845   6.422   1.958   6.813
 5982SOL    HW218846   6.404   1.947   6.651
 5983SOL     OW18847   2.662   1.767   4.337
 5983SOL    HW118848   2.703   1.713   4.411
 5983SOL    HW218849   2.640   1.707   4.260
 5984SOL     OW18850   0.280   0.021   4.563
 5984SOL    HW118851   0.298   0.073   4.479
 5984SOL    HW218852   0.290   0.082   4.642
 5985SOL     OW18853   5.380   2.905   4.460
 5985SOL    HW118854   5.303   2.958   4.496
 5985SOL    HW218855   5.443   2.884   4.534
 5986SOL     OW18856   3.023   3.101   4.521
 5986SOL    HW118857   3.113   3.058   4.528
 5986SOL    HW218858   2.970   3.081   4.603
 5987SOL     OW18859   4.377   1.403   5.327
 5987SOL    HW118860   4.428   1.483   5.296
 5987SOL    HW218861   4.384   1.396   5.427
 5988SOL     OW18862   4.452   5.978   4.750
 5988SOL    HW118863   4.357   6.005   4.769
 5988SOL    HW218864   4.514   6.052   4.776
 5989SOL     OW18865   2.502   6.281   6.691
 5989SOL    HW118866   2.565   6.326   6.754
 5989SOL    HW218867   2.456   6.350   6.635
 5990SOL     OW18868   3.768   4.005   0.631
 5990SOL    HW118869   3.734   4.069   0.562
 5990SOL    HW218870   3.836   3.945   0.590
 5991SOL     OW18871   4.489   4.708   5.153
 5991SOL    HW118872   4.422   4.782   5.160
 5991SOL    HW218873   4.450   4.632   5.102
 5992SOL     OW18874   3.716   0.664   3.820
 5992SOL    HW118875   3.726   0.702   3.912
 5992SOL    HW218876   3.719   0.564   3.824
 5993SOL     OW18877   3.595   6.908   5.996
 5993SOL    HW118878   3.622   6.814   5.974
 5993SOL    HW218879   3.499   6.921   5.972
 5994SOL     OW18880   6.281   2.148   1.880
 5994SOL    HW118881   6.187   2.112   1.880
 5994SOL    HW218882   6.307   2.174   1.787
 5995SOL     OW18883   6.632   5.436   1.639
 5995SOL    HW118884   6.554   5.373   1.648
 5995SOL    HW218885   6.648   5.456   1.543
 5996SOL     OW18886   0.766   5.573   6.692
 5996SOL    HW118887   0.751   5.478   6.721
 5996SOL    HW218888   0.821   5.620   6.760
 5997SOL     OW18889   1.024   6.467   2.746
 5997SOL    HW118890   1.036   6.559   2.711
 5997SOL    HW218891   0.952   6.421   2.694
 5998SOL     OW18892   5.141   2.567   2.454
 5998SOL    HW118893   5.209   2.502   2.487
 5998SOL    HW218894   5.168   2.601   2.364
 5999SOL     OW18895   1.027   2.328   2.737
 5999SOL    HW118896   1.088   2.385   2.792
 5999SOL    HW218897   0.959   2.285   2.795
 6000SOL     OW18898   4.266   5.686   1.908
 6000SOL    HW118899   4.216   5.656   1.988
 6000SOL    HW218900   4.355   5.723   1.936
 6001SOL     OW18901   0.608   4.255   6.448
 6001SOL    HW118902   0.650   4.275   6.360
 6001SOL    HW218903   0.577   4.159   6.449
 6002SOL     OW18904   0.411   6.399   1.639
 6002SOL    HW118905   0.353   6.371   1.563
 6002SOL    HW218906   0.385   6.491   1.669
 6003SOL     OW18907   6.057   2.547   4.719
 6003SOL    HW118908   6.152   2.579   4.718
 6003SOL    HW218909   6.054   2.455   4.757
 6004SOL     OW18910   0.209   4.434   3.370
 6004SOL    HW118911   0.277   4.463   3.303
 6004SOL    HW218912   0.151   4.363   3.330
 6005SOL     OW18913   4.446   5.164   4.647
 6005SOL    HW118914   4.475   5.136   4.739
 6005SOL    HW218915   4.352   5.198   4.651
 6006SOL     OW18916   3.613   6.685   6.800
 6006SOL    HW118917   3.563   6.598   6.800
 6006SOL    HW218918   3.563   6.752   6.745
 6007SOL     OW18919   4.872   3.114   3.852
 6007SOL    HW118920   4.892   3.115   3.950
 6007SOL    HW218921   4.952   3.084   3.801
 6008SOL     OW18922   2.557   5.637   6.158
 6008SOL    HW118923   2.500   5.575   6.105
 6008SOL    HW218924   2.639   5.588   6.189
 6009SOL     OW18925   3.076   1.350   4.663
 6009SOL    HW118926   3.027   1.434   4.640
 6009SOL    HW218927   3.155   1.371   4.719
 6010SOL     OW18928   2.447   4.471   2.148
 6010SOL    HW118929   2.530   4.526   2.154
 6010SOL    HW218930   2.430   4.446   2.053
 6011SOL     OW18931   5.229   2.651   2.207
 6011SOL    HW118932   5.267   2.737   2.172
 6011SOL    HW218933   5.139   2.635   2.167
 6012SOL     OW18934   6.981   2.033   0.474
 6012SOL    HW118935   6.897   2.083   0.455
 6012SOL    HW218936   0.013   2.077   0.549
 6013SOL     OW18937   5.212   1.410   3.050
 6013SOL    HW118938   5.184   1.314   3.055
 6013SOL    HW218939   5.287   1.420   2.985
 6014SOL     OW18940   4.750   1.279   0.787
 6014SOL    HW118941   4.811   1.359   0.792
 6014SOL    HW218942   4.743   1.238   0.878
 6015SOL     OW18943   6.100   2.467   5.916
 6015SOL    HW118944   6.026   2.525   5.948
 6015SOL    HW218945   6.183   2.522   5.902
 6016SOL     OW18946   0.616   1.532   6.618
 6016SOL    HW118947   0.702   1.574   6.647
 6016SOL    HW218948   0.579   1.477   6.693
 6017SOL     OW18949   6.428   5.181   2.560
 6017SOL    HW118950   6.503   5.236   2.524
 6017SOL    HW218951   6.341   5.219   2.529
 6018SOL     OW18952   3.556   2.637   0.276
 6018SOL    HW118953   3.489   2.630   0.203
 6018SOL    HW218954   3.617   2.714   0.258
 6019SOL     OW18955   4.894   1.830   3.958
 6019SOL    HW118956   4.909   1.843   4.056
 6019SOL    HW218957   4.802   1.794   3.942
 6020SOL     OW18958   1.999   6.481   2.146
 6020SOL    HW118959   2.006   6.512   2.051
 6020SOL    HW218960   1.919   6.522   2.189
 6021SOL     OW18961   4.668   6.797   2.594
 6021SOL    HW118962   4.766   6.797   2.612
 6021SOL    HW218963   4.640   6.887   2.560
 6022SOL     OW18964   4.182   0.804   4.784
 6022SOL    HW118965   4.238   0.887   4.797
 6022SOL    HW218966   4.085   0.829   4.787
 6023SOL     OW18967   5.720   1.341   2.846
 6023SOL    HW118968   5.732   1.429   2.802
 6023SOL    HW218969   5.636   1.342   2.901
 6024SOL     OW18970   0.450   4.494   2.900
 6024SOL    HW118971   0.517   4.557   2.939
 6024SOL    HW218972   0.365   4.543   2.879
 6025SOL     OW18973   4.197   0.464   2.423
 6025SOL    HW118974   4.103   0.496   2.436
 6025SOL    HW218975   4.196   0.376   2.376
 6026SOL     OW18976   0.227   4.222   4.118
 6026SOL    HW118977   0.217   4.229   4.218
 6026SOL    HW218978   0.254   4.129   4.094
 6027SOL     OW18979   1.957   3.933   5.424
 6027SOL    HW118980   1.952   3.862   5.353
 6027SOL    HW218981   2.027   4.000   5.400
 6028SOL     OW18982   1.148   3.826   0.265
 6028SOL    HW118983   1.159   3.738   0.218
 6028SOL    HW218984   1.215   3.833   0.338
 6029SOL     OW18985   2.129   6.616   6.835
 6029SOL    HW118986   2.107   6.567   6.751
 6029SOL    HW218987   2.098   6.563   6.914
 6030SOL     OW18988   2.795   0.161   3.327
 6030SOL    HW118989   2.822   0.077   3.373
 6030SOL    HW218990   2.876   0.216   3.307
 6031SOL     OW18991   4.574   5.325   4.465
 6031SOL    HW118992   4.550   5.317   4.368
 6031SOL    HW218993   4.523   5.257   4.517
 6032SOL     OW18994   1.780   3.529   2.260
 6032SOL    HW118995   1.876   3.503   2.266
 6032SOL    HW218996   1.723   3.447   2.256
 6033SOL     OW18997   2.271   2.747   2.851
 6033SOL    HW118998   2.364   2.719   2.875
 6033SOL    HW218999   2.219   2.668   2.819
 6034SOL     OW19000   2.022   5.396   4.435
 6034SOL    HW119001   2.093   5.329   4.411
 6034SOL    HW219002   2.005   5.456   4.357
 6035SOL     OW19003   6.313   1.532   4.123
 6035SOL    HW119004   6.400   1.567   4.158
 6035SOL    HW219005   6.239   1.594   4.149
 6036SOL     OW19006   0.135   6.629   4.496
 6036SOL    HW119007   0.154   6.652   4.401
 6036SOL    HW219008   0.179   6.695   4.557
 6037SOL     OW19009   4.809   5.422   6.396
 6037SOL    HW119010   4.874   5.470   6.455
 6037SOL    HW219011   4.801   5.470   6.309
 6038SOL     OW19012   0.914   3.223   5.948
 6038SOL    HW119013   0.974   3.302   5.935
 6038SOL    HW219014   0.969   3.145   5.980
 6039SOL     OW19015   3.085   3.111   3.416
 6039SOL    HW119016   3.028   3.044   3.368
 6039SOL    HW219017   3.176   3.074   3.430
 6040SOL     OW19018   0.610   1.784   6.099
 6040SOL    HW119019   0.549   1.815   6.171
 6040SOL    HW219020   0.674   1.858   6.076
 6041SOL     OW19021   1.753   1.606   6.199
 6041SOL    HW119022   1.803   1.671   6.141
 6041SOL    HW219023   1.748   1.642   6.292
 6042SOL     OW19024   5.909   5.113   1.902
 6042SOL    HW119025   5.836   5.046   1.916
 6042SOL    HW219026   5.982   5.097   1.969
 6043SOL     OW19027   1.134   5.014   4.768
 6043SOL    HW119028   1.039   5.035   4.793
 6043SOL    HW219029   1.148   4.915   4.771
 6044SOL     OW19030   0.605   2.001   0.937
 6044SOL    HW119031   0.613   1.982   1.034
 6044SOL    HW219032   0.518   1.964   0.902
 6045SOL     OW19033   5.531   5.519   1.369
 6045SOL    HW119034   5.532   5.615   1.342
 6045SOL    HW219035   5.602   5.503   1.439
 6046SOL     OW19036   2.744   1.926   0.749
 6046SOL    HW119037   2.774   2.002   0.692
 6046SOL    HW219038   2.675   1.958   0.814
 6047SOL     OW19039   6.304   1.862   3.439
 6047SOL    HW119040   6.242   1.797   3.395
 6047SOL    HW219041   6.303   1.847   3.538
 6048SOL     OW19042   4.341   6.830   3.203
 6048SOL    HW119043   4.342   6.738   3.242
 6048SOL    HW219044   4.280   6.832   3.124
 6049SOL     OW19045   5.128   3.640   6.508
 6049SOL    HW119046   5.147   3.738   6.520
 6049SOL    HW219047   5.090   3.624   6.417
 6050SOL     OW19048   3.819   4.008   5.757
 6050SOL    HW119049   3.914   4.013   5.727
 6050SOL    HW219050   3.777   3.924   5.721
 6051SOL     OW19051   2.432   1.933   3.328
 6051SOL    HW119052   2.408   2.027   3.302
 6051SOL    HW219053   2.455   1.881   3.246
 6052SOL     OW19054   6.587   6.723   0.540
 6052SOL    HW119055   6.613   6.629   0.515
 6052SOL    HW219056   6.488   6.727   0.554
 6053SOL     OW19057   3.719   0.218   6.501
 6053SOL    HW119058   3.628   0.182   6.521
 6053SOL    HW219059   3.757   0.262   6.584
 6054SOL     OW19060   2.604   3.788   0.739
 6054SOL    HW119061   2.658   3.705   0.756
 6054SOL    HW219062   2.527   3.767   0.678
 6055SOL     OW19063   5.547   0.638   6.221
 6055SOL    HW119064   5.540   0.733   6.191
 6055SOL    HW219065   5.641   0.619   6.248
 6056SOL     OW19066   4.929   2.149   4.755
 6056SOL    HW119067   4.966   2.226   4.703
 6056SOL    HW219068   4.935   2.066   4.701
 6057SOL     OW19069   4.878   2.173   4.357
 6057SOL    HW119070   4.946   2.166   4.284
 6057SOL    HW219071   4.821   2.253   4.341
 6058SOL     OW19072   5.316   2.823   2.792
 6058SOL    HW119073   5.318   2.881   2.711
 6058SOL    HW219074   5.232   2.840   2.844
 6059SOL     OW19075   4.841   5.249   5.913
 6059SOL    HW119076   4.891   5.277   5.995
 6059SOL    HW219077   4.756   5.204   5.940
 6060SOL     OW19078   3.228   3.924   5.478
 6060SOL    HW119079   3.308   3.887   5.526
 6060SOL    HW219080   3.145   3.893   5.524
 6061SOL     OW19081   3.861   2.628   0.587
 6061SOL    HW119082   3.928   2.649   0.516
 6061SOL    HW219083   3.780   2.684   0.575
 6062SOL     OW19084   2.625   1.517   4.731
 6062SOL    HW119085   2.613   1.426   4.770
 6062SOL    HW219086   2.688   1.570   4.788
 6063SOL     OW19087   4.224   1.714   6.566
 6063SOL    HW119088   4.321   1.702   6.588
 6063SOL    HW219089   4.179   1.625   6.567
 6064SOL     OW19090   2.451   5.704   3.024
 6064SOL    HW119091   2.496   5.754   3.098
 6064SOL    HW219092   2.434   5.767   2.948
 6065SOL     OW19093   5.726   6.604   1.382
 6065SOL    HW119094   5.743   6.689   1.434
 6065SOL    HW219095   5.803   6.541   1.396
 6066SOL     OW19096   4.500   1.392   0.924
 6066SOL    HW119097   4.490   1.405   0.826
 6066SOL    HW219098   4.588   1.429   0.954
 6067SOL     OW19099   6.447   1.298   6.623
 6067SOL    HW119100   6.397   1.213   6.604
 6067SOL    HW219101   6.520   1.309   6.556
 6068SOL     OW19102   6.023   3.883   4.716
 6068SOL    HW119103   5.958   3.915   4.647
 6068SOL    HW219104   6.078   3.809   4.678
 6069SOL     OW19105   0.137   3.813   5.962
 6069SOL    HW119106   0.122   3.840   5.867
 6069SOL    HW219107   0.058   3.840   6.018
 6070SOL     OW19108   2.981   1.505   6.044
 6070SOL    HW119109   3.027   1.417   6.039
 6070SOL    HW219110   2.888   1.496   6.008
 6071SOL     OW19111   4.726   6.172   5.556
 6071SOL    HW119112   4.809   6.209   5.514
 6071SOL    HW219113   4.747   6.085   5.601
 6072SOL     OW19114   1.077   1.164   2.299
 6072SOL    HW119115   1.034   1.213   2.375
 6072SOL    HW219116   1.177   1.166   2.311
 6073SOL     OW19117   6.129   3.455   0.612
 6073SOL    HW119118   6.092   3.488   0.525
 6073SOL    HW219119   6.214   3.405   0.595
 6074SOL     OW19120   1.260   6.644   4.633
 6074SOL    HW119121   1.201   6.667   4.556
 6074SOL    HW219122   1.279   6.727   4.686
 6075SOL     OW19123   0.099   2.159   6.231
 6075SOL    HW119124   0.146   2.234   6.279
 6075SOL    HW219125   0.083   2.185   6.136
 6076SOL     OW19126   2.118   6.962   5.138
 6076SOL    HW119127   2.083   6.924   5.052
 6076SOL    HW219128   2.136   0.041   5.126
 6077SOL     OW19129   5.281   5.420   2.679
 6077SOL    HW119130   5.297   5.484   2.604
 6077SOL    HW219131   5.196   5.371   2.665
 6078SOL     OW19132   3.516   4.890   2.443
 6078SOL    HW119133   3.616   4.884   2.438
 6078SOL    HW219134   3.479   4.906   2.352
 6079SOL     OW19135   3.192   3.339   6.295
 6079SOL    HW119136   3.109   3.341   6.239
 6079SOL    HW219137   3.240   3.427   6.287
 6080SOL     OW19138   0.034   1.739   1.248
 6080SOL    HW119139   0.042   1.640   1.266
 6080SOL    HW219140   6.972   1.756   1.192
 6081SOL     OW19141   6.590   3.449   4.468
 6081SOL    HW119142   6.659   3.398   4.415
 6081SOL    HW219143   6.514   3.475   4.408
 6082SOL     OW19144   3.716   1.052   3.232
 6082SOL    HW119145   3.689   1.057   3.328
 6082SOL    HW219146   3.798   1.108   3.217
 6083SOL     OW19147   1.269   5.693   6.459
 6083SOL    HW119148   1.215   5.640   6.393
 6083SOL    HW219149   1.366   5.687   6.435
 6084SOL     OW19150   6.891   5.689   3.986
 6084SOL    HW119151   6.799   5.653   3.969
 6084SOL    HW219152   6.888   5.789   3.985
 6085SOL     OW19153   0.047   3.964   0.619
 6085SOL    HW119154   6.969   3.951   0.639
 6085SOL    HW219155   0.079   3.891   0.559
 6086SOL     OW19156   3.574   1.314   5.167
 6086SOL    HW119157   3.618   1.252   5.102
 6086SOL    HW219158   3.616   1.303   5.257
 6087SOL     OW19159   4.862   0.036   0.148
 6087SOL    HW119160   4.837   0.117   0.201
 6087SOL    HW219161   4.900   0.064   0.060
 6088SOL     OW19162   7.002   6.269   4.389
 6088SOL    HW119163   7.016   6.170   4.382
 6088SOL    HW219164   6.985   6.294   4.484
 6089SOL     OW19165   0.255   4.006   1.549
 6089SOL    HW119166   0.167   4.042   1.521
 6089SOL    HW219167   0.327   4.071   1.524
 6090SOL     OW19168   1.131   6.012   6.389
 6090SOL    HW119169   1.226   6.044   6.381
 6090SOL    HW219170   1.113   5.943   6.319
 6091SOL     OW19171   0.888   1.620   2.452
 6091SOL    HW119172   0.817   1.687   2.477
 6091SOL    HW219173   0.972   1.669   2.430
 6092SOL     OW19174   3.195   0.255   3.399
 6092SOL    HW119175   3.156   0.255   3.307
 6092SOL    HW219176   3.176   0.342   3.443
 6093SOL     OW19177   1.583   2.667   2.290
 6093SOL    HW119178   1.557   2.764   2.297
 6093SOL    HW219179   1.601   2.631   2.382
 6094SOL     OW19180   2.474   1.347   1.191
 6094SOL    HW119181   2.426   1.407   1.254
 6094SOL    HW219182   2.408   1.294   1.138
 6095SOL     OW19183   4.673   2.611   6.774
 6095SOL    HW119184   4.678   2.687   6.838
 6095SOL    HW219185   4.680   2.646   6.680
 6096SOL     OW19186   5.755   0.714   4.007
 6096SOL    HW119187   5.827   0.751   3.948
 6096SOL    HW219188   5.668   0.713   3.958
 6097SOL     OW19189   2.113   0.122   3.023
 6097SOL    HW119190   2.107   0.045   3.086
 6097SOL    HW219191   2.139   0.204   3.074
 6098SOL     OW19192   1.718   2.369   5.785
 6098SOL    HW119193   1.809   2.333   5.806
 6098SOL    HW219194   1.657   2.294   5.761
 6099SOL     OW19195   5.528   5.895   5.779
 6099SOL    HW119196   5.523   5.988   5.744
 6099SOL    HW219197   5.580   5.838   5.715
 6100SOL     OW19198   6.057   3.222   6.669
 6100SOL    HW119199   5.959   3.240   6.677
 6100SOL    HW219200   6.075   3.169   6.586
 6101SOL     OW19201   6.634   1.618   5.507
 6101SOL    HW119202   6.659   1.526   5.537
 6101SOL    HW219203   6.537   1.621   5.483
 6102SOL     OW19204   3.507   1.026   4.527
 6102SOL    HW119205   3.578   1.070   4.581
 6102SOL    HW219206   3.443   1.095   4.493
 6103SOL     OW19207   6.940   0.942   4.006
 6103SOL    HW119208   6.887   0.944   3.922
 6103SOL    HW219209   6.952   0.847   4.036
 6104SOL     OW19210   6.530   1.966   6.252
 6104SOL    HW119211   6.557   1.956   6.348
 6104SOL    HW219212   6.533   1.877   6.207
 6105SOL     OW19213   3.397   6.565   5.430
 6105SOL    HW119214   3.407   6.560   5.530
 6105SOL    HW219215   3.472   6.617   5.391
 6106SOL     OW19216   2.161   4.671   6.541
 6106SOL    HW119217   2.165   4.632   6.449
 6106SOL    HW219218   2.180   4.600   6.608
 6107SOL     OW19219   2.682   5.384   4.334
 6107SOL    HW119220   2.636   5.357   4.249
 6107SOL    HW219221   2.780   5.393   4.317
 6108SOL     OW19222   0.520   1.951   2.911
 6108SOL    HW119223   0.583   2.024   2.938
 6108SOL    HW219224   0.433   1.990   2.882
 6109SOL     OW19225   5.261   2.652   6.987
 6109SOL    HW119226   5.181   2.683   6.937
 6109SOL    HW219227   5.237   2.632   0.064
 6110SOL     OW19228   2.776   2.553   6.622
 6110SOL    HW119229   2.691   2.552   6.570
 6110SOL    HW219230   2.822   2.465   6.613
 6111SOL     OW19231   1.198   5.052   2.386
 6111SOL    HW119232   1.176   4.956   2.404
 6111SOL    HW219233   1.229   5.095   2.471
 6112SOL     OW19234   2.220   2.298   3.116
 6112SOL    HW119235   2.240   2.361   3.041
 6112SOL    HW219236   2.145   2.335   3.172
 6113SOL     OW19237   0.409   0.975   6.466
 6113SOL    HW119238   0.488   1.035   6.472
 6113SOL    HW219239   0.327   1.024   6.497
 6114SOL     OW19240   5.025   5.545   1.056
 6114SOL    HW119241   5.008   5.451   1.086
 6114SOL    HW219242   5.075   5.594   1.127
 6115SOL     OW19243   5.196   5.797   3.234
 6115SOL    HW119244   5.162   5.734   3.164
 6115SOL    HW219245   5.210   5.747   3.320
 6116SOL     OW19246   2.665   1.119   1.636
 6116SOL    HW119247   2.752   1.163   1.658
 6116SOL    HW219248   2.681   1.031   1.592
 6117SOL     OW19249   6.977   0.124   5.101
 6117SOL    HW119250   0.030   0.126   5.032
 6117SOL    HW219251   6.987   0.042   5.157
 6118SOL     OW19252   0.149   2.076   1.426
 6118SOL    HW119253   0.108   2.006   1.484
 6118SOL    HW219254   0.191   2.033   1.346
 6119SOL     OW19255   0.270   4.675   4.258
 6119SOL    HW119256   0.343   4.616   4.292
 6119SOL    HW219257   0.252   4.654   4.162
 6120SOL     OW19258   3.248   6.924   3.917
 6120SOL    HW119259   3.153   6.954   3.907
 6120SOL    HW219260   3.307   6.979   3.858
 6121SOL     OW19261   6.690   2.683   4.945
 6121SOL    HW119262   6.673   2.762   4.887
 6121SOL    HW219263   6.641   2.694   5.032
 6122SOL     OW19264   3.647   6.671   2.264
 6122SOL    HW119265   3.714   6.621   2.318
 6122SOL    HW219266   3.555   6.650   2.298
 6123SOL     OW19267   0.052   0.972   1.309
 6123SOL    HW119268   0.085   1.058   1.271
 6123SOL    HW219269   6.982   0.986   1.354
 6124SOL     OW19270   3.347   6.406   5.069
 6124SOL    HW119271   3.289   6.414   4.988
 6124SOL    HW219272   3.342   6.491   5.122
 6125SOL     OW19273   2.404   5.651   1.257
 6125SOL    HW119274   2.400   5.694   1.347
 6125SOL    HW219275   2.490   5.600   1.248
 6126SOL     OW19276   5.277   5.899   4.087
 6126SOL    HW119277   5.342   5.873   4.015
 6126SOL    HW219278   5.323   5.955   4.156
 6127SOL     OW19279   2.260   6.982   1.483
 6127SOL    HW119280   2.202   6.979   1.564
 6127SOL    HW219281   2.312   6.897   1.476
 6128SOL     OW19282   6.719   2.772   0.342
 6128SOL    HW119283   6.760   2.786   0.432
 6128SOL    HW219284   6.684   2.679   0.336
 6129SOL     OW19285   6.542   3.983   2.877
 6129SOL    HW119286   6.600   4.026   2.807
 6129SOL    HW219287   6.586   3.991   2.966
 6130SOL     OW19288   6.598   3.015   4.685
 6130SOL    HW119289   6.598   3.111   4.711
 6130SOL    HW219290   6.691   2.978   4.697
 6131SOL     OW19291   6.962   1.485   5.515
 6131SOL    HW119292   6.926   1.488   5.421
 6131SOL    HW219293   0.018   1.418   5.519
 6132SOL     OW19294   2.990   0.590   0.977
 6132SOL    HW119295   3.016   0.664   0.915
 6132SOL    HW219296   3.065   0.574   1.042
 6133SOL     OW19297   0.637   2.736   2.849
 6133SOL    HW119298   0.572   2.790   2.903
 6133SOL    HW219299   0.693   2.797   2.793
 6134SOL     OW19300   4.210   3.139   6.316
 6134SOL    HW119301   4.120   3.152   6.274
 6134SOL    HW219302   4.273   3.209   6.281
 6135SOL     OW19303   6.132   6.847   2.189
 6135SOL    HW119304   6.185   6.844   2.105
 6135SOL    HW219305   6.113   6.942   2.214
 6136SOL     OW19306   0.834   1.303   2.449
 6136SOL    HW119307   0.848   1.401   2.459
 6136SOL    HW219308   0.916   1.254   2.480
 6137SOL     OW19309   3.737   1.275   5.862
 6137SOL    HW119310   3.659   1.262   5.924
 6137SOL    HW219311   3.820   1.242   5.906
 6138SOL     OW19312   3.688   6.821   2.576
 6138SOL    HW119313   3.784   6.821   2.548
 6138SOL    HW219314   3.643   6.739   2.540
 6139SOL     OW19315   2.131   3.353   4.719
 6139SOL    HW119316   2.167   3.394   4.803
 6139SOL    HW219317   2.146   3.255   4.720
 6140SOL     OW19318   0.608   6.692   2.092
 6140SOL    HW119319   0.522   6.665   2.049
 6140SOL    HW219320   0.589   6.726   2.184
 6141SOL     OW19321   6.275   6.293   4.453
 6141SOL    HW119322   6.186   6.252   4.431
 6141SOL    HW219323   6.261   6.374   4.509
 6142SOL     OW19324   0.332   5.604   0.703
 6142SOL    HW119325   0.278   5.579   0.622
 6142SOL    HW219326   0.426   5.623   0.675
 6143SOL     OW19327   5.693   4.532   6.783
 6143SOL    HW119328   5.762   4.478   6.831
 6143SOL    HW219329   5.715   4.535   6.685
 6144SOL     OW19330   6.686   4.403   2.540
 6144SOL    HW119331   6.697   4.343   2.461
 6144SOL    HW219332   6.771   4.405   2.592
 6145SOL     OW19333   4.813   5.972   3.598
 6145SOL    HW119334   4.721   5.984   3.562
 6145SOL    HW219335   4.825   6.031   3.678
 6146SOL     OW19336   4.344   0.922   3.486
 6146SOL    HW119337   4.341   1.009   3.437
 6146SOL    HW219338   4.368   0.848   3.423
 6147SOL     OW19339   1.735   4.802   3.289
 6147SOL    HW119340   1.680   4.722   3.315
 6147SOL    HW219341   1.823   4.799   3.338
 6148SOL     OW19342   6.899   6.668   4.043
 6148SOL    HW119343   6.987   6.715   4.034
 6148SOL    HW219344   6.825   6.735   4.043
 6149SOL     OW19345   3.545   5.262   3.006
 6149SOL    HW119346   3.603   5.340   3.027
 6149SOL    HW219347   3.573   5.183   3.060
 6150SOL     OW19348   4.341   4.959   6.996
 6150SOL    HW119349   4.413   4.889   6.997
 6150SOL    HW219350   4.323   4.988   6.902
 6151SOL     OW19351   6.170   3.707   4.561
 6151SOL    HW119352   6.123   3.619   4.555
 6151SOL    HW219353   6.221   3.723   4.476
 6152SOL     OW19354   5.082   4.618   5.855
 6152SOL    HW119355   4.998   4.659   5.819
 6152SOL    HW219356   5.154   4.688   5.858
 6153SOL     OW19357   4.645   4.023   1.577
 6153SOL    HW119358   4.716   4.005   1.509
 6153SOL    HW219359   4.597   3.937   1.598
 6154SOL     OW19360   5.462   1.383   1.841
 6154SOL    HW119361   5.532   1.439   1.886
 6154SOL    HW219362   5.410   1.440   1.777
 6155SOL     OW19363   1.577   2.887   4.187
 6155SOL    HW119364   1.524   2.926   4.262
 6155SOL    HW219365   1.671   2.873   4.217
 6156SOL     OW19366   4.749   5.220   2.489
 6156SOL    HW119367   4.806   5.301   2.497
 6156SOL    HW219368   4.658   5.246   2.460
 6157SOL     OW19369   1.077   2.217   3.533
 6157SOL    HW119370   1.027   2.301   3.554
 6157SOL    HW219371   1.093   2.212   3.434
 6158SOL     OW19372   4.858   0.824   6.509
 6158SOL    HW119373   4.865   0.924   6.504
 6158SOL    HW219374   4.762   0.797   6.505
 6159SOL     OW19375   4.686   1.409   0.045
 6159SOL    HW119376   4.700   1.443   0.138
 6159SOL    HW219377   4.594   1.433   0.014
 6160SOL     OW19378   5.860   5.899   0.386
 6160SOL    HW119379   5.822   5.826   0.443
 6160SOL    HW219380   5.851   5.873   0.290
 6161SOL     OW19381   5.827   2.070   6.025
 6161SOL    HW119382   5.892   2.116   5.965
 6161SOL    HW219383   5.829   2.113   6.115
 6162SOL     OW19384   0.870   5.100   4.589
 6162SOL    HW119385   0.938   5.167   4.617
 6162SOL    HW219386   0.887   5.072   4.495
 6163SOL     OW19387   5.779   5.383   0.852
 6163SOL    HW119388   5.685   5.356   0.873
 6163SOL    HW219389   5.796   5.372   0.754
 6164SOL     OW19390   1.999   2.889   1.875
 6164SOL    HW119391   1.970   2.800   1.841
 6164SOL    HW219392   2.096   2.902   1.856
 6165SOL     OW19393   3.960   5.944   7.006
 6165SOL    HW119394   3.980   5.921   6.911
 6165SOL    HW219395   3.868   5.983   7.013
 6166SOL     OW19396   3.392   1.076   5.393
 6166SOL    HW119397   3.410   1.068   5.491
 6166SOL    HW219398   3.317   1.141   5.378
 6167SOL     OW19399   0.788   4.918   2.395
 6167SOL    HW119400   0.860   4.971   2.350
 6167SOL    HW219401   0.701   4.930   2.347
 6168SOL     OW19402   0.511   3.840   1.049
 6168SOL    HW119403   0.598   3.866   1.090
 6168SOL    HW219404   0.490   3.744   1.072
 6169SOL     OW19405   1.564   3.032   1.915
 6169SOL    HW119406   1.512   3.116   1.925
 6169SOL    HW219407   1.662   3.052   1.924
 6170SOL     OW19408   0.322   3.139   5.100
 6170SOL    HW119409   0.306   3.041   5.091
 6170SOL    HW219410   0.368   3.157   5.187
 6171SOL     OW19411   0.104   1.346   0.573
 6171SOL    HW119412   0.061   1.350   0.482
 6171SOL    HW219413   0.033   1.334   0.642
 6172SOL     OW19414   0.692   2.455   2.913
 6172SOL    HW119415   0.665   2.550   2.900
 6172SOL    HW219416   0.763   2.432   2.846
 6173SOL     OW19417   6.689   5.516   2.871
 6173SOL    HW119418   6.663   5.574   2.948
 6173SOL    HW219419   6.789   5.516   2.862
 6174SOL     OW19420   4.762   5.109   3.491
 6174SOL    HW119421   4.745   5.131   3.395
 6174SOL    HW219422   4.754   5.010   3.505
 6175SOL     OW19423   3.158   0.650   4.887
 6175SOL    HW119424   3.163   0.691   4.796
 6175SOL    HW219425   3.219   0.700   4.949
 6176SOL     OW19426   4.378   3.598   5.356
 6176SOL    HW119427   4.436   3.576   5.277
 6176SOL    HW219428   4.293   3.545   5.350
 6177SOL     OW19429   5.679   2.042   1.516
 6177SOL    HW119430   5.753   2.016   1.453
 6177SOL    HW219431   5.700   2.007   1.608
 6178SOL     OW19432   4.930   3.727   1.900
 6178SOL    HW119433   4.901   3.805   1.955
 6178SOL    HW219434   4.885   3.644   1.934
 6179SOL     OW19435   6.863   4.642   1.404
 6179SOL    HW119436   6.816   4.574   1.460
 6179SOL    HW219437   6.840   4.628   1.308
 6180SOL     OW19438   2.982   4.752   0.800
 6180SOL    HW119439   2.938   4.713   0.880
 6180SOL    HW219440   3.046   4.686   0.761
 6181SOL     OW19441   5.110   5.939   6.115
 6181SOL    HW119442   5.154   5.961   6.028
 6181SOL    HW219443   5.134   6.008   6.183
 6182SOL     OW19444   4.289   2.559   0.151
 6182SOL    HW119445   4.225   2.635   0.144
 6182SOL    HW219446   4.361   2.570   0.083
 6183SOL     OW19447   1.852   2.169   1.436
 6183SOL    HW119448   1.823   2.202   1.347
 6183SOL    HW219449   1.952   2.174   1.443
 6184SOL     OW19450   2.668   0.640   5.948
 6184SOL    HW119451   2.716   0.611   5.865
 6184SOL    HW219452   2.580   0.594   5.953
 6185SOL     OW19453   2.659   3.718   5.864
 6185SOL    HW119454   2.567   3.717   5.901
 6185SOL    HW219455   2.657   3.749   5.769
 6186SOL     OW19456   6.927   2.053   1.758
 6186SOL    HW119457   6.969   2.140   1.734
 6186SOL    HW219458   6.865   2.065   1.835
 6187SOL     OW19459   4.755   2.510   4.808
 6187SOL    HW119460   4.713   2.422   4.829
 6187SOL    HW219461   4.818   2.536   4.882
 6188SOL     OW19462   1.464   1.499   5.162
 6188SOL    HW119463   1.502   1.561   5.093
 6188SOL    HW219464   1.518   1.415   5.165
 6189SOL     OW19465   4.181   5.298   2.331
 6189SOL    HW119466   4.191   5.392   2.299
 6189SOL    HW219467   4.176   5.298   2.431
 6190SOL     OW19468   6.500   3.685   5.911
 6190SOL    HW119469   6.487   3.716   6.005
 6190SOL    HW219470   6.434   3.730   5.851
 6191SOL     OW19471   2.167   2.890   5.397
 6191SOL    HW119472   2.120   2.933   5.320
 6191SOL    HW219473   2.263   2.874   5.373
 6192SOL     OW19474   2.137   1.627   6.239
 6192SOL    HW119475   2.171   1.721   6.252
 6192SOL    HW219476   2.152   1.600   6.144
 6193SOL     OW19477   5.152   5.391   0.698
 6193SOL    HW119478   5.059   5.415   0.724
 6193SOL    HW219479   5.162   5.395   0.599
 6194SOL     OW19480   6.791   0.807   6.956
 6194SOL    HW119481   6.741   0.858   6.885
 6194SOL    HW219482   6.730   0.742   7.001
 6195SOL     OW19483   5.730   6.889   4.714
 6195SOL    HW119484   5.734   6.902   4.615
 6195SOL    HW219485   5.806   6.939   4.757
 6196SOL     OW19486   5.725   4.624   2.953
 6196SOL    HW119487   5.649   4.653   3.011
 6196SOL    HW219488   5.770   4.704   2.912
 6197SOL     OW19489   2.464   5.415   2.715
 6197SOL    HW119490   2.402   5.480   2.760
 6197SOL    HW219491   2.548   5.408   2.769
 6198SOL     OW19492   5.936   6.088   6.442
 6198SOL    HW119493   5.894   6.113   6.354
 6198SOL    HW219494   6.023   6.136   6.452
 6199SOL     OW19495   0.795   0.886   0.603
 6199SOL    HW119496   0.715   0.943   0.588
 6199SOL    HW219497   0.833   0.857   0.515
 6200SOL     OW19498   1.336   1.125   2.380
 6200SOL    HW119499   1.375   1.203   2.427
 6200SOL    HW219500   1.406   1.055   2.366
 6201SOL     OW19501   0.236   4.877   4.033
 6201SOL    HW119502   0.327   4.863   3.996
 6201SOL    HW219503   0.240   4.872   4.133
 6202SOL     OW19504   6.266   1.849   2.930
 6202SOL    HW119505   6.331   1.795   2.982
 6202SOL    HW219506   6.194   1.883   2.990
 6203SOL     OW19507   6.453   5.622   1.785
 6203SOL    HW119508   6.534   5.584   1.740
 6203SOL    HW219509   6.458   5.606   1.883
 6204SOL     OW19510   1.004   6.047   4.748
 6204SOL    HW119511   0.959   6.103   4.678
 6204SOL    HW219512   1.088   6.008   4.711
 6205SOL     OW19513   4.514   4.865   1.862
 6205SOL    HW119514   4.598   4.829   1.902
 6205SOL    HW219515   4.482   4.803   1.790
 6206SOL     OW19516   4.573   1.989   3.632
 6206SOL    HW119517   4.488   2.012   3.680
 6206SOL    HW219518   4.608   2.071   3.585
 6207SOL     OW19519   1.578   6.004   4.475
 6207SOL    HW119520   1.647   5.970   4.411
 6207SOL    HW219521   1.558   6.100   4.455
 6208SOL     OW19522   3.661   2.370   6.244
 6208SOL    HW119523   3.692   2.454   6.287
 6208SOL    HW219524   3.738   2.305   6.238
 6209SOL     OW19525   3.678   4.162   0.819
 6209SOL    HW119526   3.723   4.129   0.902
 6209SOL    HW219527   3.725   4.125   0.739
 6210SOL     OW19528   5.181   3.577   3.094
 6210SOL    HW119529   5.179   3.644   3.168
 6210SOL    HW219530   5.198   3.623   3.007
 6211SOL     OW19531   4.540   5.432   5.382
 6211SOL    HW119532   4.521   5.496   5.456
 6211SOL    HW219533   4.460   5.423   5.322
 6212SOL     OW19534   2.583   4.912   4.874
 6212SOL    HW119535   2.496   4.915   4.826
 6212SOL    HW219536   2.574   4.855   4.956
 6213SOL     OW19537   4.779   6.449   0.495
 6213SOL    HW119538   4.820   6.407   0.576
 6213SOL    HW219539   4.827   6.534   0.473
 6214SOL     OW19540   5.237   5.345   5.542
 6214SOL    HW119541   5.302   5.271   5.558
 6214SOL    HW219542   5.201   5.339   5.448
 6215SOL     OW19543   5.194   2.939   6.358
 6215SOL    HW119544   5.165   3.034   6.343
 6215SOL    HW219545   5.280   2.939   6.409
 6216SOL     OW19546   6.020   3.013   3.346
 6216SOL    HW119547   5.949   2.950   3.315
 6216SOL    HW219548   6.036   3.083   3.277
 6217SOL     OW19549   0.590   4.601   2.210
 6217SOL    HW119550   0.587   4.698   2.235
 6217SOL    HW219551   0.580   4.545   2.292
 6218SOL     OW19552   4.947   5.582   0.012
 6218SOL    HW119553   4.875   5.626   6.978
 6218SOL    HW219554   4.917   5.491   0.040
 6219SOL     OW19555   1.747   0.798   5.299
 6219SOL    HW119556   1.750   0.701   5.276
 6219SOL    HW219557   1.830   0.843   5.267
 6220SOL     OW19558   3.647   0.795   0.220
 6220SOL    HW119559   3.740   0.760   0.229
 6220SOL    HW219560   3.651   0.890   0.188
 6221SOL     OW19561   6.633   6.186   6.407
 6221SOL    HW119562   6.681   6.100   6.426
 6221SOL    HW219563   6.695   6.250   6.362
 6222SOL     OW19564   5.641   1.543   1.988
 6222SOL    HW119565   5.581   1.545   2.068
 6222SOL    HW219566   5.714   1.476   2.002
 6223SOL     OW19567   0.491   5.471   3.871
 6223SOL    HW119568   0.566   5.527   3.907
 6223SOL    HW219569   0.493   5.473   3.771
 6224SOL     OW19570   4.524   1.017   6.071
 6224SOL    HW119571   4.444   1.045   6.125
 6224SOL    HW219572   4.527   1.070   5.987
 6225SOL     OW19573   4.297   1.422   6.223
 6225SOL    HW119574   4.229   1.490   6.249
 6225SOL    HW219575   4.376   1.428   6.285
 6226SOL     OW19576   1.256   1.755   3.995
 6226SOL    HW119577   1.264   1.814   4.076
 6226SOL    HW219578   1.206   1.804   3.924
 6227SOL     OW19579   3.196   4.512   5.322
 6227SOL    HW119580   3.117   4.500   5.262
 6227SOL    HW219581   3.177   4.473   5.412
 6228SOL     OW19582   1.887   2.392   3.336
 6228SOL    HW119583   1.885   2.456   3.259
 6228SOL    HW219584   1.807   2.407   3.394
 6229SOL     OW19585   6.904   3.262   4.825
 6229SOL    HW119586   6.968   3.335   4.804
 6229SOL    HW219587   6.820   3.274   4.772
 6230SOL     OW19588   0.302   1.637   2.923
 6230SOL    HW119589   0.380   1.667   2.868
 6230SOL    HW219590   0.240   1.583   2.866
 6231SOL     OW19591   5.511   4.441   0.421
 6231SOL    HW119592   5.593   4.394   0.391
 6231SOL    HW219593   5.512   4.535   0.387
 6232SOL     OW19594   5.816   0.567   0.544
 6232SOL    HW119595   5.805   0.473   0.512
 6232SOL    HW219596   5.767   0.629   0.482
 6233SOL     OW19597   0.406   3.468   2.036
 6233SOL    HW119598   0.412   3.370   2.055
 6233SOL    HW219599   0.430   3.485   1.940
 6234SOL     OW19600   0.190   6.744   4.230
 6234SOL    HW119601   0.160   6.649   4.225
 6234SOL    HW219602   0.152   6.795   4.153
 6235SOL     OW19603   0.008   0.691   2.243
 6235SOL    HW119604   7.006   0.596   2.221
 6235SOL    HW219605   0.108   0.703   2.246
 6236SOL     OW19606   0.778   4.137   0.505
 6236SOL    HW119607   0.730   4.059   0.466
 6236SOL    HW219608   0.793   4.121   0.603
 6237SOL     OW19609   3.740   6.916   0.472
 6237SOL    HW119610   3.710   6.869   0.555
 6237SOL    HW219611   3.662   6.965   0.432
 6238SOL     OW19612   3.476   6.437   3.368
 6238SOL    HW119613   3.395   6.489   3.393
 6238SOL    HW219614   3.467   6.405   3.273
 6239SOL     OW19615   3.960   6.834   2.518
 6239SOL    HW119616   4.043   6.784   2.542
 6239SOL    HW219617   3.973   6.931   2.537
 6240SOL     OW19618   2.903   3.922   5.013
 6240SOL    HW119619   2.938   3.947   4.923
 6240SOL    HW219620   2.942   3.982   5.082
 6241SOL     OW19621   3.719   6.934   3.758
 6241SOL    HW119622   3.695   6.843   3.724
 6241SOL    HW219623   3.812   6.932   3.797
 6242SOL     OW19624   2.521   2.020   2.615
 6242SOL    HW119625   2.508   2.082   2.537
 6242SOL    HW219626   2.529   1.926   2.582
 6243SOL     OW19627   6.258   0.482   6.337
 6243SOL    HW119628   6.320   0.547   6.294
 6243SOL    HW219629   6.256   0.397   6.283
 6244SOL     OW19630   4.558   4.469   2.700
 6244SOL    HW119631   4.578   4.550   2.645
 6244SOL    HW219632   4.547   4.495   2.796
 6245SOL     OW19633   0.703   4.695   2.505
 6245SOL    HW119634   0.640   4.747   2.563
 6245SOL    HW219635   0.759   4.758   2.451
 6246SOL     OW19636   1.477   6.979   4.586
 6246SOL    HW119637   1.440   6.967   4.494
 6246SOL    HW219638   1.407   6.957   4.654
 6247SOL     OW19639   6.914   5.367   3.717
 6247SOL    HW119640   6.855   5.443   3.693
 6247SOL    HW219641   6.859   5.290   3.747
 6248SOL     OW19642   4.358   3.221   6.519
 6248SOL    HW119643   4.308   3.283   6.580
 6248SOL    HW219644   4.296   3.188   6.447
 6249SOL     OW19645   6.902   3.351   1.210
 6249SOL    HW119646   6.983   3.398   1.245
 6249SOL    HW219647   6.880   3.274   1.270
 6250SOL     OW19648   6.988   6.998   0.839
 6250SOL    HW119649   0.058   6.956   0.856
 6250SOL    HW219650   6.989   0.026   0.750
 6251SOL     OW19651   3.249   6.774   4.611
 6251SOL    HW119652   3.221   6.692   4.562
 6251SOL    HW219653   3.168   6.831   4.628
 6252SOL     OW19654   2.902   5.414   7.003
 6252SOL    HW119655   2.916   5.354   6.924
 6252SOL    HW219656   2.813   5.396   0.025
 6253SOL     OW19657   3.167   4.879   4.332
 6253SOL    HW119658   3.197   4.864   4.237
 6253SOL    HW219659   3.071   4.907   4.333
 6254SOL     OW19660   0.478   5.678   1.152
 6254SOL    HW119661   0.544   5.646   1.220
 6254SOL    HW219662   0.477   5.614   1.075
 6255SOL     OW19663   2.018   1.895   1.251
 6255SOL    HW119664   1.994   1.899   1.154
 6255SOL    HW219665   2.060   1.982   1.278
 6256SOL     OW19666   4.879   5.795   2.208
 6256SOL    HW119667   4.804   5.753   2.259
 6256SOL    HW219668   4.867   5.894   2.204
 6257SOL     OW19669   4.150   3.597   0.623
 6257SOL    HW119670   4.199   3.575   0.707
 6257SOL    HW219671   4.105   3.515   0.588
 6258SOL     OW19672   4.147   0.115   6.225
 6258SOL    HW119673   4.088   0.104   6.145
 6258SOL    HW219674   4.094   0.147   6.303
 6259SOL     OW19675   1.712   0.011   5.786
 6259SOL    HW119676   1.678   6.936   5.790
 6259SOL    HW219677   1.751   0.028   5.695
 6260SOL     OW19678   1.723   0.686   0.378
 6260SOL    HW119679   1.696   0.782   0.391
 6260SOL    HW219680   1.754   0.649   0.465
 6261SOL     OW19681   4.748   6.976   1.572
 6261SOL    HW119682   4.657   7.007   1.600
 6261SOL    HW219683   4.752   6.876   1.576
 6262SOL     OW19684   6.599   6.158   2.648
 6262SOL    HW119685   6.562   6.175   2.739
 6262SOL    HW219686   6.627   6.063   2.640
 6263SOL     OW19687   0.074   6.508   4.236
 6263SOL    HW119688   0.010   6.510   4.160
 6263SOL    HW219689   0.039   6.447   4.308
 6264SOL     OW19690   0.417   6.951   1.333
 6264SOL    HW119691   0.479   6.879   1.364
 6264SOL    HW219692   0.418   0.007   1.399
 6265SOL     OW19693   3.787   2.999   0.874
 6265SOL    HW119694   3.760   3.022   0.968
 6265SOL    HW219695   3.869   2.942   0.877
 6266SOL     OW19696   3.542   5.848   2.966
 6266SOL    HW119697   3.516   5.762   2.922
 6266SOL    HW219698   3.641   5.849   2.982
 6267SOL     OW19699   1.187   6.129   5.350
 6267SOL    HW119700   1.274   6.125   5.299
 6267SOL    HW219701   1.139   6.213   5.326
 6268SOL     OW19702   3.900   0.396   1.791
 6268SOL    HW119703   3.823   0.388   1.854
 6268SOL    HW219704   3.875   0.352   1.704
 6269SOL     OW19705   5.568   6.333   1.386
 6269SOL    HW119706   5.628   6.316   1.464
 6269SOL    HW219707   5.579   6.427   1.355
 6270SOL     OW19708   1.143   6.223   0.173
 6270SOL    HW119709   1.077   6.168   0.223
 6270SOL    HW219710   1.208   6.264   0.238
 6271SOL     OW19711   6.121   2.748   0.012
 6271SOL    HW119712   6.207   2.697   0.009
 6271SOL    HW219713   6.136   2.840   6.993
 6272SOL     OW19714   6.601   0.338   6.829
 6272SOL    HW119715   6.619   0.409   6.897
 6272SOL    HW219716   6.507   0.305   6.839
 6273SOL     OW19717   0.274   6.841   2.197
 6273SOL    HW119718   0.196   6.807   2.249
 6273SOL    HW219719   0.333   6.894   2.257
 6274SOL     OW19720   3.191   6.396   4.855
 6274SOL    HW119721   3.192   6.354   4.764
 6274SOL    HW219722   3.144   6.484   4.850
 6275SOL     OW19723   2.413   6.227   0.535
 6275SOL    HW119724   2.479   6.302   0.541
 6275SOL    HW219725   2.370   6.214   0.624
 6276SOL     OW19726   3.250   5.555   3.364
 6276SOL    HW119727   3.336   5.512   3.336
 6276SOL    HW219728   3.250   5.651   3.337
 6277SOL     OW19729   5.161   2.132   1.684
 6277SOL    HW119730   5.248   2.141   1.636
 6277SOL    HW219731   5.150   2.209   1.748
 6278SOL     OW19732   3.239   0.143   5.679
 6278SOL    HW119733   3.291   0.059   5.665
 6278SOL    HW219734   3.145   0.121   5.703
 6279SOL     OW19735   3.114   5.623   0.921
 6279SOL    HW119736   3.191   5.601   0.861
 6279SOL    HW219737   3.122   5.719   0.950
 6280SOL     OW19738   6.340   1.687   6.895
 6280SOL    HW119739   6.366   1.597   6.859
 6280SOL    HW219740   6.369   1.758   6.831
 6281SOL     OW19741   6.280   3.789   4.306
 6281SOL    HW119742   6.262   3.795   4.207
 6281SOL    HW219743   6.327   3.872   4.336
 6282SOL     OW19744   0.069   3.978   5.730
 6282SOL    HW119745   0.078   3.928   5.644
 6282SOL    HW219746   0.121   4.063   5.725
 6283SOL     OW19747   1.017   5.852   5.069
 6283SOL    HW119748   1.084   5.812   5.132
 6283SOL    HW219749   0.949   5.904   5.121
 6284SOL     OW19750   1.927   4.232   6.926
 6284SOL    HW119751   1.869   4.312   6.938
 6284SOL    HW219752   1.873   4.156   6.890
 6285SOL     OW19753   1.706   3.917   2.993
 6285SOL    HW119754   1.733   3.876   2.906
 6285SOL    HW219755   1.633   3.983   2.978
 6286SOL     OW19756   0.403   3.348   4.734
 6286SOL    HW119757   0.306   3.346   4.759
 6286SOL    HW219758   0.454   3.287   4.795
 6287SOL     OW19759   4.343   4.442   5.503
 6287SOL    HW119760   4.275   4.514   5.519
 6287SOL    HW219761   4.407   4.439   5.580
 6288SOL     OW19762   4.165   3.470   6.372
 6288SOL    HW119763   4.100   3.398   6.345
 6288SOL    HW219764   4.165   3.479   6.471
 6289SOL     OW19765   2.518   4.336   6.679
 6289SOL    HW119766   2.451   4.398   6.720
 6289SOL    HW219767   2.581   4.389   6.622
 6290SOL     OW19768   6.316   5.245   6.293
 6290SOL    HW119769   6.273   5.180   6.356
 6290SOL    HW219770   6.407   5.269   6.328
 6291SOL     OW19771   3.185   3.497   2.880
 6291SOL    HW119772   3.126   3.431   2.833
 6291SOL    HW219773   3.236   3.550   2.812
 6292SOL     OW19774   1.974   2.642   4.451
 6292SOL    HW119775   2.017   2.596   4.529
 6292SOL    HW219776   1.997   2.739   4.454
 6293SOL     OW19777   5.369   1.178   0.275
 6293SOL    HW119778   5.456   1.150   0.316
 6293SOL    HW219779   5.358   1.277   0.285
 6294SOL     OW19780   3.403   1.136   3.884
 6294SOL    HW119781   3.472   1.068   3.859
 6294SOL    HW219782   3.325   1.091   3.927
 6295SOL     OW19783   5.316   4.744   4.724
 6295SOL    HW119784   5.244   4.674   4.725
 6295SOL    HW219785   5.282   4.827   4.769
 6296SOL     OW19786   0.701   3.419   6.060
 6296SOL    HW119787   0.711   3.480   5.981
 6296SOL    HW219788   0.668   3.330   6.029
 6297SOL     OW19789   6.370   0.222   4.480
 6297SOL    HW119790   6.444   0.157   4.463
 6297SOL    HW219791   6.298   0.210   4.412
 6298SOL     OW19792   5.899   4.441   6.992
 6298SOL    HW119793   5.887   4.538   7.014
 6298SOL    HW219794   5.957   4.398   0.043
 6299SOL     OW19795   5.248   2.249   2.891
 6299SOL    HW119796   5.211   2.252   2.984
 6299SOL    HW219797   5.244   2.341   2.850
 6300SOL     OW19798   4.433   1.686   6.250
 6300SOL    HW119799   4.511   1.631   6.279
 6300SOL    HW219800   4.359   1.626   6.221
 6301SOL     OW19801   3.322   6.431   6.631
 6301SOL    HW119802   3.292   6.451   6.537
 6301SOL    HW219803   3.422   6.429   6.634
 6302SOL     OW19804   2.412   1.472   5.413
 6302SOL    HW119805   2.368   1.430   5.333
 6302SOL    HW219806   2.487   1.414   5.444
 6303SOL     OW19807   1.167   6.186   5.621
 6303SOL    HW119808   1.162   6.152   5.527
 6303SOL    HW219809   1.236   6.134   5.672
 6304SOL     OW19810   4.224   1.097   3.292
 6304SOL    HW119811   4.143   1.140   3.332
 6304SOL    HW219812   4.199   1.010   3.250
 6305SOL     OW19813   6.768   5.758   5.163
 6305SOL    HW119814   6.850   5.778   5.216
 6305SOL    HW219815   6.695   5.726   5.223
 6306SOL     OW19816   0.575   4.088   3.793
 6306SOL    HW119817   0.543   4.071   3.886
 6306SOL    HW219818   0.661   4.140   3.796
 6307SOL     OW19819   4.168   3.686   3.961
 6307SOL    HW119820   4.235   3.759   3.951
 6307SOL    HW219821   4.126   3.690   4.051
 6308SOL     OW19822   0.411   2.314   5.984
 6308SOL    HW119823   0.327   2.366   5.999
 6308SOL    HW219824   0.401   2.223   6.024
 6309SOL     OW19825   1.041   6.762   4.469
 6309SOL    HW119826   1.040   6.782   4.371
 6309SOL    HW219827   0.985   6.682   4.487
 6310SOL     OW19828   1.656   6.871   3.280
 6310SOL    HW119829   1.600   6.941   3.324
 6310SOL    HW219830   1.731   6.915   3.231
 6311SOL     OW19831   5.247   1.042   6.290
 6311SOL    HW119832   5.235   1.071   6.385
 6311SOL    HW219833   5.340   1.064   6.260
 6312SOL     OW19834   2.925   6.596   6.792
 6312SOL    HW119835   3.020   6.568   6.778
 6312SOL    HW219836   2.864   6.523   6.761
 6313SOL     OW19837   5.104   6.305   3.386
 6313SOL    HW119838   5.040   6.239   3.347
 6313SOL    HW219839   5.147   6.267   3.468
 6314SOL     OW19840   2.687   0.511   1.563
 6314SOL    HW119841   2.717   0.513   1.658
 6314SOL    HW219842   2.603   0.565   1.553
 6315SOL     OW19843   1.696   2.462   4.194
 6315SOL    HW119844   1.749   2.378   4.187
 6315SOL    HW219845   1.758   2.540   4.201
 6316SOL     OW19846   5.426   1.978   5.615
 6316SOL    HW119847   5.430   1.878   5.621
 6316SOL    HW219848   5.379   2.005   5.532
 6317SOL     OW19849   4.973   4.507   2.441
 6317SOL    HW119850   5.045   4.575   2.429
 6317SOL    HW219851   4.912   4.535   2.515
 6318SOL     OW19852   6.579   0.179   6.593
 6318SOL    HW119853   6.551   0.256   6.536
 6318SOL    HW219854   6.592   0.210   6.688
 6319SOL     OW19855   5.470   2.799   4.930
 6319SOL    HW119856   5.383   2.832   4.894
 6319SOL    HW219857   5.457   2.765   5.023
 6320SOL     OW19858   0.494   0.888   3.848
 6320SOL    HW119859   0.548   0.932   3.919
 6320SOL    HW219860   0.398   0.888   3.875
 6321SOL     OW19861   5.298   2.329   0.663
 6321SOL    HW119862   5.235   2.292   0.731
 6321SOL    HW219863   5.297   2.271   0.582
 6322SOL     OW19864   1.962   1.009   0.415
 6322SOL    HW119865   2.025   0.932   0.406
 6322SOL    HW219866   1.999   1.074   0.482
 6323SOL     OW19867   2.736   2.379   1.123
 6323SOL    HW119868   2.783   2.331   1.049
 6323SOL    HW219869   2.662   2.434   1.085
 6324SOL     OW19870   4.688   1.159   1.027
 6324SOL    HW119871   4.589   1.154   1.010
 6324SOL    HW219872   4.705   1.215   1.108
 6325SOL     OW19873   1.589   2.411   2.182
 6325SOL    HW119874   1.571   2.507   2.206
 6325SOL    HW219875   1.663   2.376   2.240
 6326SOL     OW19876   4.791   4.945   5.867
 6326SOL    HW119877   4.881   4.982   5.847
 6326SOL    HW219878   4.747   5.000   5.938
 6327SOL     OW19879   0.095   1.888   3.643
 6327SOL    HW119880   0.117   1.984   3.630
 6327SOL    HW219881   7.014   1.877   3.650
 6328SOL     OW19882   4.635   3.302   5.781
 6328SOL    HW119883   4.563   3.330   5.844
 6328SOL    HW219884   4.631   3.203   5.768
 6329SOL     OW19885   0.976   2.639   5.134
 6329SOL    HW119886   1.005   2.593   5.049
 6329SOL    HW219887   0.877   2.634   5.142
 6330SOL     OW19888   6.070   1.380   2.966
 6330SOL    HW119889   6.162   1.345   2.948
 6330SOL    HW219890   6.028   1.326   3.039
 6331SOL     OW19891   6.425   2.825   4.509
 6331SOL    HW119892   6.336   2.783   4.527
 6331SOL    HW219893   6.469   2.851   4.595
 6332SOL     OW19894   1.716   1.825   1.373
 6332SOL    HW119895   1.681   1.789   1.460
 6332SOL    HW219896   1.808   1.791   1.357
 6333SOL     OW19897   4.874   6.705   0.446
 6333SOL    HW119898   4.944   6.767   0.409
 6333SOL    HW219899   4.795   6.759   0.475
 6334SOL     OW19900   2.873   1.628   1.803
 6334SOL    HW119901   2.918   1.712   1.772
 6334SOL    HW219902   2.888   1.616   1.901
 6335SOL     OW19903   5.579   0.607   0.893
 6335SOL    HW119904   5.665   0.570   0.857
 6335SOL    HW219905   5.593   0.703   0.921
 6336SOL     OW19906   0.270   4.360   5.982
 6336SOL    HW119907   0.333   4.400   5.916
 6336SOL    HW219908   0.258   4.263   5.963
 6337SOL     OW19909   4.278   5.788   4.993
 6337SOL    HW119910   4.306   5.877   5.028
 6337SOL    HW219911   4.317   5.774   4.902
 6338SOL     OW19912   2.988   2.269   4.310
 6338SOL    HW119913   3.005   2.347   4.251
 6338SOL    HW219914   2.905   2.286   4.364
 6339SOL     OW19915   0.910   3.975   2.536
 6339SOL    HW119916   0.863   3.975   2.624
 6339SOL    HW219917   0.885   3.892   2.485
 6340SOL     OW19918   2.432   3.849   1.401
 6340SOL    HW119919   2.492   3.836   1.480
 6340SOL    HW219920   2.338   3.860   1.432
 6341SOL     OW19921   1.514   4.319   3.794
 6341SOL    HW119922   1.429   4.360   3.827
 6341SOL    HW219923   1.585   4.389   3.791
 6342SOL     OW19924   1.900   0.902   1.958
 6342SOL    HW119925   1.823   0.955   1.992
 6342SOL    HW219926   1.985   0.934   2.001
 6343SOL     OW19927   3.436   6.285   0.076
 6343SOL    HW119928   3.355   6.328   0.117
 6343SOL    HW219929   3.446   6.192   0.112
 6344SOL     OW19930   5.382   2.691   3.782
 6344SOL    HW119931   5.478   2.669   3.766
 6344SOL    HW219932   5.336   2.704   3.694
 6345SOL     OW19933   5.110   3.408   1.640
 6345SOL    HW119934   5.196   3.399   1.589
 6345SOL    HW219935   5.123   3.473   1.715
 6346SOL     OW19936   0.402   4.345   5.742
 6346SOL    HW119937   0.415   4.418   5.675
 6346SOL    HW219938   0.491   4.320   5.780
 6347SOL     OW19939   2.764   2.353   2.508
 6347SOL    HW119940   2.666   2.348   2.491
 6347SOL    HW219941   2.804   2.427   2.455
 6348SOL     OW19942   0.201   1.640   5.905
 6348SOL    HW119943   0.171   1.552   5.943
 6348SOL    HW219944   0.301   1.646   5.911
 6349SOL     OW19945   1.159   0.354   0.293
 6349SOL    HW119946   1.125   0.315   0.378
 6349SOL    HW219947   1.116   0.309   0.215
 6350SOL     OW19948   1.248   4.857   2.085
 6350SOL    HW119949   1.269   4.836   1.990
 6350SOL    HW219950   1.247   4.772   2.138
 6351SOL     OW19951   6.667   3.999   3.112
 6351SOL    HW119952   6.644   3.903   3.125
 6351SOL    HW219953   6.712   4.035   3.194
 6352SOL     OW19954   2.383   1.015   4.168
 6352SOL    HW119955   2.461   1.078   4.174
 6352SOL    HW219956   2.407   0.928   4.213
 6353SOL     OW19957   2.675   5.803   6.895
 6353SOL    HW119958   2.615   5.736   6.850
 6353SOL    HW219959   2.637   5.895   6.883
 6354SOL     OW19960   5.073   4.940   2.889
 6354SOL    HW119961   5.089   4.842   2.899
 6354SOL    HW219962   4.980   4.961   2.918
 6355SOL     OW19963   2.694   4.706   0.486
 6355SOL    HW119964   2.758   4.648   0.536
 6355SOL    HW219965   2.687   4.795   0.532
 6356SOL     OW19966   5.177   4.986   6.516
 6356SOL    HW119967   5.124   5.061   6.476
 6356SOL    HW219968   5.127   4.949   6.595
 6357SOL     OW19969   5.841   2.238   1.300
 6357SOL    HW119970   5.834   2.208   1.395
 6357SOL    HW219971   5.915   2.190   1.254
 6358SOL     OW19972   0.895   1.607   6.038
 6358SOL    HW119973   0.906   1.701   6.007
 6358SOL    HW219974   0.807   1.572   6.008
 6359SOL     OW19975   6.042   6.708   0.757
 6359SOL    HW119976   6.016   6.746   0.668
 6359SOL    HW219977   6.073   6.614   0.746
 6360SOL     OW19978   6.684   2.613   3.692
 6360SOL    HW119979   6.642   2.669   3.763
 6360SOL    HW219980   6.658   2.518   3.704
 6361SOL     OW19981   0.022   0.778   0.203
 6361SOL    HW119982   0.038   0.853   0.268
 6361SOL    HW219983   0.046   0.809   0.111
 6362SOL     OW19984   1.201   5.591   6.716
 6362SOL    HW119985   1.235   5.630   6.630
 6362SOL    HW219986   1.260   5.620   6.791
 6363SOL     OW19987   2.576   5.104   3.752
 6363SOL    HW119988   2.600   5.158   3.833
 6363SOL    HW219989   2.623   5.142   3.672
 6364SOL     OW19990   2.479   2.360   4.650
 6364SOL    HW119991   2.433   2.277   4.619
 6364SOL    HW219992   2.558   2.334   4.706
 6365SOL     OW19993   6.310   5.989   4.490
 6365SOL    HW119994   6.227   5.966   4.540
 6365SOL    HW219995   6.287   6.035   4.404
 6366SOL     OW19996   6.015   6.654   5.073
 6366SOL    HW119997   5.929   6.645   5.124
 6366SOL    HW219998   6.090   6.670   5.138
 6367SOL     OW19999   2.957   2.188   3.010
 6367SOL    HW120000   2.911   2.215   2.926
 6367SOL    HW220001   2.903   2.119   3.058
 6368SOL     OW20002   4.647   4.431   3.744
 6368SOL    HW120003   4.684   4.397   3.658
 6368SOL    HW220004   4.678   4.373   3.820
 6369SOL     OW20005   3.118   5.891   5.983
 6369SOL    HW120006   3.147   5.983   6.010
 6369SOL    HW220007   3.196   5.842   5.942
 6370SOL     OW20008   5.113   3.802   3.245
 6370SOL    HW120009   5.050   3.799   3.323
 6370SOL    HW220010   5.100   3.887   3.194
 6371SOL     OW20011   5.017   4.293   1.803
 6371SOL    HW120012   4.994   4.204   1.765
 6371SOL    HW220013   5.046   4.355   1.729
 6372SOL     OW20014   0.123   1.471   2.794
 6372SOL    HW120015   0.050   1.536   2.773
 6372SOL    HW220016   0.146   1.419   2.711
 6373SOL     OW20017   5.561   4.385   1.552
 6373SOL    HW120018   5.577   4.482   1.567
 6373SOL    HW220019   5.576   4.335   1.638
 6374SOL     OW20020   4.880   2.728   0.119
 6374SOL    HW120021   4.923   2.696   0.035
 6374SOL    HW220022   4.913   2.820   0.141
 6375SOL     OW20023   0.002   2.710   2.183
 6375SOL    HW120024   0.052   2.789   2.145
 6375SOL    HW220025   0.025   2.700   2.280
 6376SOL     OW20026   4.659   0.822   5.461
 6376SOL    HW120027   4.638   0.828   5.559
 6376SOL    HW220028   4.716   0.899   5.434
 6377SOL     OW20029   6.873   0.561   0.140
 6377SOL    HW120030   6.951   0.500   0.125
 6377SOL    HW220031   6.905   0.655   0.148
 6378SOL     OW20032   5.094   5.718   2.579
 6378SOL    HW120033   5.044   5.666   2.648
 6378SOL    HW220034   5.120   5.657   2.504
 6379SOL     OW20035   2.195   5.666   6.222
 6379SOL    HW120036   2.268   5.634   6.282
 6379SOL    HW220037   2.179   5.763   6.238
 6380SOL     OW20038   0.610   3.493   4.966
 6380SOL    HW120039   0.594   3.492   5.065
 6380SOL    HW220040   0.625   3.399   4.935
 6381SOL     OW20041   4.191   3.023   0.321
 6381SOL    HW120042   4.132   3.012   0.401
 6381SOL    HW220043   4.261   2.951   0.320
 6382SOL     OW20044   2.640   1.609   1.220
 6382SOL    HW120045   2.696   1.531   1.247
 6382SOL    HW220046   2.699   1.687   1.200
 6383SOL     OW20047   1.929   2.801   2.813
 6383SOL    HW120048   1.987   2.852   2.750
 6383SOL    HW220049   1.922   2.851   2.900
 6384SOL     OW20050   6.061   2.327   2.022
 6384SOL    HW120051   6.037   2.355   2.115
 6384SOL    HW220052   6.124   2.394   1.983
 6385SOL     OW20053   0.432   3.611   1.216
 6385SOL    HW120054   0.357   3.614   1.150
 6385SOL    HW220055   0.402   3.650   1.303
 6386SOL     OW20056   2.247   3.404   0.729
 6386SOL    HW120057   2.260   3.419   0.827
 6386SOL    HW220058   2.181   3.470   0.694
 6387SOL     OW20059   6.231   0.887   0.003
 6387SOL    HW120060   6.132   0.901   0.001
 6387SOL    HW220061   6.274   0.950   6.957
 6388SOL     OW20062   6.570   5.153   2.867
 6388SOL    HW120063   6.557   5.060   2.902
 6388SOL    HW220064   6.486   5.183   2.821
 6389SOL     OW20065   1.566   0.132   0.244
 6389SOL    HW120066   1.660   0.135   0.211
 6389SOL    HW220067   1.505   0.114   0.167
 6390SOL     OW20068   5.539   0.510   0.296
 6390SOL    HW120069   5.580   0.599   0.318
 6390SOL    HW220070   5.456   0.498   0.350
 6391SOL     OW20071   0.985   1.046   5.324
 6391SOL    HW120072   1.078   1.009   5.331
 6391SOL    HW220073   0.989   1.146   5.324
 6392SOL     OW20074   3.757   5.712   3.667
 6392SOL    HW120075   3.786   5.636   3.725
 6392SOL    HW220076   3.703   5.777   3.721
 6393SOL     OW20077   5.695   6.787   1.587
 6393SOL    HW120078   5.697   6.733   1.671
 6393SOL    HW220079   5.604   6.827   1.576
 6394SOL     OW20080   0.931   4.583   0.954
 6394SOL    HW120081   0.858   4.610   0.891
 6394SOL    HW220082   1.015   4.568   0.903
 6395SOL     OW20083   0.456   3.939   2.980
 6395SOL    HW120084   0.502   4.023   3.010
 6395SOL    HW220085   0.511   3.860   3.007
 6396SOL     OW20086   6.652   3.483   0.328
 6396SOL    HW120087   6.637   3.420   0.404
 6396SOL    HW220088   6.572   3.482   0.268
 6397SOL     OW20089   5.992   2.224   3.065
 6397SOL    HW120090   5.949   2.219   2.975
 6397SOL    HW220091   6.083   2.264   3.056
 6398SOL     OW20092   0.790   6.237   1.535
 6398SOL    HW120093   0.765   6.314   1.594
 6398SOL    HW220094   0.708   6.194   1.499
 6399SOL     OW20095   2.130   0.089   6.398
 6399SOL    HW120096   2.046   0.049   6.363
 6399SOL    HW220097   2.178   0.021   6.453
 6400SOL     OW20098   1.646   6.062   3.250
 6400SOL    HW120099   1.627   6.010   3.166
 6400SOL    HW220100   1.681   6.152   3.226
 6401SOL     OW20101   4.183   5.003   2.867
 6401SOL    HW120102   4.091   4.975   2.894
 6401SOL    HW220103   4.193   5.102   2.881
 6402SOL     OW20104   2.103   4.648   3.660
 6402SOL    HW120105   2.023   4.703   3.637
 6402SOL    HW220106   2.129   4.666   3.755
 6403SOL     OW20107   5.602   6.152   5.054
 6403SOL    HW120108   5.508   6.116   5.061
 6403SOL    HW220109   5.599   6.250   5.039
 6404SOL     OW20110   3.737   1.110   2.576
 6404SOL    HW120111   3.669   1.039   2.557
 6404SOL    HW220112   3.711   1.160   2.658
 6405SOL     OW20113   5.231   1.141   3.003
 6405SOL    HW120114   5.316   1.160   2.954
 6405SOL    HW220115   5.210   1.044   2.995
 6406SOL     OW20116   1.250   2.675   2.454
 6406SOL    HW120117   1.328   2.617   2.481
 6406SOL    HW220118   1.194   2.626   2.387
 6407SOL     OW20119   2.220   6.395   3.600
 6407SOL    HW120120   2.206   6.413   3.697
 6407SOL    HW220121   2.137   6.418   3.549
 6408SOL     OW20122   6.885   0.532   0.920
 6408SOL    HW120123   6.858   0.493   0.832
 6408SOL    HW220124   6.893   0.631   0.912
 6409SOL     OW20125   6.470   5.041   4.002
 6409SOL    HW120126   6.537   5.068   4.071
 6409SOL    HW220127   6.409   5.118   3.984
 6410SOL     OW20128   2.507   1.259   5.604
 6410SOL    HW120129   2.603   1.283   5.617
 6410SOL    HW220130   2.468   1.225   5.690
 6411SOL     OW20131   0.051   3.391   2.221
 6411SOL    HW120132   0.068   3.489   2.228
 6411SOL    HW220133   0.134   3.345   2.189
 6412SOL     OW20134   3.349   0.703   6.294
 6412SOL    HW120135   3.249   0.706   6.298
 6412SOL    HW220136   3.378   0.621   6.244
 6413SOL     OW20137   4.434   4.725   4.447
 6413SOL    HW120138   4.363   4.747   4.381
 6413SOL    HW220139   4.497   4.658   4.407
 6414SOL     OW20140   0.777   0.120   6.968
 6414SOL    HW120141   0.813   0.051   6.905
 6414SOL    HW220142   0.679   0.105   6.981
 6415SOL     OW20143   1.361   3.362   3.397
 6415SOL    HW120144   1.446   3.375   3.346
 6415SOL    HW220145   1.321   3.452   3.417
 6416SOL     OW20146   2.959   0.002   6.809
 6416SOL    HW120147   3.049   6.994   6.844
 6416SOL    HW220148   2.894   6.946   6.824
 6417SOL     OW20149   4.777   1.861   0.864
 6417SOL    HW120150   4.703   1.811   0.819
 6417SOL    HW220151   4.777   1.840   0.962
 6418SOL     OW20152   4.201   4.852   1.525
 6418SOL    HW120153   4.285   4.799   1.518
 6418SOL    HW220154   4.163   4.843   1.618
 6419SOL     OW20155   0.869   6.305   6.648
 6419SOL    HW120156   0.804   6.372   6.613
 6419SOL    HW220157   0.831   6.261   6.730
 6420SOL     OW20158   1.497   3.211   3.970
 6420SOL    HW120159   1.425   3.259   3.920
 6420SOL    HW220160   1.459   3.129   4.013
 6421SOL     OW20161   5.512   0.043   1.417
 6421SOL    HW120162   5.492   6.998   1.342
 6421SOL    HW220163   5.486   0.135   1.390
 6422SOL     OW20164   6.985   2.542   5.133
 6422SOL    HW120165   6.963   2.539   5.230
 6422SOL    HW220166   6.952   2.628   5.094
 6423SOL     OW20167   2.615   5.471   4.572
 6423SOL    HW120168   2.633   5.449   4.476
 6423SOL    HW220169   2.684   5.428   4.630
 6424SOL     OW20170   0.194   3.162   4.856
 6424SOL    HW120171   0.106   3.209   4.862
 6424SOL    HW220172   0.227   3.142   4.949
 6425SOL     OW20173   6.981   5.738   3.261
 6425SOL    HW120174   0.020   5.724   3.342
 6425SOL    HW220175   6.972   5.652   3.211
 6426SOL     OW20176   4.573   4.514   4.869
 6426SOL    HW120177   4.561   4.584   4.799
 6426SOL    HW220178   4.490   4.508   4.925
 6427SOL     OW20179   3.479   3.490   2.983
 6427SOL    HW120180   3.541   3.547   2.929
 6427SOL    HW220181   3.390   3.534   2.990
 6428SOL     OW20182   4.904   2.421   0.273
 6428SOL    HW120183   4.818   2.425   0.222
 6428SOL    HW220184   4.954   2.339   0.247
 6429SOL     OW20185   1.867   0.777   4.998
 6429SOL    HW120186   1.874   0.850   4.929
 6429SOL    HW220187   1.809   0.704   4.963
 6430SOL     OW20188   0.179   0.970   5.350
 6430SOL    HW120189   0.262   0.920   5.377
 6430SOL    HW220190   0.156   0.947   5.256
 6431SOL     OW20191   4.969   5.557   2.767
 6431SOL    HW120192   5.007   5.478   2.720
 6431SOL    HW220193   4.869   5.551   2.767
 6432SOL     OW20194   3.296   3.897   6.495
 6432SOL    HW120195   3.375   3.880   6.436
 6432SOL    HW220196   3.324   3.890   6.591
 6433SOL     OW20197   2.957   5.786   6.836
 6433SOL    HW120198   2.864   5.770   6.869
 6433SOL    HW220199   2.953   5.812   6.739
 6434SOL     OW20200   2.996   6.068   6.283
 6434SOL    HW120201   2.950   6.040   6.199
 6434SOL    HW220202   3.010   5.988   6.342
 6435SOL     OW20203   5.472   7.010   0.005
 6435SOL    HW120204   5.522   0.060   0.057
 6435SOL    HW220205   5.406   0.037   6.964
 6436SOL     OW20206   0.810   4.242   3.777
 6436SOL    HW120207   0.897   4.220   3.822
 6436SOL    HW220208   0.796   4.341   3.780
 6437SOL     OW20209   0.977   1.318   5.234
 6437SOL    HW120210   0.965   1.398   5.293
 6437SOL    HW220211   1.041   1.341   5.160
 6438SOL     OW20212   0.460   5.480   6.747
 6438SOL    HW120213   0.503   5.570   6.742
 6438SOL    HW220214   0.530   5.411   6.766
 6439SOL     OW20215   6.203   0.957   4.156
 6439SOL    HW120216   6.297   0.987   4.141
 6439SOL    HW220217   6.149   0.977   4.074
 6440SOL     OW20218   2.227   0.467   6.226
 6440SOL    HW120219   2.254   0.438   6.318
 6440SOL    HW220220   2.198   0.387   6.173
 6441SOL     OW20221   0.352   0.126   3.630
 6441SOL    HW120222   0.382   0.124   3.725
 6441SOL    HW220223   0.309   0.214   3.609
 6442SOL     OW20224   2.331   2.040   4.983
 6442SOL    HW120225   2.349   1.974   4.910
 6442SOL    HW220226   2.413   2.096   4.998
 6443SOL     OW20227   4.299   2.326   0.558
 6443SOL    HW120228   4.333   2.235   0.583
 6443SOL    HW220229   4.363   2.369   0.495
 6444SOL     OW20230   6.935   2.155   5.707
 6444SOL    HW120231   6.977   2.197   5.627
 6444SOL    HW220232   6.836   2.165   5.702
 6445SOL     OW20233   3.307   3.677   3.486
 6445SOL    HW120234   3.369   3.604   3.514
 6445SOL    HW220235   3.355   3.764   3.487
 6446SOL     OW20236   1.789   1.677   6.467
 6446SOL    HW120237   1.825   1.766   6.441
 6446SOL    HW220238   1.834   1.647   6.552
 6447SOL     OW20239   6.480   4.338   1.111
 6447SOL    HW120240   6.395   4.322   1.060
 6447SOL    HW220241   6.467   4.310   1.207
 6448SOL     OW20242   4.727   5.417   1.935
 6448SOL    HW120243   4.666   5.358   1.883
 6448SOL    HW220244   4.714   5.512   1.906
 6449SOL     OW20245   2.602   5.656   1.629
 6449SOL    HW120246   2.512   5.668   1.586
 6449SOL    HW220247   2.638   5.745   1.656
 6450SOL     OW20248   0.715   4.181   1.206
 6450SOL    HW120249   0.699   4.235   1.123
 6450SOL    HW220250   0.630   4.179   1.260
 6451SOL     OW20251   3.830   2.068   0.137
 6451SOL    HW120252   3.891   2.146   0.152
 6451SOL    HW220253   3.881   1.993   0.094
 6452SOL     OW20254   5.507   3.427   3.534
 6452SOL    HW120255   5.578   3.473   3.480
 6452SOL    HW220256   5.422   3.424   3.482
 6453SOL     OW20257   3.660   0.280   1.164
 6453SOL    HW120258   3.629   0.265   1.258
 6453SOL    HW220259   3.637   0.373   1.136
 6454SOL     OW20260   6.564   2.134   2.581
 6454SOL    HW120261   6.524   2.219   2.615
 6454SOL    HW220262   6.600   2.082   2.658
 6455SOL     OW20263   6.646   4.649   3.134
 6455SOL    HW120264   6.581   4.702   3.187
 6455SOL    HW220265   6.598   4.603   3.059
 6456SOL     OW20266   0.428   1.065   2.538
 6456SOL    HW120267   0.475   1.049   2.625
 6456SOL    HW220268   0.489   1.114   2.476
 6457SOL     OW20269   5.121   6.848   1.455
 6457SOL    HW120270   5.048   6.781   1.441
 6457SOL    HW220271   5.143   6.852   1.552
 6458SOL     OW20272   0.889   4.964   4.340
 6458SOL    HW120273   0.965   4.900   4.332
 6458SOL    HW220274   0.882   5.019   4.257
 6459SOL     OW20275   5.824   2.841   3.283
 6459SOL    HW120276   5.827   2.817   3.380
 6459SOL    HW220277   5.734   2.818   3.246
 6460SOL     OW20278   6.809   5.738   4.877
 6460SOL    HW120279   6.811   5.778   4.968
 6460SOL    HW220280   6.766   5.648   4.881
 6461SOL     OW20281   3.140   4.395   0.858
 6461SOL    HW120282   3.137   4.409   0.957
 6461SOL    HW220283   3.219   4.338   0.834
 6462SOL     OW20284   1.839   3.741   4.498
 6462SOL    HW120285   1.793   3.735   4.587
 6462SOL    HW220286   1.816   3.661   4.443
 6463SOL     OW20287   5.489   0.898   1.028
 6463SOL    HW120288   5.578   0.922   0.987
 6463SOL    HW220289   5.435   0.981   1.041
 6464SOL     OW20290   0.921   6.332   4.359
 6464SOL    HW120291   0.865   6.250   4.365
 6464SOL    HW220292   0.966   6.336   4.270
 6465SOL     OW20293   5.508   2.743   2.075
 6465SOL    HW120294   5.598   2.709   2.101
 6465SOL    HW220295   5.461   2.778   2.156
 6466SOL     OW20296   6.898   3.610   6.317
 6466SOL    HW120297   6.914   3.676   6.390
 6466SOL    HW220298   6.900   3.657   6.229
 6467SOL     OW20299   3.171   0.855   0.588
 6467SOL    HW120300   3.143   0.950   0.572
 6467SOL    HW220301   3.191   0.811   0.500
 6468SOL     OW20302   3.852   6.465   0.287
 6468SOL    HW120303   3.884   6.444   0.379
 6468SOL    HW220304   3.926   6.504   0.233
 6469SOL     OW20305   2.916   1.988   3.743
 6469SOL    HW120306   2.866   1.913   3.700
 6469SOL    HW220307   2.922   1.973   3.842
 6470SOL     OW20308   6.741   2.466   0.273
 6470SOL    HW120309   6.739   2.485   0.175
 6470SOL    HW220310   6.681   2.388   0.293
 6471SOL     OW20311   0.276   6.426   4.964
 6471SOL    HW120312   0.214   6.367   4.913
 6471SOL    HW220313   0.237   6.446   5.054
 6472SOL     OW20314   0.085   6.656   2.761
 6472SOL    HW120315   0.141   6.603   2.697
 6472SOL    HW220316   0.016   6.597   2.802
 6473SOL     OW20317   1.946   1.468   4.290
 6473SOL    HW120318   1.895   1.407   4.229
 6473SOL    HW220319   1.915   1.562   4.277
 6474SOL     OW20320   4.313   4.977   5.121
 6474SOL    HW120321   4.322   5.015   5.213
 6474SOL    HW220322   4.217   4.977   5.094
 6475SOL     OW20323   5.619   5.657   3.298
 6475SOL    HW120324   5.702   5.704   3.267
 6475SOL    HW220325   5.593   5.588   3.231
 6476SOL     OW20326   3.779   2.395   6.664
 6476SOL    HW120327   3.829   2.461   6.608
 6476SOL    HW220328   3.732   2.444   6.739
 6477SOL     OW20329   0.011   5.963   1.176
 6477SOL    HW120330   0.089   5.926   1.126
 6477SOL    HW220331   6.965   6.003   1.111
 6478SOL     OW20332   2.473   6.060   1.586
 6478SOL    HW120333   2.548   6.013   1.632
 6478SOL    HW220334   2.472   6.036   1.489
 6479SOL     OW20335   3.682   5.948   3.801
 6479SOL    HW120336   3.593   5.967   3.841
 6479SOL    HW220337   3.725   6.034   3.775
 6480SOL     OW20338   2.591   0.996   6.275
 6480SOL    HW120339   2.554   0.903   6.274
 6480SOL    HW220340   2.571   1.039   6.363
 6481SOL     OW20341   3.029   2.302   1.648
 6481SOL    HW120342   3.000   2.342   1.735
 6481SOL    HW220343   2.982   2.215   1.634
 6482SOL     OW20344   6.813   2.686   5.591
 6482SOL    HW120345   6.755   2.711   5.668
 6482SOL    HW220346   6.894   2.744   5.590
 6483SOL     OW20347   1.218   5.640   4.493
 6483SOL    HW120348   1.278   5.710   4.454
 6483SOL    HW220349   1.166   5.597   4.419
 6484SOL     OW20350   3.122   1.411   3.381
 6484SOL    HW120351   3.174   1.481   3.429
 6484SOL    HW220352   3.056   1.369   3.444
 6485SOL     OW20353   2.493   6.524   5.024
 6485SOL    HW120354   2.432   6.445   5.033
 6485SOL    HW220355   2.567   6.501   4.961
 6486SOL     OW20356   1.103   4.734   2.771
 6486SOL    HW120357   1.034   4.806   2.765
 6486SOL    HW220358   1.193   4.776   2.780
 6487SOL     OW20359   1.120   5.262   4.470
 6487SOL    HW120360   1.219   5.272   4.479
 6487SOL    HW220361   1.076   5.294   4.554
 6488SOL     OW20362   4.933   5.322   4.430
 6488SOL    HW120363   5.021   5.315   4.477
 6488SOL    HW220364   4.886   5.406   4.459
 6489SOL     OW20365   3.777   2.953   6.514
 6489SOL    HW120366   3.867   2.939   6.474
 6489SOL    HW220367   3.750   3.049   6.503
 6490SOL     OW20368   1.847   1.551   6.703
 6490SOL    HW120369   1.822   1.593   6.790
 6490SOL    HW220370   1.803   1.461   6.696
 6491SOL     OW20371   1.990   0.604   1.112
 6491SOL    HW120372   2.087   0.586   1.123
 6491SOL    HW220373   1.945   0.525   1.071
 6492SOL     OW20374   3.493   4.127   4.302
 6492SOL    HW120375   3.486   4.031   4.331
 6492SOL    HW220376   3.582   4.164   4.330
 6493SOL     OW20377   1.738   4.638   6.092
 6493SOL    HW120378   1.751   4.590   6.179
 6493SOL    HW220379   1.680   4.583   6.032
 6494SOL     OW20380   5.874   6.573   2.160
 6494SOL    HW120381   5.847   6.483   2.125
 6494SOL    HW220382   5.931   6.619   2.092
 6495SOL     OW20383   6.510   7.000   4.457
 6495SOL    HW120384   6.465   6.968   4.373
 6495SOL    HW220385   6.522   6.923   4.520
 6496SOL     OW20386   4.631   6.590   1.947
 6496SOL    HW120387   4.727   6.580   1.919
 6496SOL    HW220388   4.609   6.519   2.014
 6497SOL     OW20389   0.339   1.596   1.208
 6497SOL    HW120390   0.390   1.558   1.285
 6497SOL    HW220391   0.253   1.547   1.197
 6498SOL     OW20392   0.877   4.687   4.694
 6498SOL    HW120393   0.956   4.685   4.634
 6498SOL    HW220394   0.867   4.598   4.739
 6499SOL     OW20395   5.636   4.192   4.109
 6499SOL    HW120396   5.688   4.262   4.158
 6499SOL    HW220397   5.616   4.116   4.170
 6500SOL     OW20398   0.625   3.963   2.147
 6500SOL    HW120399   0.715   3.994   2.114
 6500SOL    HW220400   0.633   3.872   2.186
 6501SOL     OW20401   6.923   1.903   0.789
 6501SOL    HW120402   6.841   1.954   0.762
 6501SOL    HW220403   6.931   1.821   0.733
 6502SOL     OW20404   6.021   3.874   1.168
 6502SOL    HW120405   5.973   3.876   1.080
 6502SOL    HW220406   6.036   3.780   1.196
 6503SOL     OW20407   6.337   2.645   5.986
 6503SOL    HW120408   6.422   2.688   6.016
 6503SOL    HW220409   6.294   2.701   5.915
 6504SOL     OW20410   4.759   6.718   6.459
 6504SOL    HW120411   4.707   6.633   6.465
 6504SOL    HW220412   4.802   6.737   6.547
 6505SOL     OW20413   5.855   6.178   0.289
 6505SOL    HW120414   5.799   6.231   0.353
 6505SOL    HW220415   5.845   6.081   0.309
 6506SOL     OW20416   6.996   3.408   3.500
 6506SOL    HW120417   0.008   3.326   3.549
 6506SOL    HW220418   6.954   3.471   3.565
 6507SOL     OW20419   3.487   5.808   6.636
 6507SOL    HW120420   3.436   5.880   6.683
 6507SOL    HW220421   3.570   5.786   6.687
 6508SOL     OW20422   1.350   6.844   1.942
 6508SOL    HW120423   1.273   6.856   1.879
 6508SOL    HW220424   1.394   6.755   1.924
 6509SOL     OW20425   3.727   1.413   5.406
 6509SOL    HW120426   3.762   1.497   5.445
 6509SOL    HW220427   3.751   1.336   5.465
 6510SOL     OW20428   4.411   5.954   5.694
 6510SOL    HW120429   4.441   5.869   5.737
 6510SOL    HW220430   4.477   5.980   5.624
 6511SOL     OW20431   4.434   1.076   5.751
 6511SOL    HW120432   4.480   1.165   5.745
 6511SOL    HW220433   4.366   1.077   5.824
 6512SOL     OW20434   2.887   0.134   2.241
 6512SOL    HW120435   2.971   0.188   2.226
 6512SOL    HW220436   2.808   0.191   2.219
 6513SOL     OW20437   2.729   5.721   4.924
 6513SOL    HW120438   2.747   5.649   4.857
 6513SOL    HW220439   2.635   5.712   4.957
 6514SOL     OW20440   5.842   0.456   5.458
 6514SOL    HW120441   5.901   0.457   5.376
 6514SOL    HW220442   5.801   0.546   5.470
 6515SOL     OW20443   2.444   4.879   2.289
 6515SOL    HW120444   2.457   4.838   2.380
 6515SOL    HW220445   2.414   4.809   2.225
 6516SOL     OW20446   6.960   3.383   1.736
 6516SOL    HW120447   6.975   3.324   1.815
 6516SOL    HW220448   6.863   3.409   1.732
 6517SOL     OW20449   6.756   1.841   0.394
 6517SOL    HW120450   6.661   1.838   0.425
 6517SOL    HW220451   6.784   1.935   0.378
 6518SOL     OW20452   0.052   1.004   2.216
 6518SOL    HW120453   0.089   0.911   2.211
 6518SOL    HW220454   6.991   1.011   2.155
 6519SOL     OW20455   0.707   1.037   3.314
 6519SOL    HW120456   0.754   1.066   3.397
 6519SOL    HW220457   0.623   0.989   3.338
 6520SOL     OW20458   6.822   5.866   0.070
 6520SOL    HW120459   6.794   5.883   6.994
 6520SOL    HW220460   6.745   5.885   0.131
 6521SOL     OW20461   1.505   3.191   3.601
 6521SOL    HW120462   1.434   3.240   3.550
 6521SOL    HW220463   1.463   3.119   3.656
 6522SOL     OW20464   2.895   4.163   5.758
 6522SOL    HW120465   2.921   4.218   5.679
 6522SOL    HW220466   2.804   4.124   5.744
 6523SOL     OW20467   5.603   0.184   0.150
 6523SOL    HW120468   5.564   0.252   0.212
 6523SOL    HW220469   5.619   0.226   0.061
 6524SOL     OW20470   2.679   2.442   1.809
 6524SOL    HW120471   2.771   2.440   1.847
 6524SOL    HW220472   2.613   2.454   1.884
 6525SOL     OW20473   1.865   5.326   3.719
 6525SOL    HW120474   1.808   5.385   3.776
 6525SOL    HW220475   1.892   5.375   3.636
 6526SOL     OW20476   6.864   0.347   1.235
 6526SOL    HW120477   6.766   0.336   1.256
 6526SOL    HW220478   6.895   0.270   1.180
 6527SOL     OW20479   0.351   2.815   0.387
 6527SOL    HW120480   0.407   2.747   0.434
 6527SOL    HW220481   0.255   2.791   0.396
 6528SOL     OW20482   5.989   1.350   6.116
 6528SOL    HW120483   6.063   1.378   6.177
 6528SOL    HW220484   5.901   1.378   6.155
 6529SOL     OW20485   0.680   1.707   2.224
 6529SOL    HW120486   0.711   1.794   2.261
 6529SOL    HW220487   0.582   1.696   2.240
 6530SOL     OW20488   0.738   2.554   1.860
 6530SOL    HW120489   0.697   2.645   1.853
 6530SOL    HW220490   0.669   2.484   1.840
 6531SOL     OW20491   3.908   3.175   5.737
 6531SOL    HW120492   4.004   3.152   5.753
 6531SOL    HW220493   3.869   3.109   5.674
 6532SOL     OW20494   1.641   1.014   0.678
 6532SOL    HW120495   1.709   0.993   0.748
 6532SOL    HW220496   1.609   1.108   0.689
 6533SOL     OW20497   4.702   5.027   0.267
 6533SOL    HW120498   4.722   4.935   0.233
 6533SOL    HW220499   4.781   5.061   0.318
 6534SOL     OW20500   5.410   4.976   1.789
 6534SOL    HW120501   5.505   4.963   1.816
 6534SOL    HW220502   5.404   4.987   1.690
 6535SOL     OW20503   5.674   4.356   4.702
 6535SOL    HW120504   5.633   4.408   4.627
 6535SOL    HW220505   5.763   4.396   4.726
 6536SOL     OW20506   0.631   2.202   5.245
 6536SOL    HW120507   0.706   2.228   5.306
 6536SOL    HW220508   0.662   2.211   5.150
 6537SOL     OW20509   6.145   4.271   5.349
 6537SOL    HW120510   6.236   4.244   5.318
 6537SOL    HW220511   6.080   4.261   5.274
 6538SOL     OW20512   1.933   3.712   5.204
 6538SOL    HW120513   1.841   3.677   5.185
 6538SOL    HW220514   1.976   3.659   5.276
 6539SOL     OW20515   5.702   1.108   6.914
 6539SOL    HW120516   5.659   1.196   6.897
 6539SOL    HW220517   5.635   1.044   6.951
 6540SOL     OW20518   3.250   2.518   5.849
 6540SOL    HW120519   3.278   2.587   5.783
 6540SOL    HW220520   3.216   2.437   5.801
 6541SOL     OW20521   5.556   2.555   5.765
 6541SOL    HW120522   5.459   2.565   5.789
 6541SOL    HW220523   5.587   2.638   5.717
 6542SOL     OW20524   1.379   3.914   4.550
 6542SOL    HW120525   1.437   3.868   4.483
 6542SOL    HW220526   1.434   3.943   4.628
 6543SOL     OW20527   3.282   2.063   5.060
 6543SOL    HW120528   3.332   2.073   5.146
 6543SOL    HW220529   3.218   2.139   5.050
 6544SOL     OW20530   0.244   0.167   2.131
 6544SOL    HW120531   0.267   0.107   2.207
 6544SOL    HW220532   0.218   0.257   2.166
 6545SOL     OW20533   4.506   6.820   1.027
 6545SOL    HW120534   4.573   6.844   1.098
 6545SOL    HW220535   4.429   6.884   1.030
 6546SOL     OW20536   4.628   4.774   6.347
 6546SOL    HW120537   4.587   4.718   6.420
 6546SOL    HW220538   4.692   4.839   6.387
 6547SOL     OW20539   5.140   6.847   6.366
 6547SOL    HW120540   5.187   6.917   6.313
 6547SOL    HW220541   5.208   6.790   6.414
 6548SOL     OW20542   0.844   2.333   6.339
 6548SOL    HW120543   0.765   2.368   6.289
 6548SOL    HW220544   0.860   2.390   6.420
 6549SOL     OW20545   4.923   0.160   1.533
 6549SOL    HW120546   4.887   0.227   1.597
 6549SOL    HW220547   4.875   0.073   1.545
 6550SOL     OW20548   6.753   0.483   3.219
 6550SOL    HW120549   6.713   0.564   3.176
 6550SOL    HW220550   6.689   0.446   3.286
 6551SOL     OW20551   2.871   3.321   1.748
 6551SOL    HW120552   2.772   3.337   1.745
 6551SOL    HW220553   2.906   3.308   1.656
 6552SOL     OW20554   1.964   6.563   0.681
 6552SOL    HW120555   2.063   6.560   0.668
 6552SOL    HW220556   1.945   6.583   0.777
 6553SOL     OW20557   0.464   1.446   3.037
 6553SOL    HW120558   0.439   1.401   3.123
 6553SOL    HW220559   0.398   1.517   3.016
 6554SOL     OW20560   2.748   0.819   4.899
 6554SOL    HW120561   2.775   0.754   4.828
 6554SOL    HW220562   2.829   0.867   4.933
 6555SOL     OW20563   6.530   2.013   4.664
 6555SOL    HW120564   6.452   1.962   4.629
 6555SOL    HW220565   6.501   2.068   4.742
 6556SOL     OW20566   6.255   3.383   2.874
 6556SOL    HW120567   6.310   3.386   2.790
 6556SOL    HW220568   6.176   3.324   2.860
 6557SOL     OW20569   1.948   0.210   2.808
 6557SOL    HW120570   1.963   0.309   2.814
 6557SOL    HW220571   2.007   0.164   2.875
 6558SOL     OW20572   5.868   4.956   0.170
 6558SOL    HW120573   5.841   4.977   0.264
 6558SOL    HW220574   5.806   4.888   0.131
 6559SOL     OW20575   6.877   3.280   6.900
 6559SOL    HW120576   6.861   3.357   6.838
 6559SOL    HW220577   6.789   3.244   6.931
 6560SOL     OW20578   4.121   4.636   0.550
 6560SOL    HW120579   4.123   4.736   0.543
 6560SOL    HW220580   4.155   4.609   0.640
 6561SOL     OW20581   4.140   4.889   0.450
 6561SOL    HW120582   4.055   4.913   0.402
 6561SOL    HW220583   4.219   4.916   0.396
 6562SOL     OW20584   5.329   3.012   1.103
 6562SOL    HW120585   5.356   2.920   1.131
 6562SOL    HW220586   5.243   3.008   1.052
 6563SOL     OW20587   4.956   0.194   6.049
 6563SOL    HW120588   4.933   0.281   6.006
 6563SOL    HW220589   4.967   0.124   5.978
 6564SOL     OW20590   6.222   4.058   2.018
 6564SOL    HW120591   6.305   4.073   1.964
 6564SOL    HW220592   6.244   3.999   2.096
 6565SOL     OW20593   5.551   6.688   2.835
 6565SOL    HW120594   5.485   6.758   2.860
 6565SOL    HW220595   5.588   6.645   2.917
 6566SOL     OW20596   3.285   5.596   2.144
 6566SOL    HW120597   3.264   5.539   2.065
 6566SOL    HW220598   3.384   5.608   2.151
 6567SOL     OW20599   4.072   0.642   1.733
 6567SOL    HW120600   4.056   0.728   1.781
 6567SOL    HW220601   4.000   0.576   1.757
 6568SOL     OW20602   4.651   1.358   2.444
 6568SOL    HW120603   4.681   1.350   2.349
 6568SOL    HW220604   4.727   1.334   2.505
 6569SOL     OW20605   0.740   2.607   6.090
 6569SOL    HW120606   0.788   2.653   6.165
 6569SOL    HW220607   0.782   2.633   6.003
 6570SOL     OW20608   4.087   0.995   2.302
 6570SOL    HW120609   4.139   0.920   2.343
 6570SOL    HW220610   4.043   1.048   2.375
 6571SOL     OW20611   2.332   5.225   3.410
 6571SOL    HW120612   2.404   5.255   3.473
 6571SOL    HW220613   2.246   5.270   3.434
 6572SOL     OW20614   0.808   4.501   4.413
 6572SOL    HW120615   0.887   4.547   4.454
 6572SOL    HW220616   0.799   4.409   4.451
 6573SOL     OW20617   1.530   0.798   3.251
 6573SOL    HW120618   1.466   0.875   3.247
 6573SOL    HW220619   1.588   0.807   3.332
 6574SOL     OW20620   2.589   6.408   3.843
 6574SOL    HW120621   2.503   6.421   3.893
 6574SOL    HW220622   2.637   6.496   3.837
 6575SOL     OW20623   0.329   0.175   2.738
 6575SOL    HW120624   0.339   0.079   2.764
 6575SOL    HW220625   0.341   0.185   2.639
 6576SOL     OW20626   3.347   4.719   0.337
 6576SOL    HW120627   3.407   4.797   0.354
 6576SOL    HW220628   3.361   4.650   0.408
 6577SOL     OW20629   1.857   2.876   3.309
 6577SOL    HW120630   1.934   2.888   3.372
 6577SOL    HW220631   1.781   2.935   3.338
 6578SOL     OW20632   1.133   6.095   1.637
 6578SOL    HW120633   1.070   6.070   1.563
 6578SOL    HW220634   1.089   6.079   1.725
 6579SOL     OW20635   0.412   1.709   4.212
 6579SOL    HW120636   0.359   1.791   4.191
 6579SOL    HW220637   0.506   1.720   4.178
 6580SOL     OW20638   0.916   0.480   0.531
 6580SOL    HW120639   0.955   0.393   0.560
 6580SOL    HW220640   0.914   0.484   0.431
 6581SOL     OW20641   1.276   1.183   0.516
 6581SOL    HW120642   1.367   1.220   0.495
 6581SOL    HW220643   1.254   1.111   0.451
 6582SOL     OW20644   0.072   0.753   2.513
 6582SOL    HW120645   0.039   0.765   2.419
 6582SOL    HW220646   0.059   0.658   2.541
 6583SOL     OW20647   4.872   6.560   5.363
 6583SOL    HW120648   4.787   6.598   5.327
 6583SOL    HW220649   4.901   6.613   5.442
 6584SOL     OW20650   3.737   2.453   0.753
 6584SOL    HW120651   3.802   2.412   0.816
 6584SOL    HW220652   3.786   2.508   0.685
 6585SOL     OW20653   0.003   6.624   0.770
 6585SOL    HW120654   6.952   6.691   0.793
 6585SOL    HW220655   0.060   6.659   0.696
 6586SOL     OW20656   6.573   1.977   5.860
 6586SOL    HW120657   6.656   2.026   5.887
 6586SOL    HW220658   6.596   1.883   5.836
 6587SOL     OW20659   1.585   4.533   5.903
 6587SOL    HW120660   1.573   4.476   5.821
 6587SOL    HW220661   1.566   4.629   5.880
 6588SOL     OW20662   0.611   3.069   0.323
 6588SOL    HW120663   0.683   3.133   0.348
 6588SOL    HW220664   0.642   2.975   0.341
 6589SOL     OW20665   5.586   0.681   1.958
 6589SOL    HW120666   5.656   0.686   1.886
 6589SOL    HW220667   5.502   0.723   1.926
 6590SOL     OW20668   0.620   0.222   5.077
 6590SOL    HW120669   0.545   0.160   5.099
 6590SOL    HW220670   0.707   0.173   5.082
 6591SOL     OW20671   5.185   5.604   4.113
 6591SOL    HW120672   5.264   5.543   4.108
 6591SOL    HW220673   5.209   5.684   4.169
 6592SOL     OW20674   5.174   0.357   2.973
 6592SOL    HW120675   5.090   0.401   2.939
 6592SOL    HW220676   5.200   0.400   3.060
 6593SOL     OW20677   2.945   2.227   2.337
 6593SOL    HW120678   2.878   2.254   2.406
 6593SOL    HW220679   2.912   2.256   2.246
 6594SOL     OW20680   3.317   1.835   6.033
 6594SOL    HW120681   3.405   1.881   6.043
 6594SOL    HW220682   3.285   1.844   5.938
 6595SOL     OW20683   1.313   3.081   4.818
 6595SOL    HW120684   1.368   3.031   4.752
 6595SOL    HW220685   1.308   3.030   4.904
 6596SOL     OW20686   4.223   5.830   3.067
 6596SOL    HW120687   4.213   5.928   3.047
 6596SOL    HW220688   4.305   5.795   3.022
 6597SOL     OW20689   1.484   5.263   1.793
 6597SOL    HW120690   1.389   5.242   1.770
 6597SOL    HW220691   1.500   5.361   1.780
 6598SOL     OW20692   1.947   4.286   3.294
 6598SOL    HW120693   2.032   4.334   3.315
 6598SOL    HW220694   1.964   4.217   3.224
 6599SOL     OW20695   5.428   5.628   6.679
 6599SOL    HW120696   5.401   5.536   6.650
 6599SOL    HW220697   5.361   5.664   6.744
 6600SOL     OW20698   4.197   0.160   4.795
 6600SOL    HW120699   4.204   0.095   4.719
 6600SOL    HW220700   4.130   0.127   4.861
 6601SOL     OW20701   1.025   2.718   2.806
 6601SOL    HW120702   1.062   2.704   2.898
 6601SOL    HW220703   0.938   2.767   2.812
 6602SOL     OW20704   2.728   0.095   1.342
 6602SOL    HW120705   2.706   0.023   1.407
 6602SOL    HW220706   2.773   0.056   1.262
 6603SOL     OW20707   0.371   2.979   3.842
 6603SOL    HW120708   0.361   3.039   3.763
 6603SOL    HW220709   0.310   2.900   3.832
 6604SOL     OW20710   2.256   0.533   1.633
 6604SOL    HW120711   2.265   0.616   1.687
 6604SOL    HW220712   2.198   0.551   1.553
 6605SOL     OW20713   5.820   5.677   2.110
 6605SOL    HW120714   5.794   5.708   2.019
 6605SOL    HW220715   5.869   5.590   2.103
 6606SOL     OW20716   0.279   3.839   3.320
 6606SOL    HW120717   0.359   3.884   3.358
 6606SOL    HW220718   0.307   3.779   3.245
 6607SOL     OW20719   6.287   4.903   4.148
 6607SOL    HW120720   6.363   4.924   4.087
 6607SOL    HW220721   6.315   4.835   4.216
 6608SOL     OW20722   6.879   0.471   0.636
 6608SOL    HW120723   6.954   0.408   0.618
 6608SOL    HW220724   6.866   0.532   0.557
 6609SOL     OW20725   5.003   1.096   6.216
 6609SOL    HW120726   4.963   1.006   6.233
 6609SOL    HW220727   5.102   1.091   6.225
 6610SOL     OW20728   2.430   5.832   0.295
 6610SOL    HW120729   2.437   5.931   0.312
 6610SOL    HW220730   2.346   5.814   0.244
 6611SOL     OW20731   5.024   2.747   3.928
 6611SOL    HW120732   5.048   2.835   3.970
 6611SOL    HW220733   5.049   2.748   3.832
 6612SOL     OW20734   6.764   2.055   6.034
 6612SOL    HW120735   6.702   2.130   6.057
 6612SOL    HW220736   6.857   2.081   6.057
 6613SOL     OW20737   5.515   6.863   6.216
 6613SOL    HW120738   5.524   6.962   6.204
 6613SOL    HW220739   5.592   6.830   6.271
 6614SOL     OW20740   4.484   6.526   1.146
 6614SOL    HW120741   4.520   6.456   1.084
 6614SOL    HW220742   4.490   6.615   1.103
 6615SOL     OW20743   1.825   5.440   0.640
 6615SOL    HW120744   1.730   5.416   0.618
 6615SOL    HW220745   1.844   5.412   0.734
 6616SOL     OW20746   4.017   6.891   5.820
 6616SOL    HW120747   4.016   6.819   5.889
 6616SOL    HW220748   3.931   6.942   5.824
 6617SOL     OW20749   4.099   6.789   3.668
 6617SOL    HW120750   4.149   6.839   3.598
 6617SOL    HW220751   4.116   6.830   3.757
 6618SOL     OW20752   0.578   1.308   2.804
 6618SOL    HW120753   0.569   1.208   2.807
 6618SOL    HW220754   0.544   1.347   2.890
 6619SOL     OW20755   4.379   6.827   3.850
 6619SOL    HW120756   4.309   6.787   3.909
 6619SOL    HW220757   4.374   6.786   3.759
 6620SOL     OW20758   1.780   3.673   3.705
 6620SOL    HW120759   1.821   3.721   3.628
 6620SOL    HW220760   1.721   3.600   3.672
 6621SOL     OW20761   3.803   3.104   5.214
 6621SOL    HW120762   3.714   3.148   5.214
 6621SOL    HW220763   3.837   3.097   5.120
 6622SOL     OW20764   5.938   5.870   1.299
 6622SOL    HW120765   5.951   5.935   1.373
 6622SOL    HW220766   6.016   5.808   1.294
 6623SOL     OW20767   3.683   4.164   4.839
 6623SOL    HW120768   3.625   4.223   4.895
 6623SOL    HW220769   3.645   4.160   4.746
 6624SOL     OW20770   0.383   3.127   5.367
 6624SOL    HW120771   0.418   3.036   5.387
 6624SOL    HW220772   0.397   3.187   5.446
 6625SOL     OW20773   6.022   2.679   5.514
 6625SOL    HW120774   5.922   2.680   5.507
 6625SOL    HW220775   6.060   2.616   5.446
 6626SOL     OW20776   3.515   0.363   5.323
 6626SOL    HW120777   3.582   0.292   5.344
 6626SOL    HW220778   3.455   0.376   5.401
 6627SOL     OW20779   1.578   6.280   4.147
 6627SOL    HW120780   1.482   6.261   4.127
 6627SOL    HW220781   1.634   6.201   4.121
 6628SOL     OW20782   5.398   5.428   4.077
 6628SOL    HW120783   5.468   5.462   4.139
 6628SOL    HW220784   5.363   5.340   4.111
 6629SOL     OW20785   4.722   5.049   6.433
 6629SOL    HW120786   4.785   5.110   6.483
 6629SOL    HW220787   4.765   5.019   6.348
 6630SOL     OW20788   3.821   1.707   1.716
 6630SOL    HW120789   3.822   1.681   1.812
 6630SOL    HW220790   3.913   1.695   1.677
 6631SOL     OW20791   2.041   5.399   5.032
 6631SOL    HW120792   1.997   5.369   5.117
 6631SOL    HW220793   1.976   5.388   4.956
 6632SOL     OW20794   1.345   1.332   0.984
 6632SOL    HW120795   1.340   1.234   0.967
 6632SOL    HW220796   1.254   1.373   0.973
 6633SOL     OW20797   3.284   4.904   5.996
 6633SOL    HW120798   3.264   4.808   5.974
 6633SOL    HW220799   3.290   4.956   5.911
 6634SOL     OW20800   4.827   2.258   5.107
 6634SOL    HW120801   4.832   2.165   5.143
 6634SOL    HW220802   4.919   2.293   5.092
 6635SOL     OW20803   4.822   4.207   2.436
 6635SOL    HW120804   4.922   4.201   2.428
 6635SOL    HW220805   4.780   4.161   2.357
 6636SOL     OW20806   2.979   0.757   2.734
 6636SOL    HW120807   2.991   0.768   2.636
 6636SOL    HW220808   2.888   0.719   2.752
 6637SOL     OW20809   2.530   0.313   0.341
 6637SOL    HW120810   2.585   0.328   0.258
 6637SOL    HW220811   2.504   0.401   0.380
 6638SOL     OW20812   2.877   3.724   3.551
 6638SOL    HW120813   2.870   3.626   3.571
 6638SOL    HW220814   2.872   3.776   3.636
 6639SOL     OW20815   3.759   3.270   6.768
 6639SOL    HW120816   3.668   3.231   6.760
 6639SOL    HW220817   3.778   3.293   6.863
 6640SOL     OW20818   6.646   2.205   5.669
 6640SOL    HW120819   6.594   2.121   5.654
 6640SOL    HW220820   6.602   2.281   5.621
 6641SOL     OW20821   3.355   1.620   0.887
 6641SOL    HW120822   3.298   1.671   0.823
 6641SOL    HW220823   3.451   1.643   0.872
 6642SOL     OW20824   2.226   5.139   6.918
 6642SOL    HW120825   2.213   5.116   7.015
 6642SOL    HW220826   2.191   5.064   6.862
 6643SOL     OW20827   6.315   6.707   0.584
 6643SOL    HW120828   6.258   6.725   0.503
 6643SOL    HW220829   6.260   6.664   0.655
 6644SOL     OW20830   1.776   6.620   3.216
 6644SOL    HW120831   1.703   6.553   3.232
 6644SOL    HW220832   1.736   6.712   3.212
 6645SOL     OW20833   5.996   2.913   0.694
 6645SOL    HW120834   5.923   2.873   0.638
 6645SOL    HW220835   6.063   2.842   0.716
 6646SOL     OW20836   4.220   1.025   5.961
 6646SOL    HW120837   4.195   1.017   6.058
 6646SOL    HW220838   4.276   0.946   5.935
 6647SOL     OW20839   4.234   6.014   1.213
 6647SOL    HW120840   4.283   5.972   1.137
 6647SOL    HW220841   4.137   6.020   1.191
 6648SOL     OW20842   3.832   5.749   4.557
 6648SOL    HW120843   3.763   5.680   4.576
 6648SOL    HW220844   3.891   5.761   4.637
 6649SOL     OW20845   6.105   2.968   6.541
 6649SOL    HW120846   6.066   2.920   6.463
 6649SOL    HW220847   6.178   2.912   6.581
 6650SOL     OW20848   3.875   1.223   4.470
 6650SOL    HW120849   3.918   1.196   4.383
 6650SOL    HW220850   3.908   1.314   4.496
 6651SOL     OW20851   1.741   2.130   0.211
 6651SOL    HW120852   1.736   2.195   0.135
 6651SOL    HW220853   1.671   2.060   0.200
 6652SOL     OW20854   0.998   4.533   0.267
 6652SOL    HW120855   0.963   4.521   0.175
 6652SOL    HW220856   0.951   4.610   0.311
 6653SOL     OW20857   5.000   2.993   0.752
 6653SOL    HW120858   4.942   2.959   0.677
 6653SOL    HW220859   5.096   2.975   0.730
 6654SOL     OW20860   0.163   5.095   2.754
 6654SOL    HW120861   0.097   5.108   2.829
 6654SOL    HW220862   0.154   5.003   2.717
 6655SOL     OW20863   0.091   6.126   2.262
 6655SOL    HW120864   0.081   6.192   2.188
 6655SOL    HW220865   0.050   6.039   2.235
 6656SOL     OW20866   4.534   1.727   2.662
 6656SOL    HW120867   4.512   1.755   2.569
 6656SOL    HW220868   4.613   1.666   2.661
 6657SOL     OW20869   5.681   2.515   4.976
 6657SOL    HW120870   5.650   2.550   4.888
 6657SOL    HW220871   5.780   2.502   4.974
 6658SOL     OW20872   6.756   0.257   5.180
 6658SOL    HW120873   6.746   0.347   5.137
 6658SOL    HW220874   6.844   0.217   5.154
 6659SOL     OW20875   1.126   4.263   1.651
 6659SOL    HW120876   1.125   4.231   1.556
 6659SOL    HW220877   1.076   4.349   1.658
 6660SOL     OW20878   1.917   4.982   2.067
 6660SOL    HW120879   1.823   4.949   2.055
 6660SOL    HW220880   1.936   5.053   1.999
 6661SOL     OW20881   2.614   0.223   4.757
 6661SOL    HW120882   2.517   0.236   4.736
 6661SOL    HW220883   2.624   0.199   4.854
 6662SOL     OW20884   2.287   0.752   1.122
 6662SOL    HW120885   2.349   0.674   1.133
 6662SOL    HW220886   2.251   0.778   1.212
 6663SOL     OW20887   1.025   5.868   5.650
 6663SOL    HW120888   1.122   5.848   5.635
 6663SOL    HW220889   1.014   5.956   5.694
 6664SOL     OW20890   2.179   0.815   1.361
 6664SOL    HW120891   2.149   0.722   1.381
 6664SOL    HW220892   2.219   0.856   1.443
 6665SOL     OW20893   2.182   6.528   5.802
 6665SOL    HW120894   2.231   6.612   5.778
 6665SOL    HW220895   2.120   6.545   5.879
 6666SOL     OW20896   6.556   5.521   4.888
 6666SOL    HW120897   6.574   5.458   4.812
 6666SOL    HW220898   6.490   5.480   4.951
 6667SOL     OW20899   6.921   6.500   6.076
 6667SOL    HW120900   6.903   6.430   6.144
 6667SOL    HW220901   6.930   6.458   5.986
 6668SOL     OW20902   6.833   6.028   0.967
 6668SOL    HW120903   6.840   6.063   0.873
 6668SOL    HW220904   6.745   6.055   1.006
 6669SOL     OW20905   3.710   2.110   1.670
 6669SOL    HW120906   3.692   2.178   1.740
 6669SOL    HW220907   3.677   2.021   1.700
 6670SOL     OW20908   2.923   1.198   6.677
 6670SOL    HW120909   2.931   1.102   6.703
 6670SOL    HW220910   2.880   1.206   6.587
 6671SOL     OW20911   5.230   6.664   0.743
 6671SOL    HW120912   5.190   6.734   0.684
 6671SOL    HW220913   5.180   6.578   0.730
 6672SOL     OW20914   1.454   2.285   0.361
 6672SOL    HW120915   1.493   2.344   0.431
 6672SOL    HW220916   1.456   2.190   0.393
 6673SOL     OW20917   4.913   3.974   3.939
 6673SOL    HW120918   4.995   3.926   3.909
 6673SOL    HW220919   4.916   3.986   4.038
 6674SOL     OW20920   0.135   2.936   6.734
 6674SOL    HW120921   0.201   2.928   6.809
 6674SOL    HW220922   0.048   2.969   6.770
 6675SOL     OW20923   4.593   2.080   6.863
 6675SOL    HW120924   4.500   2.046   6.870
 6675SOL    HW220925   4.594   2.167   6.812
 6676SOL     OW20926   1.176   3.584   2.497
 6676SOL    HW120927   1.147   3.641   2.420
 6676SOL    HW220928   1.227   3.640   2.563
 6677SOL     OW20929   0.589   0.496   6.537
 6677SOL    HW120930   0.536   0.565   6.487
 6677SOL    HW220931   0.686   0.513   6.523
 6678SOL     OW20932   1.901   4.304   0.998
 6678SOL    HW120933   1.927   4.312   0.902
 6678SOL    HW220934   1.932   4.216   1.034
 6679SOL     OW20935   4.016   0.906   3.989
 6679SOL    HW120936   4.103   0.872   4.025
 6679SOL    HW220937   3.951   0.831   3.981
 6680SOL     OW20938   4.407   6.102   6.726
 6680SOL    HW120939   4.467   6.167   6.680
 6680SOL    HW220940   4.312   6.117   6.696
 6681SOL     OW20941   5.011   5.549   1.734
 6681SOL    HW120942   5.005   5.590   1.643
 6681SOL    HW220943   4.970   5.611   1.801
 6682SOL     OW20944   2.449   4.745   6.713
 6682SOL    HW120945   2.543   4.778   6.709
 6682SOL    HW220946   2.414   4.732   6.620
 6683SOL     OW20947   5.737   3.335   6.027
 6683SOL    HW120948   5.828   3.333   6.068
 6683SOL    HW220949   5.711   3.429   6.005
 6684SOL     OW20950   3.842   6.850   2.257
 6684SOL    HW120951   3.755   6.801   2.249
 6684SOL    HW220952   3.878   6.840   2.350
 6685SOL     OW20953   4.869   3.096   6.532
 6685SOL    HW120954   4.824   3.083   6.443
 6685SOL    HW220955   4.823   3.169   6.582
 6686SOL     OW20956   6.359   5.947   3.244
 6686SOL    HW120957   6.314   5.950   3.155
 6686SOL    HW220958   6.344   6.034   3.291
 6687SOL     OW20959   0.611   2.514   1.521
 6687SOL    HW120960   0.690   2.574   1.532
 6687SOL    HW220961   0.639   2.419   1.533
 6688SOL     OW20962   4.015   4.343   0.704
 6688SOL    HW120963   4.039   4.259   0.752
 6688SOL    HW220964   4.065   4.420   0.745
 6689SOL     OW20965   4.142   3.808   5.954
 6689SOL    HW120966   4.193   3.798   6.039
 6689SOL    HW220967   4.045   3.821   5.975
 6690SOL     OW20968   1.334   6.646   6.939
 6690SOL    HW120969   1.333   6.656   0.020
 6690SOL    HW220970   1.312   6.551   6.914
 6691SOL     OW20971   1.425   0.387   2.791
 6691SOL    HW120972   1.518   0.370   2.760
 6691SOL    HW220973   1.367   0.310   2.764
 6692SOL     OW20974   4.207   3.906   1.753
 6692SOL    HW120975   4.229   3.822   1.803
 6692SOL    HW220976   4.111   3.928   1.766
 6693SOL     OW20977   4.685   1.767   4.910
 6693SOL    HW120978   4.733   1.853   4.928
 6693SOL    HW220979   4.745   1.704   4.860
 6694SOL     OW20980   4.147   5.562   1.330
 6694SOL    HW120981   4.063   5.568   1.385
 6694SOL    HW220982   4.142   5.482   1.271
 6695SOL     OW20983   2.726   1.895   0.053
 6695SOL    HW120984   2.644   1.889   0.109
 6695SOL    HW220985   2.729   1.817   7.008
 6696SOL     OW20986   4.072   3.795   3.381
 6696SOL    HW120987   4.012   3.715   3.376
 6696SOL    HW220988   4.070   3.843   3.294
 6697SOL     OW20989   4.899   2.369   2.890
 6697SOL    HW120990   4.893   2.283   2.838
 6697SOL    HW220991   4.946   2.438   2.834
 6698SOL     OW20992   2.961   3.579   1.355
 6698SOL    HW120993   2.882   3.614   1.405
 6698SOL    HW220994   3.036   3.561   1.418
 6699SOL     OW20995   2.362   6.428   5.416
 6699SOL    HW120996   2.275   6.384   5.437
 6699SOL    HW220997   2.388   6.407   5.322
 6700SOL     OW20998   5.882   0.405   1.101
 6700SOL    HW120999   5.853   0.427   1.007
 6700SOL    HW221000   5.946   0.329   1.099
 6701SOL     OW21001   5.580   6.597   2.384
 6701SOL    HW121002   5.676   6.617   2.407
 6701SOL    HW221003   5.564   6.498   2.394
 6702SOL     OW21004   2.112   2.412   1.755
 6702SOL    HW121005   2.105   2.386   1.851
 6702SOL    HW221006   2.187   2.477   1.743
 6703SOL     OW21007   1.195   1.191   6.930
 6703SOL    HW121008   1.172   1.247   6.851
 6703SOL    HW221009   1.110   1.160   6.974
 6704SOL     OW21010   3.984   1.523   4.548
 6704SOL    HW121011   4.040   1.576   4.484
 6704SOL    HW221012   4.042   1.456   4.595
 6705SOL     OW21013   6.166   2.654   0.863
 6705SOL    HW121014   6.237   2.698   0.808
 6705SOL    HW221015   6.148   2.711   0.944
 6706SOL     OW21016   1.419   6.360   0.465
 6706SOL    HW121017   1.459   6.451   0.453
 6706SOL    HW221018   1.483   6.291   0.435
 6707SOL     OW21019   5.254   0.062   3.283
 6707SOL    HW121020   5.180   0.101   3.337
 6707SOL    HW221021   5.287   6.997   3.327
 6708SOL     OW21022   5.780   5.285   1.369
 6708SOL    HW121023   5.841   5.229   1.425
 6708SOL    HW221024   5.835   5.346   1.312
 6709SOL     OW21025   0.274   4.864   2.687
 6709SOL    HW121026   0.368   4.895   2.703
 6709SOL    HW221027   0.272   4.804   2.607
 6710SOL     OW21028   4.539   1.417   1.306
 6710SOL    HW121029   4.477   1.340   1.292
 6710SOL    HW221030   4.525   1.485   1.234
 6711SOL     OW21031   4.527   6.860   5.636
 6711SOL    HW121032   4.456   6.912   5.589
 6711SOL    HW221033   4.515   6.762   5.617
 6712SOL     OW21034   6.169   3.360   1.248
 6712SOL    HW121035   6.234   3.327   1.180
 6712SOL    HW221036   6.213   3.362   1.338
 6713SOL     OW21037   0.994   1.449   3.215
 6713SOL    HW121038   0.993   1.380   3.143
 6713SOL    HW221039   1.087   1.458   3.251
 6714SOL     OW21040   5.698   0.883   0.782
 6714SOL    HW121041   5.777   0.903   0.724
 6714SOL    HW221042   5.625   0.843   0.726
 6715SOL     OW21043   1.544   1.013   1.410
 6715SOL    HW121044   1.494   1.067   1.478
 6715SOL    HW221045   1.642   1.030   1.420
 6716SOL     OW21046   6.697   5.909   2.706
 6716SOL    HW121047   6.765   5.918   2.779
 6716SOL    HW221048   6.629   5.840   2.732
 6717SOL     OW21049   2.823   2.133   6.248
 6717SOL    HW121050   2.794   2.216   6.296
 6717SOL    HW221051   2.923   2.133   6.240
 6718SOL     OW21052   3.725   1.198   1.046
 6718SOL    HW121053   3.764   1.203   0.954
 6718SOL    HW221054   3.702   1.103   1.067
 6719SOL     OW21055   2.138   6.712   0.221
 6719SOL    HW121056   2.043   6.721   0.251
 6719SOL    HW221057   2.187   6.652   0.283
 6720SOL     OW21058   2.794   1.373   5.186
 6720SOL    HW121059   2.754   1.298   5.240
 6720SOL    HW221060   2.893   1.362   5.182
 6721SOL     OW21061   6.662   6.981   0.534
 6721SOL    HW121062   6.617   7.015   0.452
 6721SOL    HW221063   6.652   6.882   0.539
 6722SOL     OW21064   0.354   2.158   0.355
 6722SOL    HW121065   0.275   2.146   0.415
 6722SOL    HW221066   0.372   2.256   0.341
 6723SOL     OW21067   1.616   0.146   6.323
 6723SOL    HW121068   1.651   0.227   6.277
 6723SOL    HW221069   1.534   0.114   6.274
 6724SOL     OW21070   2.354   2.321   6.099
 6724SOL    HW121071   2.438   2.273   6.071
 6724SOL    HW221072   2.376   2.415   6.126
 6725SOL     OW21073   6.584   2.954   2.394
 6725SOL    HW121074   6.575   2.855   2.384
 6725SOL    HW221075   6.496   2.998   2.374
 6726SOL     OW21076   0.459   1.710   4.495
 6726SOL    HW121077   0.449   1.694   4.397
 6726SOL    HW221078   0.394   1.779   4.525
 6727SOL     OW21079   0.688   4.283   5.772
 6727SOL    HW121080   0.771   4.278   5.828
 6727SOL    HW221081   0.681   4.200   5.717
 6728SOL     OW21082   3.408   1.213   3.475
 6728SOL    HW121083   3.351   1.246   3.550
 6728SOL    HW221084   3.352   1.161   3.410
 6729SOL     OW21085   6.623   1.768   0.089
 6729SOL    HW121086   6.550   1.699   0.099
 6729SOL    HW221087   6.700   1.742   0.147
 6730SOL     OW21088   1.596   0.529   1.225
 6730SOL    HW121089   1.590   0.628   1.213
 6730SOL    HW221090   1.603   0.485   1.135
 6731SOL     OW21091   1.605   6.819   1.357
 6731SOL    HW121092   1.583   6.909   1.321
 6731SOL    HW221093   1.655   6.828   1.443
 6732SOL     OW21094   5.137   4.263   4.132
 6732SOL    HW121095   5.041   4.261   4.160
 6732SOL    HW221096   5.143   4.235   4.036
 6733SOL     OW21097   3.941   5.300   6.269
 6733SOL    HW121098   3.960   5.251   6.354
 6733SOL    HW221099   4.022   5.352   6.241
 6734SOL     OW21100   5.283   2.292   6.285
 6734SOL    HW121101   5.245   2.383   6.269
 6734SOL    HW221102   5.210   2.228   6.308
 6735SOL     OW21103   5.321   3.542   4.189
 6735SOL    HW121104   5.282   3.456   4.222
 6735SOL    HW221105   5.306   3.549   4.090
 6736SOL     OW21106   3.147   3.516   6.598
 6736SOL    HW121107   3.216   3.538   6.529
 6736SOL    HW221108   3.056   3.521   6.558
 6737SOL     OW21109   1.395   3.113   1.219
 6737SOL    HW121110   1.464   3.163   1.271
 6737SOL    HW221111   1.308   3.116   1.267
 6738SOL     OW21112   1.490   5.824   4.083
 6738SOL    HW121113   1.458   5.895   4.021
 6738SOL    HW221114   1.522   5.746   4.030
 6739SOL     OW21115   6.598   5.782   3.699
 6739SOL    HW121116   6.664   5.856   3.690
 6739SOL    HW221117   6.511   5.820   3.733
 6740SOL     OW21118   6.532   6.911   4.879
 6740SOL    HW121119   6.485   6.845   4.937
 6740SOL    HW221120   6.469   6.982   4.850
 6741SOL     OW21121   3.835   2.152   6.255
 6741SOL    HW121122   3.801   2.129   6.346
 6741SOL    HW221123   3.823   2.074   6.194
 6742SOL     OW21124   5.849   5.344   3.894
 6742SOL    HW121125   5.789   5.264   3.900
 6742SOL    HW221126   5.936   5.323   3.938
 6743SOL     OW21127   3.489   3.874   6.339
 6743SOL    HW121128   3.460   3.890   6.245
 6743SOL    HW221129   3.570   3.928   6.359
 6744SOL     OW21130   0.347   6.574   6.055
 6744SOL    HW121131   0.281   6.636   6.098
 6744SOL    HW221132   0.382   6.615   5.971
 6745SOL     OW21133   6.789   6.393   3.305
 6745SOL    HW121134   6.865   6.417   3.366
 6745SOL    HW221135   6.723   6.336   3.354
 6746SOL     OW21136   1.767   0.793   3.115
 6746SOL    HW121137   1.689   0.801   3.177
 6746SOL    HW221138   1.734   0.784   3.021
 6747SOL     OW21139   6.346   0.112   6.891
 6747SOL    HW121140   6.339   0.200   6.938
 6747SOL    HW221141   6.257   0.088   6.851
 6748SOL     OW21142   2.888   1.931   3.444
 6748SOL    HW121143   2.948   1.867   3.397
 6748SOL    HW221144   2.942   1.996   3.497
 6749SOL     OW21145   3.664   4.427   0.760
 6749SOL    HW121146   3.675   4.328   0.758
 6749SOL    HW221147   3.707   4.464   0.842
 6750SOL     OW21148   3.355   1.901   4.373
 6750SOL    HW121149   3.395   1.892   4.281
 6750SOL    HW221150   3.289   1.975   4.374
 6751SOL     OW21151   4.878   0.575   3.214
 6751SOL    HW121152   4.921   0.638   3.279
 6751SOL    HW221153   4.785   0.607   3.194
 6752SOL     OW21154   2.075   0.137   3.517
 6752SOL    HW121155   2.124   0.206   3.463
 6752SOL    HW221156   2.139   0.091   3.579
 6753SOL     OW21157   3.438   2.191   5.587
 6753SOL    HW121158   3.425   2.213   5.684
 6753SOL    HW221159   3.533   2.211   5.561
 6754SOL     OW21160   6.530   1.302   0.945
 6754SOL    HW121161   6.436   1.338   0.941
 6754SOL    HW221162   6.555   1.283   1.040
 6755SOL     OW21163   3.808   4.068   1.027
 6755SOL    HW121164   3.851   4.127   1.095
 6755SOL    HW221165   3.750   4.000   1.074
 6756SOL     OW21166   3.655   0.612   5.516
 6756SOL    HW121167   3.743   0.572   5.540
 6756SOL    HW221168   3.660   0.652   5.425
 6757SOL     OW21169   3.706   2.117   1.147
 6757SOL    HW121170   3.620   2.161   1.121
 6757SOL    HW221171   3.715   2.119   1.247
 6758SOL     OW21172   5.970   3.138   1.738
 6758SOL    HW121173   6.050   3.091   1.776
 6758SOL    HW221174   5.898   3.143   1.807
 6759SOL     OW21175   7.014   3.115   2.869
 6759SOL    HW121176   6.978   3.088   2.780
 6759SOL    HW221177   0.069   3.183   2.857
 6760SOL     OW21178   6.268   3.953   2.279
 6760SOL    HW121179   6.221   3.866   2.268
 6760SOL    HW221180   6.321   3.953   2.364
 6761SOL     OW21181   5.971   3.008   4.513
 6761SOL    HW121182   5.897   2.947   4.542
 6761SOL    HW221183   5.978   3.084   4.578
 6762SOL     OW21184   0.627   4.769   4.559
 6762SOL    HW121185   0.715   4.741   4.598
 6762SOL    HW221186   0.596   4.698   4.494
 6763SOL     OW21187   5.177   5.351   4.797
 6763SOL    HW121188   5.208   5.444   4.816
 6763SOL    HW221189   5.227   5.287   4.855
 6764SOL     OW21190   2.149   5.336   2.144
 6764SOL    HW121191   2.094   5.359   2.064
 6764SOL    HW221192   2.149   5.237   2.158
 6765SOL     OW21193   5.998   4.490   2.737
 6765SOL    HW121194   5.938   4.431   2.790
 6765SOL    HW221195   5.952   4.576   2.717
 6766SOL     OW21196   4.827   6.776   5.571
 6766SOL    HW121197   4.730   6.757   5.553
 6766SOL    HW221198   4.837   6.869   5.605
 6767SOL     OW21199   3.451   0.073   1.078
 6767SOL    HW121200   3.510   0.137   1.127
 6767SOL    HW221201   3.408   0.120   1.000
 6768SOL     OW21202   2.016   0.196   5.594
 6768SOL    HW121203   2.042   0.198   5.690
 6768SOL    HW221204   2.079   0.137   5.544
 6769SOL     OW21205   3.172   1.449   0.462
 6769SOL    HW121206   3.182   1.499   0.548
 6769SOL    HW221207   3.078   1.416   0.453
 6770SOL     OW21208   0.002   1.423   1.971
 6770SOL    HW121209   0.088   1.373   1.959
 6770SOL    HW221210   0.022   1.521   1.976
 6771SOL     OW21211   4.888   2.463   3.312
 6771SOL    HW121212   4.818   2.514   3.362
 6771SOL    HW221213   4.844   2.398   3.251
 6772SOL     OW21214   3.260   1.092   3.260
 6772SOL    HW121215   3.208   1.040   3.328
 6772SOL    HW221216   3.224   1.072   3.168
 6773SOL     OW21217   0.312   5.108   1.844
 6773SOL    HW121218   0.234   5.156   1.883
 6773SOL    HW221219   0.281   5.023   1.801
 6774SOL     OW21220   0.173   2.221   5.509
 6774SOL    HW121221   0.273   2.210   5.510
 6774SOL    HW221222   0.131   2.133   5.486
 6775SOL     OW21223   2.635   2.974   1.615
 6775SOL    HW121224   2.722   2.939   1.652
 6775SOL    HW221225   2.654   3.047   1.550
 6776SOL     OW21226   4.237   4.549   0.133
 6776SOL    HW121227   4.185   4.495   0.198
 6776SOL    HW221228   4.335   4.544   0.155
 6777SOL     OW21229   4.186   4.141   6.937
 6777SOL    HW121230   4.216   4.140   6.841
 6777SOL    HW221231   4.255   4.184   6.994
 6778SOL     OW21232   5.972   4.611   2.272
 6778SOL    HW121233   5.971   4.542   2.200
 6778SOL    HW221234   5.990   4.567   2.360
 6779SOL     OW21235   0.139   5.045   6.314
 6779SOL    HW121236   0.081   5.016   6.238
 6779SOL    HW221237   0.126   5.143   6.330
 6780SOL     OW21238   1.360   2.378   1.836
 6780SOL    HW121239   1.330   2.472   1.851
 6780SOL    HW221240   1.321   2.318   1.906
 6781SOL     OW21241   6.211   0.249   4.876
 6781SOL    HW121242   6.268   0.177   4.837
 6781SOL    HW221243   6.266   0.330   4.895
 6782SOL     OW21244   6.771   0.198   3.622
 6782SOL    HW121245   6.683   0.151   3.619
 6782SOL    HW221246   6.792   0.235   3.531
 6783SOL     OW21247   6.213   0.936   6.085
 6783SOL    HW121248   6.205   1.019   6.029
 6783SOL    HW221249   6.167   0.951   6.172
 6784SOL     OW21250   2.712   3.542   0.492
 6784SOL    HW121251   2.777   3.603   0.539
 6784SOL    HW221252   2.757   3.455   0.472
 6785SOL     OW21253   5.491   4.716   3.094
 6785SOL    HW121254   5.556   4.724   3.170
 6785SOL    HW221255   5.398   4.713   3.130
 6786SOL     OW21256   1.051   2.264   0.290
 6786SOL    HW121257   1.149   2.279   0.276
 6786SOL    HW221258   1.037   2.196   0.361
 6787SOL     OW21259   1.407   2.686   1.243
 6787SOL    HW121260   1.366   2.734   1.321
 6787SOL    HW221261   1.482   2.741   1.206
 6788SOL     OW21262   2.560   3.486   1.186
 6788SOL    HW121263   2.637   3.446   1.237
 6788SOL    HW221264   2.535   3.425   1.111
 6789SOL     OW21265   6.540   6.263   2.929
 6789SOL    HW121266   6.442   6.283   2.920
 6789SOL    HW221267   6.582   6.329   2.991
 6790SOL     OW21268   1.085   3.879   1.174
 6790SOL    HW121269   1.069   3.977   1.174
 6790SOL    HW221270   1.018   3.834   1.232
 6791SOL     OW21271   4.368   2.651   1.664
 6791SOL    HW121272   4.330   2.610   1.747
 6791SOL    HW221273   4.373   2.750   1.674
 6792SOL     OW21274   6.432   5.922   5.457
 6792SOL    HW121275   6.396   5.857   5.389
 6792SOL    HW221276   6.469   5.871   5.534
 6793SOL     OW21277   1.044   1.597   0.362
 6793SOL    HW121278   1.011   1.680   0.317
 6793SOL    HW221279   0.969   1.555   0.414
 6794SOL     OW21280   5.199   1.651   6.124
 6794SOL    HW121281   5.129   1.709   6.164
 6794SOL    HW221282   5.172   1.623   6.032
 6795SOL     OW21283   2.508   6.652   1.126
 6795SOL    HW121284   2.459   6.602   1.198
 6795SOL    HW221285   2.607   6.645   1.143
 6796SOL     OW21286   6.515   0.989   2.255
 6796SOL    HW121287   6.425   0.951   2.234
 6796SOL    HW221288   6.555   1.029   2.172
 6797SOL     OW21289   5.427   3.412   1.739
 6797SOL    HW121290   5.399   3.323   1.702
 6797SOL    HW221291   5.465   3.399   1.831
 6798SOL     OW21292   5.093   6.612   2.587
 6798SOL    HW121293   5.172   6.665   2.556
 6798SOL    HW221294   5.116   6.565   2.673
 6799SOL     OW21295   6.533   6.364   0.813
 6799SOL    HW121296   6.507   6.271   0.842
 6799SOL    HW221297   6.594   6.403   0.881
 6800SOL     OW21298   2.193   4.006   0.861
 6800SOL    HW121299   2.234   4.083   0.812
 6800SOL    HW221300   2.265   3.951   0.903
 6801SOL     OW21301   0.734   0.435   2.766
 6801SOL    HW121302   0.731   0.508   2.833
 6801SOL    HW221303   0.704   0.470   2.677
 6802SOL     OW21304   3.357   5.998   1.025
 6802SOL    HW121305   3.448   5.971   0.992
 6802SOL    HW221306   3.358   6.094   1.053
 6803SOL     OW21307   5.146   2.752   6.057
 6803SOL    HW121308   5.109   2.843   6.041
 6803SOL    HW221309   5.160   2.705   5.969
 6804SOL     OW21310   3.064   5.058   3.810
 6804SOL    HW121311   3.136   4.988   3.804
 6804SOL    HW221312   2.981   5.016   3.846
 6805SOL     OW21313   6.140   5.343   6.037
 6805SOL    HW121314   6.121   5.245   6.028
 6805SOL    HW221315   6.104   5.376   6.124
 6806SOL     OW21316   6.180   0.683   3.363
 6806SOL    HW121317   6.174   0.609   3.430
 6806SOL    HW221318   6.089   0.706   3.330
 6807SOL     OW21319   3.464   2.762   0.525
 6807SOL    HW121320   3.464   2.685   0.462
 6807SOL    HW221321   3.408   2.836   0.489
 6808SOL     OW21322   0.195   1.876   5.187
 6808SOL    HW121323   0.227   1.795   5.136
 6808SOL    HW221324   0.274   1.922   5.227
 6809SOL     OW21325   1.400   2.999   1.536
 6809SOL    HW121326   1.372   2.960   1.624
 6809SOL    HW221327   1.430   2.926   1.475
 6810SOL     OW21328   2.149   0.203   1.947
 6810SOL    HW121329   2.121   0.290   1.906
 6810SOL    HW221330   2.168   0.137   1.874
 6811SOL     OW21331   4.844   4.114   0.698
 6811SOL    HW121332   4.881   4.204   0.678
 6811SOL    HW221333   4.845   4.057   0.616
 6812SOL     OW21334   2.993   3.360   3.309
 6812SOL    HW121335   3.020   3.441   3.362
 6812SOL    HW221336   3.044   3.281   3.341
 6813SOL     OW21337   4.660   2.181   2.378
 6813SOL    HW121338   4.744   2.177   2.325
 6813SOL    HW221339   4.597   2.246   2.335
 6814SOL     OW21340   3.551   1.734   0.195
 6814SOL    HW121341   3.499   1.694   0.270
 6814SOL    HW221342   3.540   1.834   0.197
 6815SOL     OW21343   2.806   0.201   1.588
 6815SOL    HW121344   2.812   0.167   1.494
 6815SOL    HW221345   2.896   0.196   1.631
 6816SOL     OW21346   0.278   6.885   6.493
 6816SOL    HW121347   0.279   6.862   6.591
 6816SOL    HW221348   0.184   6.908   6.465
 6817SOL     OW21349   1.086   2.168   4.143
 6817SOL    HW121350   1.178   2.130   4.151
 6817SOL    HW221351   1.041   2.130   4.063
 6818SOL     OW21352   2.980   4.984   1.614
 6818SOL    HW121353   2.975   5.049   1.689
 6818SOL    HW221354   3.006   4.894   1.650
 6819SOL     OW21355   5.075   0.928   4.331
 6819SOL    HW121356   5.036   1.019   4.315
 6819SOL    HW221357   5.020   0.860   4.283
 6820SOL     OW21358   1.677   5.617   3.054
 6820SOL    HW121359   1.740   5.688   3.085
 6820SOL    HW221360   1.618   5.589   3.130
 6821SOL     OW21361   2.957   0.968   5.017
 6821SOL    HW121362   2.989   0.919   5.099
 6821SOL    HW221363   3.034   1.016   4.976
 6822SOL     OW21364   5.713   2.390   6.135
 6822SOL    HW121365   5.728   2.304   6.186
 6822SOL    HW221366   5.627   2.431   6.163
 6823SOL     OW21367   3.447   3.235   4.316
 6823SOL    HW121368   3.450   3.152   4.372
 6823SOL    HW221369   3.461   3.314   4.375
 6824SOL     OW21370   1.179   2.529   6.223
 6824SOL    HW121371   1.176   2.502   6.319
 6824SOL    HW221372   1.128   2.463   6.168
 6825SOL     OW21373   4.964   6.447   2.395
 6825SOL    HW121374   5.020   6.507   2.451
 6825SOL    HW221375   4.899   6.397   2.453
 6826SOL     OW21376   2.273   4.094   2.417
 6826SOL    HW121377   2.338   4.049   2.355
 6826SOL    HW221378   2.183   4.050   2.408
 6827SOL     OW21379   4.709   5.544   6.701
 6827SOL    HW121380   4.803   5.512   6.710
 6827SOL    HW221381   4.693   5.619   6.765
 6828SOL     OW21382   2.704   2.081   1.718
 6828SOL    HW121383   2.679   1.991   1.756
 6828SOL    HW221384   2.786   2.114   1.765
 6829SOL     OW21385   4.691   6.306   4.305
 6829SOL    HW121386   4.630   6.366   4.357
 6829SOL    HW221387   4.650   6.285   4.217
 6830SOL     OW21388   4.986   1.385   4.121
 6830SOL    HW121389   5.022   1.472   4.155
 6830SOL    HW221390   5.002   1.379   4.022
 6831SOL     OW21391   0.918   0.381   6.708
 6831SOL    HW121392   0.910   0.452   6.638
 6831SOL    HW221393   0.828   0.368   6.750
 6832SOL     OW21394   2.409   3.848   0.926
 6832SOL    HW121395   2.463   3.820   1.005
 6832SOL    HW221396   2.453   3.815   0.843
 6833SOL     OW21397   4.219   4.183   6.321
 6833SOL    HW121398   4.254   4.252   6.259
 6833SOL    HW221399   4.138   4.218   6.368
 6834SOL     OW21400   5.518   6.883   1.147
 6834SOL    HW121401   5.595   6.822   1.128
 6834SOL    HW221402   5.446   6.868   1.079
 6835SOL     OW21403   3.547   0.576   4.833
 6835SOL    HW121404   3.610   0.591   4.908
 6835SOL    HW221405   3.564   0.642   4.760
 6836SOL     OW21406   2.846   5.533   0.464
 6836SOL    HW121407   2.776   5.600   0.439
 6836SOL    HW221408   2.861   5.536   0.563
 6837SOL     OW21409   1.576   1.802   2.331
 6837SOL    HW121410   1.561   1.722   2.274
 6837SOL    HW221411   1.674   1.809   2.353
 6838SOL     OW21412   2.651   6.453   0.763
 6838SOL    HW121413   2.581   6.410   0.819
 6838SOL    HW221414   2.663   6.402   0.678
 6839SOL     OW21415   5.176   0.651   6.826
 6839SOL    HW121416   5.186   0.559   6.866
 6839SOL    HW221417   5.100   0.652   6.762
 6840SOL     OW21418   2.743   1.266   4.901
 6840SOL    HW121419   2.780   1.330   4.969
 6840SOL    HW221420   2.814   1.201   4.874
 6841SOL     OW21421   4.826   4.030   6.292
 6841SOL    HW121422   4.811   4.125   6.264
 6841SOL    HW221423   4.924   4.012   6.297
 6842SOL     OW21424   3.054   4.310   1.369
 6842SOL    HW121425   2.987   4.239   1.388
 6842SOL    HW221426   3.103   4.334   1.452
 6843SOL     OW21427   5.584   6.257   0.672
 6843SOL    HW121428   5.666   6.255   0.730
 6843SOL    HW221429   5.512   6.307   0.719
 6844SOL     OW21430   5.826   0.913   4.735
 6844SOL    HW121431   5.740   0.889   4.690
 6844SOL    HW221432   5.808   0.938   4.831
 6845SOL     OW21433   6.566   3.739   3.079
 6845SOL    HW121434   6.540   3.667   3.143
 6845SOL    HW221435   6.485   3.772   3.031
 6846SOL     OW21436   3.739   3.532   0.239
 6846SOL    HW121437   3.819   3.586   0.264
 6846SOL    HW221438   3.711   3.476   0.317
 6847SOL     OW21439   6.851   3.799   5.313
 6847SOL    HW121440   6.850   3.740   5.232
 6847SOL    HW221441   6.939   3.791   5.359
 6848SOL     OW21442   5.217   4.639   3.212
 6848SOL    HW121443   5.224   4.539   3.220
 6848SOL    HW221444   5.161   4.675   3.286
 6849SOL     OW21445   4.385   4.182   5.728
 6849SOL    HW121446   4.288   4.159   5.724
 6849SOL    HW221447   4.438   4.111   5.681
 6850SOL     OW21448   5.148   3.114   2.816
 6850SOL    HW121449   5.236   3.157   2.839
 6850SOL    HW221450   5.140   3.027   2.864
 6851SOL     OW21451   0.503   2.286   2.720
 6851SOL    HW121452   0.559   2.288   2.802
 6851SOL    HW221453   0.415   2.331   2.738
 6852SOL     OW21454   2.844   4.638   1.027
 6852SOL    HW121455   2.795   4.556   1.056
 6852SOL    HW221456   2.831   4.710   1.095
 6853SOL     OW21457   5.364   4.179   6.477
 6853SOL    HW121458   5.440   4.233   6.512
 6853SOL    HW221459   5.284   4.237   6.466
 6854SOL     OW21460   5.555   0.165   5.863
 6854SOL    HW121461   5.466   0.193   5.897
 6854SOL    HW221462   5.547   0.079   5.812
 6855SOL     OW21463   4.410   5.338   3.242
 6855SOL    HW121464   4.399   5.363   3.339
 6855SOL    HW221465   4.389   5.418   3.185
 6856SOL     OW21466   0.492   2.525   4.688
 6856SOL    HW121467   0.536   2.593   4.745
 6856SOL    HW221468   0.558   2.454   4.663
 6857SOL     OW21469   1.305   3.262   6.288
 6857SOL    HW121470   1.211   3.277   6.319
 6857SOL    HW221471   1.358   3.221   6.363
 6858SOL     OW21472   3.941   3.951   1.737
 6858SOL    HW121473   3.926   3.978   1.641
 6858SOL    HW221474   3.872   3.995   1.794
 6859SOL     OW21475   0.833   0.836   1.206
 6859SOL    HW121476   0.817   0.926   1.167
 6859SOL    HW221477   0.833   0.767   1.134
 6860SOL     OW21478   6.885   4.507   1.168
 6860SOL    HW121479   6.793   4.528   1.133
 6860SOL    HW221480   6.950   4.506   1.092
 6861SOL     OW21481   5.193   3.906   6.508
 6861SOL    HW121482   5.258   3.981   6.518
 6861SOL    HW221483   5.111   3.939   6.463
 6862SOL     OW21484   6.961   5.658   5.839
 6862SOL    HW121485   6.941   5.561   5.825
 6862SOL    HW221486   6.932   5.686   5.930
 6863SOL     OW21487   6.743   6.315   5.734
 6863SOL    HW121488   6.666   6.259   5.762
 6863SOL    HW221489   6.726   6.353   5.643
 6864SOL     OW21490   1.872   4.729   5.129
 6864SOL    HW121491   1.812   4.782   5.188
 6864SOL    HW221492   1.905   4.786   5.054
 6865SOL     OW21493   0.840   0.042   5.057
 6865SOL    HW121494   0.829   6.968   5.021
 6865SOL    HW221495   0.852   0.037   5.156
 6866SOL     OW21496   5.405   4.530   2.906
 6866SOL    HW121497   5.393   4.447   2.960
 6866SOL    HW221498   5.417   4.608   2.967
 6867SOL     OW21499   2.162   3.212   1.845
 6867SOL    HW121500   2.225   3.289   1.858
 6867SOL    HW221501   2.072   3.238   1.880
 6868SOL     OW21502   2.177   6.695   5.250
 6868SOL    HW121503   2.184   6.770   5.184
 6868SOL    HW221504   2.249   6.628   5.233
 6869SOL     OW21505   5.165   1.137   5.888
 6869SOL    HW121506   5.157   1.213   5.953
 6869SOL    HW221507   5.127   1.165   5.800
 6870SOL     OW21508   0.336   4.418   1.196
 6870SOL    HW121509   0.315   4.357   1.119
 6870SOL    HW221510   0.428   4.454   1.186
 6871SOL     OW21511   6.323   4.169   2.658
 6871SOL    HW121512   6.240   4.207   2.618
 6871SOL    HW221513   6.384   4.243   2.685
 6872SOL     OW21514   0.460   3.005   1.650
 6872SOL    HW121515   0.548   2.957   1.657
 6872SOL    HW221516   0.408   2.967   1.574
 6873SOL     OW21517   1.056   3.867   3.864
 6873SOL    HW121518   0.975   3.819   3.897
 6873SOL    HW221519   1.037   3.906   3.773
 6874SOL     OW21520   6.324   5.252   3.940
 6874SOL    HW121521   6.328   5.270   4.038
 6874SOL    HW221522   6.305   5.338   3.891
 6875SOL     OW21523   2.419   1.614   2.084
 6875SOL    HW121524   2.478   1.693   2.099
 6875SOL    HW221525   2.403   1.602   1.986
 6876SOL     OW21526   3.397   6.990   3.686
 6876SOL    HW121527   3.487   0.013   3.678
 6876SOL    HW221528   3.406   6.892   3.706
 6877SOL     OW21529   3.465   4.092   1.642
 6877SOL    HW121530   3.475   4.158   1.716
 6877SOL    HW221531   3.369   4.081   1.619
 6878SOL     OW21532   2.640   1.938   3.538
 6878SOL    HW121533   2.577   1.907   3.466
 6878SOL    HW221534   2.734   1.922   3.508
 6879SOL     OW21535   2.125   2.325   0.045
 6879SOL    HW121536   2.065   2.342   6.985
 6879SOL    HW221537   2.218   2.352   0.021
 6880SOL     OW21538   0.983   6.135   5.821
 6880SOL    HW121539   0.905   6.197   5.822
 6880SOL    HW221540   1.045   6.160   5.746
 6881SOL     OW21541   1.626   3.199   1.332
 6881SOL    HW121542   1.635   3.155   1.421
 6881SOL    HW221543   1.698   3.268   1.322
 6882SOL     OW21544   2.853   0.744   0.397
 6882SOL    HW121545   2.831   0.647   0.384
 6882SOL    HW221546   2.894   0.757   0.487
 6883SOL     OW21547   5.340   1.367   6.760
 6883SOL    HW121548   5.271   1.313   6.808
 6883SOL    HW221549   5.419   1.381   6.820
 6884SOL     OW21550   0.814   4.106   2.898
 6884SOL    HW121551   0.860   4.019   2.916
 6884SOL    HW221552   0.880   4.181   2.909
 6885SOL     OW21553   4.645   5.326   3.603
 6885SOL    HW121554   4.617   5.311   3.698
 6885SOL    HW221555   4.698   5.248   3.571
 6886SOL     OW21556   0.022   1.456   4.678
 6886SOL    HW121557   0.106   1.404   4.694
 6886SOL    HW221558   0.042   1.535   4.620
 6887SOL     OW21559   4.757   5.779   6.851
 6887SOL    HW121560   4.684   5.798   6.917
 6887SOL    HW221561   4.726   5.803   6.759
 6888SOL     OW21562   5.747   4.835   6.501
 6888SOL    HW121563   5.797   4.907   6.452
 6888SOL    HW221564   5.724   4.867   6.593
 6889SOL     OW21565   1.534   2.892   5.807
 6889SOL    HW121566   1.482   2.904   5.891
 6889SOL    HW221567   1.558   2.796   5.796
 6890SOL     OW21568   3.812   5.862   2.388
 6890SOL    HW121569   3.832   5.953   2.424
 6890SOL    HW221570   3.731   5.824   2.433
 6891SOL     OW21571   2.146   3.355   1.306
 6891SOL    HW121572   2.100   3.405   1.380
 6891SOL    HW221573   2.225   3.306   1.344
 6892SOL     OW21574   3.437   1.560   4.004
 6892SOL    HW121575   3.382   1.623   3.950
 6892SOL    HW221576   3.456   1.600   4.094
 6893SOL     OW21577   5.308   3.778   0.203
 6893SOL    HW121578   5.321   3.704   0.137
 6893SOL    HW221579   5.270   3.858   0.157
 6894SOL     OW21580   6.193   5.275   1.209
 6894SOL    HW121581   6.194   5.187   1.256
 6894SOL    HW221582   6.273   5.283   1.150
 6895SOL     OW21583   2.122   5.271   1.414
 6895SOL    HW121584   2.134   5.344   1.481
 6895SOL    HW221585   2.055   5.299   1.345
 6896SOL     OW21586   2.573   2.210   3.548
 6896SOL    HW121587   2.505   2.236   3.479
 6896SOL    HW221588   2.591   2.112   3.543
 6897SOL     OW21589   5.060   3.545   5.094
 6897SOL    HW121590   4.962   3.531   5.088
 6897SOL    HW221591   5.097   3.559   5.002
 6898SOL     OW21592   3.598   1.252   1.607
 6898SOL    HW121593   3.603   1.169   1.550
 6898SOL    HW221594   3.543   1.321   1.560
 6899SOL     OW21595   4.667   6.017   2.368
 6899SOL    HW121596   4.743   6.055   2.315
 6899SOL    HW221597   4.690   5.923   2.396
 6900SOL     OW21598   0.181   4.391   5.105
 6900SOL    HW121599   0.126   4.447   5.166
 6900SOL    HW221600   0.263   4.360   5.153
 6901SOL     OW21601   5.456   5.854   6.268
 6901SOL    HW121602   5.427   5.864   6.173
 6901SOL    HW221603   5.546   5.809   6.270
 6902SOL     OW21604   6.676   5.392   5.347
 6902SOL    HW121605   6.709   5.384   5.441
 6902SOL    HW221606   6.659   5.488   5.325
 6903SOL     OW21607   3.057   4.959   5.120
 6903SOL    HW121608   3.086   4.941   5.026
 6903SOL    HW221609   2.972   4.910   5.139
 6904SOL     OW21610   6.484   6.785   6.226
 6904SOL    HW121611   6.481   6.864   6.288
 6904SOL    HW221612   6.448   6.812   6.136
 6905SOL     OW21613   5.290   5.170   6.909
 6905SOL    HW121614   5.336   5.082   6.904
 6905SOL    HW221615   5.191   5.157   6.897
 6906SOL     OW21616   3.561   0.943   3.819
 6906SOL    HW121617   3.601   0.878   3.754
 6906SOL    HW221618   3.536   0.895   3.903
 6907SOL     OW21619   6.303   2.292   1.612
 6907SOL    HW121620   6.383   2.348   1.633
 6907SOL    HW221621   6.321   2.239   1.529
 6908SOL     OW21622   2.193   4.905   6.712
 6908SOL    HW121623   2.141   4.900   6.627
 6908SOL    HW221624   2.291   4.904   6.691
 6909SOL     OW21625   5.006   4.494   0.973
 6909SOL    HW121626   4.967   4.579   1.007
 6909SOL    HW221627   4.998   4.423   1.043
 6910SOL     OW21628   1.252   2.909   2.736
 6910SOL    HW121629   1.181   2.842   2.758
 6910SOL    HW221630   1.274   2.962   2.817
 6911SOL     OW21631   4.331   0.028   4.341
 6911SOL    HW121632   4.370   6.975   4.284
 6911SOL    HW221633   4.404   0.085   4.379
 6912SOL     OW21634   2.769   3.216   6.252
 6912SOL    HW121635   2.727   3.272   6.181
 6912SOL    HW221636   2.826   3.146   6.210
 6913SOL     OW21637   5.198   6.124   5.298
 6913SOL    HW121638   5.134   6.191   5.335
 6913SOL    HW221639   5.169   6.032   5.326
 6914SOL     OW21640   5.837   4.498   3.743
 6914SOL    HW121641   5.830   4.434   3.819
 6914SOL    HW221642   5.773   4.574   3.757
 6915SOL     OW21643   0.379   2.611   2.351
 6915SOL    HW121644   0.397   2.633   2.255
 6915SOL    HW221645   0.463   2.622   2.404
 6916SOL     OW21646   5.732   0.631   6.529
 6916SOL    HW121647   5.633   0.615   6.535
 6916SOL    HW221648   5.749   0.729   6.521
 6917SOL     OW21649   3.988   6.351   1.709
 6917SOL    HW121650   3.960   6.411   1.634
 6917SOL    HW221651   4.080   6.318   1.693
 6918SOL     OW21652   6.735   2.802   4.154
 6918SOL    HW121653   6.725   2.782   4.251
 6918SOL    HW221654   6.825   2.771   4.122
 6919SOL     OW21655   6.747   6.014   3.697
 6919SOL    HW121656   6.765   6.096   3.751
 6919SOL    HW221657   6.824   5.997   3.635
 6920SOL     OW21658   4.310   0.140   5.375
 6920SOL    HW121659   4.396   0.185   5.352
 6920SOL    HW221660   4.234   0.204   5.365
 6921SOL     OW21661   4.451   6.682   3.613
 6921SOL    HW121662   4.505   6.705   3.532
 6921SOL    HW221663   4.360   6.650   3.584
 6922SOL     OW21664   1.513   6.235   5.432
 6922SOL    HW121665   1.509   6.139   5.405
 6922SOL    HW221666   1.450   6.251   5.509
 6923SOL     OW21667   5.565   5.957   2.586
 6923SOL    HW121668   5.604   6.022   2.651
 6923SOL    HW221669   5.490   5.907   2.630
 6924SOL     OW21670   3.043   4.510   0.226
 6924SOL    HW121671   3.086   4.466   0.304
 6924SOL    HW221672   3.104   4.579   0.188
 6925SOL     OW21673   4.548   5.647   4.839
 6925SOL    HW121674   4.602   5.564   4.848
 6925SOL    HW221675   4.546   5.675   4.743
 6926SOL     OW21676   1.902   1.477   0.637
 6926SOL    HW121677   1.842   1.412   0.592
 6926SOL    HW221678   1.861   1.507   0.723
 6927SOL     OW21679   3.862   1.822   6.573
 6927SOL    HW121680   3.924   1.820   6.494
 6927SOL    HW221681   3.862   1.914   6.613
 6928SOL     OW21682   5.409   5.993   0.844
 6928SOL    HW121683   5.434   6.017   0.751
 6928SOL    HW221684   5.441   5.900   0.865
 6929SOL     OW21685   5.399   6.139   2.440
 6929SOL    HW121686   5.454   6.069   2.486
 6929SOL    HW221687   5.324   6.166   2.499
 6930SOL     OW21688   1.065   0.926   1.134
 6930SOL    HW121689   1.147   0.867   1.127
 6930SOL    HW221690   0.991   0.874   1.176
 6931SOL     OW21691   1.824   2.000   2.053
 6931SOL    HW121692   1.802   1.997   1.956
 6931SOL    HW221693   1.843   2.094   2.081
 6932SOL     OW21694   4.340   5.924   0.987
 6932SOL    HW121695   4.325   5.826   0.980
 6932SOL    HW221696   4.344   5.964   0.896
 6933SOL     OW21697   3.410   6.941   5.589
 6933SOL    HW121698   3.496   6.893   5.609
 6933SOL    HW221699   3.359   6.889   5.520
 6934SOL     OW21700   4.471   3.480   5.975
 6934SOL    HW121701   4.550   3.538   5.990
 6934SOL    HW221702   4.409   3.525   5.910
 6935SOL     OW21703   4.233   5.781   2.674
 6935SOL    HW121704   4.245   5.703   2.736
 6935SOL    HW221705   4.265   5.864   2.718
 6936SOL     OW21706   6.879   2.491   4.572
 6936SOL    HW121707   6.929   2.574   4.597
 6936SOL    HW221708   6.793   2.488   4.622
 6937SOL     OW21709   6.132   6.301   0.594
 6937SOL    HW121710   6.095   6.360   0.522
 6937SOL    HW221711   6.075   6.219   0.602
 6938SOL     OW21712   0.233   2.567   4.313
 6938SOL    HW121713   0.230   2.663   4.340
 6938SOL    HW221714   0.204   2.511   4.391
 6939SOL     OW21715   6.966   5.206   2.274
 6939SOL    HW121716   6.983   5.110   2.299
 6939SOL    HW221717   6.921   5.252   2.350
 6940SOL     OW21718   4.299   6.724   0.269
 6940SOL    HW121719   4.293   6.814   0.314
 6940SOL    HW221720   4.352   6.732   0.185
 6941SOL     OW21721   3.153   3.552   1.947
 6941SOL    HW121722   3.076   3.501   1.908
 6941SOL    HW221723   3.122   3.600   2.030
 6942SOL     OW21724   5.452   6.962   2.593
 6942SOL    HW121725   5.477   0.020   2.652
 6942SOL    HW221726   5.520   6.889   2.603
 6943SOL     OW21727   3.566   5.258   0.448
 6943SOL    HW121728   3.654   5.305   0.459
 6943SOL    HW221729   3.501   5.319   0.403
 6944SOL     OW21730   1.494   4.966   6.204
 6944SOL    HW121731   1.503   5.062   6.231
 6944SOL    HW221732   1.565   4.912   6.248
 6945SOL     OW21733   6.876   2.372   1.179
 6945SOL    HW121734   6.785   2.393   1.143
 6945SOL    HW221735   6.938   2.354   1.103
 6946SOL     OW21736   4.153   6.354   1.470
 6946SOL    HW121737   4.216   6.318   1.539
 6946SOL    HW221738   4.197   6.352   1.380
 6947SOL     OW21739   4.374   5.171   6.175
 6947SOL    HW121740   4.407   5.134   6.262
 6947SOL    HW221741   4.295   5.119   6.144
 6948SOL     OW21742   0.884   5.816   1.152
 6948SOL    HW121743   0.948   5.740   1.164
 6948SOL    HW221744   0.838   5.807   1.063
 6949SOL     OW21745   2.438   1.450   3.527
 6949SOL    HW121746   2.461   1.393   3.448
 6949SOL    HW221747   2.448   1.546   3.502
 6950SOL     OW21748   1.418   0.633   4.926
 6950SOL    HW121749   1.366   0.583   4.857
 6950SOL    HW221750   1.364   0.637   5.011
 6951SOL     OW21751   0.259   6.053   6.419
 6951SOL    HW121752   0.172   6.089   6.452
 6951SOL    HW221753   0.280   5.968   6.468
 6952SOL     OW21754   1.645   5.068   3.565
 6952SOL    HW121755   1.723   5.103   3.513
 6952SOL    HW221756   1.633   4.971   3.545
 6953SOL     OW21757   5.272   0.056   0.205
 6953SOL    HW121758   5.325   0.020   0.129
 6953SOL    HW221759   5.258   0.155   0.193
 6954SOL     OW21760   0.581   4.536   1.217
 6954SOL    HW121761   0.629   4.519   1.303
 6954SOL    HW221762   0.569   4.635   1.204
 6955SOL     OW21763   4.785   0.861   2.724
 6955SOL    HW121764   4.800   0.763   2.739
 6955SOL    HW221765   4.778   0.879   2.626
 6956SOL     OW21766   4.920   6.162   3.200
 6956SOL    HW121767   4.894   6.082   3.253
 6956SOL    HW221768   5.013   6.150   3.165
 6957SOL     OW21769   6.150   5.587   6.941
 6957SOL    HW121770   6.101   5.651   6.882
 6957SOL    HW221771   6.137   5.614   0.018
 6958SOL     OW21772   4.057   3.226   5.041
 6958SOL    HW121773   4.094   3.243   4.949
 6958SOL    HW221774   4.011   3.138   5.043
 6959SOL     OW21775   1.618   4.089   3.321
 6959SOL    HW121776   1.590   4.128   3.409
 6959SOL    HW221777   1.717   4.103   3.309
 6960SOL     OW21778   2.026   3.918   0.541
 6960SOL    HW121779   2.113   3.917   0.493
 6960SOL    HW221780   2.027   3.989   0.612
 6961SOL     OW21781   5.727   1.182   4.713
 6961SOL    HW121782   5.778   1.097   4.719
 6961SOL    HW221783   5.788   1.259   4.733
 6962SOL     OW21784   4.447   5.403   0.954
 6962SOL    HW121785   4.395   5.458   1.019
 6962SOL    HW221786   4.543   5.402   0.980
 6963SOL     OW21787   5.544   5.149   0.766
 6963SOL    HW121788   5.525   5.234   0.815
 6963SOL    HW221789   5.563   5.076   0.832
 6964SOL     OW21790   3.348   0.478   6.127
 6964SOL    HW121791   3.253   0.449   6.117
 6964SOL    HW221792   3.373   0.537   6.051
 6965SOL     OW21793   1.965   1.463   7.008
 6965SOL    HW121794   1.925   1.377   6.977
 6965SOL    HW221795   1.939   1.537   6.946
 6966SOL     OW21796   0.338   0.781   2.652
 6966SOL    HW121797   0.333   0.716   2.729
 6966SOL    HW221798   0.260   0.842   2.655
 6967SOL     OW21799   3.310   1.254   5.792
 6967SOL    HW121800   3.381   1.324   5.798
 6967SOL    HW221801   3.246   1.278   5.719
 6968SOL     OW21802   2.698   0.969   3.692
 6968SOL    HW121803   2.731   1.060   3.718
 6968SOL    HW221804   2.641   0.932   3.766
 6969SOL     OW21805   2.966   1.694   1.369
 6969SOL    HW121806   2.980   1.785   1.409
 6969SOL    HW221807   2.969   1.702   1.269
 6970SOL     OW21808   4.124   3.596   5.243
 6970SOL    HW121809   4.089   3.569   5.153
 6970SOL    HW221810   4.147   3.693   5.241
 6971SOL     OW21811   5.869   5.082   0.807
 6971SOL    HW121812   5.954   5.093   0.860
 6971SOL    HW221813   5.851   5.166   0.757
 6972SOL     OW21814   5.327   4.117   2.538
 6972SOL    HW121815   5.376   4.093   2.454
 6972SOL    HW221816   5.350   4.210   2.565
 6973SOL     OW21817   0.361   2.289   3.549
 6973SOL    HW121818   0.390   2.197   3.523
 6973SOL    HW221819   0.407   2.356   3.492
 6974SOL     OW21820   3.279   3.799   3.074
 6974SOL    HW121821   3.243   3.890   3.095
 6974SOL    HW221822   3.228   3.730   3.125
 6975SOL     OW21823   1.655   6.764   4.553
 6975SOL    HW121824   1.737   6.782   4.498
 6975SOL    HW221825   1.605   6.850   4.567
 6976SOL     OW21826   6.622   4.195   6.069
 6976SOL    HW121827   6.670   4.119   6.025
 6976SOL    HW221828   6.631   4.187   6.168
 6977SOL     OW21829   3.272   3.162   1.194
 6977SOL    HW121830   3.359   3.164   1.144
 6977SOL    HW221831   3.197   3.182   1.130
 6978SOL     OW21832   5.559   2.425   1.670
 6978SOL    HW121833   5.629   2.462   1.732
 6978SOL    HW221834   5.564   2.473   1.583
 6979SOL     OW21835   1.195   3.327   0.973
 6979SOL    HW121836   1.101   3.294   0.979
 6979SOL    HW221837   1.195   3.426   0.962
 6980SOL     OW21838   1.471   1.346   3.578
 6980SOL    HW121839   1.412   1.410   3.628
 6980SOL    HW221840   1.564   1.381   3.577
 6981SOL     OW21841   3.874   3.132   6.018
 6981SOL    HW121842   3.957   3.077   6.029
 6981SOL    HW221843   3.869   3.165   5.923
 6982SOL     OW21844   0.662   1.022   4.011
 6982SOL    HW121845   0.718   0.984   4.084
 6982SOL    HW221846   0.719   1.080   3.952
 6983SOL     OW21847   5.034   1.159   5.005
 6983SOL    HW121848   4.950   1.148   5.058
 6983SOL    HW221849   5.042   1.084   4.939
 6984SOL     OW21850   1.666   1.562   2.533
 6984SOL    HW121851   1.586   1.620   2.550
 6984SOL    HW221852   1.662   1.527   2.440
 6985SOL     OW21853   6.656   5.375   0.895
 6985SOL    HW121854   6.698   5.410   0.979
 6985SOL    HW221855   6.678   5.278   0.885
 6986SOL     OW21856   3.293   6.524   6.379
 6986SOL    HW121857   3.371   6.569   6.336
 6986SOL    HW221858   3.284   6.431   6.344
 6987SOL     OW21859   6.680   1.532   6.282
 6987SOL    HW121860   6.590   1.562   6.251
 6987SOL    HW221861   6.724   1.606   6.333
 6988SOL     OW21862   1.968   6.699   5.964
 6988SOL    HW121863   1.868   6.706   5.959
 6988SOL    HW221864   2.009   6.745   5.886
 6989SOL     OW21865   6.966   4.552   2.895
 6989SOL    HW121866   0.045   4.569   2.882
 6989SOL    HW221867   6.943   4.560   2.992
 6990SOL     OW21868   3.938   2.553   1.297
 6990SOL    HW121869   3.871   2.516   1.233
 6990SOL    HW221870   3.940   2.496   1.379
 6991SOL     OW21871   5.650   4.460   3.511
 6991SOL    HW121872   5.714   4.466   3.587
 6991SOL    HW221873   5.695   4.414   3.434
 6992SOL     OW21874   6.499   6.227   6.647
 6992SOL    HW121875   6.544   6.221   6.558
 6992SOL    HW221876   6.527   6.311   6.693
 6993SOL     OW21877   6.343   0.580   1.780
 6993SOL    HW121878   6.396   0.654   1.821
 6993SOL    HW221879   6.356   0.581   1.681
 6994SOL     OW21880   1.296   1.018   4.323
 6994SOL    HW121881   1.204   1.011   4.284
 6994SOL    HW221882   1.336   1.106   4.296
 6995SOL     OW21883   0.177   3.703   6.790
 6995SOL    HW121884   0.231   3.762   6.851
 6995SOL    HW221885   0.162   3.615   6.834
 6996SOL     OW21886   1.525   0.651   0.143
 6996SOL    HW121887   1.557   0.605   0.060
 6996SOL    HW221888   1.561   0.603   0.223
 6997SOL     OW21889   0.096   4.736   4.989
 6997SOL    HW121890   0.055   4.645   4.994
 6997SOL    HW221891   0.139   4.749   4.900
 6998SOL     OW21892   1.179   1.944   1.318
 6998SOL    HW121893   1.237   2.025   1.306
 6998SOL    HW221894   1.235   1.867   1.348
 6999SOL     OW21895   1.896   1.968   6.314
 6999SOL    HW121896   1.979   2.004   6.355
 6999SOL    HW221897   1.816   2.018   6.349
 7000SOL     OW21898   5.973   0.130   2.298
 7000SOL    HW121899   6.073   0.126   2.289
 7000SOL    HW221900   5.935   0.178   2.218
 7001SOL     OW21901   1.000   2.489   4.915
 7001SOL    HW121902   1.047   2.522   4.833
 7001SOL    HW221903   0.938   2.415   4.889
 7002SOL     OW21904   1.928   5.009   4.094
 7002SOL    HW121905   2.027   5.005   4.109
 7002SOL    HW221906   1.890   5.086   4.146
 7003SOL     OW21907   4.653   5.655   1.655
 7003SOL    HW121908   4.699   5.628   1.570
 7003SOL    HW221909   4.562   5.691   1.633
 7004SOL     OW21910   0.703   6.001   0.586
 7004SOL    HW121911   0.753   6.030   0.667
 7004SOL    HW221912   0.740   5.915   0.552
 7005SOL     OW21913   0.951   0.818   0.398
 7005SOL    HW121914   1.003   0.744   0.440
 7005SOL    HW221915   1.006   0.861   0.327
 7006SOL     OW21916   5.611   5.968   3.263
 7006SOL    HW121917   5.701   5.927   3.259
 7006SOL    HW221918   5.569   5.947   3.352
 7007SOL     OW21919   3.837   0.665   4.665
 7007SOL    HW121920   3.739   0.667   4.645
 7007SOL    HW221921   3.860   0.741   4.725
 7008SOL     OW21922   0.573   4.620   4.339
 7008SOL    HW121923   0.588   4.705   4.288
 7008SOL    HW221924   0.657   4.566   4.340
 7009SOL     OW21925   4.332   6.881   2.078
 7009SOL    HW121926   4.407   6.946   2.070
 7009SOL    HW221927   4.330   6.843   2.170
 7010SOL     OW21928   5.829   4.844   3.596
 7010SOL    HW121929   5.902   4.778   3.581
 7010SOL    HW221930   5.765   4.807   3.664
 7011SOL     OW21931   3.911   6.874   0.991
 7011SOL    HW121932   3.919   6.907   0.897
 7011SOL    HW221933   4.002   6.863   1.030
 7012SOL     OW21934   0.593   1.982   1.231
 7012SOL    HW121935   0.641   1.895   1.245
 7012SOL    HW221936   0.650   2.058   1.262
 7013SOL     OW21937   1.670   6.848   6.582
 7013SOL    HW121938   1.670   6.947   6.597
 7013SOL    HW221939   1.636   6.802   6.664
 7014SOL     OW21940   5.438   3.449   0.750
 7014SOL    HW121941   5.399   3.484   0.664
 7014SOL    HW221942   5.495   3.370   0.730
 7015SOL     OW21943   5.605   4.765   2.166
 7015SOL    HW121944   5.524   4.757   2.109
 7015SOL    HW221945   5.674   4.699   2.137
 7016SOL     OW21946   3.951   5.128   1.495
 7016SOL    HW121947   3.905   5.105   1.410
 7016SOL    HW221948   4.050   5.123   1.483
 7017SOL     OW21949   2.646   5.063   3.189
 7017SOL    HW121950   2.608   5.015   3.110
 7017SOL    HW221951   2.587   5.141   3.212
 7018SOL     OW21952   5.244   4.005   4.127
 7018SOL    HW121953   5.229   4.103   4.122
 7018SOL    HW221954   5.161   3.959   4.158
 7019SOL     OW21955   3.986   5.116   1.958
 7019SOL    HW121956   3.928   5.035   1.947
 7019SOL    HW221957   3.991   5.140   2.056
 7020SOL     OW21958   0.510   4.008   6.382
 7020SOL    HW121959   0.437   4.060   6.339
 7020SOL    HW221960   0.544   3.939   6.318
 7021SOL     OW21961   1.862   2.857   4.223
 7021SOL    HW121962   1.877   2.888   4.130
 7021SOL    HW221963   1.926   2.902   4.285
 7022SOL     OW21964   4.620   6.980   0.260
 7022SOL    HW121965   4.701   6.978   0.201
 7022SOL    HW221966   4.648   6.986   0.355
 7023SOL     OW21967   0.443   2.568   1.285
 7023SOL    HW121968   0.459   2.499   1.215
 7023SOL    HW221969   0.485   2.539   1.371
 7024SOL     OW21970   3.512   3.589   4.252
 7024SOL    HW121971   3.431   3.562   4.201
 7024SOL    HW221972   3.506   3.553   4.346
 7025SOL     OW21973   3.462   0.616   0.864
 7025SOL    HW121974   3.406   0.698   0.872
 7025SOL    HW221975   3.455   0.579   0.771
 7026SOL     OW21976   3.874   2.083   2.149
 7026SOL    HW121977   3.795   2.120   2.099
 7026SOL    HW221978   3.844   2.008   2.208
 7027SOL     OW21979   2.354   6.161   4.311
 7027SOL    HW121980   2.394   6.149   4.402
 7027SOL    HW221981   2.304   6.078   4.286
 7028SOL     OW21982   3.096   0.465   3.950
 7028SOL    HW121983   3.196   0.474   3.953
 7028SOL    HW221984   3.057   0.505   4.033
 7029SOL     OW21985   4.126   4.006   5.769
 7029SOL    HW121986   4.146   3.981   5.674
 7029SOL    HW221987   4.155   3.932   5.830
 7030SOL     OW21988   0.874   1.195   4.464
 7030SOL    HW121989   0.865   1.283   4.419
 7030SOL    HW221990   0.784   1.151   4.469
 7031SOL     OW21991   4.031   6.109   0.232
 7031SOL    HW121992   4.110   6.170   0.231
 7031SOL    HW221993   4.008   6.083   0.138
 7032SOL     OW21994   4.042   1.263   3.436
 7032SOL    HW121995   4.058   1.352   3.478
 7032SOL    HW221996   3.982   1.273   3.356
 7033SOL     OW21997   1.445   2.764   3.748
 7033SOL    HW121998   1.481   2.706   3.821
 7033SOL    HW221999   1.401   2.706   3.679
 7034SOL     OW22000   6.806   2.427   3.109
 7034SOL    HW122001   6.727   2.480   3.139
 7034SOL    HW222002   6.776   2.354   3.047
 7035SOL     OW22003   1.901   0.287   1.307
 7035SOL    HW122004   1.853   0.371   1.332
 7035SOL    HW222005   1.880   0.215   1.373
 7036SOL     OW22006   6.997   1.933   2.120
 7036SOL    HW122007   0.056   1.972   2.069
 7036SOL    HW222008   6.979   1.841   2.087
 7037SOL     OW22009   0.818   1.177   6.086
 7037SOL    HW122010   0.872   1.182   6.002
 7037SOL    HW222011   0.765   1.092   6.087
 7038SOL     OW22012   2.057   4.465   4.885
 7038SOL    HW122013   2.070   4.472   4.984
 7038SOL    HW222014   2.122   4.400   4.847
 7039SOL     OW22015   0.349   6.209   3.652
 7039SOL    HW122016   0.401   6.255   3.579
 7039SOL    HW222017   0.305   6.127   3.615
 7040SOL     OW22018   5.154   2.696   5.754
 7040SOL    HW122019   5.191   2.613   5.715
 7040SOL    HW222020   5.221   2.770   5.748
 7041SOL     OW22021   0.649   1.806   3.253
 7041SOL    HW122022   0.555   1.836   3.236
 7041SOL    HW222023   0.701   1.882   3.292
 7042SOL     OW22024   4.559   5.847   4.285
 7042SOL    HW122025   4.568   5.782   4.209
 7042SOL    HW222026   4.635   5.835   4.349
 7043SOL     OW22027   2.720   4.705   3.582
 7043SOL    HW122028   2.746   4.615   3.547
 7043SOL    HW222029   2.682   4.760   3.508
 7044SOL     OW22030   4.729   6.864   4.979
 7044SOL    HW122031   4.688   6.859   5.070
 7044SOL    HW222032   4.740   6.960   4.953
 7045SOL     OW22033   5.564   5.666   2.188
 7045SOL    HW122034   5.523   5.578   2.164
 7045SOL    HW222035   5.661   5.667   2.163
 7046SOL     OW22036   3.051   1.806   4.000
 7046SOL    HW122037   3.130   1.866   3.988
 7046SOL    HW222038   3.013   1.818   4.092
 7047SOL     OW22039   6.955   1.221   1.599
 7047SOL    HW122040   6.910   1.223   1.688
 7047SOL    HW222041   7.006   1.306   1.585
 7048SOL     OW22042   5.967   6.290   4.818
 7048SOL    HW122043   5.980   6.222   4.890
 7048SOL    HW222044   5.874   6.281   4.780
 7049SOL     OW22045   3.255   1.437   2.105
 7049SOL    HW122046   3.244   1.512   2.170
 7049SOL    HW222047   3.290   1.473   2.018
 7050SOL     OW22048   3.838   4.612   0.907
 7050SOL    HW122049   3.812   4.665   0.827
 7050SOL    HW222050   3.932   4.580   0.896
 7051SOL     OW22051   6.829   6.439   0.880
 7051SOL    HW122052   6.843   6.528   0.835
 7051SOL    HW222053   6.883   6.369   0.833
 7052SOL     OW22054   5.797   0.491   3.302
 7052SOL    HW122055   5.841   0.435   3.232
 7052SOL    HW222056   5.702   0.509   3.276
 7053SOL     OW22057   1.958   4.151   4.355
 7053SOL    HW122058   2.054   4.157   4.325
 7053SOL    HW222059   1.917   4.069   4.314
 7054SOL     OW22060   0.036   0.123   1.532
 7054SOL    HW122061   0.124   0.117   1.485
 7054SOL    HW222062   0.018   0.038   1.581
 7055SOL     OW22063   2.967   0.061   0.466
 7055SOL    HW122064   2.883   0.113   0.453
 7055SOL    HW222065   2.982   0.045   0.564
 7056SOL     OW22066   6.884   5.737   1.260
 7056SOL    HW122067   6.920   5.830   1.259
 7056SOL    HW222068   6.940   5.679   1.201
 7057SOL     OW22069   3.173   5.841   4.293
 7057SOL    HW122070   3.227   5.872   4.371
 7057SOL    HW222071   3.132   5.920   4.246
 7058SOL     OW22072   5.334   1.848   6.292
 7058SOL    HW122073   5.315   1.779   6.222
 7058SOL    HW222074   5.339   1.938   6.250
 7059SOL     OW22075   1.381   0.797   4.146
 7059SOL    HW122076   1.343   0.749   4.224
 7059SOL    HW222077   1.401   0.891   4.170
 7060SOL     OW22078   3.669   6.539   1.355
 7060SOL    HW122079   3.766   6.562   1.344
 7060SOL    HW222080   3.660   6.440   1.368
 7061SOL     OW22081   0.269   2.727   2.850
 7061SOL    HW122082   0.322   2.811   2.858
 7061SOL    HW222083   0.171   2.749   2.845
 7062SOL     OW22084   4.322   2.281   4.556
 7062SOL    HW122085   4.325   2.326   4.467
 7062SOL    HW222086   4.365   2.191   4.549
 7063SOL     OW22087   0.471   0.304   1.858
 7063SOL    HW122088   0.440   0.210   1.872
 7063SOL    HW222089   0.437   0.337   1.770
 7064SOL     OW22090   5.011   1.798   6.242
 7064SOL    HW122091   4.917   1.775   6.216
 7064SOL    HW222092   5.014   1.889   6.283
 7065SOL     OW22093   3.597   4.460   5.481
 7065SOL    HW122094   3.647   4.412   5.553
 7065SOL    HW222095   3.574   4.396   5.408
 7066SOL     OW22096   4.675   0.175   5.796
 7066SOL    HW122097   4.582   0.186   5.762
 7066SOL    HW222098   4.728   0.258   5.779
 7067SOL     OW22099   1.189   3.599   6.382
 7067SOL    HW122100   1.273   3.571   6.334
 7067SOL    HW222101   1.110   3.558   6.337
 7068SOL     OW22102   5.838   4.349   4.256
 7068SOL    HW122103   5.835   4.274   4.321
 7068SOL    HW222104   5.893   4.424   4.294
 7069SOL     OW22105   5.783   2.082   5.396
 7069SOL    HW122106   5.780   2.118   5.490
 7069SOL    HW222107   5.851   2.134   5.344
 7070SOL     OW22108   1.121   6.529   4.086
 7070SOL    HW122109   1.084   6.614   4.123
 7070SOL    HW222110   1.170   6.548   4.001
 7071SOL     OW22111   4.730   6.206   6.778
 7071SOL    HW122112   4.702   6.154   6.697
 7071SOL    HW222113   4.663   6.191   6.851
 7072SOL     OW22114   1.975   4.971   0.288
 7072SOL    HW122115   1.952   4.874   0.278
 7072SOL    HW222116   1.891   5.026   0.285
 7073SOL     OW22117   3.839   0.162   3.260
 7073SOL    HW122118   3.920   0.105   3.275
 7073SOL    HW222119   3.868   0.255   3.238
 7074SOL     OW22120   6.280   3.698   3.306
 7074SOL    HW122121   6.332   3.615   3.288
 7074SOL    HW222122   6.343   3.773   3.327
 7075SOL     OW22123   3.059   4.870   4.677
 7075SOL    HW122124   3.100   4.804   4.614
 7075SOL    HW222125   2.989   4.823   4.732
 7076SOL     OW22126   5.858   2.624   1.406
 7076SOL    HW122127   5.885   2.570   1.325
 7076SOL    HW222128   5.825   2.713   1.377
 7077SOL     OW22129   2.521   4.466   2.674
 7077SOL    HW122130   2.531   4.408   2.593
 7077SOL    HW222131   2.553   4.558   2.654
 7078SOL     OW22132   5.975   6.064   0.556
 7078SOL    HW122133   5.916   6.078   0.636
 7078SOL    HW222134   5.934   5.995   0.496
 7079SOL     OW22135   1.087   0.147   4.308
 7079SOL    HW122136   1.181   0.173   4.286
 7079SOL    HW222137   1.079   0.128   4.406
 7080SOL     OW22138   3.760   2.113   3.950
 7080SOL    HW122139   3.784   2.022   3.984
 7080SOL    HW222140   3.794   2.183   4.014
 7081SOL     OW22141   1.627   6.073   0.121
 7081SOL    HW122142   1.609   6.171   0.131
 7081SOL    HW222143   1.711   6.050   0.171
 7082SOL     OW22144   6.940   3.815   1.612
 7082SOL    HW122145   6.845   3.791   1.632
 7082SOL    HW222146   6.943   3.903   1.565
 7083SOL     OW22147   6.929   1.636   2.686
 7083SOL    HW122148   6.977   1.718   2.653
 7083SOL    HW222149   6.863   1.606   2.617
 7084SOL     OW22150   0.537   5.732   5.226
 7084SOL    HW122151   0.477   5.689   5.293
 7084SOL    HW222152   0.527   5.832   5.230
 7085SOL     OW22153   6.329   2.805   2.560
 7085SOL    HW122154   6.392   2.777   2.632
 7085SOL    HW222155   6.315   2.904   2.566
 7086SOL     OW22156   5.755   0.312   6.817
 7086SOL    HW122157   5.674   0.369   6.803
 7086SOL    HW222158   5.745   0.226   6.766
 7087SOL     OW22159   5.175   3.252   2.333
 7087SOL    HW122160   5.238   3.316   2.290
 7087SOL    HW222161   5.226   3.186   2.388
 7088SOL     OW22162   5.192   2.273   5.797
 7088SOL    HW122163   5.103   2.247   5.834
 7088SOL    HW222164   5.261   2.208   5.827
 7089SOL     OW22165   2.740   4.847   2.354
 7089SOL    HW122166   2.690   4.916   2.302
 7089SOL    HW222167   2.750   4.879   2.449
 7090SOL     OW22168   2.334   1.560   0.851
 7090SOL    HW122169   2.250   1.580   0.800
 7090SOL    HW222170   2.401   1.519   0.790
 7091SOL     OW22171   0.861   1.062   1.609
 7091SOL    HW122172   0.942   1.038   1.663
 7091SOL    HW222173   0.860   1.160   1.593
 7092SOL     OW22174   3.705   2.912   6.151
 7092SOL    HW122175   3.739   2.904   6.057
 7092SOL    HW222176   3.661   2.826   6.178
 7093SOL     OW22177   3.662   3.455   1.500
 7093SOL    HW122178   3.620   3.369   1.472
 7093SOL    HW222179   3.734   3.437   1.567
 7094SOL     OW22180   1.552   6.881   5.505
 7094SOL    HW122181   1.578   6.786   5.491
 7094SOL    HW222182   1.635   6.937   5.517
 7095SOL     OW22183   3.739   5.386   5.921
 7095SOL    HW122184   3.650   5.354   5.890
 7095SOL    HW222185   3.782   5.316   5.978
 7096SOL     OW22186   6.966   0.427   2.295
 7096SOL    HW122187   0.039   0.389   2.309
 7096SOL    HW222188   6.943   0.424   2.198
 7097SOL     OW22189   4.451   0.871   2.192
 7097SOL    HW122190   4.429   0.967   2.173
 7097SOL    HW222191   4.475   0.825   2.106
 7098SOL     OW22192   1.553   6.045   5.879
 7098SOL    HW122193   1.596   6.092   5.956
 7098SOL    HW222194   1.574   5.948   5.882
 7099SOL     OW22195   3.543   1.919   4.180
 7099SOL    HW122196   3.590   2.005   4.200
 7099SOL    HW222197   3.596   1.868   4.112
 7100SOL     OW22198   6.960   3.571   0.632
 7100SOL    HW122199   6.985   3.536   0.542
 7100SOL    HW222200   7.016   3.651   0.653
 7101SOL     OW22201   2.357   0.168   5.265
 7101SOL    HW122202   2.367   0.143   5.169
 7101SOL    HW222203   2.409   0.252   5.283
 7102SOL     OW22204   5.222   0.429   1.285
 7102SOL    HW122205   5.169   0.508   1.252
 7102SOL    HW222206   5.179   0.393   1.368
 7103SOL     OW22207   5.237   5.218   1.868
 7103SOL    HW122208   5.195   5.130   1.889
 7103SOL    HW222209   5.337   5.209   1.875
 7104SOL     OW22210   5.748   3.330   2.645
 7104SOL    HW122211   5.674   3.335   2.579
 7104SOL    HW222212   5.737   3.247   2.701
 7105SOL     OW22213   3.898   3.795   4.466
 7105SOL    HW122214   3.875   3.822   4.560
 7105SOL    HW222215   3.964   3.720   4.468
 7106SOL     OW22216   2.789   2.831   1.007
 7106SOL    HW122217   2.729   2.842   1.086
 7106SOL    HW222218   2.884   2.846   1.034
 7107SOL     OW22219   3.746   0.232   0.215
 7107SOL    HW122220   3.693   0.317   0.210
 7107SOL    HW222221   3.815   0.232   0.142
 7108SOL     OW22222   2.618   6.330   2.158
 7108SOL    HW122223   2.526   6.297   2.140
 7108SOL    HW222224   2.685   6.262   2.128
 7109SOL     OW22225   1.802   0.599   6.892
 7109SOL    HW122226   1.809   0.698   6.906
 7109SOL    HW222227   1.712   0.567   6.924
 7110SOL     OW22228   3.509   6.468   4.451
 7110SOL    HW122229   3.595   6.454   4.401
 7110SOL    HW222230   3.495   6.565   4.468
 7111SOL     OW22231   1.620   1.871   3.718
 7111SOL    HW122232   1.585   1.940   3.781
 7111SOL    HW222233   1.545   1.814   3.684
 7112SOL     OW22234   2.256   4.289   4.840
 7112SOL    HW122235   2.274   4.205   4.892
 7112SOL    HW222236   2.297   4.281   4.749
 7113SOL     OW22237   3.276   4.919   5.315
 7113SOL    HW122238   3.201   4.916   5.249
 7113SOL    HW222239   3.339   4.993   5.291
 7114SOL     OW22240   3.981   5.532   1.722
 7114SOL    HW122241   4.058   5.590   1.750
 7114SOL    HW222242   4.013   5.438   1.710
 7115SOL     OW22243   5.695   4.083   6.979
 7115SOL    HW122244   5.792   4.075   7.004
 7115SOL    HW222245   5.640   4.094   0.044
 7116SOL     OW22246   5.748   4.179   3.408
 7116SOL    HW122247   5.749   4.093   3.356
 7116SOL    HW222248   5.760   4.159   3.505
 7117SOL     OW22249   6.415   6.891   4.025
 7117SOL    HW122250   6.349   6.894   3.950
 7117SOL    HW222251   6.440   6.984   4.052
 7118SOL     OW22252   4.052   4.494   5.322
 7118SOL    HW122253   4.124   4.447   5.271
 7118SOL    HW222254   4.025   4.438   5.401
 7119SOL     OW22255   5.129   0.924   4.859
 7119SOL    HW122256   5.172   0.964   4.778
 7119SOL    HW222257   5.069   0.849   4.830
 7120SOL     OW22258   5.275   1.565   1.324
 7120SOL    HW122259   5.225   1.640   1.367
 7120SOL    HW222260   5.360   1.549   1.375
 7121SOL     OW22261   0.508   6.096   3.191
 7121SOL    HW122262   0.427   6.127   3.240
 7121SOL    HW222263   0.569   6.173   3.175
 7122SOL     OW22264   1.907   0.060   5.987
 7122SOL    HW122265   1.826   0.043   5.930
 7122SOL    HW222266   1.878   0.071   6.082
 7123SOL     OW22267   6.764   4.823   4.311
 7123SOL    HW122268   6.762   4.910   4.261
 7123SOL    HW222269   6.806   4.838   4.401
 7124SOL     OW22270   0.743   2.193   1.288
 7124SOL    HW122271   0.771   2.260   1.220
 7124SOL    HW222272   0.750   2.232   1.379
 7125SOL     OW22273   1.538   0.941   1.733
 7125SOL    HW122274   1.444   0.955   1.700
 7125SOL    HW222275   1.536   0.884   1.815
 7126SOL     OW22276   4.031   5.947   0.472
 7126SOL    HW122277   4.028   5.850   0.447
 7126SOL    HW222278   4.039   6.002   0.390
 7127SOL     OW22279   3.058   6.316   5.734
 7127SOL    HW122280   3.041   6.361   5.647
 7127SOL    HW222281   3.137   6.255   5.726
 7128SOL     OW22282   3.915   4.101   0.008
 7128SOL    HW122283   3.870   4.185   0.040
 7128SOL    HW222284   4.010   4.122   7.003
 7129SOL     OW22285   0.577   1.335   1.520
 7129SOL    HW122286   0.544   1.268   1.586
 7129SOL    HW222287   0.582   1.293   1.429
 7130SOL     OW22288   3.588   0.326   4.417
 7130SOL    HW122289   3.555   0.322   4.323
 7130SOL    HW222290   3.607   0.234   4.450
 7131SOL     OW22291   3.312   1.032   2.369
 7131SOL    HW122292   3.310   0.955   2.304
 7131SOL    HW222293   3.375   1.102   2.334
 7132SOL     OW22294   5.123   4.009   0.188
 7132SOL    HW122295   5.053   3.949   0.227
 7132SOL    HW222296   5.165   4.063   0.261
 7133SOL     OW22297   4.297   4.986   4.167
 7133SOL    HW122298   4.230   4.982   4.092
 7133SOL    HW222299   4.369   4.919   4.150
 7134SOL     OW22300   5.429   6.251   1.711
 7134SOL    HW122301   5.523   6.276   1.689
 7134SOL    HW222302   5.423   6.152   1.723
 7135SOL     OW22303   2.212   2.789   2.324
 7135SOL    HW122304   2.189   2.846   2.246
 7135SOL    HW222305   2.144   2.716   2.334
 7136SOL     OW22306   2.058   1.635   1.334
 7136SOL    HW122307   2.066   1.735   1.340
 7136SOL    HW222308   2.124   1.601   1.267
 7137SOL     OW22309   2.600   1.287   0.497
 7137SOL    HW122310   2.591   1.384   0.518
 7137SOL    HW222311   2.670   1.247   0.556
 7138SOL     OW22312   2.345   1.110   1.381
 7138SOL    HW122313   2.320   1.160   1.464
 7138SOL    HW222314   2.444   1.097   1.379
 7139SOL     OW22315   4.764   5.035   1.736
 7139SOL    HW122316   4.751   4.974   1.814
 7139SOL    HW222317   4.860   5.063   1.731
 7140SOL     OW22318   6.163   4.539   1.010
 7140SOL    HW122319   6.072   4.558   1.048
 7140SOL    HW222320   6.223   4.617   1.026
 7141SOL     OW22321   4.241   6.648   1.307
 7141SOL    HW122322   4.254   6.549   1.307
 7141SOL    HW222323   4.280   6.687   1.390
 7142SOL     OW22324   3.512   0.335   4.146
 7142SOL    HW122325   3.500   0.262   4.079
 7142SOL    HW222326   3.425   0.381   4.162
 7143SOL     OW22327   1.773   4.004   6.863
 7143SOL    HW122328   1.820   3.942   6.925
 7143SOL    HW222329   1.690   3.959   6.829
 7144SOL     OW22330   0.287   1.074   4.264
 7144SOL    HW122331   0.358   1.096   4.197
 7144SOL    HW222332   0.200   1.114   4.236
 7145SOL     OW22333   4.468   0.892   6.814
 7145SOL    HW122334   4.528   0.815   6.792
 7145SOL    HW222335   4.523   0.975   6.822
 7146SOL     OW22336   2.024   1.589   5.649
 7146SOL    HW122337   1.993   1.496   5.630
 7146SOL    HW222338   1.950   1.641   5.692
 7147SOL     OW22339   6.021   5.528   3.093
 7147SOL    HW122340   5.995   5.623   3.074
 7147SOL    HW222341   5.986   5.502   3.183
 7148SOL     OW22342   6.485   5.687   1.396
 7148SOL    HW122343   6.440   5.710   1.310
 7148SOL    HW222344   6.520   5.770   1.439
 7149SOL     OW22345   6.784   4.784   3.597
 7149SOL    HW122346   6.869   4.820   3.557
 7149SOL    HW222347   6.778   4.812   3.693
 7150SOL     OW22348   4.780   3.232   0.194
 7150SOL    HW122349   4.702   3.193   0.243
 7150SOL    HW222350   4.858   3.170   0.200
 7151SOL     OW22351   3.176   6.878   0.872
 7151SOL    HW122352   3.094   6.830   0.841
 7151SOL    HW222353   3.160   6.915   0.963
 7152SOL     OW22354   6.571   0.642   6.510
 7152SOL    HW122355   6.668   0.655   6.488
 7152SOL    HW222356   6.563   0.612   6.605
 7153SOL     OW22357   3.721   5.667   1.784
 7153SOL    HW122358   3.686   5.747   1.734
 7153SOL    HW222359   3.819   5.656   1.764
 7154SOL     OW22360   4.104   1.013   2.845
 7154SOL    HW122361   4.195   0.991   2.878
 7154SOL    HW222362   4.061   0.930   2.808
 7155SOL     OW22363   2.767   1.948   1.102
 7155SOL    HW122364   2.756   2.011   1.179
 7155SOL    HW222365   2.745   1.995   1.017
 7156SOL     OW22366   5.253   3.505   2.228
 7156SOL    HW122367   5.292   3.595   2.246
 7156SOL    HW222368   5.252   3.488   2.129
 7157SOL     OW22369   6.202   4.269   1.016
 7157SOL    HW122370   6.142   4.217   1.077
 7157SOL    HW222371   6.172   4.365   1.015
 7158SOL     OW22372   6.378   0.617   3.560
 7158SOL    HW122373   6.430   0.699   3.581
 7158SOL    HW222374   6.411   0.541   3.616
 7159SOL     OW22375   0.624   4.888   4.213
 7159SOL    HW122376   0.569   4.969   4.194
 7159SOL    HW222377   0.703   4.914   4.269
 7160SOL     OW22378   5.843   6.192   2.723
 7160SOL    HW122379   5.784   6.125   2.768
 7160SOL    HW222380   5.826   6.282   2.761
 7161SOL     OW22381   3.606   3.665   2.822
 7161SOL    HW122382   3.587   3.605   2.744
 7161SOL    HW222383   3.536   3.736   2.829
 7162SOL     OW22384   0.144   4.661   0.741
 7162SOL    HW122385   0.103   4.580   0.784
 7162SOL    HW222386   0.225   4.634   0.689
 7163SOL     OW22387   1.715   1.212   2.810
 7163SOL    HW122388   1.726   1.228   2.909
 7163SOL    HW222389   1.784   1.266   2.761
 7164SOL     OW22390   1.958   1.318   5.307
 7164SOL    HW122391   2.049   1.292   5.274
 7164SOL    HW222392   1.889   1.282   5.244
 7165SOL     OW22393   6.102   6.390   1.095
 7165SOL    HW122394   6.190   6.436   1.084
 7165SOL    HW222395   6.060   6.417   1.181
 7166SOL     OW22396   5.333   0.439   6.202
 7166SOL    HW122397   5.380   0.476   6.283
 7166SOL    HW222398   5.241   0.410   6.228
 7167SOL     OW22399   5.861   2.261   5.637
 7167SOL    HW122400   5.819   2.288   5.724
 7167SOL    HW222401   5.957   2.288   5.636
 7168SOL     OW22402   3.269   1.057   2.744
 7168SOL    HW122403   3.290   0.968   2.703
 7168SOL    HW222404   3.301   1.130   2.683
 7169SOL     OW22405   1.265   4.015   5.340
 7169SOL    HW122406   1.278   3.958   5.259
 7169SOL    HW222407   1.350   4.023   5.391
 7170SOL     OW22408   4.596   7.012   2.434
 7170SOL    HW122409   4.651   0.061   2.483
 7170SOL    HW222410   4.622   7.012   2.337
 7171SOL     OW22411   6.089   4.760   0.819
 7171SOL    HW122412   6.008   4.719   0.863
 7171SOL    HW222413   6.116   4.704   0.741
 7172SOL     OW22414   1.791   1.719   5.114
 7172SOL    HW122415   1.858   1.787   5.144
 7172SOL    HW222416   1.759   1.667   5.193
 7173SOL     OW22417   6.136   5.225   6.667
 7173SOL    HW122418   6.230   5.198   6.647
 7173SOL    HW222419   6.130   5.325   6.671
 7174SOL     OW22420   6.643   4.562   1.049
 7174SOL    HW122421   6.588   4.480   1.067
 7174SOL    HW222422   6.594   4.643   1.079
 7175SOL     OW22423   6.629   3.977   5.318
 7175SOL    HW122424   6.553   3.915   5.337
 7175SOL    HW222425   6.716   3.932   5.339
 7176SOL     OW22426   0.540   1.214   4.162
 7176SOL    HW122427   0.593   1.147   4.108
 7176SOL    HW222428   0.550   1.305   4.121
 7177SOL     OW22429   1.961   5.817   5.463
 7177SOL    HW122430   2.056   5.814   5.433
 7177SOL    HW222431   1.920   5.727   5.450
 7178SOL     OW22432   0.593   0.507   5.674
 7178SOL    HW122433   0.686   0.532   5.704
 7178SOL    HW222434   0.552   0.584   5.626
 7179SOL     OW22435   2.192   4.432   5.144
 7179SOL    HW122436   2.151   4.513   5.186
 7179SOL    HW222437   2.281   4.456   5.104
 7180SOL     OW22438   2.800   4.508   0.666
 7180SOL    HW122439   2.754   4.436   0.615
 7180SOL    HW222440   2.739   4.544   0.737
 7181SOL     OW22441   2.059   1.269   6.123
 7181SOL    HW122442   2.015   1.327   6.192
 7181SOL    HW222443   2.056   1.317   6.035
 7182SOL     OW22444   1.000   4.007   3.632
 7182SOL    HW122445   0.906   3.991   3.604
 7182SOL    HW222446   1.018   4.105   3.633
 7183SOL     OW22447   1.892   5.932   1.818
 7183SOL    HW122448   1.852   6.010   1.771
 7183SOL    HW222449   1.987   5.920   1.789
 7184SOL     OW22450   5.549   1.250   3.492
 7184SOL    HW122451   5.565   1.304   3.410
 7184SOL    HW222452   5.461   1.275   3.532
 7185SOL     OW22453   5.257   0.863   5.088
 7185SOL    HW122454   5.311   0.946   5.099
 7185SOL    HW222455   5.192   0.875   5.013
 7186SOL     OW22456   0.168   0.985   0.945
 7186SOL    HW122457   0.231   0.912   0.917
 7186SOL    HW222458   0.077   0.946   0.959
 7187SOL     OW22459   3.183   3.789   5.090
 7187SOL    HW122460   3.181   3.838   5.003
 7187SOL    HW222461   3.133   3.841   5.159
 7188SOL     OW22462   4.965   3.853   6.957
 7188SOL    HW122463   5.049   3.810   6.926
 7188SOL    HW222464   4.911   3.883   6.878
 7189SOL     OW22465   5.956   3.705   5.603
 7189SOL    HW122466   5.995   3.702   5.511
 7189SOL    HW222467   5.999   3.634   5.659
 7190SOL     OW22468   5.999   5.852   0.919
 7190SOL    HW122469   5.933   5.898   0.978
 7190SOL    HW222470   6.090   5.891   0.936
 7191SOL     OW22471   0.452   3.998   3.451
 7191SOL    HW122472   0.398   4.051   3.516
 7191SOL    HW222473   0.506   4.060   3.394
 7192SOL     OW22474   2.285   4.037   6.012
 7192SOL    HW122475   2.306   4.080   5.924
 7192SOL    HW222476   2.235   4.102   6.070
 7193SOL     OW22477   2.671   1.713   3.138
 7193SOL    HW122478   2.738   1.787   3.148
 7193SOL    HW222479   2.710   1.640   3.082
 7194SOL     OW22480   2.107   1.983   6.920
 7194SOL    HW122481   2.187   1.923   6.926
 7194SOL    HW222482   2.045   1.963   6.995
 7195SOL     OW22483   6.454   4.310   0.024
 7195SOL    HW122484   6.492   4.330   6.952
 7195SOL    HW222485   6.468   4.388   0.084
 7196SOL     OW22486   3.265   3.767   2.415
 7196SOL    HW122487   3.298   3.768   2.320
 7196SOL    HW222488   3.210   3.849   2.432
 7197SOL     OW22489   0.853   3.768   5.199
 7197SOL    HW122490   0.900   3.856   5.192
 7197SOL    HW222491   0.840   3.745   5.296
 7198SOL     OW22492   0.242   0.651   0.368
 7198SOL    HW122493   0.318   0.661   0.303
 7198SOL    HW222494   0.159   0.624   0.318
 7199SOL     OW22495   1.170   0.142   2.197
 7199SOL    HW122496   1.158   0.150   2.296
 7199SOL    HW222497   1.110   0.207   2.150
 7200SOL     OW22498   2.166   2.987   1.157
 7200SOL    HW122499   2.125   3.066   1.111
 7200SOL    HW222500   2.094   2.932   1.200
 7201SOL     OW22501   0.042   5.714   4.339
 7201SOL    HW122502   0.069   5.766   4.420
 7201SOL    HW222503   6.964   5.732   4.318
 7202SOL     OW22504   5.146   0.306   5.803
 7202SOL    HW122505   5.211   0.338   5.734
 7202SOL    HW222506   5.125   0.210   5.788
 7203SOL     OW22507   0.795   0.745   1.734
 7203SOL    HW122508   0.889   0.744   1.768
 7203SOL    HW222509   0.796   0.733   1.635
 7204SOL     OW22510   6.037   1.164   0.374
 7204SOL    HW122511   5.985   1.221   0.311
 7204SOL    HW222512   6.028   1.068   0.347
 7205SOL     OW22513   1.032   3.438   4.625
 7205SOL    HW122514   1.063   3.530   4.649
 7205SOL    HW222515   0.946   3.444   4.575
 7206SOL     OW22516   1.158   1.512   1.247
 7206SOL    HW122517   1.217   1.485   1.172
 7206SOL    HW222518   1.121   1.604   1.230
 7207SOL     OW22519   2.761   1.650   3.580
 7207SOL    HW122520   2.776   1.553   3.563
 7207SOL    HW222521   2.667   1.674   3.556
 7208SOL     OW22522   4.561   0.377   4.000
 7208SOL    HW122523   4.566   0.277   4.000
 7208SOL    HW222524   4.472   0.405   4.038
 7209SOL     OW22525   2.197   2.362   2.322
 7209SOL    HW122526   2.200   2.294   2.395
 7209SOL    HW222527   2.120   2.425   2.337
 7210SOL     OW22528   3.644   1.888   3.105
 7210SOL    HW122529   3.637   1.982   3.138
 7210SOL    HW222530   3.691   1.887   3.017
 7211SOL     OW22531   3.072   6.346   5.276
 7211SOL    HW122532   3.165   6.325   5.308
 7211SOL    HW222533   3.018   6.262   5.273
 7212SOL     OW22534   6.492   6.508   6.680
 7212SOL    HW122535   6.503   6.589   6.738
 7212SOL    HW222536   6.544   6.520   6.596
 7213SOL     OW22537   3.781   6.483   6.550
 7213SOL    HW122538   3.809   6.443   6.638
 7213SOL    HW222539   3.703   6.432   6.515
 7214SOL     OW22540   0.228   0.769   5.833
 7214SOL    HW122541   0.144   0.721   5.859
 7214SOL    HW222542   0.212   0.868   5.835
 7215SOL     OW22543   6.334   2.547   4.062
 7215SOL    HW122544   6.336   2.646   4.050
 7215SOL    HW222545   6.340   2.525   4.160
 7216SOL     OW22546   2.906   6.366   2.096
 7216SOL    HW122547   2.912   6.384   2.194
 7216SOL    HW222548   2.860   6.443   2.051
 7217SOL     OW22549   1.773   4.149   3.682
 7217SOL    HW122550   1.697   4.154   3.619
 7217SOL    HW222551   1.778   4.232   3.737
 7218SOL     OW22552   0.037   3.158   3.573
 7218SOL    HW122553   0.096   3.130   3.497
 7218SOL    HW222554   0.047   3.093   3.648
 7219SOL     OW22555   3.103   6.911   1.449
 7219SOL    HW122556   3.144   6.905   1.540
 7219SOL    HW222557   3.173   6.894   1.379
 7220SOL     OW22558   6.534   4.201   4.273
 7220SOL    HW122559   6.613   4.169   4.325
 7220SOL    HW222560   6.565   4.254   4.194
 7221SOL     OW22561   3.227   5.996   4.862
 7221SOL    HW122562   3.186   6.067   4.919
 7221SOL    HW222563   3.323   6.017   4.846
 7222SOL     OW22564   5.424   0.186   3.102
 7222SOL    HW122565   5.375   0.135   3.173
 7222SOL    HW222566   5.361   0.251   3.059
 7223SOL     OW22567   2.760   0.992   0.532
 7223SOL    HW122568   2.715   0.904   0.549
 7223SOL    HW222569   2.770   1.006   0.434
 7224SOL     OW22570   4.636   2.371   4.444
 7224SOL    HW122571   4.599   2.442   4.505
 7224SOL    HW222572   4.586   2.286   4.457
 7225SOL     OW22573   1.466   6.592   1.311
 7225SOL    HW122574   1.522   6.662   1.355
 7225SOL    HW222575   1.412   6.544   1.381
 7226SOL     OW22576   6.120   0.229   1.386
 7226SOL    HW122577   6.203   0.272   1.420
 7226SOL    HW222578   6.131   0.206   1.289
 7227SOL     OW22579   2.882   1.271   1.700
 7227SOL    HW122580   2.872   1.312   1.791
 7227SOL    HW222581   2.907   1.342   1.634
 7228SOL     OW22582   0.841   1.448   3.456
 7228SOL    HW122583   0.823   1.427   3.360
 7228SOL    HW222584   0.923   1.505   3.462
 7229SOL     OW22585   6.900   6.695   4.491
 7229SOL    HW122586   6.990   6.652   4.501
 7229SOL    HW222587   6.911   6.793   4.479
 7230SOL     OW22588   2.483   5.390   3.573
 7230SOL    HW122589   2.529   5.355   3.655
 7230SOL    HW222590   2.543   5.454   3.526
 7231SOL     OW22591   3.978   0.391   0.793
 7231SOL    HW122592   3.922   0.439   0.726
 7231SOL    HW222593   4.011   0.456   0.861
 7232SOL     OW22594   4.462   6.468   2.529
 7232SOL    HW122595   4.506   6.550   2.492
 7232SOL    HW222596   4.379   6.495   2.579
 7233SOL     OW22597   0.762   1.283   5.038
 7233SOL    HW122598   0.844   1.293   5.093
 7233SOL    HW222599   0.719   1.195   5.057
 7234SOL     OW22600   5.370   3.271   2.877
 7234SOL    HW122601   5.358   3.283   2.975
 7234SOL    HW222602   5.365   3.360   2.831
 7235SOL     OW22603   6.507   4.982   1.320
 7235SOL    HW122604   6.549   4.932   1.395
 7235SOL    HW222605   6.542   5.076   1.320
 7236SOL     OW22606   1.807   2.524   2.885
 7236SOL    HW122607   1.829   2.620   2.867
 7236SOL    HW222608   1.709   2.516   2.904
 7237SOL     OW22609   4.208   6.981   6.651
 7237SOL    HW122610   4.270   6.947   6.722
 7237SOL    HW222611   4.252   6.974   6.562
 7238SOL     OW22612   4.730   2.393   6.451
 7238SOL    HW122613   4.651   2.407   6.392
 7238SOL    HW222614   4.810   2.439   6.412
 7239SOL     OW22615   0.751   2.853   1.901
 7239SOL    HW122616   0.755   2.873   1.803
 7239SOL    HW222617   0.842   2.865   1.940
 7240SOL     OW22618   0.016   1.413   0.288
 7240SOL    HW122619   0.075   1.490   0.266
 7240SOL    HW222620   0.049   1.331   0.241
 7241SOL     OW22621   2.229   6.955   0.598
 7241SOL    HW122622   2.220   0.029   0.635
 7241SOL    HW222623   2.323   6.941   0.565
 7242SOL     OW22624   6.984   5.550   5.100
 7242SOL    HW122625   6.900   5.600   5.118
 7242SOL    HW222626   6.962   5.460   5.062
 7243SOL     OW22627   0.211   4.517   6.500
 7243SOL    HW122628   0.118   4.549   6.518
 7243SOL    HW222629   0.216   4.479   6.407
 7244SOL     OW22630   0.387   0.813   0.910
 7244SOL    HW122631   0.414   0.793   0.816
 7244SOL    HW222632   0.375   0.727   0.961
 7245SOL     OW22633   1.418   2.540   5.344
 7245SOL    HW122634   1.464   2.613   5.396
 7245SOL    HW222635   1.321   2.560   5.337
 7246SOL     OW22636   1.814   0.801   3.866
 7246SOL    HW122637   1.717   0.821   3.879
 7246SOL    HW222638   1.845   0.735   3.934
 7247SOL     OW22639   3.090   2.096   5.499
 7247SOL    HW122640   3.105   2.001   5.471
 7247SOL    HW222641   3.032   2.099   5.580
 7248SOL     OW22642   3.295   0.611   3.234
 7248SOL    HW122643   3.343   0.692   3.266
 7248SOL    HW222644   3.225   0.586   3.300
 7249SOL     OW22645   4.245   5.026   1.885
 7249SOL    HW122646   4.225   4.931   1.861
 7249SOL    HW222647   4.162   5.072   1.916
 7250SOL     OW22648   5.125   5.020   5.539
 7250SOL    HW122649   5.108   5.043   5.635
 7250SOL    HW222650   5.046   5.048   5.484
 7251SOL     OW22651   1.075   0.433   5.247
 7251SOL    HW122652   1.071   0.361   5.316
 7251SOL    HW222653   1.005   0.501   5.265
 7252SOL     OW22654   2.962   3.576   1.699
 7252SOL    HW122655   3.054   3.570   1.662
 7252SOL    HW222656   2.915   3.489   1.685
 7253SOL     OW22657   2.107   6.145   6.651
 7253SOL    HW122658   2.070   6.096   6.730
 7253SOL    HW222659   2.091   6.091   6.568
 7254SOL     OW22660   5.623   5.691   4.618
 7254SOL    HW122661   5.523   5.698   4.620
 7254SOL    HW222662   5.656   5.660   4.707
 7255SOL     OW22663   4.215   3.630   0.104
 7255SOL    HW122664   4.199   3.729   0.094
 7255SOL    HW222665   4.142   3.580   0.059
 7256SOL     OW22666   3.982   6.352   5.558
 7256SOL    HW122667   4.081   6.345   5.544
 7256SOL    HW222668   3.941   6.261   5.547
 7257SOL     OW22669   0.681   2.134   3.892
 7257SOL    HW122670   0.685   2.127   3.792
 7257SOL    HW222671   0.587   2.152   3.921
 7258SOL     OW22672   5.508   2.194   2.835
 7258SOL    HW122673   5.416   2.212   2.868
 7258SOL    HW222674   5.543   2.110   2.878
 7259SOL     OW22675   1.424   3.239   2.315
 7259SOL    HW122676   1.491   3.203   2.380
 7259SOL    HW222677   1.407   3.335   2.335
 7260SOL     OW22678   5.399   1.687   1.902
 7260SOL    HW122679   5.341   1.653   1.828
 7260SOL    HW222680   5.495   1.672   1.879
 7261SOL     OW22681   0.887   4.779   1.147
 7261SOL    HW122682   0.787   4.785   1.138
 7261SOL    HW222683   0.921   4.706   1.088
 7262SOL     OW22684   5.376   1.595   0.062
 7262SOL    HW122685   5.455   1.615   0.004
 7262SOL    HW222686   5.292   1.620   0.014
 7263SOL     OW22687   0.639   6.106   0.170
 7263SOL    HW122688   0.595   6.037   0.228
 7263SOL    HW222689   0.569   6.159   0.123
 7264SOL     OW22690   5.453   0.765   0.667
 7264SOL    HW122691   5.360   0.799   0.680
 7264SOL    HW222692   5.468   0.686   0.727
 7265SOL     OW22693   5.745   4.568   5.607
 7265SOL    HW122694   5.830   4.517   5.598
 7265SOL    HW222695   5.725   4.616   5.521
 7266SOL     OW22696   6.448   1.072   3.421
 7266SOL    HW122697   6.486   1.121   3.343
 7266SOL    HW222698   6.395   1.135   3.478
 7267SOL     OW22699   6.545   6.783   4.625
 7267SOL    HW122700   6.448   6.777   4.600
 7267SOL    HW222701   6.553   6.823   4.717
 7268SOL     OW22702   6.853   6.257   4.141
 7268SOL    HW122703   6.901   6.189   4.087
 7268SOL    HW222704   6.903   6.274   4.226
 7269SOL     OW22705   1.985   6.441   6.353
 7269SOL    HW122706   2.063   6.378   6.362
 7269SOL    HW222707   1.901   6.389   6.343
 7270SOL     OW22708   0.010   2.640   4.823
 7270SOL    HW122709   0.080   2.599   4.765
 7270SOL    HW222710   6.979   2.569   4.873
 7271SOL     OW22711   1.220   4.961   4.408
 7271SOL    HW122712   1.166   4.884   4.376
 7271SOL    HW222713   1.167   5.046   4.399
 7272SOL     OW22714   6.015   5.998   2.204
 7272SOL    HW122715   5.937   6.028   2.259
 7272SOL    HW222716   6.078   5.945   2.261
 7273SOL     OW22717   5.829   3.469   0.753
 7273SOL    HW122718   5.797   3.467   0.658
 7273SOL    HW222719   5.765   3.524   0.808
 7274SOL     OW22720   0.293   4.744   6.815
 7274SOL    HW122721   0.211   4.687   6.820
 7274SOL    HW222722   0.333   4.738   6.724
 7275SOL     OW22723   0.187   5.963   2.557
 7275SOL    HW122724   0.250   6.026   2.512
 7275SOL    HW222725   0.103   5.955   2.502
 7276SOL     OW22726   5.480   0.796   3.410
 7276SOL    HW122727   5.515   0.789   3.316
 7276SOL    HW222728   5.478   0.705   3.451
 7277SOL     OW22729   5.468   0.351   4.209
 7277SOL    HW122730   5.522   0.330   4.128
 7277SOL    HW222731   5.450   0.266   4.260
 7278SOL     OW22732   3.733   2.992   1.457
 7278SOL    HW122733   3.824   3.014   1.420
 7278SOL    HW222734   3.667   2.987   1.382
 7279SOL     OW22735   4.443   5.057   6.403
 7279SOL    HW122736   4.396   4.974   6.373
 7279SOL    HW222737   4.525   5.033   6.454
 7280SOL     OW22738   0.124   0.830   3.531
 7280SOL    HW122739   0.181   0.851   3.451
 7280SOL    HW222740   0.092   0.916   3.572
 7281SOL     OW22741   3.203   1.779   0.130
 7281SOL    HW122742   3.252   1.809   0.048
 7281SOL    HW222743   3.268   1.741   0.195
 7282SOL     OW22744   5.896   4.749   2.733
 7282SOL    HW122745   5.891   4.830   2.792
 7282SOL    HW222746   5.855   4.770   2.644
 7283SOL     OW22747   3.666   1.454   3.258
 7283SOL    HW122748   3.575   1.465   3.297
 7283SOL    HW222749   3.674   1.507   3.174
 7284SOL     OW22750   0.895   2.991   6.359
 7284SOL    HW122751   0.918   3.039   6.444
 7284SOL    HW222752   0.976   2.984   6.302
 7285SOL     OW22753   5.165   3.437   2.572
 7285SOL    HW122754   5.204   3.384   2.497
 7285SOL    HW222755   5.157   3.533   2.544
 7286SOL     OW22756   2.759   0.958   0.242
 7286SOL    HW122757   2.782   1.002   0.155
 7286SOL    HW222758   2.826   0.888   0.263
 7287SOL     OW22759   0.212   2.468   6.067
 7287SOL    HW122760   0.172   2.540   6.011
 7287SOL    HW222761   0.253   2.507   6.150
 7288SOL     OW22762   2.970   0.353   0.412
 7288SOL    HW122763   2.905   0.314   0.478
 7288SOL    HW222764   2.986   0.288   0.339
 7289SOL     OW22765   5.497   2.146   4.445
 7289SOL    HW122766   5.448   2.187   4.368
 7289SOL    HW222767   5.431   2.104   4.508
 7290SOL     OW22768   3.383   0.595   5.618
 7290SOL    HW122769   3.338   0.510   5.591
 7290SOL    HW222770   3.446   0.625   5.547
 7291SOL     OW22771   1.631   6.957   1.039
 7291SOL    HW122772   1.730   6.970   1.039
 7291SOL    HW222773   1.605   6.903   0.959
 7292SOL     OW22774   3.420   1.470   3.400
 7292SOL    HW122775   3.340   1.499   3.348
 7292SOL    HW222776   3.400   1.384   3.446
 7293SOL     OW22777   1.594   2.245   5.072
 7293SOL    HW122778   1.645   2.296   5.002
 7293SOL    HW222779   1.624   2.149   5.071
 7294SOL     OW22780   2.211   5.072   0.167
 7294SOL    HW122781   2.275   5.119   0.229
 7294SOL    HW222782   2.132   5.040   0.219
 7295SOL     OW22783   0.964   2.139   0.695
 7295SOL    HW122784   0.950   2.234   0.722
 7295SOL    HW222785   0.938   2.079   0.771
 7296SOL     OW22786   2.556   5.089   1.202
 7296SOL    HW122787   2.578   4.991   1.206
 7296SOL    HW222788   2.511   5.116   1.287
 7297SOL     OW22789   3.257   6.259   1.088
 7297SOL    HW122790   3.226   6.227   0.999
 7297SOL    HW222791   3.204   6.338   1.116
 7298SOL     OW22792   4.707   4.162   5.461
 7298SOL    HW122793   4.747   4.105   5.389
 7298SOL    HW222794   4.612   4.135   5.476
 7299SOL     OW22795   0.247   1.563   0.245
 7299SOL    HW122796   0.304   1.601   0.318
 7299SOL    HW222797   0.305   1.527   0.172
 7300SOL     OW22798   6.353   5.933   2.581
 7300SOL    HW122799   6.386   5.846   2.619
 7300SOL    HW222800   6.331   5.996   2.655
 7301SOL     OW22801   5.963   1.261   4.923
 7301SOL    HW122802   5.908   1.345   4.928
 7301SOL    HW222803   6.022   1.255   5.004
 7302SOL     OW22804   0.516   2.026   5.770
 7302SOL    HW122805   0.452   2.046   5.843
 7302SOL    HW222806   0.609   2.049   5.799
 7303SOL     OW22807   4.604   0.355   0.181
 7303SOL    HW122808   4.535   0.407   0.232
 7303SOL    HW222809   4.564   0.318   0.097
 7304SOL     OW22810   3.896   4.809   0.229
 7304SOL    HW122811   3.857   4.731   0.180
 7304SOL    HW222812   3.836   4.833   0.306
 7305SOL     OW22813   4.930   0.672   0.110
 7305SOL    HW122814   5.010   0.710   0.156
 7305SOL    HW222815   4.931   0.573   0.117
 7306SOL     OW22816   5.176   2.366   1.830
 7306SOL    HW122817   5.244   2.438   1.813
 7306SOL    HW222818   5.095   2.407   1.873
 7307SOL     OW22819   2.080   0.178   2.495
 7307SOL    HW122820   2.054   0.221   2.581
 7307SOL    HW222821   2.179   0.164   2.494
 7308SOL     OW22822   6.692   3.930   5.954
 7308SOL    HW122823   6.597   3.900   5.956
 7308SOL    HW222824   6.730   3.915   5.863
 7309SOL     OW22825   4.626   5.828   1.361
 7309SOL    HW122826   4.696   5.758   1.376
 7309SOL    HW222827   4.667   5.918   1.362
 7310SOL     OW22828   2.239   3.774   1.699
 7310SOL    HW122829   2.192   3.825   1.627
 7310SOL    HW222830   2.281   3.692   1.660
 7311SOL     OW22831   3.649   1.937   1.969
 7311SOL    HW122832   3.623   2.034   1.976
 7311SOL    HW222833   3.601   1.885   2.039
 7312SOL     OW22834   0.290   3.766   5.503
 7312SOL    HW122835   0.343   3.686   5.476
 7312SOL    HW222836   0.324   3.802   5.589
 7313SOL     OW22837   2.960   1.657   6.274
 7313SOL    HW122838   2.965   1.580   6.210
 7313SOL    HW222839   2.918   1.736   6.229
 7314SOL     OW22840   6.874   5.197   5.499
 7314SOL    HW122841   6.832   5.146   5.574
 7314SOL    HW222842   6.847   5.156   5.412
 7315SOL     OW22843   6.864   0.683   2.751
 7315SOL    HW122844   6.877   0.761   2.690
 7315SOL    HW222845   6.855   0.599   2.697
 7316SOL     OW22846   3.177   4.873   6.688
 7316SOL    HW122847   3.086   4.855   6.726
 7316SOL    HW222848   3.240   4.801   6.717
 7317SOL     OW22849   4.894   1.172   2.562
 7317SOL    HW122850   4.935   1.148   2.650
 7317SOL    HW222851   4.930   1.259   2.530
 7318SOL     OW22852   1.361   1.065   0.907
 7318SOL    HW122853   1.325   1.044   0.816
 7318SOL    HW222854   1.329   0.996   0.972
 7319SOL     OW22855   6.808   4.394   6.683
 7319SOL    HW122856   6.854   4.313   6.647
 7319SOL    HW222857   6.844   4.415   6.774
 7320SOL     OW22858   6.313   3.790   1.987
 7320SOL    HW122859   6.282   3.756   2.075
 7320SOL    HW222860   6.391   3.736   1.956
 7321SOL     OW22861   2.495   6.922   5.356
 7321SOL    HW122862   2.503   6.832   5.313
 7321SOL    HW222863   2.426   6.976   5.307
 7322SOL     OW22864   6.243   2.445   3.456
 7322SOL    HW122865   6.218   2.522   3.397
 7322SOL    HW222866   6.166   2.382   3.463
 7323SOL     OW22867   2.206   1.803   1.888
 7323SOL    HW122868   2.140   1.834   1.820
 7323SOL    HW222869   2.277   1.749   1.843
 7324SOL     OW22870   4.884   6.087   2.215
 7324SOL    HW122871   4.960   6.152   2.220
 7324SOL    HW222872   4.840   6.095   2.125
 7325SOL     OW22873   3.576   6.592   0.330
 7325SOL    HW122874   3.560   6.639   0.243
 7325SOL    HW222875   3.674   6.588   0.349
 7326SOL     OW22876   3.300   6.187   5.670
 7326SOL    HW122877   3.263   6.098   5.645
 7326SOL    HW222878   3.374   6.211   5.607
 7327SOL     OW22879   6.023   2.059   6.387
 7327SOL    HW122880   6.036   2.115   6.469
 7327SOL    HW222881   6.104   2.065   6.329
 7328SOL     OW22882   3.501   0.302   6.255
 7328SOL    HW122883   3.449   0.360   6.193
 7328SOL    HW222884   3.519   0.351   6.340
 7329SOL     OW22885   5.714   4.564   1.277
 7329SOL    HW122886   5.711   4.664   1.286
 7329SOL    HW222887   5.625   4.525   1.298
 7330SOL     OW22888   2.588   2.074   6.900
 7330SOL    HW122889   2.645   2.021   6.962
 7330SOL    HW222890   2.499   2.030   6.889
 7331SOL     OW22891   5.495   0.046   2.333
 7331SOL    HW122892   5.466   0.007   2.420
 7331SOL    HW222893   5.590   0.018   2.314
 7332SOL     OW22894   2.293   6.061   0.740
 7332SOL    HW122895   2.324   5.977   0.695
 7332SOL    HW222896   2.329   6.064   0.833
 7333SOL     OW22897   0.571   2.589   2.570
 7333SOL    HW122898   0.585   2.631   2.660
 7333SOL    HW222899   0.645   2.525   2.550
 7334SOL     OW22900   3.335   5.816   6.915
 7334SOL    HW122901   3.292   5.726   6.907
 7334SOL    HW222902   3.310   5.873   6.836
 7335SOL     OW22903   1.617   2.838   2.750
 7335SOL    HW122904   1.712   2.855   2.721
 7335SOL    HW222905   1.558   2.839   2.670
 7336SOL     OW22906   1.367   6.606   3.202
 7336SOL    HW122907   1.416   6.691   3.221
 7336SOL    HW222908   1.303   6.587   3.276
 7337SOL     OW22909   0.422   3.366   1.510
 7337SOL    HW122910   0.502   3.389   1.454
 7337SOL    HW222911   0.410   3.267   1.512
 7338SOL     OW22912   6.311   2.502   1.201
 7338SOL    HW122913   6.261   2.552   1.272
 7338SOL    HW222914   6.355   2.567   1.139
 7339SOL     OW22915   5.314   6.592   3.618
 7339SOL    HW122916   5.216   6.573   3.608
 7339SOL    HW222917   5.341   6.660   3.551
 7340SOL     OW22918   2.570   0.908   1.050
 7340SOL    HW122919   2.623   0.907   0.965
 7340SOL    HW222920   2.473   0.913   1.028
 7341SOL     OW22921   6.630   2.953   6.548
 7341SOL    HW122922   6.582   3.041   6.545
 7341SOL    HW222923   6.688   2.944   6.468
 7342SOL     OW22924   6.854   1.230   1.846
 7342SOL    HW122925   6.903   1.314   1.872
 7342SOL    HW222926   6.825   1.182   1.928
 7343SOL     OW22927   5.468   3.256   0.120
 7343SOL    HW122928   5.400   3.267   0.047
 7343SOL    HW222929   5.457   3.329   0.188
 7344SOL     OW22930   0.219   0.959   6.761
 7344SOL    HW122931   0.312   0.925   6.758
 7344SOL    HW222932   0.202   1.015   6.679
 7345SOL     OW22933   4.539   3.968   5.621
 7345SOL    HW122934   4.630   3.926   5.628
 7345SOL    HW222935   4.472   3.897   5.598
 7346SOL     OW22936   4.278   5.570   2.244
 7346SOL    HW122937   4.368   5.531   2.225
 7346SOL    HW222938   4.289   5.658   2.290
 7347SOL     OW22939   1.096   1.685   0.924
 7347SOL    HW122940   1.068   1.695   0.829
 7347SOL    HW222941   1.196   1.681   0.930
 7348SOL     OW22942   1.543   4.597   3.330
 7348SOL    HW122943   1.489   4.642   3.402
 7348SOL    HW222944   1.485   4.532   3.281
 7349SOL     OW22945   4.363   0.352   2.037
 7349SOL    HW122946   4.303   0.349   1.957
 7349SOL    HW222947   4.316   0.396   2.113
 7350SOL     OW22948   2.686   2.405   5.579
 7350SOL    HW122949   2.621   2.481   5.571
 7350SOL    HW222950   2.663   2.334   5.512
 7351SOL     OW22951   5.880   5.457   3.650
 7351SOL    HW122952   5.894   5.552   3.679
 7351SOL    HW222953   5.866   5.400   3.730
 7352SOL     OW22954   1.412   1.808   2.542
 7352SOL    HW122955   1.439   1.800   2.446
 7352SOL    HW222956   1.477   1.869   2.589
 7353SOL     OW22957   6.868   0.063   6.782
 7353SOL    HW122958   6.770   0.048   6.770
 7353SOL    HW222959   6.917   6.995   6.774
 7354SOL     OW22960   1.296   2.065   5.413
 7354SOL    HW122961   1.319   2.047   5.317
 7354SOL    HW222962   1.357   2.135   5.449
 7355SOL     OW22963   1.322   0.942   0.365
 7355SOL    HW122964   1.405   0.926   0.312
 7355SOL    HW222965   1.245   0.958   0.303
 7356SOL     OW22966   3.972   3.251   6.229
 7356SOL    HW122967   3.926   3.194   6.161
 7356SOL    HW222968   3.933   3.343   6.228
 7357SOL     OW22969   3.291   6.020   2.296
 7357SOL    HW122970   3.274   5.967   2.213
 7357SOL    HW222971   3.364   5.977   2.349
 7358SOL     OW22972   6.160   3.451   2.166
 7358SOL    HW122973   6.130   3.391   2.241
 7358SOL    HW222974   6.094   3.445   2.091
 7359SOL     OW22975   4.390   2.354   5.410
 7359SOL    HW122976   4.456   2.419   5.448
 7359SOL    HW222977   4.299   2.395   5.409
 7360SOL     OW22978   2.888   3.157   5.596
 7360SOL    HW122979   2.810   3.185   5.652
 7360SOL    HW222980   2.856   3.131   5.505
 7361SOL     OW22981   5.589   0.696   2.361
 7361SOL    HW122982   5.653   0.674   2.288
 7361SOL    HW222983   5.640   0.726   2.442
 7362SOL     OW22984   1.944   5.828   6.263
 7362SOL    HW122985   1.871   5.760   6.273
 7362SOL    HW222986   1.958   5.848   6.166
 7363SOL     OW22987   4.746   1.709   1.357
 7363SOL    HW122988   4.672   1.670   1.301
 7363SOL    HW222989   4.761   1.650   1.436
 7364SOL     OW22990   4.013   0.790   2.127
 7364SOL    HW122991   4.087   0.744   2.175
 7364SOL    HW222992   4.013   0.887   2.151
 7365SOL     OW22993   0.680   6.106   1.902
 7365SOL    HW122994   0.703   6.032   1.965
 7365SOL    HW222995   0.764   6.151   1.872
 7366SOL     OW22996   2.227   6.800   5.507
 7366SOL    HW122997   2.319   6.809   5.546
 7366SOL    HW222998   2.234   6.772   5.411
 7367SOL     OW22999   4.605   2.696   0.511
 7367SOL    HW123000   4.582   2.660   0.602
 7367SOL    HW223001   4.696   2.664   0.485
 7368SOL     OW23002   3.655   2.897   2.475
 7368SOL    HW123003   3.638   2.812   2.425
 7368SOL    HW223004   3.616   2.974   2.423
 7369SOL     OW23005   3.230   2.256   1.137
 7369SOL    HW123006   3.199   2.287   1.227
 7369SOL    HW223007   3.162   2.193   1.098
 7370SOL     OW23008   2.528   1.157   6.476
 7370SOL    HW123009   2.522   1.186   6.572
 7370SOL    HW223010   2.495   1.231   6.417
 7371SOL     OW23011   2.877   6.412   3.159
 7371SOL    HW123012   2.864   6.498   3.109
 7371SOL    HW223013   2.853   6.426   3.256
 7372SOL     OW23014   4.547   6.853   4.605
 7372SOL    HW123015   4.638   6.810   4.612
 7372SOL    HW223016   4.558   6.952   4.596
 7373SOL     OW23017   6.044   1.925   5.157
 7373SOL    HW123018   5.957   1.897   5.116
 7373SOL    HW223019   6.035   1.924   5.256
 7374SOL     OW23020   2.386   2.123   4.568
 7374SOL    HW123021   2.295   2.109   4.607
 7374SOL    HW223022   2.437   2.037   4.570
 7375SOL     OW23023   2.490   2.495   2.009
 7375SOL    HW123024   2.540   2.413   2.038
 7375SOL    HW223025   2.453   2.542   2.089
 7376SOL     OW23026   1.088   2.164   1.097
 7376SOL    HW123027   1.174   2.130   1.059
 7376SOL    HW223028   1.103   2.198   1.190
 7377SOL     OW23029   4.939   5.043   0.376
 7377SOL    HW123030   4.994   4.991   0.310
 7377SOL    HW223031   4.937   4.994   0.463
 7378SOL     OW23032   1.512   0.964   4.474
 7378SOL    HW123033   1.487   1.025   4.549
 7378SOL    HW223034   1.449   0.976   4.398
 7379SOL     OW23035   2.999   0.855   2.414
 7379SOL    HW123036   3.048   0.814   2.337
 7379SOL    HW223037   2.982   0.952   2.396
 7380SOL     OW23038   0.242   4.515   4.025
 7380SOL    HW123039   0.213   4.490   3.932
 7380SOL    HW223040   0.235   4.434   4.084
 7381SOL     OW23041   3.723   3.316   0.446
 7381SOL    HW123042   3.700   3.222   0.421
 7381SOL    HW223043   3.752   3.319   0.541
 7382SOL     OW23044   6.400   1.265   5.671
 7382SOL    HW123045   6.348   1.347   5.695
 7382SOL    HW223046   6.489   1.293   5.635
 7383SOL     OW23047   2.817   5.866   1.391
 7383SOL    HW123048   2.853   5.849   1.299
 7383SOL    HW223049   2.719   5.844   1.393
 7384SOL     OW23050   6.316   6.892   2.568
 7384SOL    HW123051   6.308   6.992   2.572
 7384SOL    HW223052   6.412   6.867   2.561
 7385SOL     OW23053   2.790   5.499   2.556
 7385SOL    HW123054   2.866   5.435   2.567
 7385SOL    HW223055   2.743   5.510   2.643
 7386SOL     OW23056   6.912   3.026   6.820
 7386SOL    HW123057   6.837   3.039   6.756
 7386SOL    HW223058   6.921   3.108   6.878
 7387SOL     OW23059   6.624   5.031   4.870
 7387SOL    HW123060   6.710   4.981   4.869
 7387SOL    HW223061   6.636   5.115   4.923
 7388SOL     OW23062   1.404   5.061   2.205
 7388SOL    HW123063   1.332   5.077   2.273
 7388SOL    HW223064   1.378   4.985   2.146
 7389SOL     OW23065   6.862   3.549   6.750
 7389SOL    HW123066   6.916   3.489   6.691
 7389SOL    HW223067   6.912   3.567   6.834
 7390SOL     OW23068   2.567   1.760   2.459
 7390SOL    HW123069   2.630   1.728   2.389
 7390SOL    HW223070   2.473   1.756   2.424
 7391SOL     OW23071   3.536   2.957   3.158
 7391SOL    HW123072   3.545   2.917   3.067
 7391SOL    HW223073   3.574   3.049   3.159
 7392SOL     OW23074   3.764   5.852   6.442
 7392SOL    HW123075   3.763   5.950   6.461
 7392SOL    HW223076   3.785   5.837   6.345
 7393SOL     OW23077   6.467   4.807   2.816
 7393SOL    HW123078   6.460   4.840   2.722
 7393SOL    HW223079   6.562   4.817   2.847
 7394SOL     OW23080   1.356   2.832   6.034
 7394SOL    HW123081   1.280   2.797   5.978
 7394SOL    HW223082   1.394   2.758   6.089
 7395SOL     OW23083   2.182   3.428   1.045
 7395SOL    HW123084   2.175   3.414   1.144
 7395SOL    HW223085   2.177   3.526   1.025
 7396SOL     OW23086   1.997   6.627   1.281
 7396SOL    HW123087   2.005   6.721   1.246
 7396SOL    HW223088   1.911   6.587   1.248
 7397SOL     OW23089   5.677   4.684   4.602
 7397SOL    HW123090   5.687   4.632   4.687
 7397SOL    HW223091   5.738   4.646   4.533
 7398SOL     OW23092   0.737   5.433   2.961
 7398SOL    HW123093   0.711   5.422   3.057
 7398SOL    HW223094   0.663   5.400   2.902
 7399SOL     OW23095   6.916   3.067   4.451
 7399SOL    HW123096   6.992   3.131   4.436
 7399SOL    HW223097   6.829   3.113   4.429
 7400SOL     OW23098   4.284   2.759   6.147
 7400SOL    HW123099   4.200   2.706   6.149
 7400SOL    HW223100   4.361   2.699   6.126
 7401SOL     OW23101   1.251   3.046   2.978
 7401SOL    HW123102   1.302   3.024   3.062
 7401SOL    HW223103   1.255   3.145   2.962
 7402SOL     OW23104   2.893   4.273   6.033
 7402SOL    HW123105   2.902   4.222   6.119
 7402SOL    HW223106   2.921   4.214   5.957
 7403SOL     OW23107   1.433   3.309   3.001
 7403SOL    HW123108   1.397   3.379   3.064
 7403SOL    HW223109   1.501   3.254   3.049
 7404SOL     OW23110   2.618   4.604   1.749
 7404SOL    HW123111   2.628   4.646   1.659
 7404SOL    HW223112   2.705   4.561   1.775
 7405SOL     OW23113   3.286   5.149   4.177
 7405SOL    HW123114   3.304   5.055   4.207
 7405SOL    HW223115   3.351   5.174   4.105
 7406SOL     OW23116   1.040   1.464   4.548
 7406SOL    HW123117   1.131   1.501   4.565
 7406SOL    HW223118   0.991   1.452   4.635
 7407SOL     OW23119   1.481   6.379   5.725
 7407SOL    HW123120   1.544   6.347   5.795
 7407SOL    HW223121   1.395   6.328   5.731
 7408SOL     OW23122   3.783   4.411   5.729
 7408SOL    HW123123   3.714   4.360   5.781
 7408SOL    HW223124   3.779   4.508   5.754
 7409SOL     OW23125   5.496   4.377   0.854
 7409SOL    HW123126   5.492   4.374   0.954
 7409SOL    HW223127   5.560   4.308   0.821
 7410SOL     OW23128   0.374   0.945   0.639
 7410SOL    HW123129   0.427   0.996   0.571
 7410SOL    HW223130   0.386   0.986   0.729
 7411SOL     OW23131   1.751   0.648   6.617
 7411SOL    HW123132   1.671   0.615   6.567
 7411SOL    HW223133   1.739   0.631   6.715
 7412SOL     OW23134   3.958   6.582   0.937
 7412SOL    HW123135   3.946   6.672   0.894
 7412SOL    HW223136   3.965   6.593   1.037
 7413SOL     OW23137   4.765   4.872   3.959
 7413SOL    HW123138   4.769   4.817   4.042
 7413SOL    HW223139   4.850   4.924   3.949
 7414SOL     OW23140   2.446   1.260   3.309
 7414SOL    HW123141   2.369   1.198   3.325
 7414SOL    HW223142   2.530   1.207   3.298
 7415SOL     OW23143   2.043   4.863   4.927
 7415SOL    HW123144   2.022   4.799   4.853
 7415SOL    HW223145   2.026   4.957   4.896
 7416SOL     OW23146   1.849   0.843   2.435
 7416SOL    HW123147   1.892   0.771   2.382
 7416SOL    HW223148   1.885   0.932   2.407
 7417SOL     OW23149   1.844   2.261   2.098
 7417SOL    HW123150   1.941   2.282   2.084
 7417SOL    HW223151   1.812   2.307   2.180
 7418SOL     OW23152   1.857   4.785   6.628
 7418SOL    HW123153   1.881   4.796   6.724
 7418SOL    HW223154   1.878   4.691   6.599
 7419SOL     OW23155   6.397   4.131   3.924
 7419SOL    HW123156   6.455   4.095   3.851
 7419SOL    HW223157   6.391   4.230   3.915
 7420SOL     OW23158   0.065   6.388   1.049
 7420SOL    HW123159   0.130   6.315   1.070
 7420SOL    HW223160   0.012   6.363   0.968
 7421SOL     OW23161   3.937   3.470   1.215
 7421SOL    HW123162   3.992   3.518   1.146
 7421SOL    HW223163   3.843   3.460   1.180
 7422SOL     OW23164   6.444   4.062   1.861
 7422SOL    HW123165   6.459   3.983   1.921
 7422SOL    HW223166   6.526   4.120   1.861
 7423SOL     OW23167   6.241   3.085   5.711
 7423SOL    HW123168   6.277   3.113   5.622
 7423SOL    HW223169   6.221   3.167   5.765
 7424SOL     OW23170   6.745   1.680   5.254
 7424SOL    HW123171   6.730   1.596   5.202
 7424SOL    HW223172   6.738   1.660   5.352
 7425SOL     OW23173   4.877   6.977   0.596
 7425SOL    HW123174   4.949   0.025   0.575
 7425SOL    HW223175   4.914   6.905   0.655
 7426SOL     OW23176   3.593   1.996   5.329
 7426SOL    HW123177   3.510   2.045   5.300
 7426SOL    HW223178   3.574   1.898   5.330
 7427SOL     OW23179   4.661   1.010   4.244
 7427SOL    HW123180   4.733   1.071   4.212
 7427SOL    HW223181   4.588   1.063   4.287
 7428SOL     OW23182   3.946   0.319   5.120
 7428SOL    HW123183   3.993   0.339   5.206
 7428SOL    HW223184   3.980   0.233   5.082
 7429SOL     OW23185   1.026   6.440   3.557
 7429SOL    HW123186   0.974   6.451   3.642
 7429SOL    HW223187   0.966   6.401   3.487
 7430SOL     OW23188   6.802   3.719   0.977
 7430SOL    HW123189   6.827   3.677   1.064
 7430SOL    HW223190   6.804   3.649   0.905
 7431SOL     OW23191   0.597   2.195   2.990
 7431SOL    HW123192   0.619   2.287   2.955
 7431SOL    HW223193   0.511   2.198   3.040
 7432SOL     OW23194   2.123   0.920   3.650
 7432SOL    HW123195   2.036   0.886   3.613
 7432SOL    HW223196   2.191   0.847   3.645
 7433SOL     OW23197   4.169   6.055   6.615
 7433SOL    HW123198   4.194   5.988   6.546
 7433SOL    HW223199   4.118   6.130   6.573
 7434SOL     OW23200   5.574   5.131   5.374
 7434SOL    HW123201   5.673   5.147   5.367
 7434SOL    HW223202   5.555   5.034   5.358
 7435SOL     OW23203   4.589   6.417   1.618
 7435SOL    HW123204   4.595   6.409   1.519
 7435SOL    HW223205   4.627   6.336   1.661
 7436SOL     OW23206   4.601   4.327   6.050
 7436SOL    HW123207   4.597   4.350   5.952
 7436SOL    HW223208   4.655   4.244   6.062
 7437SOL     OW23209   3.207   5.469   0.551
 7437SOL    HW123210   3.247   5.519   0.628
 7437SOL    HW223211   3.179   5.378   0.582
 7438SOL     OW23212   1.643   6.989   6.854
 7438SOL    HW123213   1.603   6.994   6.762
 7438SOL    HW223214   1.741   6.976   6.847
 7439SOL     OW23215   1.729   6.358   5.332
 7439SOL    HW123216   1.813   6.357   5.387
 7439SOL    HW223217   1.653   6.324   5.386
 7440SOL     OW23218   6.570   3.093   3.948
 7440SOL    HW123219   6.473   3.072   3.934
 7440SOL    HW223220   6.593   3.081   4.044
 7441SOL     OW23221   5.564   6.860   3.844
 7441SOL    HW123222   5.622   6.941   3.837
 7441SOL    HW223223   5.573   6.820   3.935
 7442SOL     OW23224   5.813   1.350   0.237
 7442SOL    HW123225   5.850   1.437   0.205
 7442SOL    HW223226   5.809   1.351   0.337
 7443SOL     OW23227   6.668   5.815   2.051
 7443SOL    HW123228   6.589   5.757   2.033
 7443SOL    HW223229   6.718   5.780   2.131
 7444SOL     OW23230   5.764   0.902   6.500
 7444SOL    HW123231   5.812   0.909   6.587
 7444SOL    HW223232   5.778   0.987   6.448
 7445SOL     OW23233   3.294   0.322   1.392
 7445SOL    HW123234   3.220   0.258   1.413
 7445SOL    HW223235   3.262   0.388   1.324
 7446SOL     OW23236   4.998   2.174   0.222
 7446SOL    HW123237   5.000   2.086   0.268
 7446SOL    HW223238   4.951   2.165   0.135
 7447SOL     OW23239   6.725   4.720   6.184
 7447SOL    HW123240   6.696   4.769   6.101
 7447SOL    HW223241   6.651   4.660   6.215
 7448SOL     OW23242   5.782   6.955   5.159
 7448SOL    HW123243   5.874   6.994   5.155
 7448SOL    HW223244   5.789   6.857   5.178
 7449SOL     OW23245   1.091   5.806   0.607
 7449SOL    HW123246   1.158   5.734   0.626
 7449SOL    HW223247   1.086   5.869   0.685
 7450SOL     OW23248   4.914   2.581   5.217
 7450SOL    HW123249   4.946   2.665   5.260
 7450SOL    HW223250   4.902   2.596   5.119
 7451SOL     OW23251   5.957   5.587   2.357
 7451SOL    HW123252   5.938   5.677   2.318
 7451SOL    HW223253   5.973   5.521   2.284
 7452SOL     OW23254   6.116   5.779   4.369
 7452SOL    HW123255   6.033   5.725   4.379
 7452SOL    HW223256   6.117   5.822   4.279
 7453SOL     OW23257   4.332   5.065   5.365
 7453SOL    HW123258   4.386   5.108   5.437
 7453SOL    HW223259   4.336   4.966   5.375
 7454SOL     OW23260   2.587   1.234   0.814
 7454SOL    HW123261   2.670   1.192   0.849
 7454SOL    HW223262   2.610   1.315   0.760
 7455SOL     OW23263   6.548   3.686   1.910
 7455SOL    HW123264   6.599   3.601   1.902
 7455SOL    HW223265   6.608   3.763   1.885
 7456SOL     OW23266   2.533   1.131   4.965
 7456SOL    HW123267   2.556   1.047   5.013
 7456SOL    HW223268   2.617   1.180   4.941
 7457SOL     OW23269   3.188   0.356   4.442
 7457SOL    HW123270   3.139   0.426   4.493
 7457SOL    HW223271   3.252   0.400   4.379
 7458SOL     OW23272   1.330   0.137   5.925
 7458SOL    HW123273   1.279   0.211   5.970
 7458SOL    HW223274   1.428   0.156   5.930
 7459SOL     OW23275   5.872   1.344   2.161
 7459SOL    HW123276   5.919   1.266   2.202
 7459SOL    HW223277   5.844   1.321   2.068
 7460SOL     OW23278   1.567   6.156   6.773
 7460SOL    HW123279   1.579   6.234   6.834
 7460SOL    HW223280   1.547   6.074   6.826
 7461SOL     OW23281   5.869   6.089   5.657
 7461SOL    HW123282   5.774   6.120   5.660
 7461SOL    HW223283   5.924   6.156   5.605
 7462SOL     OW23284   2.294   4.753   2.010
 7462SOL    HW123285   2.209   4.728   2.057
 7462SOL    HW223286   2.349   4.671   1.994
 7463SOL     OW23287   3.409   3.676   0.493
 7463SOL    HW123288   3.481   3.708   0.554
 7463SOL    HW223289   3.367   3.755   0.447
 7464SOL     OW23290   6.043   6.658   5.491
 7464SOL    HW123291   6.034   6.596   5.569
 7464SOL    HW223292   5.982   6.736   5.504
 7465SOL     OW23293   2.651   5.352   0.092
 7465SOL    HW123294   2.571   5.307   0.052
 7465SOL    HW223295   2.637   5.364   0.190
 7466SOL     OW23296   0.154   0.690   6.260
 7466SOL    HW123297   0.122   0.784   6.271
 7466SOL    HW223298   0.099   0.644   6.190
 7467SOL     OW23299   0.577   2.367   5.765
 7467SOL    HW123300   0.642   2.292   5.779
 7467SOL    HW223301   0.503   2.360   5.831
 7468SOL     OW23302   4.872   3.138   4.438
 7468SOL    HW123303   4.779   3.127   4.404
 7468SOL    HW223304   4.925   3.056   4.418
 7469SOL     OW23305   6.332   1.301   0.304
 7469SOL    HW123306   6.416   1.248   0.306
 7469SOL    HW223307   6.265   1.260   0.366
 7470SOL     OW23308   5.389   4.512   3.413
 7470SOL    HW123309   5.484   4.495   3.439
 7470SOL    HW223310   5.365   4.606   3.437
 7471SOL     OW23311   5.216   6.164   5.937
 7471SOL    HW123312   5.191   6.182   5.842
 7471SOL    HW223313   5.148   6.203   5.998
 7472SOL     OW23314   6.449   0.734   5.612
 7472SOL    HW123315   6.517   0.661   5.614
 7472SOL    HW223316   6.422   0.756   5.706
 7473SOL     OW23317   5.465   6.116   4.010
 7473SOL    HW123318   5.430   6.089   3.921
 7473SOL    HW223319   5.486   6.035   4.064
 7474SOL     OW23320   6.682   2.515   6.322
 7474SOL    HW123321   6.596   2.470   6.349
 7474SOL    HW223322   6.675   2.543   6.226
 7475SOL     OW23323   4.426   2.287   2.225
 7475SOL    HW123324   4.421   2.321   2.319
 7475SOL    HW223325   4.334   2.277   2.187
 7476SOL     OW23326   2.077   1.844   3.147
 7476SOL    HW123327   2.161   1.790   3.146
 7476SOL    HW223328   2.099   1.939   3.127
 7477SOL     OW23329   6.878   2.920   5.298
 7477SOL    HW123330   6.854   2.961   5.210
 7477SOL    HW223331   6.795   2.885   5.342
 7478SOL     OW23332   6.106   3.487   5.313
 7478SOL    HW123333   6.116   3.422   5.389
 7478SOL    HW223334   6.122   3.580   5.346
 7479SOL     OW23335   5.295   2.372   1.451
 7479SOL    HW123336   5.273   2.279   1.421
 7479SOL    HW223337   5.383   2.400   1.413
 7480SOL     OW23338   2.055   4.791   2.452
 7480SOL    HW123339   1.983   4.818   2.516
 7480SOL    HW223340   2.109   4.718   2.493
 7481SOL     OW23341   6.532   4.895   0.170
 7481SOL    HW123342   6.485   4.962   0.112
 7481SOL    HW223343   6.475   4.874   0.250
 7482SOL     OW23344   4.294   1.817   2.163
 7482SOL    HW123345   4.297   1.835   2.261
 7482SOL    HW223346   4.370   1.757   2.138
 7483SOL     OW23347   4.745   2.878   4.683
 7483SOL    HW123348   4.685   2.800   4.697
 7483SOL    HW223349   4.840   2.849   4.687
 7484SOL     OW23350   1.782   5.312   4.567
 7484SOL    HW123351   1.870   5.318   4.519
 7484SOL    HW223352   1.736   5.227   4.544
 7485SOL     OW23353   2.446   0.426   4.364
 7485SOL    HW123354   2.515   0.378   4.419
 7485SOL    HW223355   2.487   0.458   4.279
 7486SOL     OW23356   0.740   6.250   0.435
 7486SOL    HW123357   0.717   6.191   0.512
 7486SOL    HW223358   0.686   6.224   0.355
 7487SOL     OW23359   3.420   0.368   3.594
 7487SOL    HW123360   3.513   0.344   3.566
 7487SOL    HW223361   3.363   0.378   3.513
 7488SOL     OW23362   2.162   6.089   4.784
 7488SOL    HW123363   2.176   6.008   4.727
 7488SOL    HW223364   2.094   6.148   4.741
 7489SOL     OW23365   6.108   3.012   6.882
 7489SOL    HW123366   6.105   3.061   6.795
 7489SOL    HW223367   6.056   3.063   6.951
 7490SOL     OW23368   1.878   0.981   2.714
 7490SOL    HW123369   1.809   1.041   2.755
 7490SOL    HW223370   1.918   1.026   2.635
 7491SOL     OW23371   5.044   2.745   6.825
 7491SOL    HW123372   5.039   2.826   6.766
 7491SOL    HW223373   5.046   2.662   6.768
 7492SOL     OW23374   2.181   1.300   4.306
 7492SOL    HW123375   2.110   1.360   4.343
 7492SOL    HW223376   2.157   1.274   4.212
 7493SOL     OW23377   6.461   3.211   6.098
 7493SOL    HW123378   6.477   3.289   6.038
 7493SOL    HW223379   6.545   3.187   6.146
 7494SOL     OW23380   6.035   1.353   4.180
 7494SOL    HW123381   5.952   1.314   4.222
 7494SOL    HW223382   6.009   1.427   4.119
 7495SOL     OW23383   1.002   3.017   5.277
 7495SOL    HW123384   0.983   2.999   5.180
 7495SOL    HW223385   1.063   2.946   5.312
 7496SOL     OW23386   5.232   3.703   4.404
 7496SOL    HW123387   5.275   3.635   4.344
 7496SOL    HW223388   5.219   3.665   4.495
 7497SOL     OW23389   1.604   5.764   1.534
 7497SOL    HW123390   1.560   5.678   1.507
 7497SOL    HW223391   1.701   5.748   1.551
 7498SOL     OW23392   2.842   1.074   4.128
 7498SOL    HW123393   2.744   1.073   4.109
 7498SOL    HW223394   2.866   1.161   4.171
 7499SOL     OW23395   4.520   2.163   3.398
 7499SOL    HW123396   4.436   2.185   3.349
 7499SOL    HW223397   4.552   2.073   3.371
 7500SOL     OW23398   3.446   5.647   2.794
 7500SOL    HW123399   3.423   5.598   2.878
 7500SOL    HW223400   3.409   5.598   2.715
 7501SOL     OW23401   5.446   4.335   3.681
 7501SOL    HW123402   5.504   4.399   3.630
 7501SOL    HW223403   5.503   4.268   3.728
 7502SOL     OW23404   3.250   6.576   4.308
 7502SOL    HW123405   3.224   6.512   4.236
 7502SOL    HW223406   3.192   6.562   4.388
 7503SOL     OW23407   2.336   6.083   1.043
 7503SOL    HW123408   2.364   5.987   1.055
 7503SOL    HW223409   2.239   6.092   1.065
 7504SOL     OW23410   0.413   6.381   2.969
 7504SOL    HW123411   0.466   6.304   2.934
 7504SOL    HW223412   0.320   6.352   2.989
 7505SOL     OW23413   1.721   1.939   6.585
 7505SOL    HW123414   1.808   1.942   6.634
 7505SOL    HW223415   1.699   1.845   6.561
 7506SOL     OW23416   4.272   2.288   3.290
 7506SOL    HW123417   4.249   2.367   3.347
 7506SOL    HW223418   4.220   2.292   3.205
 7507SOL     OW23419   6.452   3.015   3.609
 7507SOL    HW123420   6.413   3.106   3.617
 7507SOL    HW223421   6.451   2.970   3.698
 7508SOL     OW23422   2.005   5.123   0.963
 7508SOL    HW123423   2.101   5.117   0.988
 7508SOL    HW223424   1.997   5.173   0.876
 7509SOL     OW23425   6.225   3.057   0.524
 7509SOL    HW123426   6.146   3.041   0.582
 7509SOL    HW223427   6.195   3.072   0.430
 7510SOL     OW23428   4.082   3.592   4.519
 7510SOL    HW123429   4.104   3.575   4.615
 7510SOL    HW223430   4.073   3.504   4.471
 7511SOL     OW23431   2.806   6.054   3.431
 7511SOL    HW123432   2.756   6.127   3.385
 7511SOL    HW223433   2.757   5.967   3.419
 7512SOL     OW23434   2.572   0.818   6.997
 7512SOL    HW123435   2.543   0.737   6.946
 7512SOL    HW223436   2.627   0.789   0.057
 7513SOL     OW23437   2.120   2.072   3.002
 7513SOL    HW123438   2.156   2.153   3.049
 7513SOL    HW223439   2.188   2.037   2.938
 7514SOL     OW23440   2.102   5.390   3.435
 7514SOL    HW123441   2.060   5.395   3.344
 7514SOL    HW223442   2.046   5.440   3.501
 7515SOL     OW23443   0.196   4.371   4.714
 7515SOL    HW123444   0.116   4.359   4.656
 7515SOL    HW223445   0.169   4.369   4.810
 7516SOL     OW23446   0.809   5.309   6.113
 7516SOL    HW123447   0.793   5.219   6.072
 7516SOL    HW223448   0.902   5.339   6.095
 7517SOL     OW23449   0.914   1.910   6.888
 7517SOL    HW123450   1.004   1.876   6.916
 7517SOL    HW223451   0.868   1.951   6.966
 7518SOL     OW23452   5.240   3.437   3.393
 7518SOL    HW123453   5.184   3.428   3.475
 7518SOL    HW223454   5.182   3.433   3.312
 7519SOL     OW23455   5.914   6.780   4.457
 7519SOL    HW123456   5.931   6.771   4.359
 7519SOL    HW223457   5.933   6.692   4.502
 7520SOL     OW23458   1.311   0.783   2.658
 7520SOL    HW123459   1.396   0.802   2.708
 7520SOL    HW223460   1.288   0.686   2.669
 7521SOL     OW23461   5.629   2.239   4.890
 7521SOL    HW123462   5.597   2.247   4.795
 7521SOL    HW223463   5.615   2.326   4.937
 7522SOL     OW23464   1.475   0.039   5.216
 7522SOL    HW123465   1.447   6.971   5.257
 7522SOL    HW223466   1.442   0.115   5.271
 7523SOL     OW23467   4.956   0.827   6.251
 7523SOL    HW123468   4.881   0.830   6.317
 7523SOL    HW223469   4.938   0.755   6.184
 7524SOL     OW23470   6.880   3.086   5.033
 7524SOL    HW123471   6.935   3.013   4.992
 7524SOL    HW223472   6.895   3.171   4.983
 7525SOL     OW23473   4.349   6.604   6.819
 7525SOL    HW123474   4.268   6.552   6.793
 7525SOL    HW223475   4.411   6.546   6.872
 7526SOL     OW23476   2.684   2.877   1.282
 7526SOL    HW123477   2.585   2.893   1.275
 7526SOL    HW223478   2.701   2.809   1.353
 7527SOL     OW23479   3.444   5.787   3.480
 7527SOL    HW123480   3.456   5.689   3.496
 7527SOL    HW223481   3.433   5.804   3.382
 7528SOL     OW23482   6.045   2.156   6.824
 7528SOL    HW123483   6.101   2.100   6.885
 7528SOL    HW223484   5.948   2.133   6.838
 7529SOL     OW23485   5.297   1.784   4.268
 7529SOL    HW123486   5.393   1.773   4.242
 7529SOL    HW223487   5.240   1.722   4.214
 7530SOL     OW23488   6.130   1.933   1.742
 7530SOL    HW123489   6.087   2.023   1.736
 7530SOL    HW223490   6.061   1.864   1.764
 7531SOL     OW23491   4.883   3.246   2.982
 7531SOL    HW123492   4.902   3.193   2.899
 7531SOL    HW223493   4.840   3.333   2.957
 7532SOL     OW23494   5.202   6.174   0.069
 7532SOL    HW123495   5.115   6.216   0.095
 7532SOL    HW223496   5.269   6.246   0.049
 7533SOL     OW23497   4.120   2.133   1.673
 7533SOL    HW123498   4.034   2.146   1.723
 7533SOL    HW223499   4.184   2.082   1.730
 7534SOL     OW23500   4.544   5.695   4.064
 7534SOL    HW123501   4.577   5.601   4.061
 7534SOL    HW223502   4.613   5.755   4.023
 7535SOL     OW23503   1.808   6.544   4.981
 7535SOL    HW123504   1.863   6.541   4.898
 7535SOL    HW223505   1.746   6.466   4.983
 7536SOL     OW23506   5.162   5.626   4.464
 7536SOL    HW123507   5.171   5.534   4.502
 7536SOL    HW223508   5.180   5.694   4.535
 7537SOL     OW23509   2.042   4.741   2.177
 7537SOL    HW123510   1.997   4.821   2.138
 7537SOL    HW223511   2.036   4.744   2.277
 7538SOL     OW23512   1.737   2.923   1.662
 7538SOL    HW123513   1.787   2.857   1.718
 7538SOL    HW223514   1.683   2.983   1.721
 7539SOL     OW23515   0.889   4.979   3.446
 7539SOL    HW123516   0.902   4.882   3.424
 7539SOL    HW223517   0.795   5.006   3.424
 7540SOL     OW23518   4.325   6.449   4.615
 7540SOL    HW123519   4.319   6.363   4.565
 7540SOL    HW223520   4.296   6.524   4.555
 7541SOL     OW23521   1.323   4.021   6.171
 7541SOL    HW123522   1.312   3.970   6.086
 7541SOL    HW223523   1.326   3.957   6.248
 7542SOL     OW23524   6.586   5.820   6.036
 7542SOL    HW123525   6.633   5.908   6.027
 7542SOL    HW223526   6.626   5.767   6.110
 7543SOL     OW23527   2.796   0.509   4.786
 7543SOL    HW123528   2.714   0.453   4.787
 7543SOL    HW223529   2.825   0.528   4.879
 7544SOL     OW23530   6.984   2.778   4.466
 7544SOL    HW123531   6.958   2.874   4.457
 7544SOL    HW223532   0.064   2.769   4.452
 7545SOL     OW23533   0.590   6.527   6.230
 7545SOL    HW123534   0.507   6.534   6.175
 7545SOL    HW223535   0.568   6.545   6.326
 7546SOL     OW23536   4.887   2.378   1.409
 7546SOL    HW123537   4.914   2.392   1.504
 7546SOL    HW223538   4.787   2.378   1.402
 7547SOL     OW23539   4.724   0.875   0.938
 7547SOL    HW123540   4.655   0.814   0.978
 7547SOL    HW223541   4.710   0.968   0.972
 7548SOL     OW23542   4.443   2.473   6.815
 7548SOL    HW123543   4.534   2.513   6.800
 7548SOL    HW223544   4.373   2.534   6.778
 7549SOL     OW23545   3.857   2.840   6.847
 7549SOL    HW123546   3.846   2.907   6.773
 7549SOL    HW223547   3.849   2.886   6.935
 7550SOL     OW23548   1.963   4.777   3.417
 7550SOL    HW123549   2.001   4.835   3.489
 7550SOL    HW223550   1.939   4.688   3.454
 7551SOL     OW23551   5.375   3.380   5.394
 7551SOL    HW123552   5.280   3.398   5.368
 7551SOL    HW223553   5.421   3.467   5.411
 7552SOL     OW23554   1.122   5.931   4.341
 7552SOL    HW123555   1.198   5.874   4.373
 7552SOL    HW223556   1.146   6.027   4.351
 7553SOL     OW23557   5.587   6.393   5.845
 7553SOL    HW123558   5.547   6.484   5.858
 7553SOL    HW223559   5.683   6.395   5.871
 7554SOL     OW23560   4.702   0.537   0.381
 7554SOL    HW123561   4.707   0.499   0.474
 7554SOL    HW223562   4.740   0.472   0.316
 7555SOL     OW23563   3.583   5.638   6.340
 7555SOL    HW123564   3.642   5.585   6.277
 7555SOL    HW223565   3.641   5.691   6.402
 7556SOL     OW23566   2.089   1.530   0.223
 7556SOL    HW123567   2.023   1.596   0.260
 7556SOL    HW223568   2.054   1.493   0.137
 7557SOL     OW23569   4.944   0.096   6.904
 7557SOL    HW123570   4.977   0.184   6.870
 7557SOL    HW223571   4.953   0.027   6.831
 7558SOL     OW23572   2.119   3.158   3.538
 7558SOL    HW123573   2.143   3.110   3.453
 7558SOL    HW223574   2.031   3.122   3.572
 7559SOL     OW23575   4.076   2.168   5.578
 7559SOL    HW123576   4.014   2.153   5.655
 7559SOL    HW223577   4.035   2.233   5.514
 7560SOL     OW23578   6.595   7.017   6.875
 7560SOL    HW123579   6.510   0.049   6.863
 7560SOL    HW223580   6.588   6.929   6.827
 7561SOL     OW23581   5.964   3.434   5.756
 7561SOL    HW123582   5.893   3.476   5.812
 7561SOL    HW223583   6.035   3.396   5.816
 7562SOL     OW23584   0.511   5.137   5.009
 7562SOL    HW123585   0.454   5.058   5.029
 7562SOL    HW223586   0.508   5.158   4.912
 7563SOL     OW23587   2.780   6.117   1.930
 7563SOL    HW123588   2.866   6.163   1.909
 7563SOL    HW223589   2.799   6.029   1.972
 7564SOL     OW23590   3.702   0.171   4.862
 7564SOL    HW123591   3.748   0.229   4.795
 7564SOL    HW223592   3.667   0.227   4.937
 7565SOL     OW23593   5.566   4.081   5.874
 7565SOL    HW123594   5.467   4.096   5.873
 7565SOL    HW223595   5.606   4.128   5.953
 7566SOL     OW23596   5.736   5.381   2.271
 7566SOL    HW123597   5.750   5.451   2.340
 7566SOL    HW223598   5.814   5.379   2.208
 7567SOL     OW23599   0.665   0.722   5.507
 7567SOL    HW123600   0.751   0.681   5.479
 7567SOL    HW223601   0.675   0.822   5.510
 7568SOL     OW23602   5.401   5.075   1.537
 7568SOL    HW123603   5.354   5.129   1.468
 7568SOL    HW223604   5.477   5.128   1.576
 7569SOL     OW23605   4.050   4.185   5.999
 7569SOL    HW123606   4.129   4.174   6.060
 7569SOL    HW223607   4.054   4.115   5.927
 7570SOL     OW23608   6.497   3.925   4.104
 7570SOL    HW123609   6.482   4.020   4.076
 7570SOL    HW223610   6.424   3.867   4.066
 7571SOL     OW23611   5.346   3.735   3.386
 7571SOL    HW123612   5.275   3.776   3.329
 7571SOL    HW223613   5.311   3.653   3.431
 7572SOL     OW23614   5.120   0.066   2.953
 7572SOL    HW123615   5.130   0.164   2.972
 7572SOL    HW223616   5.210   0.022   2.958
 7573SOL     OW23617   6.577   0.480   5.528
 7573SOL    HW123618   6.539   0.502   5.438
 7573SOL    HW223619   6.676   0.491   5.526
 7574SOL     OW23620   5.742   1.497   4.373
 7574SOL    HW123621   5.793   1.414   4.351
 7574SOL    HW223622   5.691   1.483   4.458
 7575SOL     OW23623   6.285   6.433   0.776
 7575SOL    HW123624   6.233   6.368   0.721
 7575SOL    HW223625   6.381   6.406   0.778
 7576SOL     OW23626   5.056   1.830   0.093
 7576SOL    HW123627   5.114   1.841   0.174
 7576SOL    HW223628   4.969   1.789   0.119
 7577SOL     OW23629   0.284   6.252   0.371
 7577SOL    HW123630   0.301   6.323   0.440
 7577SOL    HW223631   0.213   6.190   0.405
 7578SOL     OW23632   1.564   5.339   2.637
 7578SOL    HW123633   1.545   5.374   2.545
 7578SOL    HW223634   1.607   5.249   2.630
 7579SOL     OW23635   6.801   1.804   1.549
 7579SOL    HW123636   6.889   1.851   1.540
 7579SOL    HW223637   6.787   1.779   1.645
 7580SOL     OW23638   1.127   4.509   3.085
 7580SOL    HW123639   1.210   4.565   3.079
 7580SOL    HW223640   1.048   4.563   3.057
 7581SOL     OW23641   0.145   1.456   1.535
 7581SOL    HW123642   0.229   1.511   1.528
 7581SOL    HW223643   0.101   1.475   1.622
 7582SOL     OW23644   4.066   1.796   3.658
 7582SOL    HW123645   4.044   1.883   3.701
 7582SOL    HW223646   4.146   1.808   3.599
 7583SOL     OW23647   5.695   3.495   3.275
 7583SOL    HW123648   5.676   3.401   3.248
 7583SOL    HW223649   5.700   3.552   3.193
 7584SOL     OW23650   1.283   0.184   2.725
 7584SOL    HW123651   1.335   0.138   2.653
 7584SOL    HW223652   1.203   0.128   2.749
 7585SOL     OW23653   1.297   1.977   6.171
 7585SOL    HW123654   1.255   1.961   6.260
 7585SOL    HW223655   1.386   1.930   6.167
 7586SOL     OW23656   2.147   6.676   3.308
 7586SOL    HW123657   2.074   6.610   3.324
 7586SOL    HW223658   2.179   6.670   3.214
 7587SOL     OW23659   2.595   1.370   0.083
 7587SOL    HW123660   2.557   1.331   0.167
 7587SOL    HW223661   2.564   1.315   0.005
 7588SOL     OW23662   1.018   3.143   4.274
 7588SOL    HW123663   1.098   3.204   4.272
 7588SOL    HW223664   1.047   3.050   4.297
 7589SOL     OW23665   6.772   1.113   2.991
 7589SOL    HW123666   6.848   1.177   2.983
 7589SOL    HW223667   6.806   1.019   2.986
 7590SOL     OW23668   6.295   0.822   6.665
 7590SOL    HW123669   6.303   0.898   6.730
 7590SOL    HW223670   6.340   0.741   6.702
 7591SOL     OW23671   5.132   3.446   6.730
 7591SOL    HW123672   5.150   3.495   6.644
 7591SOL    HW223673   5.034   3.450   6.750
 7592SOL     OW23674   6.512   4.750   4.670
 7592SOL    HW123675   6.445   4.751   4.596
 7592SOL    HW223676   6.469   4.782   4.754
 7593SOL     OW23677   0.206   2.588   6.663
 7593SOL    HW123678   0.148   2.652   6.714
 7593SOL    HW223679   0.234   2.513   6.723
 7594SOL     OW23680   0.874   4.713   1.427
 7594SOL    HW123681   0.964   4.695   1.467
 7594SOL    HW223682   0.885   4.740   1.332
 7595SOL     OW23683   6.527   3.195   6.550
 7595SOL    HW123684   6.460   3.219   6.620
 7595SOL    HW223685   6.558   3.278   6.504
 7596SOL     OW23686   2.832   6.725   4.608
 7596SOL    HW123687   2.893   6.794   4.645
 7596SOL    HW223688   2.872   6.685   4.526
 7597SOL     OW23689   1.899   6.913   3.163
 7597SOL    HW123690   1.995   6.928   3.189
 7597SOL    HW223691   1.882   6.955   3.075
 7598SOL     OW23692   6.008   0.234   2.562
 7598SOL    HW123693   5.970   0.224   2.470
 7598SOL    HW223694   6.092   0.288   2.559
 7599SOL     OW23695   5.265   3.366   1.104
 7599SOL    HW123696   5.230   3.352   1.011
 7599SOL    HW223697   5.193   3.346   1.170
 7600SOL     OW23698   1.103   0.901   3.234
 7600SOL    HW123699   1.075   0.814   3.191
 7600SOL    HW223700   1.119   0.886   3.331
 7601SOL     OW23701   2.682   5.238   2.399
 7601SOL    HW123702   2.725   5.328   2.395
 7601SOL    HW223703   2.611   5.232   2.328
 7602SOL     OW23704   0.942   3.286   0.032
 7602SOL    HW123705   0.943   3.187   0.045
 7602SOL    HW223706   1.031   3.324   0.058
 7603SOL     OW23707   1.683   6.344   5.886
 7603SOL    HW123708   1.777   6.318   5.865
 7603SOL    HW223709   1.662   6.323   5.981
 7604SOL     OW23710   1.313   2.069   5.136
 7604SOL    HW123711   1.299   2.167   5.122
 7604SOL    HW223712   1.378   2.034   5.068
 7605SOL     OW23713   0.805   0.610   1.032
 7605SOL    HW123714   0.855   0.524   1.030
 7605SOL    HW223715   0.830   0.665   0.953
 7606SOL     OW23716   5.605   2.966   5.116
 7606SOL    HW123717   5.649   3.054   5.098
 7606SOL    HW223718   5.563   2.932   5.031
 7607SOL     OW23719   3.585   5.034   0.098
 7607SOL    HW123720   3.622   5.038   0.191
 7607SOL    HW223721   3.562   5.126   0.068
 7608SOL     OW23722   5.093   2.436   6.911
 7608SOL    HW123723   5.160   2.429   6.837
 7608SOL    HW223724   5.138   2.467   6.995
 7609SOL     OW23725   1.058   4.184   3.857
 7609SOL    HW123726   1.125   4.186   3.931
 7609SOL    HW223727   1.094   4.129   3.782
 7610SOL     OW23728   3.973   5.107   5.527
 7610SOL    HW123729   4.001   5.138   5.618
 7610SOL    HW223730   3.972   5.184   5.464
 7611SOL     OW23731   5.459   3.727   1.249
 7611SOL    HW123732   5.557   3.740   1.262
 7611SOL    HW223733   5.441   3.699   1.154
 7612SOL     OW23734   4.471   2.342   2.841
 7612SOL    HW123735   4.505   2.435   2.827
 7612SOL    HW223736   4.462   2.296   2.752
 7613SOL     OW23737   1.004   2.020   2.164
 7613SOL    HW123738   1.035   1.951   2.098
 7613SOL    HW223739   0.923   1.986   2.212
 7614SOL     OW23740   5.644   3.624   1.681
 7614SOL    HW123741   5.565   3.566   1.698
 7614SOL    HW223742   5.666   3.677   1.763
 7615SOL     OW23743   4.847   4.143   5.710
 7615SOL    HW123744   4.808   4.142   5.618
 7615SOL    HW223745   4.946   4.127   5.705
 7616SOL     OW23746   6.584   0.426   3.442
 7616SOL    HW123747   6.568   0.334   3.406
 7616SOL    HW223748   6.580   0.424   3.542
 7617SOL     OW23749   5.460   5.773   3.058
 7617SOL    HW123750   5.443   5.680   3.023
 7617SOL    HW223751   5.402   5.789   3.138
 7618SOL     OW23752   1.183   2.517   6.921
 7618SOL    HW123753   1.209   2.425   6.952
 7618SOL    HW223754   1.151   2.512   6.827
 7619SOL     OW23755   6.843   2.263   4.768
 7619SOL    HW123756   6.786   2.245   4.848
 7619SOL    HW223757   6.915   2.328   4.792
 7620SOL     OW23758   4.007   4.995   0.851
 7620SOL    HW123759   4.094   4.994   0.802
 7620SOL    HW223760   3.972   5.089   0.854
 7621SOL     OW23761   0.753   0.180   1.216
 7621SOL    HW123762   0.687   0.193   1.142
 7621SOL    HW223763   0.737   0.091   1.260
 7622SOL     OW23764   4.375   4.714   6.750
 7622SOL    HW123765   4.344   4.633   6.798
 7622SOL    HW223766   4.314   4.791   6.770
 7623SOL     OW23767   4.076   4.396   1.018
 7623SOL    HW123768   4.102   4.374   1.112
 7623SOL    HW223769   4.058   4.312   0.967
 7624SOL     OW23770   6.607   2.782   3.480
 7624SOL    HW123771   6.541   2.850   3.511
 7624SOL    HW223772   6.633   2.723   3.557
 7625SOL     OW23773   6.196   2.007   0.009
 7625SOL    HW123774   6.280   1.979   6.981
 7625SOL    HW223775   6.217   2.029   0.105
 7626SOL     OW23776   6.584   1.185   6.144
 7626SOL    HW123777   6.578   1.253   6.071
 7626SOL    HW223778   6.680   1.171   6.169
 7627SOL     OW23779   2.766   1.752   0.405
 7627SOL    HW123780   2.713   1.703   0.474
 7627SOL    HW223781   2.729   1.845   0.395
 7628SOL     OW23782   4.095   2.804   1.446
 7628SOL    HW123783   4.110   2.778   1.542
 7628SOL    HW223784   4.083   2.721   1.391
 7629SOL     OW23785   6.670   4.379   3.807
 7629SOL    HW123786   6.767   4.357   3.798
 7629SOL    HW223787   6.615   4.297   3.790
 7630SOL     OW23788   0.889   0.556   6.519
 7630SOL    HW123789   0.944   0.639   6.512
 7630SOL    HW223790   0.864   0.525   6.427
 7631SOL     OW23791   1.399   1.123   5.527
 7631SOL    HW123792   1.373   1.177   5.447
 7631SOL    HW223793   1.482   1.071   5.507
 7632SOL     OW23794   3.940   4.986   1.238
 7632SOL    HW123795   4.034   5.001   1.206
 7632SOL    HW223796   3.933   4.895   1.278
 7633SOL     OW23797   5.175   0.690   1.935
 7633SOL    HW123798   5.240   0.639   1.879
 7633SOL    HW223799   5.181   0.659   2.030
 7634SOL     OW23800   1.307   1.354   1.600
 7634SOL    HW123801   1.330   1.426   1.534
 7634SOL    HW223802   1.289   1.269   1.552
 7635SOL     OW23803   2.883   5.293   4.194
 7635SOL    HW123804   2.884   5.219   4.261
 7635SOL    HW223805   2.951   5.275   4.123
 7636SOL     OW23806   1.228   3.999   4.039
 7636SOL    HW123807   1.155   3.978   3.974
 7636SOL    HW223808   1.317   3.983   3.996
 7637SOL     OW23809   1.389   6.584   2.648
 7637SOL    HW123810   1.347   6.581   2.557
 7637SOL    HW223811   1.346   6.656   2.702
 7638SOL     OW23812   1.249   5.694   2.044
 7638SOL    HW123813   1.271   5.790   2.063
 7638SOL    HW223814   1.320   5.635   2.082
 7639SOL     OW23815   0.358   1.329   0.515
 7639SOL    HW123816   0.261   1.313   0.530
 7639SOL    HW223817   0.384   1.294   0.425
 7640SOL     OW23818   3.074   2.423   6.859
 7640SOL    HW123819   2.997   2.418   6.922
 7640SOL    HW223820   3.045   2.394   6.768
 7641SOL     OW23821   0.178   4.214   2.726
 7641SOL    HW123822   0.242   4.171   2.663
 7641SOL    HW223823   0.213   4.209   2.819
 7642SOL     OW23824   5.715   0.765   2.579
 7642SOL    HW123825   5.706   0.694   2.649
 7642SOL    HW223826   5.804   0.755   2.533
 7643SOL     OW23827   5.437   1.424   2.437
 7643SOL    HW123828   5.399   1.401   2.527
 7643SOL    HW223829   5.362   1.436   2.372
 7644SOL     OW23830   4.681   2.728   2.190
 7644SOL    HW123831   4.618   2.653   2.170
 7644SOL    HW223832   4.663   2.804   2.128
 7645SOL     OW23833   4.153   3.139   5.823
 7645SOL    HW123834   4.199   3.067   5.876
 7645SOL    HW223835   4.222   3.195   5.776
 7646SOL     OW23836   0.412   2.829   3.350
 7646SOL    HW123837   0.347   2.754   3.365
 7646SOL    HW223838   0.504   2.791   3.342
 7647SOL     OW23839   0.539   3.184   4.257
 7647SOL    HW123840   0.623   3.201   4.309
 7647SOL    HW223841   0.534   3.087   4.234
 7648SOL     OW23842   2.370   1.135   2.186
 7648SOL    HW123843   2.407   1.193   2.114
 7648SOL    HW223844   2.332   1.192   2.259
 7649SOL     OW23845   1.394   1.327   4.467
 7649SOL    HW123846   1.404   1.279   4.554
 7649SOL    HW223847   1.480   1.325   4.417
 7650SOL     OW23848   5.419   0.688   1.189
 7650SOL    HW123849   5.430   0.605   1.133
 7650SOL    HW223850   5.422   0.768   1.130
 7651SOL     OW23851   2.621   5.752   4.531
 7651SOL    HW123852   2.567   5.777   4.612
 7651SOL    HW223853   2.605   5.655   4.511
 7652SOL     OW23854   5.483   2.831   5.332
 7652SOL    HW123855   5.473   2.912   5.274
 7652SOL    HW223856   5.397   2.780   5.333
 7653SOL     OW23857   1.328   1.282   0.137
 7653SOL    HW123858   1.407   1.223   0.158
 7653SOL    HW223859   1.287   1.254   0.051
 7654SOL     OW23860   5.542   3.615   5.102
 7654SOL    HW123861   5.467   3.634   5.165
 7654SOL    HW223862   5.623   3.668   5.130
 7655SOL     OW23863   3.741   0.342   3.719
 7655SOL    HW123864   3.722   0.389   3.632
 7655SOL    HW223865   3.832   0.301   3.715
 7656SOL     OW23866   5.655   2.911   6.253
 7656SOL    HW123867   5.661   2.812   6.265
 7656SOL    HW223868   5.633   2.932   6.158
 7657SOL     OW23869   1.851   2.997   3.993
 7657SOL    HW123870   1.790   3.076   3.992
 7657SOL    HW223871   1.932   3.018   3.938
 7658SOL     OW23872   2.929   0.381   0.793
 7658SOL    HW123873   2.964   0.444   0.861
 7658SOL    HW223874   2.855   0.424   0.741
 7659SOL     OW23875   4.641   4.026   0.054
 7659SOL    HW123876   4.739   4.036   0.071
 7659SOL    HW223877   4.617   4.069   6.985
 7660SOL     OW23878   6.342   5.243   4.795
 7660SOL    HW123879   6.318   5.282   4.884
 7660SOL    HW223880   6.282   5.166   4.775
 7661SOL     OW23881   4.970   1.999   5.587
 7661SOL    HW123882   5.027   1.916   5.582
 7661SOL    HW223883   4.875   1.975   5.569
 7662SOL     OW23884   0.732   2.501   3.187
 7662SOL    HW123885   0.831   2.511   3.183
 7662SOL    HW223886   0.694   2.502   3.094
 7663SOL     OW23887   4.949   5.429   6.732
 7663SOL    HW123888   5.027   5.477   6.691
 7663SOL    HW223889   4.961   5.425   6.831
 7664SOL     OW23890   3.880   1.296   3.232
 7664SOL    HW123891   3.791   1.340   3.244
 7664SOL    HW223892   3.895   1.279   3.135
 7665SOL     OW23893   5.600   1.698   4.268
 7665SOL    HW123894   5.656   1.780   4.260
 7665SOL    HW223895   5.651   1.628   4.320
 7666SOL     OW23896   6.942   5.393   4.379
 7666SOL    HW123897   6.953   5.389   4.279
 7666SOL    HW223898   6.903   5.481   4.404
 7667SOL     OW23899   4.127   0.522   2.945
 7667SOL    HW123900   4.161   0.473   3.025
 7667SOL    HW223901   4.063   0.593   2.975
 7668SOL     OW23902   2.725   4.963   0.554
 7668SOL    HW123903   2.768   5.000   0.636
 7668SOL    HW223904   2.793   4.952   0.482
 7669SOL     OW23905   4.221   0.710   5.411
 7669SOL    HW123906   4.308   0.711   5.363
 7669SOL    HW223907   4.232   0.754   5.500
 7670SOL     OW23908   0.772   6.193   1.046
 7670SOL    HW123909   0.737   6.278   1.006
 7670SOL    HW223910   0.696   6.139   1.082
 7671SOL     OW23911   4.924   6.823   2.678
 7671SOL    HW123912   4.932   6.826   2.778
 7671SOL    HW223913   4.973   6.744   2.642
 7672SOL     OW23914   6.594   4.897   3.444
 7672SOL    HW123915   6.649   4.854   3.516
 7672SOL    HW223916   6.634   4.986   3.420
 7673SOL     OW23917   1.561   5.750   2.380
 7673SOL    HW123918   1.624   5.694   2.433
 7673SOL    HW223919   1.502   5.690   2.325
 7674SOL     OW23920   4.279   0.413   4.081
 7674SOL    HW123921   4.251   0.501   4.041
 7674SOL    HW223922   4.210   0.383   4.146
 7675SOL     OW23923   4.298   6.543   3.271
 7675SOL    HW123924   4.281   6.533   3.369
 7675SOL    HW223925   4.215   6.516   3.220
 7676SOL     OW23926   2.996   1.890   6.059
 7676SOL    HW123927   3.018   1.972   6.112
 7676SOL    HW223928   3.053   1.887   5.977
 7677SOL     OW23929   0.780   4.645   0.745
 7677SOL    HW123930   0.776   4.610   0.652
 7677SOL    HW223931   0.687   4.663   0.778
 7678SOL     OW23932   1.371   2.812   4.997
 7678SOL    HW123933   1.394   2.727   4.948
 7678SOL    HW223934   1.454   2.865   5.013
 7679SOL     OW23935   2.152   5.340   5.397
 7679SOL    HW123936   2.160   5.418   5.335
 7679SOL    HW223937   2.094   5.271   5.355
 7680SOL     OW23938   1.213   0.332   6.104
 7680SOL    HW123939   1.231   0.250   6.158
 7680SOL    HW223940   1.127   0.321   6.055
 7681SOL     OW23941   2.570   1.529   6.807
 7681SOL    HW123942   2.651   1.587   6.810
 7681SOL    HW223943   2.495   1.573   6.857
 7682SOL     OW23944   4.063   1.686   2.189
 7682SOL    HW123945   4.134   1.751   2.160
 7682SOL    HW223946   4.106   1.600   2.216
 7683SOL     OW23947   0.831   1.312   4.777
 7683SOL    HW123948   0.806   1.313   4.874
 7683SOL    HW223949   0.754   1.345   4.722
 7684SOL     OW23950   4.085   2.421   1.761
 7684SOL    HW123951   4.022   2.369   1.818
 7684SOL    HW223952   4.169   2.439   1.811
 7685SOL     OW23953   3.483   1.550   6.850
 7685SOL    HW123954   3.392   1.544   6.811
 7685SOL    HW223955   3.545   1.488   6.802
 7686SOL     OW23956   5.510   6.679   4.689
 7686SOL    HW123957   5.457   6.759   4.661
 7686SOL    HW223958   5.583   6.708   4.751
 7687SOL     OW23959   5.137   4.876   5.041
 7687SOL    HW123960   5.104   4.797   5.094
 7687SOL    HW223961   5.073   4.952   5.052
 7688SOL     OW23962   0.118   6.186   5.863
 7688SOL    HW123963   0.185   6.231   5.922
 7688SOL    HW223964   0.123   6.087   5.876
 7689SOL     OW23965   4.927   0.297   2.545
 7689SOL    HW123966   4.953   0.211   2.589
 7689SOL    HW223967   4.887   0.278   2.456
 7690SOL     OW23968   5.601   5.276   0.518
 7690SOL    HW123969   5.585   5.213   0.593
 7690SOL    HW223970   5.528   5.267   0.450
 7691SOL     OW23971   4.569   4.664   1.646
 7691SOL    HW123972   4.519   4.625   1.569
 7691SOL    HW223973   4.565   4.602   1.724
 7692SOL     OW23974   0.457   6.132   1.768
 7692SOL    HW123975   0.544   6.111   1.813
 7692SOL    HW223976   0.462   6.222   1.725
 7693SOL     OW23977   3.514   0.127   1.743
 7693SOL    HW123978   3.595   0.071   1.755
 7693SOL    HW223979   3.464   0.096   1.662
 7694SOL     OW23980   5.842   2.440   4.291
 7694SOL    HW123981   5.761   2.493   4.264
 7694SOL    HW223982   5.891   2.488   4.364
 7695SOL     OW23983   5.824   0.751   1.809
 7695SOL    HW123984   5.877   0.668   1.827
 7695SOL    HW223985   5.834   0.776   1.713
 7696SOL     OW23986   0.371   1.091   6.190
 7696SOL    HW123987   0.466   1.064   6.172
 7696SOL    HW223988   0.336   1.041   6.268
 7697SOL     OW23989   3.264   0.549   2.647
 7697SOL    HW123990   3.331   0.480   2.617
 7697SOL    HW223991   3.302   0.640   2.633
 7698SOL     OW23992   6.487   1.696   4.990
 7698SOL    HW123993   6.566   1.720   4.934
 7698SOL    HW223994   6.510   1.619   5.050
 7699SOL     OW23995   2.520   5.173   6.943
 7699SOL    HW123996   2.423   5.177   6.967
 7699SOL    HW223997   2.535   5.219   6.855
 7700SOL     OW23998   4.107   6.198   3.287
 7700SOL    HW123999   4.144   6.182   3.379
 7700SOL    HW224000   4.158   6.143   3.221
 7701SOL     OW24001   0.089   1.894   6.337
 7701SOL    HW124002   0.080   1.993   6.324
 7701SOL    HW224003   0.118   1.876   6.431
 7702SOL     OW24004   4.391   6.057   5.046
 7702SOL    HW124005   4.361   6.141   5.001
 7702SOL    HW224006   4.421   6.078   5.139
 7703SOL     OW24007   6.408   6.942   5.284
 7703SOL    HW124008   6.338   6.968   5.350
 7703SOL    HW224009   6.391   6.848   5.253
 7704SOL     OW24010   6.490   2.028   4.334
 7704SOL    HW124011   6.492   2.037   4.433
 7704SOL    HW224012   6.548   2.100   4.293
 7705SOL     OW24013   2.560   5.170   0.634
 7705SOL    HW124014   2.613   5.088   0.610
 7705SOL    HW224015   2.498   5.193   0.558
 7706SOL     OW24016   3.321   3.000   3.408
 7706SOL    HW124017   3.391   3.009   3.337
 7706SOL    HW224018   3.363   2.969   3.493
 7707SOL     OW24019   0.352   5.047   6.520
 7707SOL    HW124020   0.322   5.011   6.608
 7707SOL    HW224021   0.285   5.024   6.449
 7708SOL     OW24022   1.317   6.937   4.104
 7708SOL    HW124023   1.380   6.892   4.041
 7708SOL    HW224024   1.312   0.015   4.082
 7709SOL     OW24025   6.593   5.223   1.360
 7709SOL    HW124026   6.549   5.241   1.448
 7709SOL    HW224027   6.600   5.309   1.309
 7710SOL     OW24028   2.089   2.152   1.058
 7710SOL    HW124029   2.041   2.237   1.039
 7710SOL    HW224030   2.040   2.075   1.016
 7711SOL     OW24031   6.226   5.596   5.468
 7711SOL    HW124032   6.205   5.692   5.455
 7711SOL    HW224033   6.145   5.547   5.499
 7712SOL     OW24034   6.148   4.479   6.878
 7712SOL    HW124035   6.175   4.572   6.902
 7712SOL    HW224036   6.048   4.472   6.877
 7713SOL     OW24037   1.984   4.048   1.042
 7713SOL    HW124038   1.930   3.972   1.005
 7713SOL    HW224039   2.073   4.051   0.996
 7714SOL     OW24040   0.232   6.785   5.326
 7714SOL    HW124041   0.284   6.752   5.405
 7714SOL    HW224042   0.275   6.750   5.242
 7715SOL     OW24043   2.524   1.973   6.535
 7715SOL    HW124044   2.510   1.932   6.445
 7715SOL    HW224045   2.517   2.072   6.527
 7716SOL     OW24046   6.764   5.135   0.177
 7716SOL    HW124047   6.826   5.098   0.108
 7716SOL    HW224048   6.679   5.084   0.176
 7717SOL     OW24049   1.539   1.660   4.948
 7717SOL    HW124050   1.527   1.758   4.964
 7717SOL    HW224051   1.628   1.645   4.905
 7718SOL     OW24052   6.876   4.551   3.202
 7718SOL    HW124053   6.795   4.600   3.169
 7718SOL    HW224054   6.947   4.616   3.228
 7719SOL     OW24055   1.013   4.370   5.007
 7719SOL    HW124056   0.914   4.364   4.993
 7719SOL    HW224057   1.035   4.457   5.051
 7720SOL     OW24058   6.277   1.807   5.803
 7720SOL    HW124059   6.195   1.766   5.761
 7720SOL    HW224060   6.254   1.896   5.841
 7721SOL     OW24061   0.578   0.409   2.267
 7721SOL    HW124062   0.584   0.484   2.333
 7721SOL    HW224063   0.631   0.432   2.186
 7722SOL     OW24064   2.131   5.540   4.030
 7722SOL    HW124065   2.221   5.569   4.063
 7722SOL    HW224066   2.140   5.459   3.972
 7723SOL     OW24067   4.774   3.548   6.603
 7723SOL    HW124068   4.797   3.504   6.689
 7723SOL    HW224069   4.681   3.587   6.609
 7724SOL     OW24070   3.393   4.248   0.579
 7724SOL    HW124071   3.404   4.231   0.677
 7724SOL    HW224072   3.296   4.248   0.556
 7725SOL     OW24073   5.901   2.491   2.749
 7725SOL    HW124074   5.902   2.511   2.847
 7725SOL    HW224075   5.929   2.396   2.734
 7726SOL     OW24076   0.878   2.660   5.851
 7726SOL    HW124077   0.965   2.709   5.857
 7726SOL    HW224078   0.876   2.604   5.768
 7727SOL     OW24079   6.187   2.926   1.448
 7727SOL    HW124080   6.101   2.977   1.440
 7727SOL    HW224081   6.173   2.832   1.418
 7728SOL     OW24082   2.122   3.057   5.146
 7728SOL    HW124083   2.080   3.032   5.059
 7728SOL    HW224084   2.222   3.055   5.136
 7729SOL     OW24085   5.896   1.614   1.722
 7729SOL    HW124086   5.803   1.616   1.759
 7729SOL    HW224087   5.961   1.591   1.795
 7730SOL     OW24088   6.229   4.487   5.132
 7730SOL    HW124089   6.290   4.514   5.206
 7730SOL    HW224090   6.276   4.421   5.073
 7731SOL     OW24091   6.175   0.142   0.647
 7731SOL    HW124092   6.135   0.229   0.675
 7731SOL    HW224093   6.177   0.079   0.725
 7732SOL     OW24094   4.061   0.481   0.046
 7732SOL    HW124095   4.137   0.529   0.091
 7732SOL    HW224096   4.079   0.382   0.050
 7733SOL     OW24097   6.319   5.492   2.645
 7733SOL    HW124098   6.347   5.431   2.719
 7733SOL    HW224099   6.221   5.483   2.629
 7734SOL     OW24100   2.510   4.960   4.424
 7734SOL    HW124101   2.552   5.047   4.451
 7734SOL    HW224102   2.554   4.885   4.472
 7735SOL     OW24103   6.253   5.793   0.188
 7735SOL    HW124104   6.292   5.771   0.277
 7735SOL    HW224105   6.153   5.784   0.193
 7736SOL     OW24106   2.338   2.854   0.387
 7736SOL    HW124107   2.247   2.849   0.347
 7736SOL    HW224108   2.377   2.944   0.372
 7737SOL     OW24109   3.230   5.425   1.953
 7737SOL    HW124110   3.228   5.327   1.974
 7737SOL    HW224111   3.177   5.444   1.871
 7738SOL     OW24112   2.549   6.057   6.866
 7738SOL    HW124113   2.529   6.123   6.794
 7738SOL    HW224114   2.575   6.105   6.950
 7739SOL     OW24115   0.993   1.939   1.554
 7739SOL    HW124116   1.034   1.939   1.463
 7739SOL    HW224117   1.048   1.881   1.615
 7740SOL     OW24118   1.847   1.377   2.626
 7740SOL    HW124119   1.868   1.363   2.530
 7740SOL    HW224120   1.768   1.438   2.635
 7741SOL     OW24121   1.150   4.011   4.720
 7741SOL    HW124122   1.166   4.108   4.737
 7741SOL    HW224123   1.235   3.968   4.689
 7742SOL     OW24124   3.800   1.490   4.160
 7742SOL    HW124125   3.811   1.491   4.061
 7742SOL    HW224126   3.836   1.575   4.199
 7743SOL     OW24127   4.887   1.014   6.953
 7743SOL    HW124128   4.797   0.990   6.988
 7743SOL    HW224129   4.949   0.936   6.965
 7744SOL     OW24130   0.645   6.111   3.458
 7744SOL    HW124131   0.644   6.172   3.379
 7744SOL    HW224132   0.558   6.063   3.465
 7745SOL     OW24133   2.429   6.535   0.266
 7745SOL    HW124134   2.456   6.632   0.269
 7745SOL    HW224135   2.360   6.517   0.336
 7746SOL     OW24136   1.336   6.936   0.813
 7746SOL    HW124137   1.272   6.935   0.737
 7746SOL    HW224138   1.429   6.923   0.778
 7747SOL     OW24139   0.583   6.024   1.200
 7747SOL    HW124140   0.565   5.925   1.199
 7747SOL    HW224141   0.529   6.068   1.128
 7748SOL     OW24142   3.181   3.511   4.895
 7748SOL    HW124143   3.186   3.569   4.976
 7748SOL    HW224144   3.085   3.495   4.871
 7749SOL     OW24145   3.116   3.906   3.556
 7749SOL    HW124146   3.082   3.928   3.465
 7749SOL    HW224147   3.175   3.826   3.552
 7750SOL     OW24148   5.759   5.331   5.899
 7750SOL    HW124149   5.799   5.252   5.853
 7750SOL    HW224150   5.794   5.337   5.992
 7751SOL     OW24151   0.844   2.177   3.151
 7751SOL    HW124152   0.826   2.085   3.118
 7751SOL    HW224153   0.783   2.242   3.106
 7752SOL     OW24154   5.573   5.510   5.787
 7752SOL    HW124155   5.636   5.441   5.824
 7752SOL    HW224156   5.583   5.514   5.688
 7753SOL     OW24157   2.142   1.152   4.077
 7753SOL    HW124158   2.223   1.107   4.115
 7753SOL    HW224159   2.090   1.087   4.022
 7754SOL     OW24160   5.202   0.299   1.781
 7754SOL    HW124161   5.123   0.344   1.824
 7754SOL    HW224162   5.209   0.205   1.813
 7755SOL     OW24163   0.855   0.585   5.767
 7755SOL    HW124164   0.944   0.540   5.756
 7755SOL    HW224165   0.858   0.645   5.847
 7756SOL     OW24166   2.824   5.828   2.403
 7756SOL    HW124167   2.790   5.914   2.363
 7756SOL    HW224168   2.830   5.759   2.331
 7757SOL     OW24169   5.038   6.354   4.663
 7757SOL    HW124170   5.054   6.306   4.749
 7757SOL    HW224171   5.119   6.346   4.605
 7758SOL     OW24172   1.628   2.167   6.717
 7758SOL    HW124173   1.667   2.078   6.694
 7758SOL    HW224174   1.659   2.235   6.650
 7759SOL     OW24175   1.787   1.210   4.903
 7759SOL    HW124176   1.813   1.127   4.852
 7759SOL    HW224177   1.757   1.280   4.838
 7760SOL     OW24178   5.619   3.577   2.282
 7760SOL    HW124179   5.653   3.523   2.205
 7760SOL    HW224180   5.663   3.667   2.282
 7761SOL     OW24181   2.899   0.255   6.732
 7761SOL    HW124182   2.891   0.161   6.764
 7761SOL    HW224183   2.894   0.257   6.632
 7762SOL     OW24184   3.948   0.846   5.487
 7762SOL    HW124185   3.951   0.938   5.527
 7762SOL    HW224186   4.018   0.839   5.416
 7763SOL     OW24187   1.388   1.777   1.272
 7763SOL    HW124188   1.442   1.802   1.192
 7763SOL    HW224189   1.434   1.704   1.322
 7764SOL     OW24190   3.814   2.938   2.708
 7764SOL    HW124191   3.906   2.965   2.678
 7764SOL    HW224192   3.755   2.928   2.628
 7765SOL     OW24193   6.118   3.142   3.821
 7765SOL    HW124194   6.105   3.043   3.835
 7765SOL    HW224195   6.084   3.192   3.901
 7766SOL     OW24196   5.011   1.528   6.753
 7766SOL    HW124197   5.053   1.552   6.666
 7766SOL    HW224198   5.028   1.431   6.773
 7767SOL     OW24199   3.779   6.713   4.191
 7767SOL    HW124200   3.701   6.774   4.177
 7767SOL    HW224201   3.747   6.626   4.229
 7768SOL     OW24202   4.282   5.102   2.614
 7768SOL    HW124203   4.243   5.046   2.687
 7768SOL    HW224204   4.301   5.045   2.534
 7769SOL     OW24205   5.304   1.297   1.588
 7769SOL    HW124206   5.248   1.218   1.565
 7769SOL    HW224207   5.394   1.289   1.545
 7770SOL     OW24208   1.885   4.209   1.714
 7770SOL    HW124209   1.935   4.123   1.726
 7770SOL    HW224210   1.814   4.217   1.784
 7771SOL     OW24211   2.607   2.529   5.183
 7771SOL    HW124212   2.670   2.601   5.210
 7771SOL    HW224213   2.514   2.564   5.183
 7772SOL     OW24214   5.191   1.173   3.783
 7772SOL    HW124215   5.117   1.238   3.801
 7772SOL    HW224216   5.196   1.154   3.685
 7773SOL     OW24217   2.725   4.867   5.479
 7773SOL    HW124218   2.627   4.864   5.460
 7773SOL    HW224219   2.767   4.780   5.453
 7774SOL     OW24220   5.762   2.174   6.294
 7774SOL    HW124221   5.697   2.166   6.369
 7774SOL    HW224222   5.855   2.158   6.328
 7775SOL     OW24223   3.611   6.749   3.020
 7775SOL    HW124224   3.675   6.791   3.085
 7775SOL    HW224225   3.625   6.789   2.930
 7776SOL     OW24226   2.880   3.109   6.527
 7776SOL    HW124227   2.818   3.126   6.451
 7776SOL    HW224228   2.970   3.082   6.492
 7777SOL     OW24229   2.756   1.418   5.502
 7777SOL    HW124230   2.835   1.369   5.539
 7777SOL    HW224231   2.757   1.413   5.403
 7778SOL     OW24232   4.992   6.422   0.032
 7778SOL    HW124233   4.998   6.393   0.127
 7778SOL    HW224234   5.048   6.503   0.017
 7779SOL     OW24235   3.670   2.971   0.338
 7779SOL    HW124236   3.600   3.038   0.362
 7779SOL    HW224237   3.697   2.920   0.419
 7780SOL     OW24238   1.780   5.306   4.869
 7780SOL    HW124239   1.713   5.367   4.912
 7780SOL    HW224240   1.777   5.319   4.770
 7781SOL     OW24241   1.616   4.157   6.489
 7781SOL    HW124242   1.547   4.102   6.536
 7781SOL    HW224243   1.605   4.148   6.390
 7782SOL     OW24244   1.618   3.338   5.529
 7782SOL    HW124245   1.522   3.364   5.540
 7782SOL    HW224246   1.629   3.286   5.444
 7783SOL     OW24247   3.114   6.701   5.991
 7783SOL    HW124248   3.185   6.739   5.933
 7783SOL    HW224249   3.141   6.710   6.087
 7784SOL     OW24250   2.102   2.126   0.240
 7784SOL    HW124251   2.058   2.045   0.199
 7784SOL    HW224252   2.103   2.200   0.173
 7785SOL     OW24253   1.503   6.755   3.971
 7785SOL    HW124254   1.571   6.821   3.940
 7785SOL    HW224255   1.547   6.686   4.029
 7786SOL     OW24256   3.394   5.454   6.424
 7786SOL    HW124257   3.416   5.356   6.420
 7786SOL    HW224258   3.472   5.506   6.391
 7787SOL     OW24259   1.682   3.223   5.278
 7787SOL    HW124260   1.656   3.127   5.268
 7787SOL    HW224261   1.741   3.249   5.202
 7788SOL     OW24262   1.560   0.685   1.480
 7788SOL    HW124263   1.490   0.649   1.418
 7788SOL    HW224264   1.567   0.784   1.469
 7789SOL     OW24265   3.248   0.153   0.436
 7789SOL    HW124266   3.247   0.199   0.348
 7789SOL    HW224267   3.159   0.109   0.452
 7790SOL     OW24268   6.029   4.875   2.345
 7790SOL    HW124269   6.116   4.876   2.395
 7790SOL    HW224270   6.016   4.786   2.302
 7791SOL     OW24271   2.966   6.614   4.087
 7791SOL    HW124272   3.033   6.608   4.160
 7791SOL    HW224273   2.932   6.522   4.065
 7792SOL     OW24274   1.096   5.525   6.301
 7792SOL    HW124275   1.020   5.579   6.338
 7792SOL    HW224276   1.072   5.494   6.209
 7793SOL     OW24277   1.448   0.654   5.579
 7793SOL    HW124278   1.452   0.718   5.657
 7793SOL    HW224279   1.497   0.570   5.602
 7794SOL     OW24280   5.193   5.488   3.786
 7794SOL    HW124281   5.204   5.570   3.730
 7794SOL    HW224282   5.178   5.515   3.881
 7795SOL     OW24283   1.910   4.068   4.711
 7795SOL    HW124284   1.989   4.024   4.753
 7795SOL    HW224285   1.925   4.077   4.613
 7796SOL     OW24286   3.105   4.007   4.070
 7796SOL    HW124287   3.017   4.054   4.072
 7796SOL    HW224288   3.121   3.970   3.979
 7797SOL     OW24289   0.889   5.668   2.540
 7797SOL    HW124290   0.866   5.687   2.444
 7797SOL    HW224291   0.813   5.619   2.583
 7798SOL     OW24292   1.611   4.870   6.495
 7798SOL    HW124293   1.607   4.951   6.554
 7798SOL    HW224294   1.703   4.832   6.496
 7799SOL     OW24295   6.933   6.546   2.065
 7799SOL    HW124296   6.834   6.540   2.081
 7799SOL    HW224297   6.949   6.588   1.976
 7800SOL     OW24298   1.183   4.908   1.096
 7800SOL    HW124299   1.149   5.000   1.114
 7800SOL    HW224300   1.202   4.862   1.183
 7801SOL     OW24301   2.448   1.750   1.614
 7801SOL    HW124302   2.410   1.818   1.552
 7801SOL    HW224303   2.444   1.660   1.571
 7802SOL     OW24304   5.571   2.512   1.413
 7802SOL    HW124305   5.606   2.606   1.408
 7802SOL    HW224306   5.610   2.458   1.338
 7803SOL     OW24307   4.330   3.314   5.683
 7803SOL    HW124308   4.414   3.324   5.628
 7803SOL    HW224309   4.304   3.403   5.720
 7804SOL     OW24310   6.216   1.225   3.755
 7804SOL    HW124311   6.195   1.144   3.810
 7804SOL    HW224312   6.148   1.296   3.771
 7805SOL     OW24313   5.442   0.940   1.444
 7805SOL    HW124314   5.387   0.860   1.422
 7805SOL    HW224315   5.504   0.919   1.520
 7806SOL     OW24316   5.712   2.764   6.004
 7806SOL    HW124317   5.767   2.772   5.921
 7806SOL    HW224318   5.647   2.840   6.008
 7807SOL     OW24319   0.471   5.180   6.305
 7807SOL    HW124320   0.421   5.145   6.384
 7807SOL    HW224321   0.481   5.279   6.314
 7808SOL     OW24322   0.107   3.258   4.365
 7808SOL    HW124323   0.073   3.288   4.276
 7808SOL    HW224324   0.175   3.187   4.353
 7809SOL     OW24325   2.791   5.978   4.852
 7809SOL    HW124326   2.865   5.987   4.784
 7809SOL    HW224327   2.784   5.882   4.880
 7810SOL     OW24328   3.745   0.207   5.361
 7810SOL    HW124329   3.743   0.123   5.415
 7810SOL    HW224330   3.748   0.183   5.264
 7811SOL     OW24331   7.015   4.429   4.311
 7811SOL    HW124332   7.003   4.355   4.244
 7811SOL    HW224333   0.073   4.487   4.282
 7812SOL     OW24334   0.931   2.025   3.958
 7812SOL    HW124335   0.983   1.954   3.912
 7812SOL    HW224336   0.844   2.039   3.911
 7813SOL     OW24337   4.435   2.207   6.152
 7813SOL    HW124338   4.518   2.165   6.114
 7813SOL    HW224339   4.446   2.216   6.251
 7814SOL     OW24340   6.756   3.161   3.578
 7814SOL    HW124341   6.756   3.104   3.496
 7814SOL    HW224342   6.851   3.184   3.602
 7815SOL     OW24343   5.160   0.850   6.980
 7815SOL    HW124344   5.158   0.770   6.922
 7815SOL    HW224345   5.175   0.823   0.057
 7816SOL     OW24346   1.637   2.491   6.375
 7816SOL    HW124347   1.660   2.583   6.342
 7816SOL    HW224348   1.602   2.436   6.299
 7817SOL     OW24349   6.254   3.800   4.009
 7817SOL    HW124350   6.292   3.782   3.918
 7817SOL    HW224351   6.164   3.843   4.000
 7818SOL     OW24352   4.355   0.922   2.923
 7818SOL    HW124353   4.368   0.844   2.861
 7818SOL    HW224354   4.441   0.971   2.932
 7819SOL     OW24355   6.630   3.087   1.808
 7819SOL    HW124356   6.613   3.180   1.841
 7819SOL    HW224357   6.678   3.035   1.878
 7820SOL     OW24358   1.454   2.271   4.651
 7820SOL    HW124359   1.381   2.328   4.613
 7820SOL    HW224360   1.539   2.289   4.601
 7821SOL     OW24361   4.872   5.956   1.027
 7821SOL    HW124362   4.958   5.913   1.001
 7821SOL    HW224363   4.890   6.029   1.093
 7822SOL     OW24364   0.051   0.599   5.293
 7822SOL    HW124365   0.022   0.671   5.231
 7822SOL    HW224366   0.150   0.586   5.286
 7823SOL     OW24367   2.147   3.762   5.027
 7823SOL    HW124368   2.062   3.768   5.079
 7823SOL    HW224369   2.178   3.853   5.001
 7824SOL     OW24370   6.070   1.976   5.440
 7824SOL    HW124371   6.162   1.999   5.473
 7824SOL    HW224372   6.003   1.998   5.511
 7825SOL     OW24373   1.698   2.964   0.347
 7825SOL    HW124374   1.761   2.922   0.412
 7825SOL    HW224375   1.631   3.019   0.396
 7826SOL     OW24376   6.187   1.221   1.126
 7826SOL    HW124377   6.174   1.248   1.222
 7826SOL    HW224378   6.232   1.295   1.077
 7827SOL     OW24379   1.807   6.011   1.071
 7827SOL    HW124380   1.714   5.976   1.059
 7827SOL    HW224381   1.823   6.030   1.168
 7828SOL     OW24382   6.120   4.761   0.452
 7828SOL    HW124383   6.131   4.675   0.402
 7828SOL    HW224384   6.203   4.816   0.443
 7829SOL     OW24385   2.919   3.426   0.954
 7829SOL    HW124386   2.968   3.489   1.014
 7829SOL    HW224387   2.840   3.473   0.914
 7830SOL     OW24388   3.180   4.969   5.566
 7830SOL    HW124389   3.207   4.949   5.472
 7830SOL    HW224390   3.103   5.032   5.566
 7831SOL     OW24391   1.900   0.490   2.035
 7831SOL    HW124392   1.998   0.493   2.050
 7831SOL    HW224393   1.864   0.401   2.065
 7832SOL     OW24394   6.370   0.412   4.707
 7832SOL    HW124395   6.310   0.491   4.696
 7832SOL    HW224396   6.359   0.350   4.628
 7833SOL     OW24397   1.136   0.950   4.975
 7833SOL    HW124398   1.067   0.890   4.935
 7833SOL    HW224399   1.121   1.044   4.944
 7834SOL     OW24400   6.742   1.907   3.342
 7834SOL    HW124401   6.670   1.848   3.380
 7834SOL    HW224402   6.716   2.003   3.353
 7835SOL     OW24403   4.406   1.662   5.125
 7835SOL    HW124404   4.437   1.615   5.043
 7835SOL    HW224405   4.361   1.748   5.099
 7836SOL     OW24406   3.422   4.340   5.299
 7836SOL    HW124407   3.356   4.415   5.296
 7836SOL    HW224408   3.391   4.271   5.364
 7837SOL     OW24409   5.171   5.697   0.116
 7837SOL    HW124410   5.092   5.653   0.072
 7837SOL    HW224411   5.187   5.786   0.074
 7838SOL     OW24412   4.276   6.364   1.221
 7838SOL    HW124413   4.346   6.412   1.167
 7838SOL    HW224414   4.237   6.290   1.167
 7839SOL     OW24415   6.132   3.755   5.075
 7839SOL    HW124416   6.130   3.749   5.175
 7839SOL    HW224417   6.163   3.845   5.048
 7840SOL     OW24418   0.092   3.504   4.512
 7840SOL    HW124419   0.164   3.538   4.452
 7840SOL    HW224420   0.075   3.407   4.492
 7841SOL     OW24421   4.511   1.705   6.644
 7841SOL    HW124422   4.509   1.755   6.731
 7841SOL    HW224423   4.597   1.656   6.635
 7842SOL     OW24424   1.984   1.319   2.385
 7842SOL    HW124425   2.065   1.344   2.331
 7842SOL    HW224426   2.004   1.236   2.437
 7843SOL     OW24427   0.379   6.626   3.654
 7843SOL    HW124428   0.318   6.596   3.580
 7843SOL    HW224429   0.474   6.610   3.626
 7844SOL     OW24430   3.567   0.647   2.187
 7844SOL    HW124431   3.591   0.730   2.236
 7844SOL    HW224432   3.641   0.622   2.125
 7845SOL     OW24433   5.386   1.727   2.675
 7845SOL    HW124434   5.378   1.721   2.575
 7845SOL    HW224435   5.295   1.718   2.715
 7846SOL     OW24436   1.158   2.349   1.332
 7846SOL    HW124437   1.225   2.400   1.279
 7846SOL    HW224438   1.194   2.333   1.424
 7847SOL     OW24439   6.444   1.290   3.632
 7847SOL    HW124440   6.356   1.258   3.667
 7847SOL    HW224441   6.474   1.370   3.684
 7848SOL     OW24442   3.062   4.333   1.109
 7848SOL    HW124443   2.970   4.312   1.076
 7848SOL    HW224444   3.061   4.334   1.209
 7849SOL     OW24445   6.075   4.150   4.804
 7849SOL    HW124446   6.069   4.050   4.797
 7849SOL    HW224447   6.167   4.179   4.780
 7850SOL     OW24448   0.274   1.965   3.835
 7850SOL    HW124449   0.189   1.923   3.802
 7850SOL    HW224450   0.352   1.913   3.800
 7851SOL     OW24451   0.837   2.653   1.568
 7851SOL    HW124452   0.884   2.594   1.503
 7851SOL    HW224453   0.903   2.688   1.635
 7852SOL     OW24454   3.202   0.808   0.311
 7852SOL    HW124455   3.155   0.726   0.278
 7852SOL    HW224456   3.219   0.870   0.235
 7853SOL     OW24457   4.764   3.041   1.366
 7853SOL    HW124458   4.844   2.995   1.327
 7853SOL    HW224459   4.684   2.982   1.359
 7854SOL     OW24460   3.417   2.357   6.116
 7854SOL    HW124461   3.348   2.385   6.183
 7854SOL    HW224462   3.508   2.374   6.153
 7855SOL     OW24463   4.654   6.178   4.800
 7855SOL    HW124464   4.690   6.206   4.711
 7855SOL    HW224465   4.655   6.256   4.862
 7856SOL     OW24466   0.329   5.156   5.297
 7856SOL    HW124467   0.382   5.225   5.247
 7856SOL    HW224468   0.327   5.071   5.244
 7857SOL     OW24469   4.897   3.518   0.723
 7857SOL    HW124470   4.952   3.508   0.640
 7857SOL    HW224471   4.952   3.558   0.796
 7858SOL     OW24472   6.839   6.583   4.797
 7858SOL    HW124473   6.893   6.501   4.816
 7858SOL    HW224474   6.857   6.613   4.703
 7859SOL     OW24475   4.578   3.606   0.022
 7859SOL    HW124476   4.575   3.515   0.064
 7859SOL    HW224477   4.613   3.673   0.087
 7860SOL     OW24478   4.412   0.985   4.581
 7860SOL    HW124479   4.342   0.942   4.523
 7860SOL    HW224480   4.412   1.083   4.566
 7861SOL     OW24481   2.778   5.279   1.554
 7861SOL    HW124482   2.783   5.354   1.619
 7861SOL    HW224483   2.770   5.192   1.603
 7862SOL     OW24484   2.162   6.108   2.482
 7862SOL    HW124485   2.246   6.157   2.505
 7862SOL    HW224486   2.104   6.167   2.425
 7863SOL     OW24487   0.972   4.696   3.612
 7863SOL    HW124488   0.982   4.787   3.653
 7863SOL    HW224489   0.946   4.706   3.516
 7864SOL     OW24490   1.705   5.647   6.162
 7864SOL    HW124491   1.717   5.596   6.247
 7864SOL    HW224492   1.610   5.677   6.153
 7865SOL     OW24493   6.205   5.426   4.349
 7865SOL    HW124494   6.202   5.507   4.291
 7865SOL    HW224495   6.187   5.451   4.444
 7866SOL     OW24496   1.231   0.497   5.525
 7866SOL    HW124497   1.185   0.568   5.473
 7866SOL    HW224498   1.315   0.534   5.565
 7867SOL     OW24499   5.558   6.950   3.498
 7867SOL    HW124500   5.495   6.887   3.454
 7867SOL    HW224501   5.627   6.899   3.550
 7868SOL     OW24502   4.121   5.587   0.512
 7868SOL    HW124503   4.106   5.619   0.418
 7868SOL    HW224504   4.068   5.643   0.575
 7869SOL     OW24505   5.376   4.910   5.652
 7869SOL    HW124506   5.465   4.922   5.695
 7869SOL    HW224507   5.367   4.975   5.577
 7870SOL     OW24508   5.165   6.824   4.987
 7870SOL    HW124509   5.099   6.763   5.030
 7870SOL    HW224510   5.236   6.771   4.941
 7871SOL     OW24511   5.281   2.158   1.962
 7871SOL    HW124512   5.243   2.227   1.901
 7871SOL    HW224513   5.206   2.105   2.003
 7872SOL     OW24514   1.784   4.289   2.344
 7872SOL    HW124515   1.685   4.298   2.354
 7872SOL    HW224516   1.804   4.234   2.263
 7873SOL     OW24517   6.285   0.133   0.396
 7873SOL    HW124518   6.384   0.142   0.411
 7873SOL    HW224519   6.238   0.125   0.484
 7874SOL     OW24520   4.609   2.388   1.437
 7874SOL    HW124521   4.529   2.404   1.379
 7874SOL    HW224522   4.593   2.427   1.528
 7875SOL     OW24523   3.789   2.987   0.064
 7875SOL    HW124524   3.782   2.999   0.163
 7875SOL    HW224525   3.702   2.951   0.029
 7876SOL     OW24526   1.202   6.573   3.425
 7876SOL    HW124527   1.130   6.529   3.478
 7876SOL    HW224528   1.244   6.646   3.479
 7877SOL     OW24529   6.922   1.749   2.996
 7877SOL    HW124530   6.925   1.843   2.962
 7877SOL    HW224531   6.871   1.691   2.932
 7878SOL     OW24532   4.869   4.050   3.578
 7878SOL    HW124533   4.824   4.050   3.489
 7878SOL    HW224534   4.823   3.985   3.639
 7879SOL     OW24535   3.635   4.981   2.724
 7879SOL    HW124536   3.598   4.900   2.680
 7879SOL    HW224537   3.577   5.060   2.705
 7880SOL     OW24538   2.545   3.451   0.693
 7880SOL    HW124539   2.596   3.444   0.607
 7880SOL    HW224540   2.447   3.438   0.675
 7881SOL     OW24541   4.913   4.016   4.225
 7881SOL    HW124542   4.974   3.981   4.296
 7881SOL    HW224543   4.887   4.110   4.248
 7882SOL     OW24544   2.289   3.509   1.599
 7882SOL    HW124545   2.204   3.488   1.551
 7882SOL    HW224546   2.289   3.462   1.688
 7883SOL     OW24547   0.812   6.965   5.841
 7883SOL    HW124548   0.819   7.007   5.932
 7883SOL    HW224549   0.718   6.974   5.808
 7884SOL     OW24550   0.894   3.710   4.234
 7884SOL    HW124551   0.962   3.783   4.242
 7884SOL    HW224552   0.940   3.624   4.212
 7885SOL     OW24553   6.713   6.108   0.679
 7885SOL    HW124554   6.777   6.177   0.645
 7885SOL    HW224555   6.672   6.061   0.601
 7886SOL     OW24556   4.309   5.589   0.025
 7886SOL    HW124557   4.314   5.608   0.123
 7886SOL    HW224558   4.301   5.490   0.011
 7887SOL     OW24559   3.555   2.039   6.861
 7887SOL    HW124560   3.632   2.004   6.914
 7887SOL    HW224561   3.579   2.044   6.765
 7888SOL     OW24562   5.820   0.442   4.064
 7888SOL    HW124563   5.773   0.368   4.016
 7888SOL    HW224564   5.791   0.530   4.027
 7889SOL     OW24565   1.327   4.868   1.583
 7889SOL    HW124566   1.364   4.948   1.537
 7889SOL    HW224567   1.352   4.785   1.532
 7890SOL     OW24568   1.901   3.855   2.763
 7890SOL    HW124569   1.848   3.774   2.740
 7890SOL    HW224570   1.998   3.831   2.769
 7891SOL     OW24571   2.131   4.625   3.114
 7891SOL    HW124572   2.144   4.649   3.210
 7891SOL    HW224573   2.033   4.621   3.094
 7892SOL     OW24574   1.976   2.583   4.175
 7892SOL    HW124575   2.059   2.585   4.119
 7892SOL    HW224576   1.989   2.642   4.255
 7893SOL     OW24577   6.159   6.712   2.424
 7893SOL    HW124578   6.222   6.770   2.476
 7893SOL    HW224579   6.143   6.753   2.334
 7894SOL     OW24580   2.803   6.331   1.666
 7894SOL    HW124581   2.814   6.233   1.676
 7894SOL    HW224582   2.715   6.351   1.623
 7895SOL     OW24583   5.880   1.218   5.910
 7895SOL    HW124584   5.897   1.120   5.908
 7895SOL    HW224585   5.919   1.257   5.993
 7896SOL     OW24586   4.905   4.294   6.537
 7896SOL    HW124587   4.918   4.222   6.604
 7896SOL    HW224588   4.932   4.261   6.446
 7897SOL     OW24589   2.725   3.707   6.294
 7897SOL    HW124590   2.790   3.657   6.236
 7897SOL    HW224591   2.665   3.762   6.236
 7898SOL     OW24592   5.109   2.407   3.779
 7898SOL    HW124593   5.178   2.414   3.707
 7898SOL    HW224594   5.139   2.458   3.860
 7899SOL     OW24595   6.737   1.747   1.840
 7899SOL    HW124596   6.711   1.669   1.784
 7899SOL    HW224597   6.668   1.761   1.912
 7900SOL     OW24598   1.455   5.264   0.973
 7900SOL    HW124599   1.373   5.224   0.932
 7900SOL    HW224600   1.515   5.298   0.901
 7901SOL     OW24601   4.913   0.449   5.891
 7901SOL    HW124602   5.004   0.421   5.861
 7901SOL    HW224603   4.860   0.482   5.813
 7902SOL     OW24604   4.882   5.115   1.328
 7902SOL    HW124605   4.944   5.086   1.402
 7902SOL    HW224606   4.799   5.153   1.368
 7903SOL     OW24607   6.038   2.195   0.518
 7903SOL    HW124608   6.124   2.232   0.554
 7903SOL    HW224609   5.963   2.255   0.544
 7904SOL     OW24610   6.196   0.456   2.530
 7904SOL    HW124611   6.244   0.483   2.613
 7904SOL    HW224612   6.262   0.422   2.463
 7905SOL     OW24613   4.660   1.594   0.294
 7905SOL    HW124614   4.731   1.577   0.363
 7905SOL    HW224615   4.577   1.628   0.340
 7906SOL     OW24616   0.685   5.824   0.078
 7906SOL    HW124617   0.593   5.798   0.106
 7906SOL    HW224618   0.681   5.880   7.014
 7907SOL     OW24619   6.170   2.301   4.445
 7907SOL    HW124620   6.189   2.220   4.501
 7907SOL    HW224621   6.094   2.283   4.383
 7908SOL     OW24622   1.319   1.542   3.792
 7908SOL    HW124623   1.266   1.585   3.866
 7908SOL    HW224624   1.340   1.611   3.723
 7909SOL     OW24625   4.963   3.623   4.767
 7909SOL    HW124626   4.939   3.662   4.855
 7909SOL    HW224627   4.948   3.524   4.769
 7910SOL     OW24628   3.266   2.932   5.533
 7910SOL    HW124629   3.336   2.947   5.464
 7910SOL    HW224630   3.235   3.020   5.569
 7911SOL     OW24631   0.411   4.337   6.627
 7911SOL    HW124632   0.485   4.315   6.563
 7911SOL    HW224633   0.353   4.408   6.586
 7912SOL     OW24634   0.359   5.456   0.305
 7912SOL    HW124635   0.366   5.438   0.207
 7912SOL    HW224636   0.292   5.528   0.321
 7913SOL     OW24637   0.697   5.311   6.784
 7913SOL    HW124638   0.660   5.299   6.876
 7913SOL    HW224639   0.792   5.278   6.781
 7914SOL     OW24640   0.314   5.068   0.064
 7914SOL    HW124641   0.248   5.144   0.062
 7914SOL    HW224642   0.265   4.982   0.075
 7915SOL     OW24643   4.894   2.443   2.588
 7915SOL    HW124644   4.813   2.502   2.591
 7915SOL    HW224645   4.950   2.468   2.510
 7916SOL     OW24646   5.815   3.812   5.188
 7916SOL    HW124647   5.797   3.784   5.093
 7916SOL    HW224648   5.858   3.902   5.189
 7917SOL     OW24649   3.768   3.300   3.872
 7917SOL    HW124650   3.859   3.325   3.906
 7917SOL    HW224651   3.778   3.227   3.804
 7918SOL     OW24652   6.848   1.429   1.182
 7918SOL    HW124653   6.857   1.482   1.266
 7918SOL    HW224654   6.843   1.491   1.103
 7919SOL     OW24655   0.038   4.550   3.550
 7919SOL    HW124656   6.962   4.520   3.539
 7919SOL    HW224657   0.095   4.506   3.481
 7920SOL     OW24658   0.045   5.064   1.509
 7920SOL    HW124659   0.128   5.114   1.532
 7920SOL    HW224660   0.069   4.978   1.465
 7921SOL     OW24661   3.769   6.094   0.401
 7921SOL    HW124662   3.860   6.089   0.360
 7921SOL    HW224663   3.706   6.036   0.350
 7922SOL     OW24664   6.575   5.906   0.198
 7922SOL    HW124665   6.511   5.942   0.130
 7922SOL    HW224666   6.586   5.973   0.271
 7923SOL     OW24667   2.000   0.900   3.226
 7923SOL    HW124668   1.911   0.871   3.190
 7923SOL    HW224669   2.070   0.834   3.198
 7924SOL     OW24670   3.840   6.555   3.051
 7924SOL    HW124671   3.800   6.626   3.110
 7924SOL    HW224672   3.768   6.516   2.993
 7925SOL     OW24673   0.401   1.742   6.498
 7925SOL    HW124674   0.464   1.665   6.491
 7925SOL    HW224675   0.379   1.776   6.406
 7926SOL     OW24676   4.370   1.123   4.051
 7926SOL    HW124677   4.406   1.168   4.133
 7926SOL    HW224678   4.446   1.097   3.992
 7927SOL     OW24679   3.996   5.754   5.003
 7927SOL    HW124680   4.088   5.723   5.026
 7927SOL    HW224681   3.975   5.837   5.055
 7928SOL     OW24682   1.106   4.510   3.741
 7928SOL    HW124683   1.075   4.420   3.712
 7928SOL    HW224684   1.050   4.581   3.697
 7929SOL     OW24685   3.958   3.765   4.851
 7929SOL    HW124686   3.879   3.724   4.806
 7929SOL    HW224687   3.974   3.856   4.814
 7930SOL     OW24688   4.995   5.808   3.486
 7930SOL    HW124689   4.951   5.739   3.428
 7930SOL    HW224690   4.925   5.866   3.528
 7931SOL     OW24691   2.109   2.189   6.724
 7931SOL    HW124692   2.112   2.122   6.798
 7931SOL    HW224693   2.103   2.281   6.763
 7932SOL     OW24694   2.530   6.798   0.294
 7932SOL    HW124695   2.624   6.814   0.264
 7932SOL    HW224696   2.521   6.821   0.391
 7933SOL     OW24697   6.929   0.055   0.570
 7933SOL    HW124698   6.831   0.047   0.549
 7933SOL    HW224699   6.979   7.005   0.516
 7934SOL     OW24700   2.462   3.721   0.120
 7934SOL    HW124701   2.476   3.817   0.098
 7934SOL    HW224702   2.509   3.699   0.205
 7935SOL     OW24703   5.398   5.272   0.325
 7935SOL    HW124704   5.435   5.345   0.268
 7935SOL    HW224705   5.317   5.306   0.373
 7936SOL     OW24706   3.375   5.619   2.499
 7936SOL    HW124707   3.309   5.679   2.452
 7936SOL    HW224708   3.334   5.529   2.512
 7937SOL     OW24709   5.223   6.798   4.320
 7937SOL    HW124710   5.275   6.744   4.254
 7937SOL    HW224711   5.144   6.746   4.351
 7938SOL     OW24712   5.595   4.963   4.696
 7938SOL    HW124713   5.585   4.870   4.662
 7938SOL    HW224714   5.595   4.963   4.796
 7939SOL     OW24715   1.085   1.426   6.124
 7939SOL    HW124716   1.144   1.452   6.201
 7939SOL    HW224717   1.013   1.494   6.112
 7940SOL     OW24718   2.479   5.307   2.134
 7940SOL    HW124719   2.387   5.287   2.168
 7940SOL    HW224720   2.512   5.229   2.080
 7941SOL     OW24721   6.638   6.787   1.694
 7941SOL    HW124722   6.660   6.761   1.789
 7941SOL    HW224723   6.578   6.867   1.695
 7942SOL     OW24724   6.698   6.589   2.936
 7942SOL    HW124725   6.658   6.555   3.021
 7942SOL    HW224726   6.625   6.620   2.874
 7943SOL     OW24727   5.459   2.124   0.807
 7943SOL    HW124728   5.457   2.210   0.756
 7943SOL    HW224729   5.530   2.065   0.769
 7944SOL     OW24730   0.344   3.005   0.651
 7944SOL    HW124731   0.246   2.998   0.673
 7944SOL    HW224732   0.361   2.962   0.563
 7945SOL     OW24733   5.205   6.806   2.806
 7945SOL    HW124734   5.261   6.838   2.882
 7945SOL    HW224735   5.171   6.714   2.825
 7946SOL     OW24736   1.375   3.046   5.652
 7946SOL    HW124737   1.279   3.019   5.666
 7946SOL    HW224738   1.434   2.970   5.677
 7947SOL     OW24739   4.267   3.127   6.905
 7947SOL    HW124740   4.343   3.092   6.850
 7947SOL    HW224741   4.181   3.114   6.856
 7948SOL     OW24742   6.997   6.674   1.435
 7948SOL    HW124743   6.966   6.767   1.453
 7948SOL    HW224744   6.920   6.611   1.444
 7949SOL     OW24745   4.992   5.036   4.054
 7949SOL    HW124746   4.947   5.094   4.122
 7949SOL    HW224747   5.051   5.092   3.996
 7950SOL     OW24748   4.961   5.444   3.560
 7950SOL    HW124749   4.984   5.500   3.639
 7950SOL    HW224750   4.924   5.356   3.590
 7951SOL     OW24751   3.053   3.619   1.105
 7951SOL    HW124752   3.038   3.713   1.072
 7951SOL    HW224753   3.014   3.610   1.196
 7952SOL     OW24754   0.460   2.744   6.758
 7952SOL    HW124755   0.524   2.667   6.763
 7952SOL    HW224756   0.403   2.734   6.676
 7953SOL     OW24757   1.930   2.959   3.039
 7953SOL    HW124758   1.851   3.008   3.003
 7953SOL    HW224759   1.922   2.950   3.138
 7954SOL     OW24760   4.920   5.235   4.820
 7954SOL    HW124761   5.016   5.245   4.795
 7954SOL    HW224762   4.878   5.163   4.765
 7955SOL     OW24763   0.085   6.601   6.469
 7955SOL    HW124764   0.088   6.651   6.556
 7955SOL    HW224765   0.121   6.509   6.483
 7956SOL     OW24766   0.589   5.334   3.186
 7956SOL    HW124767   0.678   5.347   3.228
 7956SOL    HW224768   0.530   5.413   3.205
 7957SOL     OW24769   2.138   1.621   0.691
 7957SOL    HW124770   2.102   1.712   0.711
 7957SOL    HW224771   2.064   1.554   0.697
 7958SOL     OW24772   3.466   5.488   4.169
 7958SOL    HW124773   3.496   5.519   4.259
 7958SOL    HW224774   3.368   5.506   4.158
 7959SOL     OW24775   4.150   5.386   0.739
 7959SOL    HW124776   4.132   5.424   0.830
 7959SOL    HW224777   4.192   5.457   0.681
 7960SOL     OW24778   3.719   1.839   1.095
 7960SOL    HW124779   3.639   1.812   1.148
 7960SOL    HW224780   3.736   1.937   1.107
 7961SOL     OW24781   2.119   5.992   6.415
 7961SOL    HW124782   2.215   5.965   6.411
 7961SOL    HW224783   2.064   5.928   6.362
 7962SOL     OW24784   2.138   0.795   0.354
 7962SOL    HW124785   2.208   0.845   0.303
 7962SOL    HW224786   2.094   0.729   0.293
 7963SOL     OW24787   6.469   1.197   4.362
 7963SOL    HW124788   6.524   1.208   4.279
 7963SOL    HW224789   6.527   1.159   4.434
 7964SOL     OW24790   5.935   5.076   3.699
 7964SOL    HW124791   5.905   4.984   3.672
 7964SOL    HW224792   6.035   5.079   3.701
 7965SOL     OW24793   4.298   3.201   0.137
 7965SOL    HW124794   4.297   3.166   0.043
 7965SOL    HW224795   4.235   3.147   0.193
 7966SOL     OW24796   1.238   3.633   4.804
 7966SOL    HW124797   1.278   3.541   4.811
 7966SOL    HW224798   1.190   3.655   4.889
 7967SOL     OW24799   3.168   6.371   4.149
 7967SOL    HW124800   3.143   6.394   4.055
 7967SOL    HW224801   3.086   6.352   4.203
 7968SOL     OW24802   2.130   3.225   3.076
 7968SOL    HW124803   2.168   3.139   3.108
 7968SOL    HW224804   2.123   3.289   3.153
 7969SOL     OW24805   4.589   0.209   1.968
 7969SOL    HW124806   4.520   0.268   2.008
 7969SOL    HW224807   4.594   0.225   1.870
 7970SOL     OW24808   0.349   3.706   2.534
 7970SOL    HW124809   0.391   3.781   2.483
 7970SOL    HW224810   0.252   3.700   2.510
 7971SOL     OW24811   3.234   1.247   1.547
 7971SOL    HW124812   3.179   1.282   1.622
 7971SOL    HW224813   3.236   1.314   1.473
 7972SOL     OW24814   6.874   3.925   1.181
 7972SOL    HW124815   6.942   3.874   1.234
 7972SOL    HW224816   6.851   3.875   1.098
 7973SOL     OW24817   5.337   3.336   3.138
 7973SOL    HW124818   5.365   3.281   3.217
 7973SOL    HW224819   5.337   3.433   3.164
 7974SOL     OW24820   6.015   0.333   4.680
 7974SOL    HW124821   5.959   0.389   4.742
 7974SOL    HW224822   6.080   0.279   4.734
 7975SOL     OW24823   5.427   0.195   3.826
 7975SOL    HW124824   5.395   0.282   3.863
 7975SOL    HW224825   5.500   0.158   3.884
 7976SOL     OW24826   0.584   0.027   5.672
 7976SOL    HW124827   0.611   0.115   5.633
 7976SOL    HW224828   0.484   0.025   5.683
 7977SOL     OW24829   4.661   5.717   2.414
 7977SOL    HW124830   4.561   5.713   2.418
 7977SOL    HW224831   4.697   5.740   2.504
 7978SOL     OW24832   6.071   4.401   5.985
 7978SOL    HW124833   6.134   4.440   6.052
 7978SOL    HW224834   6.010   4.336   6.031
 7979SOL     OW24835   2.604   0.226   5.032
 7979SOL    HW124836   2.548   0.146   5.053
 7979SOL    HW224837   2.698   0.210   5.064
 7980SOL     OW24838   3.894   5.329   6.992
 7980SOL    HW124839   3.912   5.232   6.977
 7980SOL    HW224840   3.890   5.348   0.072
 7981SOL     OW24841   1.023   5.844   1.813
 7981SOL    HW124842   1.043   5.750   1.786
 7981SOL    HW224843   0.994   5.897   1.733
 7982SOL     OW24844   6.573   1.918   0.876
 7982SOL    HW124845   6.493   1.954   0.828
 7982SOL    HW224846   6.572   1.818   0.872
 7983SOL     OW24847   5.093   1.877   3.113
 7983SOL    HW124848   5.056   1.784   3.114
 7983SOL    HW224849   5.035   1.937   3.167
 7984SOL     OW24850   1.399   1.530   1.437
 7984SOL    HW124851   1.330   1.581   1.385
 7984SOL    HW224852   1.434   1.455   1.380
 7985SOL     OW24853   2.266   6.683   3.025
 7985SOL    HW124854   2.353   6.676   2.977
 7985SOL    HW224855   2.198   6.725   2.966
 7986SOL     OW24856   3.281   1.154   6.931
 7986SOL    HW124857   3.258   1.245   6.967
 7986SOL    HW224858   3.239   1.143   6.841
 7987SOL     OW24859   0.596   3.826   6.129
 7987SOL    HW124860   0.667   3.777   6.180
 7987SOL    HW224861   0.540   3.760   6.079
 7988SOL     OW24862   2.355   2.587   4.583
 7988SOL    HW124863   2.406   2.505   4.610
 7988SOL    HW224864   2.374   2.608   4.487
 7989SOL     OW24865   3.471   2.772   5.401
 7989SOL    HW124866   3.396   2.718   5.364
 7989SOL    HW224867   3.490   2.744   5.495
 7990SOL     OW24868   0.357   3.618   3.165
 7990SOL    HW124869   0.290   3.546   3.183
 7990SOL    HW224870   0.368   3.630   3.066
 7991SOL     OW24871   6.289   2.105   5.496
 7991SOL    HW124872   6.369   2.051   5.521
 7991SOL    HW224873   6.262   2.163   5.573
 7992SOL     OW24874   1.434   6.723   1.089
 7992SOL    HW124875   1.436   6.669   1.173
 7992SOL    HW224876   1.525   6.758   1.070
 7993SOL     OW24877   1.798   6.070   6.363
 7993SOL    HW124878   1.861   6.002   6.326
 7993SOL    HW224879   1.823   6.091   6.457
 7994SOL     OW24880   4.709   0.295   3.515
 7994SOL    HW124881   4.662   0.353   3.448
 7994SOL    HW224882   4.691   0.330   3.607
 7995SOL     OW24883   3.951   5.200   3.256
 7995SOL    HW124884   3.988   5.117   3.296
 7995SOL    HW224885   3.862   5.180   3.215
 7996SOL     OW24886   3.391   6.249   4.326
 7996SOL    HW124887   3.347   6.270   4.239
 7996SOL    HW224888   3.433   6.331   4.363
 7997SOL     OW24889   6.585   1.702   1.193
 7997SOL    HW124890   6.612   1.680   1.100
 7997SOL    HW224891   6.606   1.798   1.213
 7998SOL     OW24892   4.338   5.210   0.826
 7998SOL    HW124893   4.247   5.240   0.796
 7998SOL    HW224894   4.390   5.289   0.859
 7999SOL     OW24895   0.850   0.065   6.110
 7999SOL    HW124896   0.938   0.022   6.090
 7999SOL    HW224897   0.859   0.125   6.190
 8000SOL     OW24898   5.607   0.221   6.486
 8000SOL    HW124899   5.520   0.171   6.489
 8000SOL    HW224900   5.607   0.283   6.408
 8001SOL     OW24901   3.248   5.852   2.086
 8001SOL    HW124902   3.299   5.850   2.000
 8001SOL    HW224903   3.237   5.759   2.120
 8002SOL     OW24904   0.671   3.136   5.882
 8002SOL    HW124905   0.761   3.163   5.915
 8002SOL    HW224906   0.670   3.038   5.862
 8003SOL     OW24907   2.696   4.884   2.651
 8003SOL    HW124908   2.768   4.942   2.613
 8003SOL    HW224909   2.730   4.836   2.732
 8004SOL     OW24910   1.644   4.854   2.884
 8004SOL    HW124911   1.715   4.786   2.866
 8004SOL    HW224912   1.675   4.916   2.956
 8005SOL     OW24913   3.234   1.602   2.525
 8005SOL    HW124914   3.181   1.532   2.572
 8005SOL    HW224915   3.263   1.672   2.590
 8006SOL     OW24916   2.460   6.294   0.890
 8006SOL    HW124917   2.501   6.223   0.834
 8006SOL    HW224918   2.435   6.256   0.979
 8007SOL     OW24919   0.618   0.170   4.099
 8007SOL    HW124920   0.570   0.228   4.165
 8007SOL    HW224921   0.682   0.110   4.147
 8008SOL     OW24922   4.545   6.509   6.120
 8008SOL    HW124923   4.494   6.583   6.165
 8008SOL    HW224924   4.580   6.542   6.032
 8009SOL     OW24925   6.352   0.561   2.761
 8009SOL    HW124926   6.385   0.542   2.853
 8009SOL    HW224927   6.388   0.650   2.730
 8010SOL     OW24928   2.240   1.459   6.908
 8010SOL    HW124929   2.283   1.547   6.928
 8010SOL    HW224930   2.147   1.458   6.945
 8011SOL     OW24931   2.056   2.757   1.497
 8011SOL    HW124932   2.015   2.670   1.523
 8011SOL    HW224933   2.016   2.831   1.552
 8012SOL     OW24934   1.577   6.056   1.553
 8012SOL    HW124935   1.579   5.957   1.541
 8012SOL    HW224936   1.509   6.096   1.492
 8013SOL     OW24937   0.460   5.203   4.428
 8013SOL    HW124938   0.494   5.146   4.503
 8013SOL    HW224939   0.364   5.183   4.411
 8014SOL     OW24940   1.371   6.532   5.510
 8014SOL    HW124941   1.452   6.547   5.453
 8014SOL    HW224942   1.399   6.501   5.601
 8015SOL     OW24943   2.847   1.338   0.348
 8015SOL    HW124944   2.864   1.426   0.304
 8015SOL    HW224945   2.748   1.324   0.358
 8016SOL     OW24946   4.062   0.194   6.774
 8016SOL    HW124947   4.000   0.179   6.851
 8016SOL    HW224948   4.111   0.109   6.755
 8017SOL     OW24949   6.759   4.792   5.769
 8017SOL    HW124950   6.685   4.768   5.831
 8017SOL    HW224951   6.836   4.730   5.784
 8018SOL     OW24952   4.935   2.487   6.141
 8018SOL    HW124953   4.974   2.522   6.226
 8018SOL    HW224954   4.983   2.527   6.063
 8019SOL     OW24955   2.012   3.502   0.170
 8019SOL    HW124956   1.990   3.512   0.267
 8019SOL    HW224957   1.973   3.418   0.134
 8020SOL     OW24958   5.683   6.605   0.324
 8020SOL    HW124959   5.670   6.704   0.319
 8020SOL    HW224960   5.762   6.579   0.268
 8021SOL     OW24961   1.282   1.754   2.164
 8021SOL    HW124962   1.274   1.655   2.152
 8021SOL    HW224963   1.329   1.793   2.085
 8022SOL     OW24964   4.178   0.870   3.136
 8022SOL    HW124965   4.255   0.893   3.075
 8022SOL    HW224966   4.099   0.844   3.081
 8023SOL     OW24967   5.925   6.104   3.348
 8023SOL    HW124968   5.891   6.021   3.303
 8023SOL    HW224969   6.012   6.131   3.306
 8024SOL     OW24970   3.212   4.656   0.090
 8024SOL    HW124971   3.248   4.736   0.041
 8024SOL    HW224972   3.248   4.655   0.183
 8025SOL     OW24973   3.659   6.093   5.753
 8025SOL    HW124974   3.602   6.115   5.674
 8025SOL    HW224975   3.607   6.036   5.817
 8026SOL     OW24976   0.625   3.863   6.643
 8026SOL    HW124977   0.564   3.921   6.589
 8026SOL    HW224978   0.712   3.853   6.595
 8027SOL     OW24979   4.700   1.983   5.528
 8027SOL    HW124980   4.693   1.999   5.430
 8027SOL    HW224981   4.720   2.069   5.575
 8028SOL     OW24982   3.888   4.706   5.961
 8028SOL    HW124983   3.805   4.695   5.906
 8028SOL    HW224984   3.939   4.785   5.929
 8029SOL     OW24985   5.561   3.626   6.536
 8029SOL    HW124986   5.470   3.585   6.523
 8029SOL    HW224987   5.609   3.629   6.448
 8030SOL     OW24988   5.717   3.837   5.865
 8030SOL    HW124989   5.656   3.910   5.897
 8030SOL    HW224990   5.719   3.838   5.765
 8031SOL     OW24991   5.108   5.966   2.410
 8031SOL    HW124992   5.167   5.930   2.338
 8031SOL    HW224993   5.071   5.891   2.464
 8032SOL     OW24994   6.008   4.034   5.146
 8032SOL    HW124995   5.956   4.083   5.077
 8032SOL    HW224996   6.104   4.031   5.119
 8033SOL     OW24997   5.123   3.131   6.992
 8033SOL    HW124998   5.080   3.135   6.902
 8033SOL    HW224999   5.167   3.219   7.012
 8034SOL     OW25000   6.167   0.938   5.061
 8034SOL    HW125001   6.250   0.950   5.007
 8034SOL    HW225002   6.146   1.024   5.108
 8035SOL     OW25003   5.042   6.992   5.388
 8035SOL    HW125004   4.942   6.982   5.382
 8035SOL    HW225005   5.077   0.006   5.299
 8036SOL     OW25006   1.408   3.537   1.801
 8036SOL    HW125007   1.319   3.498   1.828
 8036SOL    HW225008   1.462   3.466   1.755
 8037SOL     OW25009   1.553   3.368   1.633
 8037SOL    HW125010   1.596   3.277   1.631
 8037SOL    HW225011   1.538   3.399   1.539
 8038SOL     OW25012   4.841   1.669   2.881
 8038SOL    HW125013   4.886   1.625   2.959
 8038SOL    HW225014   4.780   1.741   2.913
 8039SOL     OW25015   1.603   6.980   3.568
 8039SOL    HW125016   1.644   6.892   3.542
 8039SOL    HW225017   1.562   0.004   3.487
 8040SOL     OW25018   1.141   5.918   0.864
 8040SOL    HW125019   1.125   5.836   0.918
 8040SOL    HW225020   1.118   5.999   0.919
 8041SOL     OW25021   3.367   1.695   2.310
 8041SOL    HW125022   3.394   1.785   2.345
 8041SOL    HW225023   3.323   1.642   2.383
 8042SOL     OW25024   3.395   2.858   2.342
 8042SOL    HW125025   3.363   2.887   2.252
 8042SOL    HW225026   3.350   2.773   2.368
 8043SOL     OW25027   3.352   6.957   0.616
 8043SOL    HW125028   3.378   0.024   0.661
 8043SOL    HW225029   3.302   6.899   0.680
 8044SOL     OW25030   3.377   3.341   1.387
 8044SOL    HW125031   3.355   3.278   1.312
 8044SOL    HW225032   3.347   3.300   1.474
 8045SOL     OW25033   5.573   1.581   2.260
 8045SOL    HW125034   5.641   1.638   2.306
 8045SOL    HW225035   5.532   1.519   2.327
 8046SOL     OW25036   6.155   4.414   6.485
 8046SOL    HW125037   6.139   4.316   6.481
 8046SOL    HW225038   6.111   4.459   6.407
 8047SOL     OW25039   3.462   5.083   5.115
 8047SOL    HW125040   3.557   5.058   5.132
 8047SOL    HW225041   3.431   5.042   5.030
 8048SOL     OW25042   5.578   1.364   5.183
 8048SOL    HW125043   5.505   1.323   5.239
 8048SOL    HW225044   5.556   1.353   5.086
 8049SOL     OW25045   1.135   7.015   1.808
 8049SOL    HW125046   1.063   6.977   1.866
 8049SOL    HW225047   1.169   0.082   1.849
 8050SOL     OW25048   0.978   4.144   1.200
 8050SOL    HW125049   0.998   4.211   1.128
 8050SOL    HW225050   0.882   4.151   1.226
 8051SOL     OW25051   5.202   0.436   3.584
 8051SOL    HW125052   5.130   0.377   3.621
 8051SOL    HW225053   5.204   0.429   3.485
 8052SOL     OW25054   3.069   1.641   2.272
 8052SOL    HW125055   3.074   1.608   2.366
 8052SOL    HW225056   3.131   1.719   2.262
 8053SOL     OW25057   3.737   3.379   2.964
 8053SOL    HW125058   3.742   3.465   3.016
 8053SOL    HW225059   3.643   3.364   2.934
 8054SOL     OW25060   4.910   6.455   4.205
 8054SOL    HW125061   4.939   6.541   4.248
 8054SOL    HW225062   4.845   6.409   4.266
 8055SOL     OW25063   0.818   0.504   6.262
 8055SOL    HW125064   0.805   0.405   6.250
 8055SOL    HW225065   0.896   0.534   6.207
 8056SOL     OW25066   4.893   1.105   3.500
 8056SOL    HW125067   4.803   1.140   3.475
 8056SOL    HW225068   4.883   1.044   3.579
 8057SOL     OW25069   2.478   1.055   2.605
 8057SOL    HW125070   2.528   1.141   2.607
 8057SOL    HW225071   2.381   1.071   2.620
 8058SOL     OW25072   3.574   0.080   3.141
 8058SOL    HW125073   3.653   0.140   3.155
 8058SOL    HW225074   3.501   0.104   3.204
 8059SOL     OW25075   4.105   2.253   4.725
 8059SOL    HW125076   4.172   2.273   4.654
 8059SOL    HW225077   4.026   2.314   4.714
 8060SOL     OW25078   0.451   1.335   4.387
 8060SOL    HW125079   0.513   1.289   4.323
 8060SOL    HW225080   0.398   1.405   4.339
 8061SOL     OW25081   6.660   6.050   2.164
 8061SOL    HW125082   6.640   5.976   2.100
 8061SOL    HW225083   6.579   6.071   2.217
 8062SOL     OW25084   2.467   4.385   3.822
 8062SOL    HW125085   2.466   4.466   3.763
 8062SOL    HW225086   2.504   4.307   3.771
 8063SOL     OW25087   1.643   3.768   0.334
 8063SOL    HW125088   1.700   3.850   0.326
 8063SOL    HW225089   1.656   3.712   0.253
 8064SOL     OW25090   0.354   5.017   0.467
 8064SOL    HW125091   0.381   4.986   0.558
 8064SOL    HW225092   0.259   4.992   0.451
 8065SOL     OW25093   4.194   6.550   3.569
 8065SOL    HW125094   4.130   6.490   3.521
 8065SOL    HW225095   4.147   6.636   3.593
 8066SOL     OW25096   1.174   1.441   6.375
 8066SOL    HW125097   1.128   1.428   6.463
 8066SOL    HW225098   1.241   1.368   6.361
 8067SOL     OW25099   4.277   3.315   1.244
 8067SOL    HW125100   4.351   3.310   1.311
 8067SOL    HW225101   4.191   3.291   1.289
 8068SOL     OW25102   6.352   5.418   5.690
 8068SOL    HW125103   6.335   5.510   5.654
 8068SOL    HW225104   6.404   5.365   5.624
 8069SOL     OW25105   2.310   6.280   1.580
 8069SOL    HW125106   2.241   6.226   1.627
 8069SOL    HW225107   2.386   6.221   1.552
 8070SOL     OW25108   3.069   4.533   0.629
 8070SOL    HW125109   2.969   4.524   0.631
 8070SOL    HW225110   3.108   4.481   0.706
 8071SOL     OW25111   3.952   6.332   5.246
 8071SOL    HW125112   3.865   6.347   5.293
 8071SOL    HW225113   4.018   6.401   5.276
 8072SOL     OW25114   3.354   1.385   0.272
 8072SOL    HW125115   3.283   1.387   0.343
 8072SOL    HW225116   3.310   1.387   0.182
 8073SOL     OW25117   5.074   6.930   6.707
 8073SOL    HW125118   5.040   6.997   6.640
 8073SOL    HW225119   5.171   6.911   6.689
 8074SOL     OW25120   3.422   2.625   0.026
 8074SOL    HW125121   3.373   2.539   0.019
 8074SOL    HW225122   3.385   2.690   6.978
 8075SOL     OW25123   6.661   1.502   1.735
 8075SOL    HW125124   6.634   1.506   1.638
 8075SOL    HW225125   6.587   1.463   1.788
 8076SOL     OW25126   4.509   2.687   5.781
 8076SOL    HW125127   4.418   2.715   5.751
 8076SOL    HW225128   4.578   2.735   5.726
 8077SOL     OW25129   0.514   6.934   1.969
 8077SOL    HW125130   0.523   6.999   2.044
 8077SOL    HW225131   0.557   6.847   1.995
 8078SOL     OW25132   5.964   1.665   0.675
 8078SOL    HW125133   5.889   1.698   0.617
 8078SOL    HW225134   6.050   1.704   0.643
 8079SOL     OW25135   5.391   2.232   3.344
 8079SOL    HW125136   5.366   2.306   3.406
 8079SOL    HW225137   5.438   2.269   3.264
 8080SOL     OW25138   1.797   3.784   0.650
 8080SOL    HW125139   1.878   3.833   0.619
 8080SOL    HW225140   1.759   3.732   0.574
 8081SOL     OW25141   5.658   0.660   5.437
 8081SOL    HW125142   5.656   0.732   5.506
 8081SOL    HW225143   5.664   0.700   5.346
 8082SOL     OW25144   5.902   2.210   2.810
 8082SOL    HW125145   5.970   2.144   2.779
 8082SOL    HW225146   5.816   2.195   2.761
 8083SOL     OW25147   5.101   3.024   2.053
 8083SOL    HW125148   5.025   3.041   1.991
 8083SOL    HW225149   5.067   3.016   2.146
 8084SOL     OW25150   5.955   6.459   1.404
 8084SOL    HW125151   5.957   6.360   1.416
 8084SOL    HW225152   6.046   6.496   1.420
 8085SOL     OW25153   5.481   0.423   2.076
 8085SOL    HW125154   5.549   0.355   2.050
 8085SOL    HW225155   5.506   0.512   2.036
 8086SOL     OW25156   3.776   0.418   4.104
 8086SOL    HW125157   3.814   0.362   4.030
 8086SOL    HW225158   3.679   0.395   4.116
 8087SOL     OW25159   2.210   1.503   1.106
 8087SOL    HW125160   2.144   1.428   1.102
 8087SOL    HW225161   2.261   1.508   1.020
 8088SOL     OW25162   6.416   1.651   1.959
 8088SOL    HW125163   6.417   1.739   1.912
 8088SOL    HW225164   6.414   1.667   2.058
 8089SOL     OW25165   5.119   1.949   6.884
 8089SOL    HW125166   5.212   1.975   6.859
 8089SOL    HW225167   5.115   1.930   6.982
 8090SOL     OW25168   4.717   2.333   6.097
 8090SOL    HW125169   4.796   2.395   6.092
 8090SOL    HW225170   4.750   2.239   6.107
 8091SOL     OW25171   3.117   3.767   6.771
 8091SOL    HW125172   3.121   3.682   6.717
 8091SOL    HW225173   3.043   3.759   6.838
 8092SOL     OW25174   1.347   1.472   4.871
 8092SOL    HW125175   1.399   1.546   4.914
 8092SOL    HW225176   1.334   1.493   4.774
 8093SOL     OW25177   6.222   6.081   1.207
 8093SOL    HW125178   6.162   6.106   1.131
 8093SOL    HW225179   6.278   6.160   1.232
 8094SOL     OW25180   1.965   4.426   5.357
 8094SOL    HW125181   1.916   4.424   5.270
 8094SOL    HW225182   1.995   4.520   5.376
 8095SOL     OW25183   6.181   3.525   3.879
 8095SOL    HW125184   6.164   3.430   3.853
 8095SOL    HW225185   6.101   3.562   3.926
 8096SOL     OW25186   2.630   5.804   3.603
 8096SOL    HW125187   2.634   5.887   3.658
 8096SOL    HW225188   2.711   5.748   3.620
 8097SOL     OW25189   5.155   0.963   3.971
 8097SOL    HW125190   5.187   0.975   4.065
 8097SOL    HW225191   5.188   1.038   3.914
 8098SOL     OW25192   2.573   6.648   4.712
 8098SOL    HW125193   2.671   6.658   4.696
 8098SOL    HW225194   2.523   6.720   4.663
 8099SOL     OW25195   6.248   0.584   3.955
 8099SOL    HW125196   6.228   0.623   3.866
 8099SOL    HW225197   6.172   0.524   3.983
 8100SOL     OW25198   0.296   0.258   0.398
 8100SOL    HW125199   0.371   0.195   0.378
 8100SOL    HW225200   0.269   0.305   0.314
 8101SOL     OW25201   1.907   0.165   4.547
 8101SOL    HW125202   1.845   0.217   4.606
 8101SOL    HW225203   1.858   0.135   4.466
 8102SOL     OW25204   1.686   5.385   6.767
 8102SOL    HW125205   1.765   5.447   6.768
 8102SOL    HW225206   1.624   5.412   6.693
 8103SOL     OW25207   4.075   1.536   1.220
 8103SOL    HW125208   4.015   1.590   1.161
 8103SOL    HW225209   4.026   1.456   1.253
 8104SOL     OW25210   3.201   6.818   6.275
 8104SOL    HW125211   3.162   6.891   6.331
 8104SOL    HW225212   3.256   6.758   6.332
 8105SOL     OW25213   2.103   2.600   3.266
 8105SOL    HW125214   2.028   2.640   3.213
 8105SOL    HW225215   2.069   2.565   3.353
 8106SOL     OW25216   1.530   5.572   3.284
 8106SOL    HW125217   1.590   5.592   3.362
 8106SOL    HW225218   1.441   5.613   3.299
 8107SOL     OW25219   1.903   6.188   5.782
 8107SOL    HW125220   1.862   6.118   5.725
 8107SOL    HW225221   1.994   6.211   5.747
 8108SOL     OW25222   6.348   2.891   4.817
 8108SOL    HW125223   6.365   2.910   4.913
 8108SOL    HW225224   6.355   2.975   4.764
 8109SOL     OW25225   1.720   4.305   4.387
 8109SOL    HW125226   1.801   4.255   4.354
 8109SOL    HW225227   1.638   4.251   4.368
 8110SOL     OW25228   3.352   6.723   0.496
 8110SOL    HW125229   3.358   6.815   0.533
 8110SOL    HW225230   3.417   6.712   0.421
 8111SOL     OW25231   2.865   0.265   5.911
 8111SOL    HW125232   2.776   0.310   5.911
 8111SOL    HW225233   2.937   0.334   5.924
 8112SOL     OW25234   2.381   0.928   5.466
 8112SOL    HW125235   2.349   0.840   5.430
 8112SOL    HW225236   2.447   0.912   5.539
 8113SOL     OW25237   2.991   2.686   0.064
 8113SOL    HW125238   2.920   2.639   0.012
 8113SOL    HW225239   3.067   2.708   0.003
 8114SOL     OW25240   2.382   2.576   2.236
 8114SOL    HW125241   2.365   2.664   2.280
 8114SOL    HW225242   2.322   2.507   2.276
 8115SOL     OW25243   3.593   1.027   1.471
 8115SOL    HW125244   3.567   0.931   1.485
 8115SOL    HW225245   3.520   1.073   1.420
 8116SOL     OW25246   5.141   0.044   5.122
 8116SOL    HW125247   5.206   0.096   5.066
 8116SOL    HW225248   5.133   6.970   5.086
 8117SOL     OW25249   1.775   1.952   3.476
 8117SOL    HW125250   1.723   1.931   3.559
 8117SOL    HW225251   1.826   1.872   3.447
 8118SOL     OW25252   0.362   3.905   5.759
 8118SOL    HW125253   0.446   3.941   5.718
 8118SOL    HW225254   0.328   3.970   5.827
 8119SOL     OW25255   0.395   5.816   4.279
 8119SOL    HW125256   0.369   5.852   4.189
 8119SOL    HW225257   0.372   5.719   4.283
 8120SOL     OW25258   4.092   3.672   6.650
 8120SOL    HW125259   3.992   3.673   6.639
 8120SOL    HW225260   4.131   3.750   6.601
 8121SOL     OW25261   0.104   6.069   3.076
 8121SOL    HW125262   0.115   5.970   3.068
 8121SOL    HW225263   0.016   6.089   3.120
 8122SOL     OW25264   0.073   4.950   2.310
 8122SOL    HW125265   0.073   4.886   2.387
 8122SOL    HW225266   0.035   4.905   2.230
 8123SOL     OW25267   0.482   0.050   6.941
 8123SOL    HW125268   0.435   0.137   6.928
 8123SOL    HW225269   0.542   0.032   6.863
 8124SOL     OW25270   0.853   6.726   1.574
 8124SOL    HW125271   0.939   6.697   1.533
 8124SOL    HW225272   0.870   6.799   1.640
 8125SOL     OW25273   6.362   5.047   3.236
 8125SOL    HW125274   6.297   5.100   3.180
 8125SOL    HW225275   6.413   4.985   3.176
 8126SOL     OW25276   6.311   4.797   2.071
 8126SOL    HW125277   6.317   4.708   2.027
 8126SOL    HW225278   6.317   4.787   2.170
 8127SOL     OW25279   2.591   5.814   0.709
 8127SOL    HW125280   2.676   5.838   0.662
 8127SOL    HW225281   2.605   5.730   0.761
 8128SOL     OW25282   3.637   2.517   6.861
 8128SOL    HW125283   3.572   2.477   6.925
 8128SOL    HW225284   3.603   2.605   6.829
 8129SOL     OW25285   4.979   1.056   6.504
 8129SOL    HW125286   4.994   1.059   6.405
 8129SOL    HW225287   5.068   1.048   6.550
 8130SOL     OW25288   1.048   5.361   6.002
 8130SOL    HW125289   1.138   5.320   5.986
 8130SOL    HW225290   0.998   5.368   5.916
 8131SOL     OW25291   2.975   1.139   0.182
 8131SOL    HW125292   2.913   1.136   0.104
 8131SOL    HW225293   2.945   1.208   0.247
 8132SOL     OW25294   5.380   5.904   6.000
 8132SOL    HW125295   5.342   5.994   5.978
 8132SOL    HW225296   5.454   5.883   5.935
 8133SOL     OW25297   3.263   4.887   2.838
 8133SOL    HW125298   3.262   4.883   2.738
 8133SOL    HW225299   3.249   4.982   2.868
 8134SOL     OW25300   2.251   1.796   4.084
 8134SOL    HW125301   2.296   1.876   4.044
 8134SOL    HW225302   2.248   1.722   4.016
 8135SOL     OW25303   3.186   4.879   2.072
 8135SOL    HW125304   3.219   4.833   1.990
 8135SOL    HW225305   3.100   4.838   2.102
 8136SOL     OW25306   4.531   5.151   2.739
 8136SOL    HW125307   4.437   5.136   2.709
 8136SOL    HW225308   4.581   5.202   2.669
 8137SOL     OW25309   2.291   2.898   4.306
 8137SOL    HW125310   2.293   2.798   4.302
 8137SOL    HW225311   2.291   2.935   4.213
 8138SOL     OW25312   6.021   1.832   2.065
 8138SOL    HW125313   6.063   1.760   2.121
 8138SOL    HW225314   6.036   1.921   2.108
 8139SOL     OW25315   0.858   2.852   3.484
 8139SOL    HW125316   0.888   2.948   3.480
 8139SOL    HW225317   0.921   2.799   3.541
 8140SOL     OW25318   3.976   0.216   0.398
 8140SOL    HW125319   3.892   0.212   0.344
 8140SOL    HW225320   4.018   0.306   0.388
 8141SOL     OW25321   5.206   0.481   5.193
 8141SOL    HW125322   5.215   0.518   5.286
 8141SOL    HW225323   5.270   0.405   5.182
 8142SOL     OW25324   2.156   5.557   0.632
 8142SOL    HW125325   2.183   5.647   0.600
 8142SOL    HW225326   2.078   5.566   0.695
 8143SOL     OW25327   5.220   5.171   1.264
 8143SOL    HW125328   5.133   5.214   1.287
 8143SOL    HW225329   5.205   5.076   1.237
 8144SOL     OW25330   0.257   5.817   5.526
 8144SOL    HW125331   0.345   5.862   5.538
 8144SOL    HW225332   0.269   5.733   5.473
 8145SOL     OW25333   4.556   5.408   0.532
 8145SOL    HW125334   4.563   5.387   0.434
 8145SOL    HW225335   4.461   5.428   0.555
 8146SOL     OW25336   5.922   0.483   5.185
 8146SOL    HW125337   5.842   0.434   5.150
 8146SOL    HW225338   5.988   0.495   5.111
 8147SOL     OW25339   0.650   0.528   0.532
 8147SOL    HW125340   0.749   0.534   0.528
 8147SOL    HW225341   0.614   0.513   0.440
 8148SOL     OW25342   4.068   3.949   6.549
 8148SOL    HW125343   4.015   3.991   6.623
 8148SOL    HW225344   4.006   3.904   6.485
 8149SOL     OW25345   2.004   6.501   4.789
 8149SOL    HW125346   2.059   6.559   4.849
 8149SOL    HW225347   2.048   6.495   4.699
 8150SOL     OW25348   0.639   3.211   0.959
 8150SOL    HW125349   0.608   3.126   0.916
 8150SOL    HW225350   0.564   3.253   1.009
 8151SOL     OW25351   6.170   5.459   3.789
 8151SOL    HW125352   6.114   5.386   3.750
 8151SOL    HW225353   6.203   5.519   3.715
 8152SOL     OW25354   4.686   2.162   2.671
 8152SOL    HW125355   4.785   2.161   2.683
 8152SOL    HW225356   4.665   2.157   2.573
 8153SOL     OW25357   0.824   0.790   3.346
 8153SOL    HW125358   0.736   0.751   3.374
 8153SOL    HW225359   0.809   0.882   3.309
 8154SOL     OW25360   2.990   1.498   3.176
 8154SOL    HW125361   3.046   1.446   3.240
 8154SOL    HW225362   3.048   1.556   3.120
 8155SOL     OW25363   1.267   3.806   2.646
 8155SOL    HW125364   1.266   3.857   2.560
 8155SOL    HW225365   1.291   3.868   2.721
 8156SOL     OW25366   5.469   6.079   1.358
 8156SOL    HW125367   5.485   6.177   1.363
 8156SOL    HW225368   5.433   6.056   1.268
 8157SOL     OW25369   5.869   3.589   6.163
 8157SOL    HW125370   5.882   3.628   6.254
 8157SOL    HW225371   5.782   3.621   6.125
 8158SOL     OW25372   5.872   5.048   6.407
 8158SOL    HW125373   5.918   5.006   6.328
 8158SOL    HW225374   5.928   5.033   6.489
 8159SOL     OW25375   3.804   6.528   5.623
 8159SOL    HW125376   3.740   6.485   5.686
 8159SOL    HW225377   3.864   6.458   5.584
 8160SOL     OW25378   4.849   0.859   3.710
 8160SOL    HW125379   4.812   0.772   3.678
 8160SOL    HW225380   4.937   0.844   3.755
 8161SOL     OW25381   5.643   3.619   0.126
 8161SOL    HW125382   5.697   3.553   0.075
 8161SOL    HW225383   5.564   3.648   0.072
 8162SOL     OW25384   0.632   5.220   0.023
 8162SOL    HW125385   0.573   5.143   0.046
 8162SOL    HW225386   0.695   5.238   0.099
 8163SOL     OW25387   3.782   5.395   5.271
 8163SOL    HW125388   3.842   5.469   5.299
 8163SOL    HW225389   3.836   5.321   5.231
 8164SOL     OW25390   4.252   0.568   6.659
 8164SOL    HW125391   4.234   0.652   6.710
 8164SOL    HW225392   4.298   0.502   6.718
 8165SOL     OW25393   6.893   3.960   6.335
 8165SOL    HW125394   6.909   3.947   6.433
 8165SOL    HW225395   6.795   3.970   6.319
 8166SOL     OW25396   2.139   2.086   4.100
 8166SOL    HW125397   2.235   2.077   4.073
 8166SOL    HW225398   2.119   2.019   4.172
 8167SOL     OW25399   6.579   1.060   3.703
 8167SOL    HW125400   6.641   1.013   3.640
 8167SOL    HW225401   6.551   1.147   3.664
 8168SOL     OW25402   2.596   0.348   1.374
 8168SOL    HW125403   2.640   0.259   1.362
 8168SOL    HW225404   2.643   0.398   1.447
 8169SOL     OW25405   4.171   2.003   0.669
 8169SOL    HW125406   4.150   1.912   0.705
 8169SOL    HW225407   4.259   2.034   0.704
 8170SOL     OW25408   6.318   4.592   1.680
 8170SOL    HW125409   6.315   4.506   1.732
 8170SOL    HW225410   6.226   4.613   1.647
 8171SOL     OW25411   1.667   1.007   6.669
 8171SOL    HW125412   1.675   0.909   6.687
 8171SOL    HW225413   1.753   1.040   6.630
 8172SOL     OW25414   0.047   2.314   2.096
 8172SOL    HW125415   0.050   2.373   2.015
 8172SOL    HW225416   0.118   2.342   2.161
 8173SOL     OW25417   5.624   2.437   2.895
 8173SOL    HW125418   5.612   2.495   2.814
 8173SOL    HW225419   5.590   2.345   2.876
 8174SOL     OW25420   1.205   6.458   2.461
 8174SOL    HW125421   1.169   6.387   2.521
 8174SOL    HW225422   1.129   6.508   2.419
 8175SOL     OW25423   0.479   2.817   4.169
 8175SOL    HW125424   0.507   2.777   4.256
 8175SOL    HW225425   0.517   2.763   4.093
 8176SOL     OW25426   1.860   4.583   1.438
 8176SOL    HW125427   1.883   4.485   1.433
 8176SOL    HW225428   1.863   4.622   1.346
 8177SOL     OW25429   3.353   0.813   2.573
 8177SOL    HW125430   3.303   0.881   2.519
 8177SOL    HW225431   3.451   0.824   2.558
 8178SOL     OW25432   2.943   6.323   1.175
 8178SOL    HW125433   2.855   6.341   1.219
 8178SOL    HW225434   2.973   6.230   1.197
 8179SOL     OW25435   5.988   1.010   4.373
 8179SOL    HW125436   6.015   0.972   4.461
 8179SOL    HW225437   6.066   1.008   4.311
 8180SOL     OW25438   6.361   0.358   6.981
 8180SOL    HW125439   6.395   0.373   0.055
 8180SOL    HW225440   6.281   0.415   6.964
 8181SOL     OW25441   0.618   1.219   0.983
 8181SOL    HW125442   0.537   1.178   0.942
 8181SOL    HW225443   0.676   1.147   1.021
 8182SOL     OW25444   3.586   3.524   4.882
 8182SOL    HW125445   3.665   3.585   4.874
 8182SOL    HW225446   3.505   3.570   4.844
 8183SOL     OW25447   6.394   1.249   5.134
 8183SOL    HW125448   6.388   1.237   5.035
 8183SOL    HW225449   6.455   1.179   5.172
 8184SOL     OW25450   1.012   0.212   0.126
 8184SOL    HW125451   0.921   0.174   0.107
 8184SOL    HW225452   1.078   0.172   0.062
 8185SOL     OW25453   2.237   0.555   0.484
 8185SOL    HW125454   2.223   0.481   0.418
 8185SOL    HW225455   2.169   0.627   0.467
 8186SOL     OW25456   2.224   4.381   5.497
 8186SOL    HW125457   2.142   4.378   5.440
 8186SOL    HW225458   2.278   4.298   5.483
 8187SOL     OW25459   2.628   1.794   4.927
 8187SOL    HW125460   2.690   1.869   4.908
 8187SOL    HW225461   2.544   1.805   4.873
 8188SOL     OW25462   4.345   1.838   3.900
 8188SOL    HW125463   4.345   1.929   3.859
 8188SOL    HW225464   4.278   1.780   3.852
 8189SOL     OW25465   5.767   5.338   2.554
 8189SOL    HW125466   5.766   5.313   2.457
 8189SOL    HW225467   5.795   5.259   2.608
 8190SOL     OW25468   5.133   4.130   3.580
 8190SOL    HW125469   5.034   4.126   3.570
 8190SOL    HW225470   5.167   4.045   3.620
 8191SOL     OW25471   4.478   5.364   2.459
 8191SOL    HW125472   4.468   5.426   2.537
 8191SOL    HW225473   4.414   5.287   2.470
 8192SOL     OW25474   1.945   5.343   1.722
 8192SOL    HW125475   1.899   5.338   1.810
 8192SOL    HW225476   2.017   5.274   1.717
 8193SOL     OW25477   6.468   5.492   4.467
 8193SOL    HW125478   6.452   5.586   4.495
 8193SOL    HW225479   6.403   5.466   4.396
 8194SOL     OW25480   4.490   0.735   0.985
 8194SOL    HW125481   4.538   0.649   1.003
 8194SOL    HW225482   4.406   0.716   0.934
 8195SOL     OW25483   6.103   0.379   4.115
 8195SOL    HW125484   6.015   0.427   4.113
 8195SOL    HW225485   6.120   0.345   4.208
 8196SOL     OW25486   5.292   0.431   6.938
 8196SOL    HW125487   5.315   0.338   6.911
 8196SOL    HW225488   5.376   0.480   6.961
 8197SOL     OW25489   4.512   1.921   1.417
 8197SOL    HW125490   4.445   1.983   1.460
 8197SOL    HW225491   4.603   1.943   1.451
 8198SOL     OW25492   2.845   0.022   2.489
 8198SOL    HW125493   2.870   0.056   2.398
 8198SOL    HW225494   2.889   6.951   2.504
 8199SOL     OW25495   4.913   3.433   5.954
 8199SOL    HW125496   4.824   3.443   5.910
 8199SOL    HW225497   4.984   3.474   5.895
 8200SOL     OW25498   6.089   4.201   2.298
 8200SOL    HW125499   5.991   4.222   2.301
 8200SOL    HW225500   6.109   4.147   2.216
 8201SOL     OW25501   6.938   1.105   5.114
 8201SOL    HW125502   7.012   1.038   5.110
 8201SOL    HW225503   6.969   1.185   5.164
 8202SOL     OW25504   6.915   5.890   2.871
 8202SOL    HW125505   7.011   5.863   2.880
 8202SOL    HW225506   6.909   5.990   2.866
 8203SOL     OW25507   1.680   2.263   6.992
 8203SOL    HW125508   1.607   2.313   0.020
 8203SOL    HW225509   1.675   2.282   6.894
 8204SOL     OW25510   3.945   3.807   0.538
 8204SOL    HW125511   3.945   3.764   0.448
 8204SOL    HW225512   4.039   3.813   0.572
 8205SOL     OW25513   6.841   3.024   0.190
 8205SOL    HW125514   6.908   2.982   0.251
 8205SOL    HW225515   6.849   3.124   0.195
 8206SOL     OW25516   4.934   1.279   0.301
 8206SOL    HW125517   4.981   1.367   0.310
 8206SOL    HW225518   4.836   1.294   0.299
 8207SOL     OW25519   3.513   3.839   4.369
 8207SOL    HW125520   3.587   3.811   4.430
 8207SOL    HW225521   3.486   3.761   4.312
 8208SOL     OW25522   1.105   0.920   0.739
 8208SOL    HW125523   1.185   0.869   0.709
 8208SOL    HW225524   1.024   0.861   0.735
 8209SOL     OW25525   6.970   0.753   4.687
 8209SOL    HW125526   6.899   0.822   4.697
 8209SOL    HW225527   6.928   0.666   4.660
 8210SOL     OW25528   1.885   2.502   0.401
 8210SOL    HW125529   1.895   2.404   0.419
 8210SOL    HW225530   1.910   2.520   0.306
 8211SOL     OW25531   3.594   3.888   1.179
 8211SOL    HW125532   3.578   3.833   1.097
 8211SOL    HW225533   3.614   3.827   1.256
 8212SOL     OW25534   1.445   2.718   2.961
 8212SOL    HW125535   1.459   2.619   2.956
 8212SOL    HW225536   1.484   2.762   2.880
 8213SOL     OW25537   6.860   5.108   1.314
 8213SOL    HW125538   6.772   5.142   1.349
 8213SOL    HW225539   6.916   5.076   1.391
 8214SOL     OW25540   6.145   4.474   3.780
 8214SOL    HW125541   6.067   4.491   3.840
 8214SOL    HW225542   6.119   4.409   3.709
 8215SOL     OW25543   3.236   6.003   5.256
 8215SOL    HW125544   3.235   6.047   5.345
 8215SOL    HW225545   3.143   5.996   5.221
 8216SOL     OW25546   5.728   5.788   4.345
 8216SOL    HW125547   5.680   5.743   4.420
 8216SOL    HW225548   5.776   5.720   4.290
 8217SOL     OW25549   2.178   4.518   0.153
 8217SOL    HW125550   2.085   4.553   0.143
 8217SOL    HW225551   2.240   4.572   0.096
 8218SOL     OW25552   0.233   1.199   6.964
 8218SOL    HW125553   0.176   1.126   6.927
 8218SOL    HW225554   0.248   1.184   0.043
 8219SOL     OW25555   5.080   1.527   0.406
 8219SOL    HW125556   5.119   1.463   0.472
 8219SOL    HW225557   5.150   1.594   0.381
 8220SOL     OW25558   3.408   3.323   3.299
 8220SOL    HW125559   3.377   3.248   3.358
 8220SOL    HW225560   3.360   3.317   3.211
 8221SOL     OW25561   4.774   6.304   4.595
 8221SOL    HW125562   4.861   6.346   4.619
 8221SOL    HW225563   4.778   6.269   4.501
 8222SOL     OW25564   5.231   1.602   2.289
 8222SOL    HW125565   5.184   1.542   2.224
 8222SOL    HW225566   5.184   1.690   2.292
 8223SOL     OW25567   1.815   3.693   5.970
 8223SOL    HW125568   1.878   3.685   5.893
 8223SOL    HW225569   1.818   3.609   6.025
 8224SOL     OW25570   0.265   2.522   2.649
 8224SOL    HW125571   0.247   2.596   2.714
 8224SOL    HW225572   0.360   2.530   2.616
 8225SOL     OW25573   3.525   0.775   6.868
 8225SOL    HW125574   3.467   0.728   6.934
 8225SOL    HW225575   3.559   0.860   6.908
 8226SOL     OW25576   4.336   0.060   2.454
 8226SOL    HW125577   4.420   0.027   2.412
 8226SOL    HW225578   4.356   0.144   2.505
 8227SOL     OW25579   0.084   2.797   3.483
 8227SOL    HW125580   0.150   2.728   3.455
 8227SOL    HW225581   0.108   2.886   3.443
 8228SOL     OW25582   0.207   2.687   5.492
 8228SOL    HW125583   0.128   2.749   5.492
 8228SOL    HW225584   0.182   2.602   5.538
 8229SOL     OW25585   3.723   4.177   0.432
 8229SOL    HW125586   3.750   4.264   0.472
 8229SOL    HW225587   3.661   4.193   0.355
 8230SOL     OW25588   4.382   6.969   5.208
 8230SOL    HW125589   4.324   6.888   5.204
 8230SOL    HW225590   4.343   0.016   5.274
 8231SOL     OW25591   3.902   5.256   0.801
 8231SOL    HW125592   3.872   5.331   0.859
 8231SOL    HW225593   3.980   5.285   0.745
 8232SOL     OW25594   4.903   1.530   0.788
 8232SOL    HW125595   4.977   1.596   0.787
 8232SOL    HW225596   4.865   1.524   0.881
 8233SOL     OW25597   0.716   6.086   6.223
 8233SOL    HW125598   0.798   6.133   6.258
 8233SOL    HW225599   0.740   5.993   6.197
 8234SOL     OW25600   3.037   3.793   0.044
 8234SOL    HW125601   3.077   3.702   0.055
 8234SOL    HW225602   2.984   3.816   0.126
 8235SOL     OW25603   1.574   3.373   0.348
 8235SOL    HW125604   1.497   3.404   0.292
 8235SOL    HW225605   1.655   3.427   0.324
 8236SOL     OW25606   0.004   4.190   0.092
 8236SOL    HW125607   0.041   4.098   0.080
 8236SOL    HW225608   0.065   4.243   0.151
 8237SOL     OW25609   5.117   6.056   4.371
 8237SOL    HW125610   5.121   6.139   4.316
 8237SOL    HW225611   5.021   6.029   4.383
 8238SOL     OW25612   1.628   5.092   0.469
 8238SOL    HW125613   1.651   5.081   0.372
 8238SOL    HW225614   1.674   5.174   0.505
 8239SOL     OW25615   6.544   1.043   5.276
 8239SOL    HW125616   6.518   1.056   5.372
 8239SOL    HW225617   6.584   0.952   5.264
 8240SOL     OW25618   3.401   3.913   2.833
 8240SOL    HW125619   3.456   3.987   2.871
 8240SOL    HW225620   3.340   3.877   2.903
 8241SOL     OW25621   3.977   6.628   0.046
 8241SOL    HW125622   3.932   6.628   6.975
 8241SOL    HW225623   3.956   6.713   0.094
 8242SOL     OW25624   1.253   4.312   5.834
 8242SOL    HW125625   1.198   4.309   5.917
 8242SOL    HW225626   1.250   4.404   5.795
 8243SOL     OW25627   1.070   2.871   0.345
 8243SOL    HW125628   1.090   2.773   0.337
 8243SOL    HW225629   1.129   2.922   0.283
 8244SOL     OW25630   1.136   0.068   3.921
 8244SOL    HW125631   1.225   0.077   3.876
 8244SOL    HW225632   1.136   0.122   4.005
 8245SOL     OW25633   3.767   1.621   3.016
 8245SOL    HW125634   3.855   1.642   3.058
 8245SOL    HW225635   3.734   1.701   2.966
 8246SOL     OW25636   6.916   3.145   5.503
 8246SOL    HW125637   6.957   3.135   5.412
 8246SOL    HW225638   6.988   3.170   5.569
 8247SOL     OW25639   1.124   0.173   2.463
 8247SOL    HW125640   1.080   0.219   2.540
 8247SOL    HW225641   1.201   0.118   2.496
 8248SOL     OW25642   5.480   5.206   3.786
 8248SOL    HW125643   5.563   5.162   3.819
 8248SOL    HW225644   5.418   5.224   3.863
 8249SOL     OW25645   2.323   3.110   5.599
 8249SOL    HW125646   2.285   3.022   5.629
 8249SOL    HW225647   2.301   3.124   5.503
 8250SOL     OW25648   3.349   4.078   2.309
 8250SOL    HW125649   3.381   4.064   2.403
 8250SOL    HW225650   3.426   4.103   2.251
 8251SOL     OW25651   5.812   2.873   4.292
 8251SOL    HW125652   5.750   2.820   4.350
 8251SOL    HW225653   5.789   2.858   4.196
 8252SOL     OW25654   3.210   2.881   6.128
 8252SOL    HW125655   3.153   2.832   6.063
 8252SOL    HW225656   3.273   2.940   6.079
 8253SOL     OW25657   4.059   4.161   5.213
 8253SOL    HW125658   4.113   4.229   5.164
 8253SOL    HW225659   3.979   4.135   5.158
 8254SOL     OW25660   4.495   4.721   4.714
 8254SOL    HW125661   4.558   4.799   4.715
 8254SOL    HW225662   4.462   4.705   4.621
 8255SOL     OW25663   3.112   6.189   4.996
 8255SOL    HW125664   3.118   6.208   5.094
 8255SOL    HW225665   3.154   6.265   4.946
 8256SOL     OW25666   6.258   1.002   1.916
 8256SOL    HW125667   6.246   1.088   1.966
 8256SOL    HW225668   6.179   0.942   1.933
 8257SOL     OW25669   6.589   4.125   3.652
 8257SOL    HW125670   6.523   4.114   3.578
 8257SOL    HW225671   6.679   4.145   3.614
 8258SOL     OW25672   5.263   1.031   0.517
 8258SOL    HW125673   5.251   0.959   0.585
 8258SOL    HW225674   5.202   1.015   0.439
 8259SOL     OW25675   4.407   1.973   3.199
 8259SOL    HW125676   4.503   1.945   3.200
 8259SOL    HW225677   4.351   1.902   3.240
 8260SOL     OW25678   2.715   6.968   2.092
 8260SOL    HW125679   2.774   0.016   2.139
 8260SOL    HW225680   2.690   6.895   2.156
 8261SOL     OW25681   6.409   1.367   2.212
 8261SOL    HW125682   6.314   1.387   2.235
 8261SOL    HW225683   6.466   1.375   2.294
 8262SOL     OW25684   0.737   2.812   0.375
 8262SOL    HW125685   0.706   2.781   0.285
 8262SOL    HW225686   0.791   2.740   0.418
 8263SOL     OW25687   1.111   2.464   0.517
 8263SOL    HW125688   1.042   2.537   0.515
 8263SOL    HW225689   1.140   2.443   0.424
 8264SOL     OW25690   2.526   5.960   2.393
 8264SOL    HW125691   2.522   5.901   2.474
 8264SOL    HW225692   2.438   5.956   2.345
 8265SOL     OW25693   0.710   6.880   1.172
 8265SOL    HW125694   0.673   6.827   1.249
 8265SOL    HW225695   0.638   6.895   1.104
 8266SOL     OW25696   2.219   1.313   3.878
 8266SOL    HW125697   2.187   1.269   3.962
 8266SOL    HW225698   2.265   1.399   3.901
 8267SOL     OW25699   1.824   2.874   0.879
 8267SOL    HW125700   1.857   2.968   0.884
 8267SOL    HW225701   1.902   2.811   0.888
 8268SOL     OW25702   2.514   6.503   5.653
 8268SOL    HW125703   2.475   6.465   5.569
 8268SOL    HW225704   2.453   6.484   5.729
 8269SOL     OW25705   5.269   1.557   1.707
 8269SOL    HW125706   5.298   1.499   1.630
 8269SOL    HW225707   5.175   1.533   1.732
 8270SOL     OW25708   2.840   6.793   5.149
 8270SOL    HW125709   2.926   6.842   5.161
 8270SOL    HW225710   2.857   6.694   5.151
 8271SOL     OW25711   0.013   0.936   2.705
 8271SOL    HW125712   0.041   0.881   2.626
 8271SOL    HW225713   6.951   0.989   2.681
 8272SOL     OW25714   4.806   1.968   1.446
 8272SOL    HW125715   4.855   1.971   1.534
 8272SOL    HW225716   4.784   1.873   1.424
 8273SOL     OW25717   2.029   6.283   0.796
 8273SOL    HW125718   1.978   6.323   0.721
 8273SOL    HW225719   2.126   6.279   0.773
 8274SOL     OW25720   4.754   4.633   3.040
 8274SOL    HW125721   4.679   4.675   2.989
 8274SOL    HW225722   4.801   4.567   2.982
 8275SOL     OW25723   4.855   1.601   5.888
 8275SOL    HW125724   4.928   1.658   5.850
 8275SOL    HW225725   4.858   1.606   5.988
 8276SOL     OW25726   1.263   2.616   3.553
 8276SOL    HW125727   1.181   2.628   3.609
 8276SOL    HW225728   1.275   2.696   3.494
 8277SOL     OW25729   6.496   0.617   0.502
 8277SOL    HW125730   6.565   0.679   0.464
 8277SOL    HW225731   6.530   0.579   0.588
 8278SOL     OW25732   3.046   1.858   5.392
 8278SOL    HW125733   2.951   1.880   5.373
 8278SOL    HW225734   3.070   1.772   5.348
 8279SOL     OW25735   1.628   0.513   4.030
 8279SOL    HW125736   1.705   0.576   4.045
 8279SOL    HW225737   1.580   0.540   3.946
 8280SOL     OW25738   2.221   2.467   0.391
 8280SOL    HW125739   2.198   2.519   0.473
 8280SOL    HW225740   2.172   2.503   0.313
 8281SOL     OW25741   2.273   4.954   1.575
 8281SOL    HW125742   2.331   4.892   1.629
 8281SOL    HW225743   2.179   4.950   1.608
 8282SOL     OW25744   5.136   3.739   0.396
 8282SOL    HW125745   5.046   3.742   0.352
 8282SOL    HW225746   5.207   3.756   0.327
 8283SOL     OW25747   2.169   5.354   0.311
 8283SOL    HW125748   2.174   5.396   0.221
 8283SOL    HW225749   2.229   5.404   0.374
 8284SOL     OW25750   0.992   3.434   0.629
 8284SOL    HW125751   0.905   3.464   0.669
 8284SOL    HW225752   1.004   3.336   0.644
 8285SOL     OW25753   3.119   3.086   5.031
 8285SOL    HW125754   3.154   3.003   4.986
 8285SOL    HW225755   3.195   3.135   5.074
 8286SOL     OW25756   5.498   3.320   6.709
 8286SOL    HW125757   5.460   3.370   6.632
 8286SOL    HW225758   5.436   3.246   6.735
 8287SOL     OW25759   1.979   5.563   4.240
 8287SOL    HW125760   1.888   5.597   4.219
 8287SOL    HW225761   2.030   5.548   4.156
 8288SOL     OW25762   2.816   1.391   1.315
 8288SOL    HW125763   2.869   1.396   1.400
 8288SOL    HW225764   2.874   1.420   1.238
 8289SOL     OW25765   0.659   5.704   1.360
 8289SOL    HW125766   0.732   5.762   1.324
 8289SOL    HW225767   0.665   5.700   1.460
 8290SOL     OW25768   5.865   0.661   1.206
 8290SOL    HW125769   5.897   0.566   1.205
 8290SOL    HW225770   5.943   0.721   1.222
 8291SOL     OW25771   5.579   6.297   6.139
 8291SOL    HW125772   5.589   6.271   6.043
 8291SOL    HW225773   5.483   6.285   6.166
 8292SOL     OW25774   2.577   6.254   0.095
 8292SOL    HW125775   2.657   6.293   0.049
 8292SOL    HW225776   2.496   6.308   0.072
 8293SOL     OW25777   3.231   6.603   6.815
 8293SOL    HW125778   3.274   6.599   6.905
 8293SOL    HW225779   3.293   6.565   6.747
 8294SOL     OW25780   5.885   4.363   5.218
 8294SOL    HW125781   5.796   4.390   5.255
 8294SOL    HW225782   5.875   4.279   5.164
 8295SOL     OW25783   4.857   5.687   1.364
 8295SOL    HW125784   4.940   5.662   1.414
 8295SOL    HW225785   4.825   5.609   1.311
 8296SOL     OW25786   2.348   6.503   6.529
 8296SOL    HW125787   2.347   6.575   6.459
 8296SOL    HW225788   2.254   6.472   6.546
 8297SOL     OW25789   6.170   2.844   2.212
 8297SOL    HW125790   6.121   2.794   2.284
 8297SOL    HW225791   6.187   2.782   2.135
 8298SOL     OW25792   5.747   2.403   1.111
 8298SOL    HW125793   5.766   2.334   1.180
 8298SOL    HW225794   5.812   2.479   1.120
 8299SOL     OW25795   6.867   2.735   1.805
 8299SOL    HW125796   6.852   2.677   1.884
 8299SOL    HW225797   6.893   2.827   1.835
 8300SOL     OW25798   0.541   6.025   5.214
 8300SOL    HW125799   0.474   6.090   5.249
 8300SOL    HW225800   0.524   6.006   5.118
 8301SOL     OW25801   4.187   1.861   1.802
 8301SOL    HW125802   4.110   1.853   1.865
 8301SOL    HW225803   4.153   1.863   1.708
 8302SOL     OW25804   6.165   6.226   6.484
 8302SOL    HW125805   6.157   6.319   6.520
 8302SOL    HW225806   6.224   6.227   6.404
 8303SOL     OW25807   6.440   0.669   4.118
 8303SOL    HW125808   6.360   0.648   4.062
 8303SOL    HW225809   6.439   0.766   4.142
 8304SOL     OW25810   1.019   3.837   0.886
 8304SOL    HW125811   1.038   3.914   0.947
 8304SOL    HW225812   0.958   3.772   0.932
 8305SOL     OW25813   4.217   4.899   4.433
 8305SOL    HW125814   4.251   4.939   4.348
 8305SOL    HW225815   4.149   4.960   4.474
 8306SOL     OW25816   6.624   2.813   5.415
 8306SOL    HW125817   6.558   2.878   5.453
 8306SOL    HW225818   6.671   2.767   5.490
 8307SOL     OW25819   4.019   5.262   1.720
 8307SOL    HW125820   3.970   5.224   1.799
 8307SOL    HW225821   3.987   5.218   1.637
 8308SOL     OW25822   3.834   5.455   0.973
 8308SOL    HW125823   3.779   5.410   1.043
 8308SOL    HW225824   3.801   5.549   0.961
 8309SOL     OW25825   6.004   5.719   3.445
 8309SOL    HW125826   6.098   5.689   3.460
 8309SOL    HW225827   5.954   5.715   3.531
 8310SOL     OW25828   1.054   4.565   0.664
 8310SOL    HW125829   1.107   4.480   0.664
 8310SOL    HW225830   0.958   4.545   0.648
 8311SOL     OW25831   0.549   1.105   4.752
 8311SOL    HW125832   0.453   1.129   4.742
 8311SOL    HW225833   0.605   1.176   4.709
 8312SOL     OW25834   4.190   6.709   0.802
 8312SOL    HW125835   4.240   6.790   0.772
 8312SOL    HW225836   4.144   6.668   0.724
 8313SOL     OW25837   5.012   0.937   2.445
 8313SOL    HW125838   4.951   0.909   2.371
 8313SOL    HW225839   4.970   1.014   2.494
 8314SOL     OW25840   4.518   0.120   0.867
 8314SOL    HW125841   4.561   0.060   0.799
 8314SOL    HW225842   4.440   0.073   0.909
 8315SOL     OW25843   3.827   3.316   0.717
 8315SOL    HW125844   3.884   3.279   0.790
 8315SOL    HW225845   3.737   3.339   0.754
 8316SOL     OW25846   0.803   2.277   1.537
 8316SOL    HW125847   0.834   2.370   1.516
 8316SOL    HW225848   0.877   2.227   1.583
 8317SOL     OW25849   2.123   2.521   2.813
 8317SOL    HW125850   2.029   2.500   2.839
 8317SOL    HW225851   2.174   2.435   2.801
 8318SOL     OW25852   4.464   0.981   5.157
 8318SOL    HW125853   4.492   0.999   5.063
 8318SOL    HW225854   4.497   1.054   5.216
 8319SOL     OW25855   2.792   1.209   6.435
 8319SOL    HW125856   2.709   1.168   6.473
 8319SOL    HW225857   2.811   1.168   6.345
 8320SOL     OW25858   3.340   3.801   1.602
 8320SOL    HW125859   3.434   3.823   1.578
 8320SOL    HW225860   3.328   3.808   1.701
 8321SOL     OW25861   6.969   0.992   0.398
 8321SOL    HW125862   0.013   0.936   0.451
 8321SOL    HW225863   6.904   1.038   0.459
 8322SOL     OW25864   0.201   0.541   0.815
 8322SOL    HW125865   0.119   0.566   0.764
 8322SOL    HW225866   0.273   0.607   0.798
 8323SOL     OW25867   5.725   5.590   2.625
 8323SOL    HW125868   5.669   5.628   2.552
 8323SOL    HW225869   5.745   5.494   2.605
 8324SOL     OW25870   5.668   1.093   1.598
 8324SOL    HW125871   5.636   1.096   1.693
 8324SOL    HW225872   5.615   1.158   1.543
 8325SOL     OW25873   3.090   3.363   5.214
 8325SOL    HW125874   3.142   3.355   5.130
 8325SOL    HW225875   3.013   3.427   5.201
 8326SOL     OW25876   4.777   3.341   5.284
 8326SOL    HW125877   4.738   3.413   5.227
 8326SOL    HW225878   4.760   3.363   5.381
 8327SOL     OW25879   6.227   2.073   6.195
 8327SOL    HW125880   6.311   2.037   6.234
 8327SOL    HW225881   6.247   2.122   6.110
 8328SOL     OW25882   2.415   4.555   5.584
 8328SOL    HW125883   2.501   4.557   5.534
 8328SOL    HW225884   2.343   4.516   5.525
 8329SOL     OW25885   0.303   3.670   6.141
 8329SOL    HW125886   0.324   3.724   6.223
 8329SOL    HW225887   0.242   3.723   6.082
 8330SOL     OW25888   3.086   6.811   0.391
 8330SOL    HW125889   3.184   6.829   0.403
 8330SOL    HW225890   3.037   6.898   0.380
 8331SOL     OW25891   2.643   1.480   0.971
 8331SOL    HW125892   2.617   1.388   0.941
 8331SOL    HW225893   2.613   1.493   1.066
 8332SOL     OW25894   4.856   4.667   2.682
 8332SOL    HW125895   4.897   4.748   2.725
 8332SOL    HW225896   4.786   4.696   2.617
 8333SOL     OW25897   0.612   6.400   6.556
 8333SOL    HW125898   0.591   6.492   6.523
 8333SOL    HW225899   0.527   6.352   6.577
 8334SOL     OW25900   4.250   1.306   3.649
 8334SOL    HW125901   4.182   1.378   3.640
 8334SOL    HW225902   4.223   1.243   3.722
 8335SOL     OW25903   6.536   5.371   6.354
 8335SOL    HW125904   6.606   5.322   6.406
 8335SOL    HW225905   6.569   5.389   6.262
 8336SOL     OW25906   6.433   6.944   2.962
 8336SOL    HW125907   6.484   0.012   2.960
 8336SOL    HW225908   6.363   6.948   3.033
 8337SOL     OW25909   0.708   6.275   3.205
 8337SOL    HW125910   0.729   6.369   3.180
 8337SOL    HW225911   0.792   6.220   3.199
 8338SOL     OW25912   2.135   5.153   1.815
 8338SOL    HW125913   2.232   5.130   1.809
 8338SOL    HW225914   2.081   5.078   1.775
 8339SOL     OW25915   5.918   0.180   2.023
 8339SOL    HW125916   5.863   0.110   1.979
 8339SOL    HW225917   5.985   0.216   1.958
 8340SOL     OW25918   5.257   3.693   1.417
 8340SOL    HW125919   5.336   3.704   1.357
 8340SOL    HW225920   5.173   3.694   1.362
 8341SOL     OW25921   2.236   6.950   6.599
 8341SOL    HW125922   2.183   6.882   6.549
 8341SOL    HW225923   2.227   6.934   6.697
 8342SOL     OW25924   3.777   0.264   1.570
 8342SOL    HW125925   3.781   0.179   1.623
 8342SOL    HW225926   3.683   0.277   1.537
 8343SOL     OW25927   1.152   4.921   5.994
 8343SOL    HW125928   1.145   4.985   5.918
 8343SOL    HW225929   1.240   4.874   5.990
 8344SOL     OW25930   4.338   0.499   5.154
 8344SOL    HW125931   4.303   0.524   5.064
 8344SOL    HW225932   4.381   0.579   5.196
 8345SOL     OW25933   5.015   1.658   3.711
 8345SOL    HW125934   5.085   1.694   3.772
 8345SOL    HW225935   4.943   1.726   3.699
 8346SOL     OW25936   2.230   4.444   0.400
 8346SOL    HW125937   2.295   4.517   0.423
 8346SOL    HW225938   2.202   4.454   0.304
 8347SOL     OW25939   3.839   5.345   4.765
 8347SOL    HW125940   3.772   5.275   4.740
 8347SOL    HW225941   3.816   5.432   4.721
 8348SOL     OW25942   1.255   6.872   2.185
 8348SOL    HW125943   1.232   6.970   2.185
 8348SOL    HW225944   1.280   6.844   2.093
 8349SOL     OW25945   6.341   6.090   1.616
 8349SOL    HW125946   6.384   6.009   1.654
 8349SOL    HW225947   6.264   6.063   1.558
 8350SOL     OW25948   4.765   0.925   4.936
 8350SOL    HW125949   4.739   0.833   4.965
 8350SOL    HW225950   4.824   0.919   4.856
 8351SOL     OW25951   4.779   5.154   4.222
 8351SOL    HW125952   4.681   5.170   4.212
 8351SOL    HW225953   4.815   5.211   4.296
 8352SOL     OW25954   6.832   6.147   2.901
 8352SOL    HW125955   6.746   6.199   2.904
 8352SOL    HW225956   6.873   6.146   2.992
 8353SOL     OW25957   6.342   3.562   1.411
 8353SOL    HW125958   6.417   3.534   1.351
 8353SOL    HW225959   6.341   3.505   1.493
 8354SOL     OW25960   3.778   0.341   6.732
 8354SOL    HW125961   3.844   0.414   6.752
 8354SOL    HW225962   3.787   0.269   6.801
 8355SOL     OW25963   2.973   0.183   0.182
 8355SOL    HW125964   2.966   0.089   0.148
 8355SOL    HW225965   3.053   0.227   0.142
 8356SOL     OW25966   1.759   6.525   1.178
 8356SOL    HW125967   1.738   6.435   1.217
 8356SOL    HW225968   1.700   6.594   1.218
 8357SOL     OW25969   4.061   0.308   5.910
 8357SOL    HW125970   4.009   0.261   5.981
 8357SOL    HW225971   4.086   0.242   5.838
 8358SOL     OW25972   0.843   3.471   5.578
 8358SOL    HW125973   0.841   3.460   5.479
 8358SOL    HW225974   0.764   3.426   5.618
 8359SOL     OW25975   3.125   6.237   4.576
 8359SOL    HW125976   3.158   6.170   4.509
 8359SOL    HW225977   3.030   6.217   4.599
 8360SOL     OW25978   3.585   5.965   0.901
 8360SOL    HW125979   3.579   5.957   0.802
 8360SOL    HW225980   3.674   6.002   0.927
 8361SOL     OW25981   2.340   0.325   2.736
 8361SOL    HW125982   2.419   0.322   2.675
 8361SOL    HW225983   2.280   0.401   2.711
 8362SOL     OW25984   2.992   1.745   0.606
 8362SOL    HW125985   2.920   1.806   0.570
 8362SOL    HW225986   2.951   1.658   0.631
 8363SOL     OW25987   0.599   2.660   0.134
 8363SOL    HW125988   0.526   2.607   0.177
 8363SOL    HW225989   0.664   2.598   0.091
 8364SOL     OW25990   6.202   3.063   2.608
 8364SOL    HW125991   6.126   3.110   2.654
 8364SOL    HW225992   6.278   3.051   2.673
 8365SOL     OW25993   1.831   4.303   2.017
 8365SOL    HW125994   1.865   4.393   1.990
 8365SOL    HW225995   1.903   4.254   2.066
 8366SOL     OW25996   3.063   5.477   2.275
 8366SOL    HW125997   3.075   5.378   2.274
 8366SOL    HW225998   3.140   5.520   2.227
 8367SOL     OW25999   4.019   6.076   3.812
 8367SOL    HW126000   4.026   5.979   3.837
 8367SOL    HW226001   4.078   6.095   3.733
 8368SOL     OW26002   2.100   6.829   5.756
 8368SOL    HW126003   2.128   6.922   5.780
 8368SOL    HW226004   2.118   6.812   5.659
 8369SOL     OW26005   1.913   6.769   6.830
 8369SOL    HW126006   1.871   6.754   6.741
 8369SOL    HW226007   2.004   6.727   6.832
 8370SOL     OW26008   2.557   2.109   5.609
 8370SOL    HW126009   2.587   2.088   5.516
 8370SOL    HW226010   2.626   2.078   5.674
 8371SOL     OW26011   1.970   4.320   1.476
 8371SOL    HW126012   1.956   4.282   1.568
 8371SOL    HW226013   1.967   4.246   1.409
 8372SOL     OW26014   0.515   5.763   2.163
 8372SOL    HW126015   0.587   5.815   2.209
 8372SOL    HW226016   0.511   5.671   2.200
 8373SOL     OW26017   1.253   0.734   3.818
 8373SOL    HW126018   1.341   0.780   3.828
 8373SOL    HW226019   1.268   0.644   3.776
 8374SOL     OW26020   6.767   0.807   6.199
 8374SOL    HW126021   6.818   0.810   6.113
 8374SOL    HW226022   6.669   0.801   6.180
 8375SOL     OW26023   3.165   0.126   6.220
 8375SOL    HW126024   3.188   0.223   6.226
 8375SOL    HW226025   3.144   0.091   6.311
 8376SOL     OW26026   1.980   0.654   4.490
 8376SOL    HW126027   2.001   0.747   4.459
 8376SOL    HW226028   2.065   0.601   4.497
 8377SOL     OW26029   5.724   5.723   1.473
 8377SOL    HW126030   5.786   5.735   1.550
 8377SOL    HW226031   5.775   5.690   1.394
 8378SOL     OW26032   4.734   4.766   3.271
 8378SOL    HW126033   4.639   4.790   3.249
 8378SOL    HW226034   4.775   4.721   3.193
 8379SOL     OW26035   6.334   2.265   1.070
 8379SOL    HW126036   6.412   2.204   1.082
 8379SOL    HW226037   6.348   2.348   1.124
 8380SOL     OW26038   6.726   1.535   2.500
 8380SOL    HW126039   6.745   1.481   2.418
 8380SOL    HW226040   6.691   1.475   2.572
 8381SOL     OW26041   0.376   4.163   4.753
 8381SOL    HW126042   0.288   4.203   4.729
 8381SOL    HW226043   0.447   4.196   4.691
 8382SOL     OW26044   1.345   0.591   1.759
 8382SOL    HW126045   1.289   0.613   1.679
 8382SOL    HW226046   1.406   0.515   1.736
 8383SOL     OW26047   2.611   0.349   5.909
 8383SOL    HW126048   2.524   0.331   5.865
 8383SOL    HW226049   2.611   0.309   6.001
 8384SOL     OW26050   0.367   6.912   0.523
 8384SOL    HW126051   0.427   6.956   0.456
 8384SOL    HW226052   0.400   6.930   0.615
 8385SOL     OW26053   5.976   2.327   1.608
 8385SOL    HW126054   5.974   2.426   1.619
 8385SOL    HW226055   6.007   2.303   1.516
 8386SOL     OW26056   0.716   4.140   2.426
 8386SOL    HW126057   0.661   4.119   2.507
 8386SOL    HW226058   0.785   4.068   2.414
 8387SOL     OW26059   0.869   1.310   1.937
 8387SOL    HW126060   0.966   1.310   1.962
 8387SOL    HW226061   0.837   1.216   1.926
 8388SOL     OW26062   1.781   6.562   0.452
 8388SOL    HW126063   1.686   6.587   0.434
 8388SOL    HW226064   1.804   6.584   0.546
 8389SOL     OW26065   6.345   3.813   2.949
 8389SOL    HW126066   6.418   3.864   2.904
 8389SOL    HW226067   6.263   3.815   2.893
 8390SOL     OW26068   4.011   1.345   6.348
 8390SOL    HW126069   4.089   1.363   6.407
 8390SOL    HW226070   3.926   1.348   6.402
 8391SOL     OW26071   6.303   5.384   6.888
 8391SOL    HW126072   6.274   5.292   6.915
 8391SOL    HW226073   6.231   5.450   6.911
 8392SOL     OW26074   6.765   3.864   3.669
 8392SOL    HW126075   6.710   3.849   3.587
 8392SOL    HW226076   6.858   3.832   3.653
 8393SOL     OW26077   6.097   1.169   2.578
 8393SOL    HW126078   6.022   1.171   2.644
 8393SOL    HW226079   6.083   1.239   2.509
 8394SOL     OW26080   5.943   3.052   1.491
 8394SOL    HW126081   5.953   3.085   1.585
 8394SOL    HW226082   5.852   3.078   1.457
 8395SOL     OW26083   2.967   6.751   5.473
 8395SOL    HW126084   2.896   6.783   5.410
 8395SOL    HW226085   2.947   6.784   5.565
 8396SOL     OW26086   5.102   4.745   3.447
 8396SOL    HW126087   5.171   4.807   3.410
 8396SOL    HW226088   5.011   4.782   3.430
 8397SOL     OW26089   0.890   1.020   3.118
 8397SOL    HW126090   0.966   0.992   3.177
 8397SOL    HW226091   0.809   1.038   3.173
 8398SOL     OW26092   4.724   2.771   5.960
 8398SOL    HW126093   4.648   2.747   5.900
 8398SOL    HW226094   4.768   2.854   5.926
 8399SOL     OW26095   6.181   6.421   6.689
 8399SOL    HW126096   6.276   6.451   6.699
 8399SOL    HW226097   6.149   6.384   6.776
 8400SOL     OW26098   1.997   2.430   3.918
 8400SOL    HW126099   1.926   2.500   3.927
 8400SOL    HW226100   1.960   2.351   3.869
 8401SOL     OW26101   1.757   1.509   5.318
 8401SOL    HW126102   1.837   1.449   5.312
 8401SOL    HW226103   1.707   1.490   5.402
 8402SOL     OW26104   5.572   1.460   6.336
 8402SOL    HW126105   5.562   1.559   6.345
 8402SOL    HW226106   5.538   1.416   6.418
 8403SOL     OW26107   0.389   3.434   4.217
 8403SOL    HW126108   0.443   3.351   4.230
 8403SOL    HW226109   0.301   3.410   4.176
 8404SOL     OW26110   3.788   0.045   5.849
 8404SOL    HW126111   3.783   0.140   5.881
 8404SOL    HW226112   3.730   7.006   5.905
 8405SOL     OW26113   3.137   1.547   5.809
 8405SOL    HW126114   3.091   1.523   5.895
 8405SOL    HW226115   3.141   1.646   5.800
 8406SOL     OW26116   4.323   0.354   0.276
 8406SOL    HW126117   4.369   0.292   0.339
 8406SOL    HW226118   4.268   0.301   0.211
 8407SOL     OW26119   3.989   6.400   3.445
 8407SOL    HW126120   3.916   6.453   3.401
 8407SOL    HW226121   4.001   6.313   3.397
 8408SOL     OW26122   5.415   4.856   1.021
 8408SOL    HW126123   5.361   4.778   0.988
 8408SOL    HW226124   5.506   4.854   0.978
 8409SOL     OW26125   4.845   2.349   2.065
 8409SOL    HW126126   4.871   2.282   1.996
 8409SOL    HW226127   4.868   2.314   2.156
 8410SOL     OW26128   6.365   1.597   1.690
 8410SOL    HW126129   6.417   1.650   1.624
 8410SOL    HW226130   6.415   1.595   1.777
 8411SOL     OW26131   0.245   5.786   1.166
 8411SOL    HW126132   0.339   5.754   1.171
 8411SOL    HW226133   0.191   5.722   1.111
 8412SOL     OW26134   3.499   2.273   1.098
 8412SOL    HW126135   3.410   2.266   1.143
 8412SOL    HW226136   3.488   2.316   1.009
 8413SOL     OW26137   4.682   6.011   6.128
 8413SOL    HW126138   4.712   6.100   6.160
 8413SOL    HW226139   4.758   5.946   6.136
 8414SOL     OW26140   2.308   0.719   3.617
 8414SOL    HW126141   2.238   0.649   3.625
 8414SOL    HW226142   2.377   0.690   3.551
 8415SOL     OW26143   1.453   6.673   4.408
 8415SOL    HW126144   1.531   6.705   4.462
 8415SOL    HW226145   1.384   6.745   4.403
 8416SOL     OW26146   6.517   1.583   4.582
 8416SOL    HW126147   6.557   1.659   4.632
 8416SOL    HW226148   6.418   1.597   4.573
 8417SOL     OW26149   0.859   2.927   5.485
 8417SOL    HW126150   0.910   2.961   5.406
 8417SOL    HW226151   0.864   2.994   5.559
 8418SOL     OW26152   0.106   5.514   1.871
 8418SOL    HW126153   0.033   5.560   1.821
 8418SOL    HW226154   0.122   5.561   1.958
 8419SOL     OW26155   5.457   0.974   2.300
 8419SOL    HW126156   5.481   0.893   2.353
 8419SOL    HW226157   5.526   0.989   2.229
 8420SOL     OW26158   3.642   6.787   1.739
 8420SOL    HW126159   3.733   6.809   1.704
 8420SOL    HW226160   3.573   6.816   1.673
 8421SOL     OW26161   3.713   4.308   0.077
 8421SOL    HW126162   3.668   4.320   0.165
 8421SOL    HW226163   3.653   4.254   0.017
 8422SOL     OW26164   4.135   1.418   2.220
 8422SOL    HW126165   4.092   1.334   2.187
 8422SOL    HW226166   4.217   1.394   2.272
 8423SOL     OW26167   4.485   4.432   5.771
 8423SOL    HW126168   4.413   4.497   5.795
 8423SOL    HW226169   4.444   4.344   5.748
 8424SOL     OW26170   1.833   2.623   3.184
 8424SOL    HW126171   1.839   2.715   3.222
 8424SOL    HW226172   1.737   2.598   3.171
 8425SOL     OW26173   4.128   3.523   4.819
 8425SOL    HW126174   4.050   3.585   4.824
 8425SOL    HW226175   4.169   3.513   4.910
 8426SOL     OW26176   3.486   3.236   2.827
 8426SOL    HW126177   3.463   3.145   2.792
 8426SOL    HW226178   3.441   3.251   2.914
 8427SOL     OW26179   3.183   4.009   3.795
 8427SOL    HW126180   3.258   4.075   3.791
 8427SOL    HW226181   3.143   3.999   3.704
 8428SOL     OW26182   0.406   6.697   1.711
 8428SOL    HW126183   0.383   6.794   1.708
 8428SOL    HW226184   0.401   6.665   1.806
 8429SOL     OW26185   1.585   5.516   5.577
 8429SOL    HW126186   1.520   5.485   5.507
 8429SOL    HW226187   1.660   5.451   5.584
 8430SOL     OW26188   3.859   4.905   3.993
 8430SOL    HW126189   3.853   5.003   3.971
 8430SOL    HW226190   3.852   4.892   4.092
 8431SOL     OW26191   4.000   3.424   0.255
 8431SOL    HW126192   4.009   3.361   0.178
 8431SOL    HW226193   4.032   3.379   0.338
 8432SOL     OW26194   6.438   5.009   5.729
 8432SOL    HW126195   6.449   4.946   5.806
 8432SOL    HW226196   6.353   5.061   5.740
 8433SOL     OW26197   4.412   2.824   0.842
 8433SOL    HW126198   4.392   2.804   0.938
 8433SOL    HW226199   4.328   2.821   0.789
 8434SOL     OW26200   2.377   6.825   4.655
 8434SOL    HW126201   2.341   6.897   4.714
 8434SOL    HW226202   2.340   6.835   4.563
 8435SOL     OW26203   5.559   0.062   2.822
 8435SOL    HW126204   5.637   0.083   2.763
 8435SOL    HW226205   5.497   0.140   2.827
 8436SOL     OW26206   3.447   6.485   4.004
 8436SOL    HW126207   3.467   6.565   4.061
 8436SOL    HW226208   3.348   6.471   4.001
 8437SOL     OW26209   2.482   2.442   2.461
 8437SOL    HW126210   2.488   2.508   2.386
 8437SOL    HW226211   2.451   2.354   2.425
 8438SOL     OW26212   2.661   4.601   3.091
 8438SOL    HW126213   2.629   4.557   3.175
 8438SOL    HW226214   2.583   4.639   3.042
 8439SOL     OW26215   6.184   4.564   2.517
 8439SOL    HW126216   6.125   4.531   2.590
 8439SOL    HW226217   6.280   4.549   2.542
 8440SOL     OW26218   2.700   2.327   3.129
 8440SOL    HW126219   2.664   2.420   3.136
 8440SOL    HW226220   2.771   2.324   3.059
 8441SOL     OW26221   5.996   6.126   5.978
 8441SOL    HW126222   5.947   6.140   6.064
 8441SOL    HW226223   6.095   6.124   5.996
 8442SOL     OW26224   3.895   1.738   4.701
 8442SOL    HW126225   3.909   1.651   4.655
 8442SOL    HW226226   3.846   1.801   4.641
 8443SOL     OW26227   2.106   4.937   3.619
 8443SOL    HW126228   2.178   4.901   3.678
 8443SOL    HW226229   2.018   4.897   3.645
 8444SOL     OW26230   3.190   6.706   3.752
 8444SOL    HW126231   3.211   6.779   3.817
 8444SOL    HW226232   3.270   6.687   3.696
 8445SOL     OW26233   2.952   0.280   1.207
 8445SOL    HW126234   2.877   0.251   1.147
 8445SOL    HW226235   3.025   0.320   1.151
 8446SOL     OW26236   6.361   4.860   5.291
 8446SOL    HW126237   6.375   4.810   5.205
 8446SOL    HW226238   6.442   4.916   5.310
 8447SOL     OW26239   3.876   1.276   1.249
 8447SOL    HW126240   3.828   1.280   1.161
 8447SOL    HW226241   3.869   1.183   1.286
 8448SOL     OW26242   4.577   6.362   3.463
 8448SOL    HW126243   4.553   6.299   3.388
 8448SOL    HW226244   4.563   6.316   3.550
 8449SOL     OW26245   0.027   3.223   3.282
 8449SOL    HW126246   6.982   3.148   3.263
 8449SOL    HW226247   7.009   3.279   3.356
 8450SOL     OW26248   0.729   0.894   1.450
 8450SOL    HW126249   0.759   0.916   1.357
 8450SOL    HW226250   0.774   0.954   1.515
 8451SOL     OW26251   3.193   0.954   0.074
 8451SOL    HW126252   3.118   1.009   0.111
 8451SOL    HW226253   3.245   1.008   0.008
 8452SOL     OW26254   5.819   2.814   4.611
 8452SOL    HW126255   5.838   2.832   4.708
 8452SOL    HW226256   5.721   2.800   4.598
 8453SOL     OW26257   0.107   5.588   0.506
 8453SOL    HW126258   0.083   5.494   0.532
 8453SOL    HW226259   0.023   5.642   0.498
 8454SOL     OW26260   0.541   5.156   0.328
 8454SOL    HW126261   0.481   5.111   0.394
 8454SOL    HW226262   0.486   5.196   0.254
 8455SOL     OW26263   0.117   2.098   3.067
 8455SOL    HW126264   0.035   2.091   3.009
 8455SOL    HW226265   0.091   2.084   3.162
 8456SOL     OW26266   4.289   0.279   3.451
 8456SOL    HW126267   4.370   0.226   3.474
 8456SOL    HW226268   4.300   0.374   3.481
 8457SOL     OW26269   6.562   5.957   4.729
 8457SOL    HW126270   6.508   6.041   4.725
 8457SOL    HW226271   6.651   5.978   4.770
 8458SOL     OW26272   2.007   0.122   0.354
 8458SOL    HW126273   2.104   0.098   0.359
 8458SOL    HW226274   1.971   0.096   0.264
 8459SOL     OW26275   2.168   5.735   3.146
 8459SOL    HW126276   2.156   5.682   3.062
 8459SOL    HW226277   2.265   5.756   3.159
 8460SOL     OW26278   4.482   3.877   5.282
 8460SOL    HW126279   4.481   3.779   5.302
 8460SOL    HW226280   4.577   3.907   5.269
 8461SOL     OW26281   0.591   2.732   4.823
 8461SOL    HW126282   0.672   2.784   4.851
 8461SOL    HW226283   0.524   2.794   4.782
 8462SOL     OW26284   3.505   1.518   6.528
 8462SOL    HW126285   3.520   1.615   6.549
 8462SOL    HW226286   3.460   1.473   6.605
 8463SOL     OW26287   6.761   6.911   1.923
 8463SOL    HW126288   6.846   6.917   1.976
 8463SOL    HW226289   6.684   6.937   1.981
 8464SOL     OW26290   5.673   4.718   3.769
 8464SOL    HW126291   5.682   4.759   3.860
 8464SOL    HW226292   5.584   4.674   3.762
 8465SOL     OW26293   1.596   2.469   0.662
 8465SOL    HW126294   1.623   2.565   0.669
 8465SOL    HW226295   1.504   2.463   0.624
 8466SOL     OW26296   1.112   6.808   3.769
 8466SOL    HW126297   1.023   6.775   3.737
 8466SOL    HW226298   1.103   6.902   3.802
 8467SOL     OW26299   2.588   6.099   0.747
 8467SOL    HW126300   2.619   6.119   0.655
 8467SOL    HW226301   2.616   6.006   0.772
 8468SOL     OW26302   3.302   1.341   0.869
 8468SOL    HW126303   3.320   1.439   0.880
 8468SOL    HW226304   3.244   1.309   0.944
 8469SOL     OW26305   3.105   2.677   6.684
 8469SOL    HW126306   3.097   2.579   6.701
 8469SOL    HW226307   3.055   2.728   6.754
 8470SOL     OW26308   2.533   3.746   1.152
 8470SOL    HW126309   2.488   3.792   1.229
 8470SOL    HW226310   2.527   3.647   1.165
 8471SOL     OW26311   3.052   0.795   3.056
 8471SOL    HW126312   3.108   0.713   3.061
 8471SOL    HW226313   2.971   0.783   3.114
 8472SOL     OW26314   0.061   6.887   4.010
 8472SOL    HW126315   0.123   6.965   4.022
 8472SOL    HW226316   7.003   6.915   3.953
 8473SOL     OW26317   0.292   5.361   6.555
 8473SOL    HW126318   0.213   5.309   6.588
 8473SOL    HW226319   0.348   5.390   6.632
 8474SOL     OW26320   3.009   3.086   1.829
 8474SOL    HW126321   2.939   3.155   1.810
 8474SOL    HW226322   3.055   3.107   1.915
 8475SOL     OW26323   6.748   1.455   2.918
 8475SOL    HW126324   6.710   1.400   2.843
 8475SOL    HW226325   6.698   1.436   3.002
 8476SOL     OW26326   6.057   0.858   1.965
 8476SOL    HW126327   6.032   0.774   1.916
 8476SOL    HW226328   5.989   0.877   2.035
 8477SOL     OW26329   3.103   6.542   1.276
 8477SOL    HW126330   3.044   6.614   1.311
 8477SOL    HW226331   3.047   6.465   1.246
 8478SOL     OW26332   0.984   0.274   5.967
 8478SOL    HW126333   1.015   0.229   5.884
 8478SOL    HW226334   0.894   0.240   5.992
 8479SOL     OW26335   6.166   1.291   0.615
 8479SOL    HW126336   6.102   1.232   0.566
 8479SOL    HW226337   6.120   1.332   0.693
 8480SOL     OW26338   3.301   0.720   1.224
 8480SOL    HW126339   3.308   0.743   1.321
 8480SOL    HW226340   3.293   0.804   1.171
 8481SOL     OW26341   4.473   1.471   3.984
 8481SOL    HW126342   4.386   1.510   4.014
 8481SOL    HW226343   4.459   1.375   3.958
 8482SOL     OW26344   2.372   0.228   2.141
 8482SOL    HW126345   2.298   0.291   2.120
 8482SOL    HW226346   2.394   0.173   2.060
 8483SOL     OW26347   3.794   6.141   1.659
 8483SOL    HW126348   3.857   6.205   1.703
 8483SOL    HW226349   3.819   6.130   1.563
 8484SOL     OW26350   6.577   4.960   3.073
 8484SOL    HW126351   6.666   4.989   3.109
 8484SOL    HW226352   6.558   4.867   3.104
 8485SOL     OW26353   1.964   3.499   6.749
 8485SOL    HW126354   1.880   3.540   6.712
 8485SOL    HW226355   1.990   3.421   6.692
 8486SOL     OW26356   4.945   1.285   2.864
 8486SOL    HW126357   4.846   1.289   2.854
 8486SOL    HW226358   4.970   1.203   2.915
 8487SOL     OW26359   5.514   6.726   0.716
 8487SOL    HW126360   5.424   6.738   0.760
 8487SOL    HW226361   5.501   6.693   0.623
 8488SOL     OW26362   5.969   5.102   5.580
 8488SOL    HW126363   5.912   5.152   5.516
 8488SOL    HW226364   6.018   5.029   5.532
 8489SOL     OW26365   6.294   6.996   1.424
 8489SOL    HW126366   6.262   0.067   1.394
 8489SOL    HW226367   6.348   6.954   1.351
 8490SOL     OW26368   4.530   6.250   3.703
 8490SOL    HW126369   4.488   6.165   3.733
 8490SOL    HW226370   4.487   6.327   3.751
 8491SOL     OW26371   2.483   0.695   1.483
 8491SOL    HW126372   2.417   0.630   1.444
 8491SOL    HW226373   2.538   0.734   1.409
 8492SOL     OW26374   4.560   4.021   6.168
 8492SOL    HW126375   4.532   4.051   6.077
 8492SOL    HW226376   4.660   4.018   6.173
 8493SOL     OW26377   3.662   1.766   6.919
 8493SOL    HW126378   3.630   1.781   7.013
 8493SOL    HW226379   3.592   1.717   6.868
 8494SOL     OW26380   1.973   4.523   6.295
 8494SOL    HW126381   1.999   4.430   6.321
 8494SOL    HW226382   1.878   4.539   6.322
 8495SOL     OW26383   0.048   3.334   0.443
 8495SOL    HW126384   0.135   3.361   0.485
 8495SOL    HW226385   0.063   3.315   0.346
 8496SOL     OW26386   0.230   2.045   2.514
 8496SOL    HW126387   0.223   2.112   2.588
 8496SOL    HW226388   0.321   2.051   2.473
 8497SOL     OW26389   5.271   6.659   4.093
 8497SOL    HW126390   5.282   6.560   4.084
 8497SOL    HW226391   5.272   6.700   4.001
 8498SOL     OW26392   0.315   6.475   2.163
 8498SOL    HW126393   0.279   6.384   2.141
 8498SOL    HW226394   0.364   6.471   2.250
 8499SOL     OW26395   2.384   5.582   6.404
 8499SOL    HW126396   2.459   5.620   6.349
 8499SOL    HW226397   2.377   5.632   6.490
 8500SOL     OW26398   1.979   0.799   5.785
 8500SOL    HW126399   1.995   0.862   5.861
 8500SOL    HW226400   1.963   0.851   5.701
 8501SOL     OW26401   1.477   2.400   0.128
 8501SOL    HW126402   1.477   2.356   0.218
 8501SOL    HW226403   1.433   2.340   0.061
 8502SOL     OW26404   1.269   5.239   1.417
 8502SOL    HW126405   1.232   5.173   1.351
 8502SOL    HW226406   1.366   5.219   1.433
 8503SOL     OW26407   1.209   5.222   2.613
 8503SOL    HW126408   1.228   5.180   2.702
 8503SOL    HW226409   1.157   5.306   2.625
 8504SOL     OW26410   1.727   6.424   3.484
 8504SOL    HW126411   1.634   6.389   3.494
 8504SOL    HW226412   1.732   6.516   3.523
 8505SOL     OW26413   5.120   4.328   3.301
 8505SOL    HW126414   5.178   4.328   3.219
 8505SOL    HW226415   5.083   4.236   3.315
 8506SOL     OW26416   0.895   6.826   0.814
 8506SOL    HW126417   0.907   6.921   0.845
 8506SOL    HW226418   0.801   6.798   0.831
 8507SOL     OW26419   2.254   0.495   5.279
 8507SOL    HW126420   2.328   0.494   5.347
 8507SOL    HW226421   2.191   0.420   5.298
 8508SOL     OW26422   6.844   2.908   4.712
 8508SOL    HW126423   6.889   2.997   4.705
 8508SOL    HW226424   6.908   2.836   4.686
 8509SOL     OW26425   6.234   1.530   4.574
 8509SOL    HW126426   6.164   1.586   4.530
 8509SOL    HW226427   6.242   1.442   4.528
 8510SOL     OW26428   6.110   4.662   3.012
 8510SOL    HW126429   6.032   4.679   2.951
 8510SOL    HW226430   6.094   4.706   3.100
 8511SOL     OW26431   5.385   4.729   2.007
 8511SOL    HW126432   5.347   4.739   1.915
 8511SOL    HW226433   5.348   4.647   2.050
 8512SOL     OW26434   3.910   2.421   0.315
 8512SOL    HW126435   3.824   2.371   0.303
 8512SOL    HW226436   3.986   2.356   0.316
 8513SOL     OW26437   4.804   4.134   1.316
 8513SOL    HW126438   4.796   4.043   1.356
 8513SOL    HW226439   4.716   4.182   1.324
 8514SOL     OW26440   2.342   2.743   3.223
 8514SOL    HW126441   2.256   2.693   3.225
 8514SOL    HW226442   2.340   2.812   3.151
 8515SOL     OW26443   6.940   1.105   6.734
 8515SOL    HW126444   6.875   1.031   6.751
 8515SOL    HW226445   6.945   1.164   6.815
 8516SOL     OW26446   6.474   2.858   1.418
 8516SOL    HW126447   6.547   2.829   1.480
 8516SOL    HW226448   6.399   2.898   1.471
 8517SOL     OW26449   2.167   2.406   5.895
 8517SOL    HW126450   2.179   2.442   5.802
 8517SOL    HW226451   2.247   2.351   5.920
 8518SOL     OW26452   5.079   4.083   5.995
 8518SOL    HW126453   4.994   4.126   5.966
 8518SOL    HW226454   5.080   3.988   5.965
 8519SOL     OW26455   0.775   5.197   0.635
 8519SOL    HW126456   0.746   5.121   0.577
 8519SOL    HW226457   0.826   5.161   0.714
 8520SOL     OW26458   3.056   2.709   5.975
 8520SOL    HW126459   2.961   2.720   5.944
 8520SOL    HW226460   3.112   2.675   5.900
 8521SOL     OW26461   2.237   5.817   5.389
 8521SOL    HW126462   2.282   5.890   5.337
 8521SOL    HW226463   2.275   5.814   5.481
 8522SOL     OW26464   0.410   0.125   1.535
 8522SOL    HW126465   0.401   0.067   1.616
 8522SOL    HW226466   0.407   0.221   1.562
 8523SOL     OW26467   2.429   6.565   6.870
 8523SOL    HW126468   2.416   6.627   6.948
 8523SOL    HW226469   2.353   6.576   6.806
 8524SOL     OW26470   0.733   3.599   4.672
 8524SOL    HW126471   0.788   3.648   4.739
 8524SOL    HW226472   0.718   3.505   4.702
 8525SOL     OW26473   5.904   4.894   1.477
 8525SOL    HW126474   5.827   4.871   1.418
 8525SOL    HW226475   5.909   4.993   1.489
 8526SOL     OW26476   3.449   6.290   0.809
 8526SOL    HW126477   3.449   6.381   0.768
 8526SOL    HW226478   3.471   6.297   0.906
 8527SOL     OW26479   3.489   0.443   6.947
 8527SOL    HW126480   3.550   0.477   0.001
 8527SOL    HW226481   3.539   0.379   6.889
 8528SOL     OW26482   3.719   1.456   0.742
 8528SOL    HW126483   3.680   1.509   0.818
 8528SOL    HW226484   3.671   1.480   0.657
 8529SOL     OW26485   1.340   0.078   0.494
 8529SOL    HW126486   1.389   0.063   0.579
 8529SOL    HW226487   1.404   0.105   0.422
 8530SOL     OW26488   3.880   3.442   5.073
 8530SOL    HW126489   3.798   3.447   5.129
 8530SOL    HW226490   3.922   3.352   5.084
 8531SOL     OW26491   7.004   5.410   2.842
 8531SOL    HW126492   6.955   5.324   2.828
 8531SOL    HW226493   6.979   5.475   2.771
 8532SOL     OW26494   4.167   6.054   4.781
 8532SOL    HW126495   4.146   5.957   4.794
 8532SOL    HW226496   4.098   6.109   4.826
 8533SOL     OW26497   1.898   6.118   0.183
 8533SOL    HW126498   1.965   6.052   0.216
 8533SOL    HW226499   1.911   6.205   0.230
 8534SOL     OW26500   4.863   2.604   3.643
 8534SOL    HW126501   4.925   2.679   3.664
 8534SOL    HW226502   4.909   2.517   3.663
 8535SOL     OW26503   5.966   1.557   3.973
 8535SOL    HW126504   6.005   1.514   3.892
 8535SOL    HW226505   6.016   1.641   3.994
 8536SOL     OW26506   0.358   1.631   5.078
 8536SOL    HW126507   0.340   1.656   4.983
 8536SOL    HW226508   0.423   1.555   5.081
 8537SOL     OW26509   5.309   1.525   3.310
 8537SOL    HW126510   5.284   1.484   3.397
 8537SOL    HW226511   5.286   1.463   3.235
 8538SOL     OW26512   1.855   1.225   6.925
 8538SOL    HW126513   1.887   1.172   6.847
 8538SOL    HW226514   1.827   1.162   6.998
 8539SOL     OW26515   6.437   1.771   2.217
 8539SOL    HW126516   6.350   1.804   2.253
 8539SOL    HW226517   6.496   1.745   2.293
 8540SOL     OW26518   5.790   0.074   6.655
 8540SOL    HW126519   5.736   0.015   6.715
 8540SOL    HW226520   5.733   0.107   6.580
 8541SOL     OW26521   3.785   2.046   3.525
 8541SOL    HW126522   3.842   2.119   3.487
 8541SOL    HW226523   3.770   1.976   3.455
 8542SOL     OW26524   3.621   4.717   6.543
 8542SOL    HW126525   3.532   4.761   6.528
 8542SOL    HW226526   3.614   4.620   6.519
 8543SOL     OW26527   1.930   1.685   1.620
 8543SOL    HW126528   1.990   1.667   1.542
 8543SOL    HW226529   1.844   1.636   1.608
 8544SOL     OW26530   5.473   3.767   4.235
 8544SOL    HW126531   5.418   3.825   4.295
 8544SOL    HW226532   5.427   3.679   4.222
 8545SOL     OW26533   4.468   0.396   6.161
 8545SOL    HW126534   4.435   0.378   6.254
 8545SOL    HW226535   4.527   0.321   6.131
 8546SOL     OW26536   5.984   2.054   4.006
 8546SOL    HW126537   6.038   2.131   4.040
 8546SOL    HW226538   5.889   2.083   3.994
 8547SOL     OW26539   0.507   6.523   5.514
 8547SOL    HW126540   0.560   6.533   5.430
 8547SOL    HW226541   0.484   6.613   5.551
 8548SOL     OW26542   5.846   2.798   5.778
 8548SOL    HW126543   5.944   2.789   5.792
 8548SOL    HW226544   5.820   2.758   5.690
 8549SOL     OW26545   0.615   3.588   3.751
 8549SOL    HW126546   0.553   3.621   3.680
 8549SOL    HW226547   0.563   3.539   3.821
 8550SOL     OW26548   2.273   4.559   6.285
 8550SOL    HW126549   2.199   4.546   6.219
 8550SOL    HW226550   2.361   4.559   6.238
 8551SOL     OW26551   3.568   3.537   6.297
 8551SOL    HW126552   3.601   3.626   6.266
 8551SOL    HW226553   3.534   3.485   6.219
 8552SOL     OW26554   2.423   6.646   4.205
 8552SOL    HW126555   2.344   6.705   4.190
 8552SOL    HW226556   2.504   6.702   4.220
 8553SOL     OW26557   5.220   5.393   6.386
 8553SOL    HW126558   5.236   5.441   6.299
 8553SOL    HW226559   5.304   5.394   6.440
 8554SOL     OW26560   0.739   4.990   0.443
 8554SOL    HW126561   0.688   5.049   0.380
 8554SOL    HW226562   0.812   4.943   0.393
 8555SOL     OW26563   0.823   0.190   2.943
 8555SOL    HW126564   0.869   0.156   3.025
 8555SOL    HW226565   0.815   0.290   2.948
 8556SOL     OW26566   0.874   0.042   3.923
 8556SOL    HW126567   0.861   7.016   4.011
 8556SOL    HW226568   0.972   0.054   3.906
 8557SOL     OW26569   6.767   1.487   2.034
 8557SOL    HW126570   6.861   1.476   2.003
 8557SOL    HW226571   6.704   1.459   1.960
 8558SOL     OW26572   2.613   5.893   3.156
 8558SOL    HW126573   2.645   5.979   3.117
 8558SOL    HW226574   2.525   5.907   3.201
 8559SOL     OW26575   6.116   0.602   2.229
 8559SOL    HW126576   6.214   0.625   2.227
 8559SOL    HW226577   6.087   0.590   2.323
 8560SOL     OW26578   6.623   0.063   1.260
 8560SOL    HW126579   6.656   0.038   1.351
 8560SOL    HW226580   6.693   0.040   1.192
 8561SOL     OW26581   3.459   6.190   1.928
 8561SOL    HW126582   3.383   6.242   1.889
 8561SOL    HW226583   3.465   6.100   1.884
 8562SOL     OW26584   4.976   6.687   5.128
 8562SOL    HW126585   4.944   6.665   5.220
 8562SOL    HW226586   4.918   6.640   5.061
 8563SOL     OW26587   2.555   3.415   0.041
 8563SOL    HW126588   2.466   3.411   0.086
 8563SOL    HW226589   2.624   3.448   0.106
 8564SOL     OW26590   2.530   0.730   3.848
 8564SOL    HW126591   2.474   0.687   3.777
 8564SOL    HW226592   2.496   0.822   3.866
 8565SOL     OW26593   4.702   6.883   1.181
 8565SOL    HW126594   4.777   6.946   1.202
 8565SOL    HW226595   4.650   6.865   1.265
 8566SOL     OW26596   1.015   1.010   2.080
 8566SOL    HW126597   1.018   1.063   2.165
 8566SOL    HW226598   0.965   0.925   2.096
 8567SOL     OW26599   0.138   1.890   1.769
 8567SOL    HW126600   0.233   1.903   1.796
 8567SOL    HW226601   0.082   1.967   1.802
 8568SOL     OW26602   4.606   0.763   6.450
 8568SOL    HW126603   4.520   0.795   6.490
 8568SOL    HW226604   4.603   0.773   6.351
 8569SOL     OW26605   5.329   1.550   5.855
 8569SOL    HW126606   5.358   1.531   5.948
 8569SOL    HW226607   5.363   1.478   5.794
 8570SOL     OW26608   1.012   2.316   6.126
 8570SOL    HW126609   0.944   2.352   6.191
 8570SOL    HW226610   1.037   2.223   6.153
 8571SOL     OW26611   0.199   5.579   5.829
 8571SOL    HW126612   0.118   5.638   5.819
 8571SOL    HW226613   0.199   5.539   5.920
 8572SOL     OW26614   3.065   5.143   6.347
 8572SOL    HW126615   3.073   5.046   6.327
 8572SOL    HW226616   3.101   5.196   6.271
 8573SOL     OW26617   3.572   6.203   6.728
 8573SOL    HW126618   3.639   6.132   6.749
 8573SOL    HW226619   3.555   6.205   6.629
 8574SOL     OW26620   0.080   5.070   5.216
 8574SOL    HW126621   0.154   5.108   5.271
 8574SOL    HW226622   0.103   4.977   5.187
 8575SOL     OW26623   3.277   2.389   0.035
 8575SOL    HW126624   3.259   2.291   0.047
 8575SOL    HW226625   3.234   2.420   6.969
 8576SOL     OW26626   1.121   6.730   1.057
 8576SOL    HW126627   1.217   6.758   1.059
 8576SOL    HW226628   1.090   6.727   0.962
 8577SOL     OW26629   6.471   5.048   4.601
 8577SOL    HW126630   6.498   5.099   4.683
 8577SOL    HW226631   6.542   4.982   4.578
 8578SOL     OW26632   5.091   0.488   4.397
 8578SOL    HW126633   5.000   0.502   4.358
 8578SOL    HW226634   5.083   0.444   4.486
 8579SOL     OW26635   1.447   6.150   3.663
 8579SOL    HW126636   1.463   6.092   3.583
 8579SOL    HW226637   1.442   6.246   3.634
 8580SOL     OW26638   2.412   6.864   2.035
 8580SOL    HW126639   2.461   6.941   2.076
 8580SOL    HW226640   2.445   6.778   2.076
 8581SOL     OW26641   3.298   2.608   1.646
 8581SOL    HW126642   3.398   2.604   1.649
 8581SOL    HW226643   3.262   2.517   1.624
 8582SOL     OW26644   4.202   4.700   2.122
 8582SOL    HW126645   4.124   4.724   2.180
 8582SOL    HW226646   4.174   4.705   2.026
 8583SOL     OW26647   5.792   0.637   5.905
 8583SOL    HW126648   5.744   0.550   5.910
 8583SOL    HW226649   5.739   0.707   5.954
 8584SOL     OW26650   0.188   3.911   6.305
 8584SOL    HW126651   0.099   3.879   6.338
 8584SOL    HW226652   0.197   4.009   6.324
 8585SOL     OW26653   6.860   6.691   0.205
 8585SOL    HW126654   6.857   6.602   0.158
 8585SOL    HW226655   6.941   6.694   0.263
 8586SOL     OW26656   2.532   6.305   3.573
 8586SOL    HW126657   2.453   6.248   3.596
 8586SOL    HW226658   2.566   6.350   3.656
 8587SOL     OW26659   1.272   0.336   3.024
 8587SOL    HW126660   1.275   0.322   2.925
 8587SOL    HW226661   1.310   0.425   3.047
 8588SOL     OW26662   2.863   0.628   6.929
 8588SOL    HW126663   2.914   0.545   6.951
 8588SOL    HW226664   2.785   0.635   6.990
 8589SOL     OW26665   4.389   2.027   4.536
 8589SOL    HW126666   4.401   1.975   4.451
 8589SOL    HW226667   4.322   1.981   4.594
 8590SOL     OW26668   6.629   5.560   4.013
 8590SOL    HW126669   6.611   5.643   4.067
 8590SOL    HW226670   6.558   5.550   3.943
 8591SOL     OW26671   1.028   4.846   6.230
 8591SOL    HW126672   1.078   4.880   6.150
 8591SOL    HW226673   0.930   4.854   6.214
 8592SOL     OW26674   7.013   4.402   0.467
 8592SOL    HW126675   0.060   4.362   0.403
 8592SOL    HW226676   6.935   4.340   0.477
 8593SOL     OW26677   1.386   6.788   2.407
 8593SOL    HW126678   1.424   6.868   2.454
 8593SOL    HW226679   1.333   6.818   2.328
 8594SOL     OW26680   3.633   3.848   5.265
 8594SOL    HW126681   3.720   3.833   5.219
 8594SOL    HW226682   3.565   3.880   5.198
 8595SOL     OW26683   2.236   1.743   2.420
 8595SOL    HW126684   2.142   1.753   2.388
 8595SOL    HW226685   2.246   1.657   2.470
 8596SOL     OW26686   6.071   5.133   2.150
 8596SOL    HW126687   6.048   5.124   2.247
 8596SOL    HW226688   6.166   5.106   2.135
 8597SOL     OW26689   4.211   2.206   1.063
 8597SOL    HW126690   4.133   2.248   1.017
 8597SOL    HW226691   4.295   2.252   1.034
 8598SOL     OW26692   0.373   5.548   1.500
 8598SOL    HW126693   0.374   5.518   1.595
 8598SOL    HW226694   0.437   5.625   1.488
 8599SOL     OW26695   0.913   2.964   3.873
 8599SOL    HW126696   0.815   2.957   3.855
 8599SOL    HW226697   0.936   3.059   3.896
 8600SOL     OW26698   5.831   4.693   7.013
 8600SOL    HW126699   5.836   4.730   6.920
 8600SOL    HW226700   5.746   4.721   0.038
 8601SOL     OW26701   0.752   0.880   4.722
 8601SOL    HW126702   0.715   0.824   4.648
 8601SOL    HW226703   0.708   0.969   4.722
 8602SOL     OW26704   2.466   6.277   2.656
 8602SOL    HW126705   2.506   6.199   2.609
 8602SOL    HW226706   2.430   6.247   2.745
 8603SOL     OW26707   3.671   3.991   0.028
 8603SOL    HW126708   3.622   4.019   6.963
 8603SOL    HW226709   3.762   4.032   0.028
 8604SOL     OW26710   6.348   2.772   3.118
 8604SOL    HW126711   6.389   2.847   3.171
 8604SOL    HW226712   6.254   2.797   3.093
 8605SOL     OW26713   3.358   4.935   4.520
 8605SOL    HW126714   3.294   4.886   4.460
 8605SOL    HW226715   3.388   5.019   4.477
 8606SOL     OW26716   2.034   4.670   5.468
 8606SOL    HW126717   2.038   4.756   5.417
 8606SOL    HW226718   2.091   4.677   5.549
 8607SOL     OW26719   2.643   4.905   1.004
 8607SOL    HW126720   2.725   4.895   1.061
 8607SOL    HW226721   2.644   4.994   0.960
 8608SOL     OW26722   4.852   5.090   3.011
 8608SOL    HW126723   4.898   5.053   3.090
 8608SOL    HW226724   4.758   5.056   3.008
 8609SOL     OW26725   4.501   0.810   4.174
 8609SOL    HW126726   4.495   0.758   4.260
 8609SOL    HW226727   4.562   0.888   4.187
 8610SOL     OW26728   1.210   0.543   2.715
 8610SOL    HW126729   1.299   0.499   2.728
 8610SOL    HW226730   1.176   0.523   2.623
 8611SOL     OW26731   1.734   2.830   3.731
 8611SOL    HW126732   1.769   2.808   3.822
 8611SOL    HW226733   1.643   2.870   3.739
 8612SOL     OW26734   3.056   3.292   6.789
 8612SOL    HW126735   3.117   3.349   6.734
 8612SOL    HW226736   3.021   3.345   6.865
 8613SOL     OW26737   2.355   1.506   1.533
 8613SOL    HW126738   2.349   1.544   1.441
 8613SOL    HW226739   2.264   1.502   1.574
 8614SOL     OW26740   0.923   3.492   2.560
 8614SOL    HW126741   1.015   3.530   2.543
 8614SOL    HW226742   0.924   3.439   2.645
 8615SOL     OW26743   5.078   2.147   4.985
 8615SOL    HW126744   5.016   2.150   4.907
 8615SOL    HW226745   5.095   2.052   5.011
 8616SOL     OW26746   1.171   5.616   1.048
 8616SOL    HW126747   1.164   5.695   1.109
 8616SOL    HW226748   1.267   5.586   1.044
 8617SOL     OW26749   6.022   0.904   0.300
 8617SOL    HW126750   6.036   0.833   0.231
 8617SOL    HW226751   6.026   0.864   0.391
 8618SOL     OW26752   5.089   6.846   1.163
 8618SOL    HW126753   5.072   6.931   1.114
 8618SOL    HW226754   5.106   6.865   1.259
 8619SOL     OW26755   3.497   5.324   0.855
 8619SOL    HW126756   3.526   5.343   0.948
 8619SOL    HW226757   3.486   5.226   0.843
 8620SOL     OW26758   5.886   6.803   3.470
 8620SOL    HW126759   5.934   6.715   3.467
 8620SOL    HW226760   5.947   6.873   3.508
 8621SOL     OW26761   5.937   1.558   3.516
 8621SOL    HW126762   5.862   1.494   3.503
 8621SOL    HW226763   5.901   1.651   3.528
 8622SOL     OW26764   4.526   4.777   0.789
 8622SOL    HW126765   4.535   4.788   0.690
 8622SOL    HW226766   4.545   4.682   0.814
 8623SOL     OW26767   0.287   4.185   3.000
 8623SOL    HW126768   0.267   4.094   3.035
 8623SOL    HW226769   0.384   4.191   2.976
 8624SOL     OW26770   1.255   4.759   3.755
 8624SOL    HW126771   1.188   4.690   3.781
 8624SOL    HW226772   1.276   4.816   3.835
 8625SOL     OW26773   4.795   0.535   4.370
 8625SOL    HW126774   4.762   0.551   4.277
 8625SOL    HW226775   4.728   0.479   4.420
 8626SOL     OW26776   3.639   2.859   4.966
 8626SOL    HW126777   3.550   2.890   4.999
 8626SOL    HW226778   3.637   2.760   4.951
 8627SOL     OW26779   1.132   0.448   2.438
 8627SOL    HW126780   1.133   0.349   2.449
 8627SOL    HW226781   1.214   0.477   2.389
 8628SOL     OW26782   6.421   6.688   1.512
 8628SOL    HW126783   6.456   6.781   1.504
 8628SOL    HW226784   6.488   6.631   1.559
 8629SOL     OW26785   1.650   5.553   4.470
 8629SOL    HW126786   1.710   5.478   4.496
 8629SOL    HW226787   1.700   5.618   4.413
 8630SOL     OW26788   5.966   4.215   4.565
 8630SOL    HW126789   6.020   4.186   4.644
 8630SOL    HW226790   5.977   4.314   4.552
 8631SOL     OW26791   4.009   6.014   6.237
 8631SOL    HW126792   4.003   5.915   6.221
 8631SOL    HW226793   4.106   6.039   6.246
 8632SOL     OW26794   3.758   6.526   3.413
 8632SOL    HW126795   3.733   6.606   3.468
 8632SOL    HW226796   3.677   6.489   3.369
 8633SOL     OW26797   5.188   0.997   4.581
 8633SOL    HW126798   5.180   1.093   4.551
 8633SOL    HW226799   5.169   0.937   4.504
 8634SOL     OW26800   6.358   2.954   1.084
 8634SOL    HW126801   6.421   2.955   1.161
 8634SOL    HW226802   6.408   2.971   0.999
 8635SOL     OW26803   5.978   4.207   6.132
 8635SOL    HW126804   5.979   4.113   6.096
 8635SOL    HW226805   6.042   4.213   6.209
 8636SOL     OW26806   5.608   4.812   0.114
 8636SOL    HW126807   5.561   4.897   0.136
 8636SOL    HW226808   5.550   4.755   0.056
 8637SOL     OW26809   1.683   0.389   0.473
 8637SOL    HW126810   1.695   0.487   0.457
 8637SOL    HW226811   1.727   0.338   0.398
 8638SOL     OW26812   1.809   3.319   0.090
 8638SOL    HW126813   1.738   3.259   0.127
 8638SOL    HW226814   1.851   3.275   0.010
 8639SOL     OW26815   6.178   2.488   1.786
 8639SOL    HW126816   6.216   2.413   1.733
 8639SOL    HW226817   6.113   2.539   1.730
 8640SOL     OW26818   4.797   3.906   0.524
 8640SOL    HW126819   4.701   3.886   0.541
 8640SOL    HW226820   4.849   3.820   0.524
 8641SOL     OW26821   6.900   4.164   4.632
 8641SOL    HW126822   6.888   4.112   4.716
 8641SOL    HW226823   6.940   4.105   4.561
 8642SOL     OW26824   4.159   0.775   2.625
 8642SOL    HW126825   4.079   0.835   2.620
 8642SOL    HW226826   4.128   0.681   2.640
 8643SOL     OW26827   4.079   7.013   0.195
 8643SOL    HW126828   4.156   6.966   0.237
 8643SOL    HW226829   3.993   6.975   0.231
 8644SOL     OW26830   4.557   2.497   5.565
 8644SOL    HW126831   4.650   2.532   5.557
 8644SOL    HW226832   4.513   2.537   5.646
 8645SOL     OW26833   5.409   4.827   1.433
 8645SOL    HW126834   5.403   4.920   1.469
 8645SOL    HW226835   5.318   4.785   1.432
 8646SOL     OW26836   5.923   1.108   1.167
 8646SOL    HW126837   5.927   1.011   1.142
 8646SOL    HW226838   6.012   1.150   1.147
 8647SOL     OW26839   3.697   4.498   6.206
 8647SOL    HW126840   3.634   4.531   6.136
 8647SOL    HW226841   3.775   4.560   6.214
 8648SOL     OW26842   5.592   1.478   4.621
 8648SOL    HW126843   5.511   1.420   4.636
 8648SOL    HW226844   5.566   1.574   4.634
 8649SOL     OW26845   5.539   5.064   5.823
 8649SOL    HW126846   5.547   5.137   5.890
 8649SOL    HW226847   5.581   4.980   5.859
 8650SOL     OW26848   1.362   4.644   4.557
 8650SOL    HW126849   1.440   4.694   4.520
 8650SOL    HW226850   1.390   4.551   4.579
 8651SOL     OW26851   3.950   0.705   0.426
 8651SOL    HW126852   3.898   0.735   0.505
 8651SOL    HW226853   4.006   0.626   0.451
 8652SOL     OW26854   1.501   4.380   2.989
 8652SOL    HW126855   1.575   4.369   2.922
 8652SOL    HW226856   1.429   4.438   2.950
 8653SOL     OW26857   5.740   2.398   5.860
 8653SOL    HW126858   5.672   2.468   5.840
 8653SOL    HW226859   5.736   2.374   5.957
 8654SOL     OW26860   0.878   6.320   1.864
 8654SOL    HW126861   0.977   6.319   1.856
 8654SOL    HW226862   0.838   6.365   1.784
 8655SOL     OW26863   5.912   0.842   3.836
 8655SOL    HW126864   5.873   0.934   3.824
 8655SOL    HW226865   6.011   0.847   3.822
 8656SOL     OW26866   6.599   1.265   1.220
 8656SOL    HW126867   6.685   1.312   1.241
 8656SOL    HW226868   6.582   1.194   1.288
 8657SOL     OW26869   4.539   4.748   0.074
 8657SOL    HW126870   4.514   4.653   0.053
 8657SOL    HW226871   4.615   4.749   0.139
 8658SOL     OW26872   4.834   5.880   0.358
 8658SOL    HW126873   4.835   5.782   0.380
 8658SOL    HW226874   4.745   5.904   0.319
 8659SOL     OW26875   4.648   1.204   3.433
 8659SOL    HW126876   4.631   1.200   3.531
 8659SOL    HW226877   4.566   1.237   3.386
 8660SOL     OW26878   4.927   3.807   0.783
 8660SOL    HW126879   4.836   3.823   0.822
 8660SOL    HW226880   4.983   3.758   0.850
 8661SOL     OW26881   5.385   4.162   1.771
 8661SOL    HW126882   5.424   4.070   1.766
 8661SOL    HW226883   5.458   4.230   1.772
 8662SOL     OW26884   4.955   6.111   1.780
 8662SOL    HW126885   4.960   6.044   1.854
 8662SOL    HW226886   5.030   6.177   1.789
 8663SOL     OW26887   2.718   6.036   1.110
 8663SOL    HW126888   2.735   6.088   1.026
 8663SOL    HW226889   2.772   5.952   1.108
 8664SOL     OW26890   3.660   5.471   0.644
 8664SOL    HW126891   3.599   5.416   0.702
 8664SOL    HW226892   3.614   5.555   0.618
 8665SOL     OW26893   5.429   5.683   5.047
 8665SOL    HW126894   5.363   5.687   5.122
 8665SOL    HW226895   5.482   5.598   5.055
 8666SOL     OW26896   5.256   2.653   5.390
 8666SOL    HW126897   5.244   2.573   5.331
 8666SOL    HW226898   5.258   2.624   5.485
 8667SOL     OW26899   4.506   2.246   3.091
 8667SOL    HW126900   4.505   2.264   2.992
 8667SOL    HW226901   4.447   2.167   3.110
 8668SOL     OW26902   5.132   3.094   3.395
 8668SOL    HW126903   5.079   3.179   3.392
 8668SOL    HW226904   5.105   3.035   3.319
 8669SOL     OW26905   2.769   6.825   6.876
 8669SOL    HW126906   2.823   6.760   6.823
 8669SOL    HW226907   2.672   6.816   6.850
 8670SOL     OW26908   3.681   4.705   5.472
 8670SOL    HW126909   3.645   4.754   5.393
 8670SOL    HW226910   3.652   4.609   5.468
 8671SOL     OW26911   5.725   1.524   3.897
 8671SOL    HW126912   5.669   1.494   3.974
 8671SOL    HW226913   5.819   1.537   3.928
 8672SOL     OW26914   2.202   6.008   3.994
 8672SOL    HW126915   2.296   5.973   3.993
 8672SOL    HW226916   2.148   5.962   3.924
 8673SOL     OW26917   0.208   1.423   6.806
 8673SOL    HW126918   0.206   1.356   6.880
 8673SOL    HW226919   0.150   1.501   6.830
 8674SOL     OW26920   6.607   5.891   1.581
 8674SOL    HW126921   6.590   5.926   1.673
 8674SOL    HW226922   6.701   5.860   1.574
 8675SOL     OW26923   3.307   1.722   3.801
 8675SOL    HW126924   3.382   1.724   3.735
 8675SOL    HW226925   3.293   1.814   3.838
 8676SOL     OW26926   4.112   6.713   3.054
 8676SOL    HW126927   4.078   6.631   3.101
 8676SOL    HW226928   4.037   6.756   3.004
 8677SOL     OW26929   2.360   6.101   5.339
 8677SOL    HW126930   2.383   6.145   5.252
 8677SOL    HW226931   2.443   6.065   5.381
 8678SOL     OW26932   0.392   0.311   0.701
 8678SOL    HW126933   0.335   0.329   0.621
 8678SOL    HW226934   0.368   0.375   0.774
 8679SOL     OW26935   6.073   2.938   4.850
 8679SOL    HW126936   6.165   2.919   4.815
 8679SOL    HW226937   6.038   2.858   4.898
 8680SOL     OW26938   0.543   3.929   1.495
 8680SOL    HW126939   0.483   3.854   1.468
 8680SOL    HW226940   0.534   4.004   1.428
 8681SOL     OW26941   4.562   4.860   0.522
 8681SOL    HW126942   4.525   4.946   0.559
 8681SOL    HW226943   4.503   4.828   0.447
 8682SOL     OW26944   4.223   6.367   1.968
 8682SOL    HW126945   4.177   6.299   1.912
 8682SOL    HW226946   4.155   6.428   2.009
 8683SOL     OW26947   1.261   2.634   1.901
 8683SOL    HW126948   1.264   2.654   1.999
 8683SOL    HW226949   1.292   2.714   1.849
 8684SOL     OW26950   0.300   2.882   4.719
 8684SOL    HW126951   0.273   2.978   4.722
 8684SOL    HW226952   0.303   2.845   4.812
 8685SOL     OW26953   1.178   2.403   5.895
 8685SOL    HW126954   1.097   2.396   5.952
 8685SOL    HW226955   1.250   2.343   5.932
 8686SOL     OW26956   6.572   1.591   1.469
 8686SOL    HW126957   6.595   1.618   1.375
 8686SOL    HW226958   6.540   1.671   1.520
 8687SOL     OW26959   3.682   6.021   2.788
 8687SOL    HW126960   3.604   5.981   2.837
 8687SOL    HW226961   3.648   6.076   2.712
 8688SOL     OW26962   2.626   6.397   0.488
 8688SOL    HW126963   2.593   6.437   0.403
 8688SOL    HW226964   2.722   6.370   0.476
 8689SOL     OW26965   3.515   4.569   0.187
 8689SOL    HW126966   3.489   4.474   0.204
 8689SOL    HW226967   3.479   4.627   0.260
 8690SOL     OW26968   1.745   2.639   3.534
 8690SOL    HW126969   1.736   2.721   3.591
 8690SOL    HW226970   1.783   2.665   3.445
 8691SOL     OW26971   4.529   2.536   6.241
 8691SOL    HW126972   4.574   2.462   6.189
 8691SOL    HW226973   4.433   2.513   6.255
 8692SOL     OW26974   3.828   2.111   2.490
 8692SOL    HW126975   3.882   2.029   2.468
 8692SOL    HW226976   3.748   2.115   2.430
 8693SOL     OW26977   5.439   1.393   0.858
 8693SOL    HW126978   5.462   1.445   0.940
 8693SOL    HW226979   5.479   1.301   0.865
 8694SOL     OW26980   4.544   1.352   5.870
 8694SOL    HW126981   4.494   1.421   5.818
 8694SOL    HW226982   4.533   1.369   5.968
 8695SOL     OW26983   4.475   3.023   5.749
 8695SOL    HW126984   4.535   2.990   5.677
 8695SOL    HW226985   4.397   3.071   5.708
 8696SOL     OW26986   3.121   5.888   0.976
 8696SOL    HW126987   3.208   5.938   0.976
 8696SOL    HW226988   3.057   5.931   0.912
 8697SOL     OW26989   6.517   3.204   0.832
 8697SOL    HW126990   6.487   3.244   0.745
 8697SOL    HW226991   6.521   3.275   0.902
 8698SOL     OW26992   6.106   5.991   3.763
 8698SOL    HW126993   6.084   5.894   3.752
 8698SOL    HW226994   6.033   6.036   3.814
 8699SOL     OW26995   1.148   2.849   5.415
 8699SOL    HW126996   1.233   2.894   5.390
 8699SOL    HW226997   1.154   2.752   5.393
 8700SOL     OW26998   2.160   1.292   4.735
 8700SOL    HW126999   2.132   1.344   4.815
 8700SOL    HW227000   2.113   1.328   4.654
 8701SOL     OW27001   1.569   0.468   6.917
 8701SOL    HW127002   1.573   0.444   6.819
 8701SOL    HW227003   1.504   0.408   6.963
 8702SOL     OW27004   5.772   4.980   0.407
 8702SOL    HW127005   5.701   4.960   0.475
 8702SOL    HW227006   5.837   5.046   0.446
 8703SOL     OW27007   2.680   5.481   1.126
 8703SOL    HW127008   2.663   5.480   1.224
 8703SOL    HW227009   2.776   5.503   1.109
 8704SOL     OW27010   5.975   3.479   2.732
 8704SOL    HW127011   5.903   3.421   2.695
 8704SOL    HW227012   5.952   3.504   2.827
 8705SOL     OW27013   4.937   0.715   0.778
 8705SOL    HW127014   4.960   0.640   0.840
 8705SOL    HW227015   4.865   0.771   0.819
 8706SOL     OW27016   4.659   1.994   6.118
 8706SOL    HW127017   4.602   1.966   6.196
 8706SOL    HW227018   4.635   1.938   6.038
 8707SOL     OW27019   5.397   2.135   0.051
 8707SOL    HW127020   5.331   2.166   0.119
 8707SOL    HW227021   5.476   2.093   0.097
 8708SOL     OW27022   4.206   2.272   2.063
 8708SOL    HW127023   4.229   2.178   2.035
 8708SOL    HW227024   4.119   2.299   2.021
 8709SOL     OW27025   6.949   6.054   6.238
 8709SOL    HW127026   6.966   6.143   6.280
 8709SOL    HW227027   6.956   5.982   6.307
 8710SOL     OW27028   1.844   3.775   3.204
 8710SOL    HW127029   1.937   3.754   3.172
 8710SOL    HW227030   1.799   3.836   3.139
 8711SOL     OW27031   0.147   5.676   2.572
 8711SOL    HW127032   0.179   5.770   2.559
 8711SOL    HW227033   0.124   5.637   2.482
 8712SOL     OW27034   4.282   2.333   4.284
 8712SOL    HW127035   4.266   2.377   4.196
 8712SOL    HW227036   4.335   2.249   4.271
 8713SOL     OW27037   0.653   4.484   3.666
 8713SOL    HW127038   0.562   4.460   3.634
 8713SOL    HW227039   0.649   4.509   3.763
 8714SOL     OW27040   0.456   0.976   5.866
 8714SOL    HW127041   0.413   0.885   5.861
 8714SOL    HW227042   0.421   1.033   5.792
 8715SOL     OW27043   5.022   0.039   1.014
 8715SOL    HW127044   4.940   0.089   1.042
 8715SOL    HW227045   5.099   0.103   1.005
 8716SOL     OW27046   0.888   0.663   1.458
 8716SOL    HW127047   0.834   0.739   1.420
 8716SOL    HW227048   0.868   0.579   1.407
 8717SOL     OW27049   3.853   2.961   3.024
 8717SOL    HW127050   3.755   2.982   3.019
 8717SOL    HW227051   3.881   2.914   2.940
 8718SOL     OW27052   0.389   3.256   5.627
 8718SOL    HW127053   0.411   3.179   5.686
 8718SOL    HW227054   0.349   3.330   5.681
 8719SOL     OW27055   1.892   0.020   6.299
 8719SOL    HW127056   1.907   6.944   6.329
 8719SOL    HW227057   1.796   0.043   6.309
 8720SOL     OW27058   6.704   5.049   5.701
 8720SOL    HW127059   6.607   5.036   5.680
 8720SOL    HW227060   6.748   4.960   5.711
 8721SOL     OW27061   5.902   2.505   3.608
 8721SOL    HW127062   5.933   2.545   3.522
 8721SOL    HW227063   5.905   2.405   3.601
 8722SOL     OW27064   3.806   0.751   0.690
 8722SOL    HW127065   3.832   0.756   0.787
 8722SOL    HW227066   3.724   0.807   0.675
 8723SOL     OW27067   5.489   5.755   1.258
 8723SOL    HW127068   5.433   5.831   1.291
 8723SOL    HW227069   5.432   5.691   1.206
 8724SOL     OW27070   6.193   0.059   5.413
 8724SOL    HW127071   6.203   0.097   5.505
 8724SOL    HW227072   6.219   0.127   5.345
 8725SOL     OW27073   2.511   6.840   6.793
 8725SOL    HW127074   2.411   6.847   6.789
 8725SOL    HW227075   2.552   6.900   6.724
 8726SOL     OW27076   6.460   0.806   1.873
 8726SOL    HW127077   6.507   0.831   1.788
 8726SOL    HW227078   6.393   0.876   1.895
 8727SOL     OW27079   0.091   6.893   1.680
 8727SOL    HW127080   0.179   6.846   1.671
 8727SOL    HW227081   0.098   6.966   1.748
 8728SOL     OW27082   3.664   0.055   4.463
 8728SOL    HW127083   3.728   0.006   4.522
 8728SOL    HW227084   3.570   0.027   4.486
 8729SOL     OW27085   4.601   5.898   3.224
 8729SOL    HW127086   4.579   5.994   3.208
 8729SOL    HW227087   4.608   5.881   3.323
 8730SOL     OW27088   6.560   4.349   2.082
 8730SOL    HW127089   6.490   4.322   2.149
 8730SOL    HW227090   6.528   4.328   1.990
 8731SOL     OW27091   2.071   1.657   2.832
 8731SOL    HW127092   2.085   1.560   2.848
 8731SOL    HW227093   1.988   1.687   2.879
 8732SOL     OW27094   4.866   4.484   1.951
 8732SOL    HW127095   4.873   4.470   2.050
 8732SOL    HW227096   4.894   4.401   1.904
 8733SOL     OW27097   1.570   5.969   3.482
 8733SOL    HW127098   1.604   5.876   3.491
 8733SOL    HW227099   1.601   6.008   3.395
 8734SOL     OW27100   0.925   4.781   1.911
 8734SOL    HW127101   0.889   4.856   1.966
 8734SOL    HW227102   0.980   4.817   1.837
 8735SOL     OW27103   0.820   1.659   6.761
 8735SOL    HW127104   0.906   1.674   6.713
 8735SOL    HW227105   0.779   1.747   6.784
 8736SOL     OW27106   0.704   6.476   0.052
 8736SOL    HW127107   0.795   6.440   0.031
 8736SOL    HW227108   0.697   6.570   0.017
 8737SOL     OW27109   2.950   6.825   5.811
 8737SOL    HW127110   2.874   6.759   5.810
 8737SOL    HW227111   3.018   6.795   5.877
 8738SOL     OW27112   1.826   4.566   3.557
 8738SOL    HW127113   1.856   4.490   3.615
 8738SOL    HW227114   1.732   4.591   3.580
 8739SOL     OW27115   6.456   5.118   6.103
 8739SOL    HW127116   6.392   5.157   6.168
 8739SOL    HW227117   6.517   5.189   6.068
 8740SOL     OW27118   4.862   1.359   5.254
 8740SOL    HW127119   4.950   1.377   5.298
 8740SOL    HW227120   4.858   1.263   5.225
 8741SOL     OW27121   2.562   0.893   2.404
 8741SOL    HW127122   2.513   0.806   2.394
 8741SOL    HW227123   2.518   0.947   2.476
 8742SOL     OW27124   5.710   6.001   1.445
 8742SOL    HW127125   5.620   6.040   1.424
 8742SOL    HW227126   5.707   5.902   1.431
 8743SOL     OW27127   2.294   6.580   2.606
 8743SOL    HW127128   2.305   6.562   2.508
 8743SOL    HW227129   2.232   6.512   2.646
 8744SOL     OW27130   4.033   2.653   6.150
 8744SOL    HW127131   3.998   2.694   6.234
 8744SOL    HW227132   4.049   2.555   6.166
 8745SOL     OW27133   6.177   2.483   6.213
 8745SOL    HW127134   6.174   2.574   6.254
 8745SOL    HW227135   6.195   2.491   6.115
 8746SOL     OW27136   4.395   4.155   5.367
 8746SOL    HW127137   4.439   4.072   5.334
 8746SOL    HW227138   4.321   4.131   5.430
 8747SOL     OW27139   0.323   2.991   2.889
 8747SOL    HW127140   0.230   3.008   2.921
 8747SOL    HW227141   0.341   3.048   2.809
 8748SOL     OW27142   0.136   1.357   6.054
 8748SOL    HW127143   0.146   1.257   6.047
 8748SOL    HW227144   0.043   1.378   6.085
 8749SOL     OW27145   2.906   0.033   5.480
 8749SOL    HW127146   2.977   0.029   5.409
 8749SOL    HW227147   2.948   0.016   5.570
 8750SOL     OW27148   2.946   3.118   5.244
 8750SOL    HW127149   2.970   3.081   5.155
 8750SOL    HW227150   3.007   3.194   5.267
 8751SOL     OW27151   6.478   0.244   2.716
 8751SOL    HW127152   6.398   0.188   2.736
 8751SOL    HW227153   6.458   0.340   2.739
 8752SOL     OW27154   3.111   4.222   6.691
 8752SOL    HW127155   3.069   4.137   6.661
 8752SOL    HW227156   3.152   4.268   6.612
 8753SOL     OW27157   4.861   1.685   4.571
 8753SOL    HW127158   4.931   1.635   4.622
 8753SOL    HW227159   4.881   1.783   4.574
 8754SOL     OW27160   1.594   1.659   5.932
 8754SOL    HW127161   1.532   1.582   5.914
 8754SOL    HW227162   1.625   1.656   6.027
 8755SOL     OW27163   2.534   0.702   6.357
 8755SOL    HW127164   2.474   0.699   6.276
 8755SOL    HW227165   2.482   0.733   6.436
 8756SOL     OW27166   2.096   3.706   3.118
 8756SOL    HW127167   2.091   3.649   3.036
 8756SOL    HW227168   2.149   3.788   3.099
 8757SOL     OW27169   5.506   6.599   5.618
 8757SOL    HW127170   5.427   6.569   5.564
 8757SOL    HW227171   5.496   6.567   5.713
 8758SOL     OW27172   4.646   6.080   2.014
 8758SOL    HW127173   4.576   6.112   1.950
 8758SOL    HW227174   4.610   6.005   2.068
 8759SOL     OW27175   4.062   2.320   6.401
 8759SOL    HW127176   4.008   2.280   6.475
 8759SOL    HW227177   4.031   2.282   6.314
 8760SOL     OW27178   2.271   1.695   5.088
 8760SOL    HW127179   2.191   1.748   5.116
 8760SOL    HW227180   2.352   1.730   5.135
 8761SOL     OW27181   4.118   0.683   1.294
 8761SOL    HW127182   4.087   0.722   1.380
 8761SOL    HW227183   4.180   0.606   1.313
 8762SOL     OW27184   1.069   3.585   2.780
 8762SOL    HW127185   1.082   3.633   2.693
 8762SOL    HW227186   1.046   3.489   2.762
 8763SOL     OW27187   6.136   5.825   4.907
 8763SOL    HW127188   6.154   5.795   4.813
 8763SOL    HW227189   6.220   5.817   4.960
 8764SOL     OW27190   4.877   0.808   4.157
 8764SOL    HW127191   4.833   0.729   4.114
 8764SOL    HW227192   4.816   0.846   4.227
 8765SOL     OW27193   6.038   0.034   5.082
 8765SOL    HW127194   6.080   0.099   5.144
 8765SOL    HW227195   6.107   6.988   5.048
 8766SOL     OW27196   3.649   5.036   3.136
 8766SOL    HW127197   3.741   5.003   3.115
 8766SOL    HW227198   3.582   4.977   3.091
 8767SOL     OW27199   4.228   0.401   3.197
 8767SOL    HW127200   4.239   0.352   3.284
 8767SOL    HW227201   4.316   0.404   3.150
 8768SOL     OW27202   1.381   2.715   0.254
 8768SOL    HW127203   1.414   2.763   0.335
 8768SOL    HW227204   1.458   2.676   0.204
 8769SOL     OW27205   1.279   0.289   4.626
 8769SOL    HW127206   1.263   0.385   4.605
 8769SOL    HW227207   1.328   0.280   4.713
 8770SOL     OW27208   4.919   4.382   2.209
 8770SOL    HW127209   5.005   4.336   2.183
 8770SOL    HW227210   4.929   4.422   2.300
 8771SOL     OW27211   1.450   0.764   5.304
 8771SOL    HW127212   1.548   0.760   5.284
 8771SOL    HW227213   1.434   0.731   5.398
 8772SOL     OW27214   6.142   6.563   0.122
 8772SOL    HW127215   6.202   6.511   0.182
 8772SOL    HW227216   6.052   6.519   0.116
 8773SOL     OW27217   4.942   1.841   3.455
 8773SOL    HW127218   5.011   1.774   3.428
 8773SOL    HW227219   4.887   1.805   3.530
 8774SOL     OW27220   2.247   1.378   0.396
 8774SOL    HW127221   2.210   1.447   0.333
 8774SOL    HW227222   2.313   1.321   0.347
 8775SOL     OW27223   6.429   0.491   4.440
 8775SOL    HW127224   6.375   0.408   4.456
 8775SOL    HW227225   6.377   0.554   4.383
 8776SOL     OW27226   2.942   3.465   4.736
 8776SOL    HW127227   2.895   3.524   4.801
 8776SOL    HW227228   2.904   3.480   4.644
 8777SOL     OW27229   0.026   4.163   1.101
 8777SOL    HW127230   6.951   4.199   1.104
 8777SOL    HW227231   0.031   4.090   1.032
 8778SOL     OW27232   6.611   2.452   4.401
 8778SOL    HW127233   6.650   2.440   4.492
 8778SOL    HW227234   6.650   2.534   4.358
 8779SOL     OW27235   2.406   5.152   1.790
 8779SOL    HW127236   2.405   5.052   1.792
 8779SOL    HW227237   2.449   5.186   1.874
 8780SOL     OW27238   1.519   5.752   3.774
 8780SOL    HW127239   1.478   5.837   3.807
 8780SOL    HW227240   1.464   5.715   3.700
 8781SOL     OW27241   6.572   2.251   4.219
 8781SOL    HW127242   6.581   2.322   4.289
 8781SOL    HW227243   6.630   2.273   4.141
 8782SOL     OW27244   5.377   0.525   1.771
 8782SOL    HW127245   5.321   0.443   1.759
 8782SOL    HW227246   5.414   0.554   1.683
 8783SOL     OW27247   5.876   3.401   3.627
 8783SOL    HW127248   5.921   3.321   3.588
 8783SOL    HW227249   5.884   3.478   3.564
 8784SOL     OW27250   5.062   4.409   4.993
 8784SOL    HW127251   5.060   4.364   4.903
 8784SOL    HW227252   4.982   4.467   5.003
 8785SOL     OW27253   6.134   3.341   0.078
 8785SOL    HW127254   6.202   3.306   0.013
 8785SOL    HW227255   6.155   3.437   0.098
 8786SOL     OW27256   2.825   6.443   0.067
 8786SOL    HW127257   2.917   6.430   0.031
 8786SOL    HW227258   2.828   6.504   0.146
 8787SOL     OW27259   1.602   2.730   1.977
 8787SOL    HW127260   1.561   2.818   1.953
 8787SOL    HW227261   1.586   2.712   2.074
 8788SOL     OW27262   6.505   1.962   5.605
 8788SOL    HW127263   6.525   1.952   5.703
 8788SOL    HW227264   6.470   1.876   5.569
 8789SOL     OW27265   6.127   0.094   5.713
 8789SOL    HW127266   6.155   0.076   5.807
 8789SOL    HW227267   6.089   0.186   5.706
 8790SOL     OW27268   6.884   1.101   0.639
 8790SOL    HW127269   6.875   1.185   0.693
 8790SOL    HW227270   6.909   1.025   0.699
 8791SOL     OW27271   5.381   6.774   5.263
 8791SOL    HW127272   5.399   6.863   5.306
 8791SOL    HW227273   5.363   6.788   5.166
 8792SOL     OW27274   3.833   6.219   2.912
 8792SOL    HW127275   3.754   6.185   2.861
 8792SOL    HW227276   3.823   6.195   3.009
 8793SOL     OW27277   2.026   5.723   3.823
 8793SOL    HW127278   2.092   5.693   3.892
 8793SOL    HW227279   1.934   5.717   3.860
 8794SOL     OW27280   3.910   6.695   1.747
 8794SOL    HW127281   3.974   6.634   1.700
 8794SOL    HW227282   3.904   6.670   1.843
 8795SOL     OW27283   1.377   6.630   5.133
 8795SOL    HW127284   1.383   6.533   5.155
 8795SOL    HW227285   1.461   6.659   5.088
 8796SOL     OW27286   4.009   0.727   5.225
 8796SOL    HW127287   4.008   0.679   5.137
 8796SOL    HW227288   4.091   0.701   5.277
 8797SOL     OW27289   0.978   6.832   5.298
 8797SOL    HW127290   1.022   6.882   5.373
 8797SOL    HW227291   0.880   6.827   5.314
 8798SOL     OW27292   5.332   4.527   5.330
 8798SOL    HW127293   5.318   4.503   5.233
 8798SOL    HW227294   5.301   4.620   5.346
 8799SOL     OW27295   2.103   4.904   3.048
 8799SOL    HW127296   2.102   4.942   3.141
 8799SOL    HW227297   2.144   4.813   3.050
 8800SOL     OW27298   5.900   3.730   4.931
 8800SOL    HW127299   5.917   3.797   4.858
 8800SOL    HW227300   5.982   3.722   4.988
 8801SOL     OW27301   1.991   1.418   4.546
 8801SOL    HW127302   1.978   1.457   4.455
 8801SOL    HW227303   1.942   1.473   4.614
 8802SOL     OW27304   1.195   0.569   0.961
 8802SOL    HW127305   1.125   0.531   1.023
 8802SOL    HW227306   1.177   0.538   0.868
 8803SOL     OW27307   1.413   4.782   6.024
 8803SOL    HW127308   1.382   4.693   6.056
 8803SOL    HW227309   1.428   4.843   6.102
 8804SOL     OW27310   2.783   0.761   2.114
 8804SOL    HW127311   2.721   0.682   2.109
 8804SOL    HW227312   2.873   0.731   2.146
 8805SOL     OW27313   2.603   0.517   4.145
 8805SOL    HW127314   2.558   0.599   4.181
 8805SOL    HW227315   2.684   0.544   4.094
 8806SOL     OW27316   2.150   5.494   1.543
 8806SOL    HW127317   2.220   5.466   1.609
 8806SOL    HW227318   2.059   5.467   1.577
 8807SOL     OW27319   6.586   6.088   5.865
 8807SOL    HW127320   6.682   6.077   5.892
 8807SOL    HW227321   6.567   6.031   5.785
 8808SOL     OW27322   5.518   1.639   0.742
 8808SOL    HW127323   5.462   1.716   0.774
 8808SOL    HW227324   5.495   1.557   0.793
 8809SOL     OW27325   5.390   4.391   2.558
 8809SOL    HW127326   5.483   4.409   2.589
 8809SOL    HW227327   5.377   4.430   2.467
 8810SOL     OW27328   5.632   1.350   5.489
 8810SOL    HW127329   5.574   1.337   5.408
 8810SOL    HW227330   5.717   1.298   5.477
 8811SOL     OW27331   2.815   1.992   4.018
 8811SOL    HW127332   2.747   2.033   4.079
 8811SOL    HW227333   2.867   1.923   4.069
 8812SOL     OW27334   1.416   0.865   0.612
 8812SOL    HW127335   1.503   0.901   0.645
 8812SOL    HW227336   1.402   0.891   0.516
 8813SOL     OW27337   1.150   4.635   1.489
 8813SOL    HW127338   1.128   4.699   1.563
 8813SOL    HW227339   1.100   4.549   1.503
 8814SOL     OW27340   6.323   0.982   0.736
 8814SOL    HW127341   6.346   1.076   0.710
 8814SOL    HW227342   6.314   0.976   0.835
 8815SOL     OW27343   6.990   6.214   0.798
 8815SOL    HW127344   0.033   6.141   0.826
 8815SOL    HW227345   6.970   6.205   0.700
 8816SOL     OW27346   1.546   0.207   0.643
 8816SOL    HW127347   1.603   0.258   0.578
 8816SOL    HW227348   1.601   0.134   0.684
 8817SOL     OW27349   0.239   5.931   5.952
 8817SOL    HW127350   0.264   5.957   6.046
 8817SOL    HW227351   0.313   5.958   5.890
 8818SOL     OW27352   0.039   3.555   3.300
 8818SOL    HW127353   0.027   3.497   3.380
 8818SOL    HW227354   0.108   3.516   3.240
 8819SOL     OW27355   4.420   5.555   3.807
 8819SOL    HW127356   4.348   5.575   3.872
 8819SOL    HW227357   4.478   5.482   3.842
 8820SOL     OW27358   2.549   2.022   4.192
 8820SOL    HW127359   2.508   1.976   4.271
 8820SOL    HW227360   2.561   2.119   4.212
 8821SOL     OW27361   1.640   6.371   0.231
 8821SOL    HW127362   1.639   6.471   0.220
 8821SOL    HW227363   1.730   6.342   0.262
 8822SOL     OW27364   1.026   0.353   3.207
 8822SOL    HW127365   0.963   0.276   3.217
 8822SOL    HW227366   1.097   0.329   3.141
 8823SOL     OW27367   2.082   0.870   0.951
 8823SOL    HW127368   2.175   0.856   0.985
 8823SOL    HW227369   2.025   0.791   0.975
 8824SOL     OW27370   1.912   3.783   0.973
 8824SOL    HW127371   1.881   3.743   0.886
 8824SOL    HW227372   1.837   3.782   1.039
 8825SOL     OW27373   1.886   0.803   3.582
 8825SOL    HW127374   1.849   0.821   3.673
 8825SOL    HW227375   1.826   0.845   3.514
 8826SOL     OW27376   6.540   2.071   0.597
 8826SOL    HW127377   6.465   2.031   0.649
 8826SOL    HW227378   6.511   2.158   0.557
 8827SOL     OW27379   3.139   1.606   3.004
 8827SOL    HW127380   3.105   1.691   2.964
 8827SOL    HW227381   3.236   1.595   2.981
 8828SOL     OW27382   4.380   5.510   4.175
 8828SOL    HW127383   4.429   5.580   4.123
 8828SOL    HW227384   4.316   5.554   4.238
 8829SOL     OW27385   0.382   2.446   0.016
 8829SOL    HW127386   0.316   2.515   7.004
 8829SOL    HW227387   0.334   2.362   0.039
 8830SOL     OW27388   0.491   1.757   1.039
 8830SOL    HW127389   0.534   1.818   1.106
 8830SOL    HW227390   0.433   1.691   1.087
 8831SOL     OW27391   5.210   1.140   3.484
 8831SOL    HW127392   5.148   1.207   3.446
 8831SOL    HW227393   5.289   1.129   3.424
 8832SOL     OW27394   6.120   6.145   2.689
 8832SOL    HW127395   6.026   6.178   2.693
 8832SOL    HW227396   6.179   6.205   2.743
 8833SOL     OW27397   1.931   6.349   5.516
 8833SOL    HW127398   1.955   6.378   5.608
 8833SOL    HW227399   1.998   6.282   5.483
 8834SOL     OW27400   5.385   4.032   4.408
 8834SOL    HW127401   5.369   3.974   4.488
 8834SOL    HW227402   5.301   4.039   4.354
 8835SOL     OW27403   6.037   0.689   6.116
 8835SOL    HW127404   6.061   0.602   6.073
 8835SOL    HW227405   6.107   0.757   6.096
 8836SOL     OW27406   4.569   1.131   6.871
 8836SOL    HW127407   4.525   1.217   6.898
 8836SOL    HW227408   4.623   1.146   6.788
 8837SOL     OW27409   0.440   7.011   2.321
 8837SOL    HW127410   0.480   0.033   2.238
 8837SOL    HW227411   0.479   0.037   2.401
 8838SOL     OW27412   2.915   5.051   3.122
 8838SOL    HW127413   2.939   4.962   3.083
 8838SOL    HW227414   2.818   5.054   3.142
 8839SOL     OW27415   5.401   5.466   2.125
 8839SOL    HW127416   5.443   5.501   2.041
 8839SOL    HW227417   5.306   5.440   2.106
 8840SOL     OW27418   6.747   2.359   1.878
 8840SOL    HW127419   6.769   2.431   1.943
 8840SOL    HW227420   6.777   2.271   1.915
 8841SOL     OW27421   1.555   0.855   4.886
 8841SOL    HW127422   1.637   0.840   4.832
 8841SOL    HW227423   1.511   0.767   4.904
 8842SOL     OW27424   3.715   2.902   0.613
 8842SOL    HW127425   3.616   2.894   0.597
 8842SOL    HW227426   3.731   2.933   0.706
 8843SOL     OW27427   1.624   2.950   5.247
 8843SOL    HW127428   1.696   2.907   5.302
 8843SOL    HW227429   1.652   2.951   5.151
 8844SOL     OW27430   5.667   1.093   0.228
 8844SOL    HW127431   5.720   1.172   0.199
 8844SOL    HW227432   5.679   1.079   0.326
 8845SOL     OW27433   4.400   4.204   0.083
 8845SOL    HW127434   4.453   4.161   0.156
 8845SOL    HW227435   4.449   4.195   7.015
 8846SOL     OW27436   1.997   6.131   4.101
 8846SOL    HW127437   2.081   6.087   4.066
 8846SOL    HW227438   2.003   6.229   4.086
 8847SOL     OW27439   2.647   0.700   2.974
 8847SOL    HW127440   2.549   0.684   2.968
 8847SOL    HW227441   2.692   0.664   2.893
 8848SOL     OW27442   2.639   0.776   1.262
 8848SOL    HW127443   2.605   0.831   1.185
 8848SOL    HW227444   2.644   0.680   1.234
 8849SOL     OW27445   3.203   6.436   3.027
 8849SOL    HW127446   3.103   6.432   3.027
 8849SOL    HW227447   3.234   6.496   2.953
 8850SOL     OW27448   1.246   2.023   0.081
 8850SOL    HW127449   1.163   1.980   0.116
 8850SOL    HW227450   1.265   1.989   7.007
 8851SOL     OW27451   1.757   4.539   2.533
 8851SOL    HW127452   1.778   4.476   2.608
 8851SOL    HW227453   1.786   4.498   2.446
 8852SOL     OW27454   0.947   1.909   5.224
 8852SOL    HW127455   1.023   1.891   5.286
 8852SOL    HW227456   0.955   2.002   5.188
 8853SOL     OW27457   2.736   0.986   2.228
 8853SOL    HW127458   2.742   0.892   2.193
 8853SOL    HW227459   2.667   0.990   2.299
 8854SOL     OW27460   1.881   3.110   4.515
 8854SOL    HW127461   1.822   3.105   4.596
 8854SOL    HW227462   1.945   3.186   4.525
 8855SOL     OW27463   6.237   5.045   1.366
 8855SOL    HW127464   6.214   5.014   1.458
 8855SOL    HW227465   6.335   5.032   1.350
 8856SOL     OW27466   6.928   6.128   6.829
 8856SOL    HW127467   6.883   6.217   6.819
 8856SOL    HW227468   6.858   6.057   6.839
 8857SOL     OW27469   6.703   1.538   4.835
 8857SOL    HW127470   6.684   1.621   4.783
 8857SOL    HW227471   6.633   1.469   4.813
 8858SOL     OW27472   0.189   4.674   4.694
 8858SOL    HW127473   0.184   4.725   4.608
 8858SOL    HW227474   0.135   4.590   4.687
 8859SOL     OW27475   1.205   1.022   3.790
 8859SOL    HW127476   1.198   1.066   3.880
 8859SOL    HW227477   1.132   0.953   3.781
 8860SOL     OW27478   6.887   2.961   1.370
 8860SOL    HW127479   6.791   2.932   1.373
 8860SOL    HW227480   6.932   2.937   1.456
 8861SOL     OW27481   3.762   1.203   0.370
 8861SOL    HW127482   3.778   1.299   0.393
 8861SOL    HW227483   3.817   1.145   0.429
 8862SOL     OW27484   5.217   6.280   3.668
 8862SOL    HW127485   5.163   6.358   3.638
 8862SOL    HW227486   5.314   6.302   3.662
 8863SOL     OW27487   1.734   5.249   3.059
 8863SOL    HW127488   1.662   5.282   3.120
 8863SOL    HW227489   1.744   5.150   3.068
 8864SOL     OW27490   4.500   4.179   6.843
 8864SOL    HW127491   4.505   4.257   6.780
 8864SOL    HW227492   4.487   4.095   6.791
 8865SOL     OW27493   2.848   0.811   5.521
 8865SOL    HW127494   2.837   0.755   5.439
 8865SOL    HW227495   2.943   0.811   5.550
 8866SOL     OW27496   4.989   6.645   2.985
 8866SOL    HW127497   5.050   6.591   2.928
 8866SOL    HW227498   4.970   6.595   3.070
 8867SOL     OW27499   6.324   3.668   3.669
 8867SOL    HW127500   6.284   3.615   3.744
 8867SOL    HW227501   6.263   3.744   3.645
 8868SOL     OW27502   6.748   3.642   2.545
 8868SOL    HW127503   6.758   3.667   2.449
 8868SOL    HW227504   6.829   3.671   2.596
 8869SOL     OW27505   3.964   6.026   5.054
 8869SOL    HW127506   3.869   6.028   5.022
 8869SOL    HW227507   4.011   6.110   5.027
 8870SOL     OW27508   2.044   6.983   1.643
 8870SOL    HW127509   1.997   0.047   1.676
 8870SOL    HW227510   2.099   6.945   1.717
 8871SOL     OW27511   1.775   1.126   3.315
 8871SOL    HW127512   1.853   1.069   3.288
 8871SOL    HW227513   1.807   1.198   3.377
 8872SOL     OW27514   1.425   4.667   6.438
 8872SOL    HW127515   1.326   4.674   6.451
 8872SOL    HW227516   1.468   4.755   6.459
 8873SOL     OW27517   1.806   0.516   1.406
 8873SOL    HW127518   1.737   0.546   1.339
 8873SOL    HW227519   1.767   0.522   1.498
 8874SOL     OW27520   1.326   5.998   2.052
 8874SOL    HW127521   1.305   6.010   1.955
 8874SOL    HW227522   1.300   6.080   2.102
 8875SOL     OW27523   0.179   3.541   3.955
 8875SOL    HW127524   0.132   3.629   3.947
 8875SOL    HW227525   0.135   3.487   4.027
 8876SOL     OW27526   2.795   0.868   6.537
 8876SOL    HW127527   2.799   0.768   6.532
 8876SOL    HW227528   2.717   0.896   6.592
 8877SOL     OW27529   1.611   3.603   2.873
 8877SOL    HW127530   1.584   3.650   2.789
 8877SOL    HW227531   1.598   3.505   2.862
 8878SOL     OW27532   3.440   4.559   0.529
 8878SOL    HW127533   3.538   4.560   0.549
 8878SOL    HW227534   3.402   4.470   0.555
 8879SOL     OW27535   6.300   4.762   2.369
 8879SOL    HW127536   6.235   4.686   2.377
 8879SOL    HW227537   6.392   4.726   2.359
 8880SOL     OW27538   4.149   6.239   4.229
 8880SOL    HW127539   4.050   6.242   4.213
 8880SOL    HW227540   4.167   6.249   4.327
 8881SOL     OW27541   5.183   5.338   4.521
 8881SOL    HW127542   5.275   5.333   4.482
 8881SOL    HW227543   5.188   5.327   4.620
 8882SOL     OW27544   3.588   0.783   0.501
 8882SOL    HW127545   3.587   0.770   0.401
 8882SOL    HW227546   3.526   0.858   0.525
 8883SOL     OW27547   0.804   5.832   5.491
 8883SOL    HW127548   0.889   5.818   5.542
 8883SOL    HW227549   0.789   5.756   5.429
 8884SOL     OW27550   6.136   3.748   5.390
 8884SOL    HW127551   6.234   3.769   5.394
 8884SOL    HW227552   6.083   3.832   5.401
 8885SOL     OW27553   5.063   4.872   0.181
 8885SOL    HW127554   5.160   4.890   0.193
 8885SOL    HW227555   5.045   4.774   0.195
 8886SOL     OW27556   3.842   5.658   5.919
 8886SOL    HW127557   3.883   5.696   5.836
 8886SOL    HW227558   3.804   5.568   5.899
 8887SOL     OW27559   4.222   1.149   0.749
 8887SOL    HW127560   4.317   1.127   0.724
 8887SOL    HW227561   4.172   1.175   0.667
 8888SOL     OW27562   2.283   2.333   3.817
 8888SOL    HW127563   2.236   2.250   3.848
 8888SOL    HW227564   2.240   2.365   3.732
 8889SOL     OW27565   6.914   6.341   6.362
 8889SOL    HW127566   7.005   6.319   6.329
 8889SOL    HW227567   6.899   6.440   6.354
 8890SOL     OW27568   0.676   5.944   6.820
 8890SOL    HW127569   0.701   5.915   6.728
 8890SOL    HW227570   0.594   6.001   6.816
 8891SOL     OW27571   4.514   4.464   0.078
 8891SOL    HW127572   4.574   4.472   7.017
 8891SOL    HW227573   4.484   4.369   0.088
 8892SOL     OW27574   3.926   4.983   3.565
 8892SOL    HW127575   3.922   5.072   3.611
 8892SOL    HW227576   3.836   4.962   3.527
 8893SOL     OW27577   1.172   5.468   5.230
 8893SOL    HW127578   1.123   5.481   5.144
 8893SOL    HW227579   1.271   5.472   5.212
 8894SOL     OW27580   4.072   1.438   0.088
 8894SOL    HW127581   4.056   1.433   7.008
 8894SOL    HW227582   4.091   1.533   0.113
 8895SOL     OW27583   0.754   2.895   0.660
 8895SOL    HW127584   0.760   2.872   0.563
 8895SOL    HW227585   0.827   2.847   0.711
 8896SOL     OW27586   1.564   3.016   4.999
 8896SOL    HW127587   1.485   3.058   5.044
 8896SOL    HW227588   1.568   3.047   4.904
 8897SOL     OW27589   2.093   4.137   3.572
 8897SOL    HW127590   2.095   4.053   3.626
 8897SOL    HW227591   1.999   4.170   3.566
 8898SOL     OW27592   5.696   4.051   2.165
 8898SOL    HW127593   5.732   4.138   2.200
 8898SOL    HW227594   5.695   4.053   2.065
 8899SOL     OW27595   0.077   4.582   6.874
 8899SOL    HW127596   0.096   4.494   6.831
 8899SOL    HW227597   0.050   4.568   6.969
 8900SOL     OW27598   5.639   2.491   3.424
 8900SOL    HW127599   5.618   2.575   3.373
 8900SOL    HW227600   5.732   2.462   3.403
 8901SOL     OW27601   1.051   1.654   3.525
 8901SOL    HW127602   1.106   1.599   3.461
 8901SOL    HW227603   1.047   1.749   3.493
 8902SOL     OW27604   1.911   5.519   6.733
 8902SOL    HW127605   1.954   5.559   6.652
 8902SOL    HW227606   1.981   5.479   6.791
 8903SOL     OW27607   1.180   1.855   4.740
 8903SOL    HW127608   1.234   1.846   4.657
 8903SOL    HW227609   1.198   1.944   4.782
 8904SOL     OW27610   1.124   2.245   3.255
 8904SOL    HW127611   1.189   2.212   3.187
 8904SOL    HW227612   1.031   2.223   3.225
 8905SOL     OW27613   1.557   3.431   2.639
 8905SOL    HW127614   1.536   3.528   2.643
 8905SOL    HW227615   1.655   3.418   2.624
 8906SOL     OW27616   1.049   6.101   1.057
 8906SOL    HW127617   0.955   6.124   1.079
 8906SOL    HW227618   1.090   6.050   1.132
 8907SOL     OW27619   3.208   2.622   5.388
 8907SOL    HW127620   3.167   2.592   5.474
 8907SOL    HW227621   3.222   2.543   5.328
 8908SOL     OW27622   1.591   4.714   0.150
 8908SOL    HW127623   1.665   4.743   0.211
 8908SOL    HW227624   1.578   4.782   0.078
 8909SOL     OW27625   2.865   0.948   6.277
 8909SOL    HW127626   2.868   0.956   6.376
 8909SOL    HW227627   2.775   0.914   6.249
 8910SOL     OW27628   0.123   3.333   5.229
 8910SOL    HW127629   0.087   3.242   5.249
 8910SOL    HW227630   0.167   3.333   5.139
 8911SOL     OW27631   5.565   2.799   4.648
 8911SOL    HW127632   5.558   2.833   4.741
 8911SOL    HW227633   5.529   2.706   4.643
 8912SOL     OW27634   3.395   2.738   5.680
 8912SOL    HW127635   3.340   2.812   5.643
 8912SOL    HW227636   3.463   2.775   5.744
 8913SOL     OW27637   4.626   5.232   0.096
 8913SOL    HW127638   4.655   5.154   0.151
 8913SOL    HW227639   4.608   5.310   0.155
 8914SOL     OW27640   5.062   6.869   4.728
 8914SOL    HW127641   5.011   6.947   4.693
 8914SOL    HW227642   5.078   6.881   4.826
 8915SOL     OW27643   1.576   1.826   4.347
 8915SOL    HW127644   1.673   1.816   4.366
 8915SOL    HW227645   1.559   1.808   4.250
 8916SOL     OW27646   5.484   1.955   6.654
 8916SOL    HW127647   5.513   1.927   6.563
 8916SOL    HW227648   5.543   1.913   6.723
 8917SOL     OW27649   5.491   1.948   0.562
 8917SOL    HW127650   5.559   2.002   0.512
 8917SOL    HW227651   5.423   2.010   0.602
 8918SOL     OW27652   1.723   5.499   1.206
 8918SOL    HW127653   1.646   5.486   1.269
 8918SOL    HW227654   1.784   5.420   1.210
 8919SOL     OW27655   5.083   4.628   6.517
 8919SOL    HW127656   5.132   4.696   6.571
 8919SOL    HW227657   5.007   4.592   6.570
 8920SOL     OW27658   0.819   1.919   6.489
 8920SOL    HW127659   0.769   1.898   6.573
 8920SOL    HW227660   0.814   1.841   6.427
 8921SOL     OW27661   1.540   2.748   1.559
 8921SOL    HW127662   1.615   2.804   1.594
 8921SOL    HW227663   1.576   2.679   1.497
 8922SOL     OW27664   3.905   6.694   2.034
 8922SOL    HW127665   3.882   6.733   2.123
 8922SOL    HW227666   3.878   6.598   2.032
 8923SOL     OW27667   1.142   1.847   5.404
 8923SOL    HW127668   1.187   1.934   5.425
 8923SOL    HW227669   1.212   1.777   5.386
 8924SOL     OW27670   4.980   5.333   5.065
 8924SOL    HW127671   5.018   5.325   4.973
 8924SOL    HW227672   4.895   5.280   5.071
 8925SOL     OW27673   6.591   6.884   2.401
 8925SOL    HW127674   6.653   6.884   2.479
 8925SOL    HW227675   6.588   6.793   2.361
 8926SOL     OW27676   6.553   3.360   5.640
 8926SOL    HW127677   6.502   3.318   5.565
 8926SOL    HW227678   6.646   3.323   5.642
 8927SOL     OW27679   6.522   1.487   5.174
 8927SOL    HW127680   6.460   1.528   5.242
 8927SOL    HW227681   6.518   1.388   5.182
 8928SOL     OW27682   1.097   6.964   6.042
 8928SOL    HW127683   1.154   7.000   5.968
 8928SOL    HW227684   1.093   6.864   6.035
 8929SOL     OW27685   6.384   1.943   5.050
 8929SOL    HW127686   6.407   1.850   5.020
 8929SOL    HW227687   6.455   1.976   5.113
 8930SOL     OW27688   0.885   3.144   2.919
 8930SOL    HW127689   0.793   3.183   2.914
 8930SOL    HW227690   0.898   3.102   3.009
 8931SOL     OW27691   3.288   3.203   1.618
 8931SOL    HW127692   3.292   3.266   1.696
 8931SOL    HW227693   3.348   3.125   1.636
 8932SOL     OW27694   6.979   2.116   2.298
 8932SOL    HW127695   6.967   2.191   2.234
 8932SOL    HW227696   6.988   2.030   2.248
 8933SOL     OW27697   2.964   2.727   6.391
 8933SOL    HW127698   3.056   2.697   6.416
 8933SOL    HW227699   2.912   2.745   6.474
 8934SOL     OW27700   3.713   5.056   5.191
 8934SOL    HW127701   3.803   5.097   5.176
 8934SOL    HW227702   3.704   5.029   5.286
 8935SOL     OW27703   0.389   4.648   0.616
 8935SOL    HW127704   0.403   4.561   0.568
 8935SOL    HW227705   0.462   4.712   0.590
 8936SOL     OW27706   1.681   3.627   0.101
 8936SOL    HW127707   1.764   3.578   0.076
 8936SOL    HW227708   1.602   3.567   0.088
 8937SOL     OW27709   0.793   6.808   4.945
 8937SOL    HW127710   0.732   6.855   4.881
 8937SOL    HW227711   0.887   6.811   4.910
 8938SOL     OW27712   0.552   5.506   0.949
 8938SOL    HW127713   0.633   5.448   0.950
 8938SOL    HW227714   0.550   5.561   0.866
 8939SOL     OW27715   4.786   2.900   4.218
 8939SOL    HW127716   4.779   2.819   4.276
 8939SOL    HW227717   4.746   2.879   4.128
 8940SOL     OW27718   0.184   0.915   3.900
 8940SOL    HW127719   0.169   0.960   3.811
 8940SOL    HW227720   0.099   0.914   3.951
 8941SOL     OW27721   5.267   2.483   5.652
 8941SOL    HW127722   5.220   2.410   5.702
 8941SOL    HW227723   5.363   2.457   5.639
 8942SOL     OW27724   0.815   4.014   5.729
 8942SOL    HW127725   0.908   4.005   5.693
 8942SOL    HW227726   0.815   3.993   5.827
 8943SOL     OW27727   3.979   3.694   0.285
 8943SOL    HW127728   4.000   3.772   0.227
 8943SOL    HW227729   4.015   3.611   0.244
 8944SOL     OW27730   5.047   4.643   5.203
 8944SOL    HW127731   4.975   4.692   5.251
 8944SOL    HW227732   5.011   4.556   5.170
 8945SOL     OW27733   1.993   1.026   3.869
 8945SOL    HW127734   2.071   1.002   3.811
 8945SOL    HW227735   1.916   0.965   3.848
 8946SOL     OW27736   3.065   1.381   5.155
 8946SOL    HW127737   3.131   1.377   5.080
 8946SOL    HW227738   3.092   1.315   5.226
 8947SOL     OW27739   1.001   4.018   5.183
 8947SOL    HW127740   1.094   4.049   5.201
 8947SOL    HW227741   0.988   4.007   5.084
 8948SOL     OW27742   6.117   5.875   4.111
 8948SOL    HW127743   6.135   5.792   4.058
 8948SOL    HW227744   6.023   5.905   4.095
 8949SOL     OW27745   1.925   0.446   0.872
 8949SOL    HW127746   1.921   0.512   0.797
 8949SOL    HW227747   1.846   0.385   0.867
 8950SOL     OW27748   4.833   3.130   5.463
 8950SOL    HW127749   4.842   3.192   5.385
 8950SOL    HW227750   4.802   3.040   5.430
 8951SOL     OW27751   1.229   2.304   4.937
 8951SOL    HW127752   1.277   2.356   5.007
 8951SOL    HW227753   1.149   2.355   4.906
 8952SOL     OW27754   0.963   0.304   2.105
 8952SOL    HW127755   1.032   0.376   2.115
 8952SOL    HW227756   0.878   0.344   2.069
 8953SOL     OW27757   1.016   4.031   6.772
 8953SOL    HW127758   1.041   3.993   6.861
 8953SOL    HW227759   0.928   4.077   6.778
 8954SOL     OW27760   0.498   6.087   6.056
 8954SOL    HW127761   0.576   6.098   6.116
 8954SOL    HW227762   0.530   6.072   5.962
 8955SOL     OW27763   0.489   4.433   2.409
 8955SOL    HW127764   0.457   4.345   2.374
 8955SOL    HW227765   0.531   4.420   2.499
 8956SOL     OW27766   0.092   1.702   6.917
 8956SOL    HW127767   7.013   1.712   6.935
 8956SOL    HW227768   0.141   1.690   7.004
 8957SOL     OW27769   3.173   4.126   1.631
 8957SOL    HW127770   3.210   4.218   1.641
 8957SOL    HW227771   3.170   4.102   1.534
 8958SOL     OW27772   0.982   0.677   4.212
 8958SOL    HW127773   1.043   0.725   4.151
 8958SOL    HW227774   0.908   0.635   4.160
 8959SOL     OW27775   1.670   4.426   1.227
 8959SOL    HW127776   1.619   4.488   1.167
 8959SOL    HW227777   1.754   4.398   1.181
 8960SOL     OW27778   5.136   5.732   2.151
 8960SOL    HW127779   5.158   5.637   2.128
 8960SOL    HW227780   5.037   5.742   2.162
 8961SOL     OW27781   2.095   2.491   4.677
 8961SOL    HW127782   2.194   2.498   4.663
 8961SOL    HW227783   2.077   2.474   4.774
 8962SOL     OW27784   6.341   6.491   2.668
 8962SOL    HW127785   6.383   6.452   2.587
 8962SOL    HW227786   6.368   6.439   2.749
 8963SOL     OW27787   4.938   6.713   4.334
 8963SOL    HW127788   4.877   6.789   4.310
 8963SOL    HW227789   4.931   6.695   4.432
 8964SOL     OW27790   6.147   3.873   3.613
 8964SOL    HW127791   6.149   3.953   3.552
 8964SOL    HW227792   6.087   3.892   3.691
 8965SOL     OW27793   1.802   4.961   1.027
 8965SOL    HW127794   1.795   4.939   0.930
 8965SOL    HW227795   1.874   5.029   1.041
 8966SOL     OW27796   1.689   3.914   5.403
 8966SOL    HW127797   1.693   3.814   5.403
 8966SOL    HW227798   1.771   3.951   5.447
 8967SOL     OW27799   3.285   6.024   1.586
 8967SOL    HW127800   3.232   6.078   1.521
 8967SOL    HW227801   3.368   5.991   1.541
 8968SOL     OW27802   5.205   5.297   2.320
 8968SOL    HW127803   5.188   5.215   2.265
 8968SOL    HW227804   5.226   5.272   2.414
 8969SOL     OW27805   6.446   0.140   4.073
 8969SOL    HW127806   6.395   0.128   3.988
 8969SOL    HW227807   6.465   0.237   4.086
 8970SOL     OW27808   3.097   2.295   0.653
 8970SOL    HW127809   3.113   2.232   0.577
 8970SOL    HW227810   3.182   2.308   0.703
 8971SOL     OW27811   3.791   5.344   2.285
 8971SOL    HW127812   3.845   5.423   2.314
 8971SOL    HW227813   3.694   5.367   2.286
 8972SOL     OW27814   4.875   5.806   6.159
 8972SOL    HW127815   4.896   5.766   6.248
 8972SOL    HW227816   4.950   5.868   6.132
 8973SOL     OW27817   1.198   3.383   2.148
 8973SOL    HW127818   1.244   3.413   2.232
 8973SOL    HW227819   1.106   3.350   2.170
 8974SOL     OW27820   1.201   4.367   5.547
 8974SOL    HW127821   1.250   4.345   5.631
 8974SOL    HW227822   1.120   4.309   5.540
 8975SOL     OW27823   2.590   0.268   6.910
 8975SOL    HW127824   2.501   0.277   6.955
 8975SOL    HW227825   2.589   0.317   6.823
 8976SOL     OW27826   0.853   5.138   5.142
 8976SOL    HW127827   0.827   5.045   5.115
 8976SOL    HW227828   0.811   5.160   5.230
 8977SOL     OW27829   5.810   1.417   6.798
 8977SOL    HW127830   5.819   1.450   6.704
 8977SOL    HW227831   5.898   1.381   6.829
 8978SOL     OW27832   6.212   6.944   6.564
 8978SOL    HW127833   6.237   6.891   6.645
 8978SOL    HW227834   6.294   6.960   6.508
 8979SOL     OW27835   1.410   3.179   4.376
 8979SOL    HW127836   1.382   3.087   4.405
 8979SOL    HW227837   1.498   3.174   4.330
 8980SOL     OW27838   2.291   3.220   5.345
 8980SOL    HW127839   2.211   3.236   5.288
 8980SOL    HW227840   2.353   3.157   5.298
 8981SOL     OW27841   3.945   1.792   5.009
 8981SOL    HW127842   3.968   1.824   4.917
 8981SOL    HW227843   3.847   1.773   5.014
 8982SOL     OW27844   1.372   2.547   0.502
 8982SOL    HW127845   1.279   2.574   0.476
 8982SOL    HW227846   1.435   2.572   0.428
 8983SOL     OW27847   2.549   6.367   6.201
 8983SOL    HW127848   2.581   6.331   6.113
 8983SOL    HW227849   2.504   6.455   6.188
 8984SOL     OW27850   0.811   6.790   4.083
 8984SOL    HW127851   0.790   6.701   4.045
 8984SOL    HW227852   0.726   6.842   4.093
 8985SOL     OW27853   3.712   1.965   0.485
 8985SOL    HW127854   3.789   1.910   0.454
 8985SOL    HW227855   3.740   2.060   0.496
 8986SOL     OW27856   4.282   5.560   2.835
 8986SOL    HW127857   4.241   5.568   2.926
 8986SOL    HW227858   4.252   5.475   2.792
 8987SOL     OW27859   4.379   6.541   1.774
 8987SOL    HW127860   4.471   6.515   1.744
 8987SOL    HW227861   4.369   6.525   1.872
 8988SOL     OW27862   1.174   4.732   4.765
 8988SOL    HW127863   1.240   4.719   4.692
 8988SOL    HW227864   1.222   4.739   4.853
 8989SOL     OW27865   4.788   3.440   0.414
 8989SOL    HW127866   4.764   3.347   0.440
 8989SOL    HW227867   4.757   3.458   0.321
 8990SOL     OW27868   1.484   5.474   4.681
 8990SOL    HW127869   1.403   5.518   4.718
 8990SOL    HW227870   1.518   5.526   4.602
 8991SOL     OW27871   1.727   2.785   4.555
 8991SOL    HW127872   1.784   2.749   4.629
 8991SOL    HW227873   1.783   2.801   4.474
 8992SOL     OW27874   4.523   1.198   0.646
 8992SOL    HW127875   4.608   1.230   0.690
 8992SOL    HW227876   4.457   1.273   0.643
 8993SOL     OW27877   4.701   2.355   0.827
 8993SOL    HW127878   4.697   2.304   0.741
 8993SOL    HW227879   4.647   2.439   0.819
 8994SOL     OW27880   1.474   4.114   5.542
 8994SOL    HW127881   1.518   4.033   5.582
 8994SOL    HW227882   1.529   4.148   5.466
 8995SOL     OW27883   1.000   2.267   0.031
 8995SOL    HW127884   1.013   2.255   0.130
 8995SOL    HW227885   0.942   2.193   7.015
 8996SOL     OW27886   5.036   4.082   6.743
 8996SOL    HW127887   4.999   3.989   6.736
 8996SOL    HW227888   5.132   4.078   6.771
 8997SOL     OW27889   5.050   2.053   6.421
 8997SOL    HW127890   5.078   1.984   6.488
 8997SOL    HW227891   4.998   2.124   6.467
 8998SOL     OW27892   6.374   3.524   4.313
 8998SOL    HW127893   6.366   3.624   4.320
 8998SOL    HW227894   6.396   3.499   4.219
 8999SOL     OW27895   4.958   6.460   6.422
 8999SOL    HW127896   4.867   6.459   6.463
 8999SOL    HW227897   4.967   6.540   6.363
 9000SOL     OW27898   1.657   3.388   1.929
 9000SOL    HW127899   1.675   3.336   1.845
 9000SOL    HW227900   1.709   3.474   1.926
 9001SOL     OW27901   1.277   4.622   2.268
 9001SOL    HW127902   1.219   4.542   2.248
 9001SOL    HW227903   1.372   4.598   2.249
 9002SOL     OW27904   1.749   5.064   4.963
 9002SOL    HW127905   1.680   5.073   5.034
 9002SOL    HW227906   1.767   5.154   4.923
 9003SOL     OW27907   5.730   4.044   1.902
 9003SOL    HW127908   5.682   3.962   1.869
 9003SOL    HW227909   5.827   4.037   1.878
 9004SOL     OW27910   4.238   5.668   1.001
 9004SOL    HW127911   4.321   5.670   1.057
 9004SOL    HW227912   4.161   5.704   1.054
 9005SOL     OW27913   6.583   1.961   5.249
 9005SOL    HW127914   6.652   2.027   5.277
 9005SOL    HW227915   6.626   1.873   5.229
 9006SOL     OW27916   2.063   5.752   1.277
 9006SOL    HW127917   2.137   5.810   1.311
 9006SOL    HW227918   1.986   5.810   1.249
 9007SOL     OW27919   3.459   0.840   3.272
 9007SOL    HW127920   3.549   0.825   3.232
 9007SOL    HW227921   3.443   0.938   3.285
 9008SOL     OW27922   1.000   5.374   3.021
 9008SOL    HW127923   1.057   5.446   2.983
 9008SOL    HW227924   0.904   5.396   3.006
 9009SOL     OW27925   2.895   5.729   0.798
 9009SOL    HW127926   2.824   5.660   0.795
 9009SOL    HW227927   2.976   5.693   0.845
 9010SOL     OW27928   1.568   6.571   4.166
 9010SOL    HW127929   1.529   6.596   4.254
 9010SOL    HW227930   1.566   6.471   4.156
 9011SOL     OW27931   4.993   1.130   1.014
 9011SOL    HW127932   5.021   1.164   1.103
 9011SOL    HW227933   4.894   1.141   1.003
 9012SOL     OW27934   2.346   4.759   7.006
 9012SOL    HW127935   2.382   4.744   6.915
 9012SOL    HW227936   2.421   4.767   0.053
 9013SOL     OW27937   0.123   0.172   6.121
 9013SOL    HW127938   0.140   0.239   6.049
 9013SOL    HW227939   0.196   0.177   6.189
 9014SOL     OW27940   6.932   2.124   0.962
 9014SOL    HW127941   6.925   2.033   0.923
 9014SOL    HW227942   6.931   2.118   1.062
 9015SOL     OW27943   4.568   2.449   1.732
 9015SOL    HW127944   4.554   2.544   1.703
 9015SOL    HW227945   4.487   2.419   1.783
 9016SOL     OW27946   6.811   6.371   6.809
 9016SOL    HW127947   6.836   6.467   6.821
 9016SOL    HW227948   6.713   6.364   6.790
 9017SOL     OW27949   4.641   1.619   4.197
 9017SOL    HW127950   4.585   1.676   4.136
 9017SOL    HW227951   4.581   1.562   4.252
 9018SOL     OW27952   2.615   3.344   6.026
 9018SOL    HW127953   2.528   3.381   6.060
 9018SOL    HW227954   2.601   3.251   5.991
 9019SOL     OW27955   1.665   5.064   2.528
 9019SOL    HW127956   1.736   4.994   2.536
 9019SOL    HW227957   1.575   5.021   2.528
 9020SOL     OW27958   0.079   3.744   1.223
 9020SOL    HW127959   0.004   3.683   1.251
 9020SOL    HW227960   0.129   3.702   1.147
 9021SOL     OW27961   6.783   0.859   3.808
 9021SOL    HW127962   6.688   0.891   3.799
 9021SOL    HW227963   6.802   0.792   3.737
 9022SOL     OW27964   2.789   1.067   7.017
 9022SOL    HW127965   2.697   1.104   7.005
 9022SOL    HW227966   2.816   1.017   6.934
 9023SOL     OW27967   3.536   3.371   1.863
 9023SOL    HW127968   3.625   3.345   1.826
 9023SOL    HW227969   3.530   3.470   1.872
 9024SOL     OW27970   1.597   3.840   5.847
 9024SOL    HW127971   1.646   3.915   5.801
 9024SOL    HW227972   1.659   3.793   5.910
 9025SOL     OW27973   0.463   5.308   0.565
 9025SOL    HW127974   0.560   5.307   0.540
 9025SOL    HW227975   0.408   5.323   0.483
 9026SOL     OW27976   3.211   2.688   0.861
 9026SOL    HW127977   3.172   2.723   0.946
 9026SOL    HW227978   3.178   2.743   0.784
 9027SOL     OW27979   0.652   3.236   2.592
 9027SOL    HW127980   0.721   3.171   2.559
 9027SOL    HW227981   0.683   3.329   2.574
 9028SOL     OW27982   2.958   2.902   5.416
 9028SOL    HW127983   3.053   2.874   5.433
 9028SOL    HW227984   2.957   2.984   5.359
 9029SOL     OW27985   3.519   6.877   5.150
 9029SOL    HW127986   3.615   6.906   5.155
 9029SOL    HW227987   3.465   6.948   5.105
 9030SOL     OW27988   2.204   2.123   3.611
 9030SOL    HW127989   2.147   2.147   3.532
 9030SOL    HW227990   2.145   2.100   3.689
 9031SOL     OW27991   4.312   6.068   4.055
 9031SOL    HW127992   4.310   5.971   4.083
 9031SOL    HW227993   4.279   6.124   4.131
 9032SOL     OW27994   4.783   4.076   0.988
 9032SOL    HW127995   4.849   4.084   0.913
 9032SOL    HW227996   4.728   3.993   0.975
 9033SOL     OW27997   0.524   4.122   2.643
 9033SOL    HW127998   0.439   4.116   2.591
 9033SOL    HW227999   0.532   4.212   2.685
 9034SOL     OW28000   2.878   5.855   4.444
 9034SOL    HW128001   2.785   5.853   4.481
 9034SOL    HW228002   2.924   5.768   4.462
 9035SOL     OW28003   2.714   4.752   6.980
 9035SOL    HW128004   2.710   4.662   6.936
 9035SOL    HW228005   2.769   4.746   0.044
 9036SOL     OW28006   2.214   3.230   5.818
 9036SOL    HW128007   2.194   3.328   5.810
 9036SOL    HW228008   2.268   3.201   5.739
 9037SOL     OW28009   1.183   4.253   4.118
 9037SOL    HW128010   1.130   4.273   4.200
 9037SOL    HW228011   1.195   4.154   4.110
 9038SOL     OW28012   4.509   1.930   6.334
 9038SOL    HW128013   4.504   1.838   6.295
 9038SOL    HW228014   4.564   1.927   6.417
 9039SOL     OW28015   2.373   4.819   6.392
 9039SOL    HW128016   2.458   4.808   6.341
 9039SOL    HW228017   2.313   4.740   6.375
 9040SOL     OW28018   2.535   2.426   2.748
 9040SOL    HW128019   2.511   2.485   2.825
 9040SOL    HW228020   2.544   2.481   2.665
 9041SOL     OW28021   1.118   2.536   0.990
 9041SOL    HW128022   1.091   2.625   1.028
 9041SOL    HW228023   1.201   2.504   1.037
 9042SOL     OW28024   4.130   0.256   4.312
 9042SOL    HW128025   4.205   0.190   4.320
 9042SOL    HW228026   4.075   0.254   4.395
 9043SOL     OW28027   2.126   1.042   6.264
 9043SOL    HW128028   2.095   1.120   6.209
 9043SOL    HW228029   2.082   1.046   6.354
 9044SOL     OW28030   6.611   0.464   0.742
 9044SOL    HW128031   6.702   0.468   0.701
 9044SOL    HW228032   6.573   0.372   0.732
 9045SOL     OW28033   3.483   1.320   2.497
 9045SOL    HW128034   3.565   1.367   2.464
 9045SOL    HW228035   3.447   1.369   2.577
 9046SOL     OW28036   3.568   4.091   2.969
 9046SOL    HW128037   3.665   4.079   2.948
 9046SOL    HW228038   3.558   4.116   3.066
 9047SOL     OW28039   1.712   3.649   4.711
 9047SOL    HW128040   1.647   3.619   4.641
 9047SOL    HW228041   1.661   3.693   4.786
 9048SOL     OW28042   6.814   3.293   6.352
 9048SOL    HW128043   6.870   3.374   6.336
 9048SOL    HW228044   6.731   3.319   6.402
 9049SOL     OW28045   4.211   6.540   5.755
 9049SOL    HW128046   4.162   6.609   5.702
 9049SOL    HW228047   4.147   6.489   5.812
 9050SOL     OW28048   0.750   3.897   1.139
 9050SOL    HW128049   0.754   3.842   1.222
 9050SOL    HW228050   0.729   3.992   1.163
 9051SOL     OW28051   3.105   0.154   1.414
 9051SOL    HW128052   3.109   0.063   1.456
 9051SOL    HW228053   3.063   0.147   1.323
 9052SOL     OW28054   2.366   2.775   3.729
 9052SOL    HW128055   2.414   2.687   3.731
 9052SOL    HW228056   2.368   2.816   3.820
 9053SOL     OW28057   2.253   1.317   2.351
 9053SOL    HW128058   2.257   1.397   2.291
 9053SOL    HW228059   2.302   1.337   2.436
 9054SOL     OW28060   3.186   5.599   4.204
 9054SOL    HW128061   3.104   5.555   4.239
 9054SOL    HW228062   3.188   5.695   4.234
 9055SOL     OW28063   5.659   2.013   4.225
 9055SOL    HW128064   5.603   2.079   4.274
 9055SOL    HW228065   5.690   2.052   4.138
 9056SOL     OW28066   0.334   2.281   1.447
 9056SOL    HW128067   0.399   2.250   1.516
 9056SOL    HW228068   0.267   2.209   1.429
 9057SOL     OW28069   4.674   2.912   5.343
 9057SOL    HW128070   4.694   2.961   5.258
 9057SOL    HW228071   4.647   2.818   5.321
 9058SOL     OW28072   1.675   1.168   1.732
 9058SOL    HW128073   1.632   1.079   1.719
 9058SOL    HW228074   1.719   1.171   1.822
 9059SOL     OW28075   1.243   2.514   2.769
 9059SOL    HW128076   1.323   2.521   2.710
 9059SOL    HW228077   1.210   2.605   2.791
 9060SOL     OW28078   5.942   2.615   4.496
 9060SOL    HW128079   5.987   2.571   4.573
 9060SOL    HW228080   5.900   2.701   4.526
 9061SOL     OW28081   2.807   5.547   2.287
 9061SOL    HW128082   2.897   5.509   2.265
 9061SOL    HW228083   2.788   5.534   2.384
 9062SOL     OW28084   1.227   6.168   2.257
 9062SOL    HW128085   1.288   6.247   2.250
 9062SOL    HW228086   1.205   6.151   2.353
 9063SOL     OW28087   3.053   0.588   4.197
 9063SOL    HW128088   2.976   0.541   4.240
 9063SOL    HW228089   3.030   0.685   4.185
 9064SOL     OW28090   6.007   3.457   6.458
 9064SOL    HW128091   6.044   3.364   6.462
 9064SOL    HW228092   5.922   3.462   6.511
 9065SOL     OW28093   3.890   0.670   0.171
 9065SOL    HW128094   3.943   0.615   0.107
 9065SOL    HW228095   3.937   0.671   0.260
 9066SOL     OW28096   5.058   6.875   0.254
 9066SOL    HW128097   4.975   6.894   0.203
 9066SOL    HW228098   5.126   6.946   0.235
 9067SOL     OW28099   0.979   0.670   3.563
 9067SOL    HW128100   0.902   0.708   3.511
 9067SOL    HW228101   0.966   0.692   3.660
 9068SOL     OW28102   1.671   6.332   4.616
 9068SOL    HW128103   1.631   6.410   4.663
 9068SOL    HW228104   1.640   6.247   4.659
 9069SOL     OW28105   1.354   3.178   0.796
 9069SOL    HW128106   1.274   3.219   0.840
 9069SOL    HW228107   1.387   3.102   0.851
 9070SOL     OW28108   1.645   3.615   5.109
 9070SOL    HW128109   1.606   3.524   5.090
 9070SOL    HW228110   1.611   3.681   5.043
 9071SOL     OW28111   6.655   6.386   1.104
 9071SOL    HW128112   6.617   6.463   1.156
 9071SOL    HW228113   6.724   6.420   1.040
 9072SOL     OW28114   0.371   2.705   0.875
 9072SOL    HW128115   0.401   2.769   0.804
 9072SOL    HW228116   0.394   2.611   0.847
 9073SOL     OW28117   2.334   0.151   2.400
 9073SOL    HW128118   2.305   0.158   2.304
 9073SOL    HW228119   2.415   0.092   2.406
 9074SOL     OW28120   0.824   0.320   2.364
 9074SOL    HW128121   0.742   0.364   2.328
 9074SOL    HW228122   0.895   0.319   2.293
 9075SOL     OW28123   0.045   1.391   2.342
 9075SOL    HW128124   0.105   1.448   2.397
 9075SOL    HW228125   0.028   1.305   2.390
 9076SOL     OW28126   7.001   1.191   6.350
 9076SOL    HW128127   6.910   1.155   6.372
 9076SOL    HW228128   6.992   1.275   6.297
 9077SOL     OW28129   4.518   6.861   1.371
 9077SOL    HW128130   4.529   6.834   1.466
 9077SOL    HW228131   4.438   6.920   1.361
 9078SOL     OW28132   3.319   3.230   4.784
 9078SOL    HW128133   3.256   3.159   4.751
 9078SOL    HW228134   3.272   3.318   4.786
 9079SOL     OW28135   2.677   0.719   4.616
 9079SOL    HW128136   2.581   0.708   4.588
 9079SOL    HW228137   2.707   0.638   4.665
 9080SOL     OW28138   5.425   2.919   6.532
 9080SOL    HW128139   5.395   2.825   6.523
 9080SOL    HW228140   5.405   2.952   6.624
 9081SOL     OW28141   5.098   6.301   2.184
 9081SOL    HW128142   5.062   6.345   2.267
 9081SOL    HW228143   5.096   6.367   2.108
 9082SOL     OW28144   1.707   0.594   4.888
 9082SOL    HW128145   1.649   0.552   4.958
 9082SOL    HW228146   1.716   0.532   4.811
 9083SOL     OW28147   4.379   4.859   6.009
 9083SOL    HW128148   4.355   4.849   6.106
 9083SOL    HW228149   4.442   4.935   5.998
 9084SOL     OW28150   3.762   3.632   3.114
 9084SOL    HW128151   3.685   3.610   3.174
 9084SOL    HW228152   3.740   3.713   3.061
 9085SOL     OW28153   2.274   0.481   0.730
 9085SOL    HW128154   2.194   0.439   0.773
 9085SOL    HW228155   2.248   0.515   0.640
 9086SOL     OW28156   0.526   4.431   0.455
 9086SOL    HW128157   0.493   4.341   0.485
 9086SOL    HW228158   0.539   4.431   0.356
 9087SOL     OW28159   4.884   2.790   1.919
 9087SOL    HW128160   4.930   2.861   1.865
 9087SOL    HW228161   4.806   2.830   1.967
 9088SOL     OW28162   6.310   0.142   1.191
 9088SOL    HW128163   6.380   0.070   1.184
 9088SOL    HW228164   6.328   0.212   1.122
 9089SOL     OW28165   5.305   6.576   5.427
 9089SOL    HW128166   5.207   6.560   5.412
 9089SOL    HW228167   5.336   6.651   5.369
 9090SOL     OW28168   6.033   1.262   5.697
 9090SOL    HW128169   5.975   1.271   5.778
 9090SOL    HW228170   5.983   1.213   5.626
 9091SOL     OW28171   2.584   3.700   6.771
 9091SOL    HW128172   2.654   3.633   6.748
 9091SOL    HW228173   2.562   3.692   6.869
 9092SOL     OW28174   6.503   1.117   0.423
 9092SOL    HW128175   6.428   1.051   0.426
 9092SOL    HW228176   6.492   1.184   0.497
 9093SOL     OW28177   1.860   6.046   5.359
 9093SOL    HW128178   1.760   6.052   5.362
 9093SOL    HW228179   1.891   5.964   5.408
 9094SOL     OW28180   6.938   4.172   2.578
 9094SOL    HW128181   6.920   4.269   2.560
 9094SOL    HW228182   0.017   4.159   2.594
 9095SOL     OW28183   4.946   4.696   6.135
 9095SOL    HW128184   4.883   4.625   6.167
 9095SOL    HW228185   4.985   4.669   6.047
 9096SOL     OW28186   6.976   5.313   3.417
 9096SOL    HW128187   6.961   5.372   3.496
 9096SOL    HW228188   6.964   5.366   3.333
 9097SOL     OW28189   1.953   1.873   6.726
 9097SOL    HW128190   2.012   1.931   6.782
 9097SOL    HW228191   1.999   1.786   6.708
 9098SOL     OW28192   2.538   2.203   5.028
 9098SOL    HW128193   2.477   2.278   5.002
 9098SOL    HW228194   2.577   2.222   5.118
 9099SOL     OW28195   2.489   2.885   6.533
 9099SOL    HW128196   2.558   2.814   6.519
 9099SOL    HW228197   2.439   2.900   6.448
 9100SOL     OW28198   1.096   3.718   2.020
 9100SOL    HW128199   1.161   3.646   1.996
 9100SOL    HW228200   1.039   3.739   1.941
 9101SOL     OW28201   2.539   1.318   2.486
 9101SOL    HW128202   2.540   1.365   2.397
 9101SOL    HW228203   2.517   1.383   2.558
 9102SOL     OW28204   4.090   6.907   1.931
 9102SOL    HW128205   4.032   6.826   1.937
 9102SOL    HW228206   4.179   6.888   1.973
 9103SOL     OW28207   5.661   1.540   6.999
 9103SOL    HW128208   5.713   1.478   6.941
 9103SOL    HW228209   5.723   1.591   0.040
 9104SOL     OW28210   6.986   6.986   2.030
 9104SOL    HW128211   0.027   6.913   2.064
 9104SOL    HW228212   0.016   0.055   2.036
 9105SOL     OW28213   1.023   6.560   5.113
 9105SOL    HW128214   0.929   6.542   5.085
 9105SOL    HW228215   1.072   6.473   5.121
 9106SOL     OW28216   0.823   3.856   6.952
 9106SOL    HW128217   0.761   3.784   6.922
 9106SOL    HW228218   0.787   3.945   6.923
 9107SOL     OW28219   1.858   0.855   6.491
 9107SOL    HW128220   1.801   0.777   6.514
 9107SOL    HW228221   1.954   0.834   6.512
 9108SOL     OW28222   5.198   4.300   5.437
 9108SOL    HW128223   5.270   4.367   5.417
 9108SOL    HW228224   5.118   4.348   5.473
 9109SOL     OW28225   4.800   2.805   2.437
 9109SOL    HW128226   4.750   2.758   2.365
 9109SOL    HW228227   4.791   2.904   2.425
 9110SOL     OW28228   0.776   5.604   4.439
 9110SOL    HW128229   0.694   5.585   4.492
 9110SOL    HW228230   0.786   5.534   4.368
 9111SOL     OW28231   4.708   3.026   6.292
 9111SOL    HW128232   4.759   3.074   6.221
 9111SOL    HW228233   4.666   2.944   6.253
 9112SOL     OW28234   1.375   4.867   2.811
 9112SOL    HW128235   1.385   4.876   2.712
 9112SOL    HW228236   1.465   4.862   2.854
 9113SOL     OW28237   5.784   2.724   3.906
 9113SOL    HW128238   5.838   2.663   3.965
 9113SOL    HW228239   5.756   2.675   3.824
 9114SOL     OW28240   1.182   6.308   3.823
 9114SOL    HW128241   1.163   6.228   3.767
 9114SOL    HW228242   1.098   6.360   3.836
 9115SOL     OW28243   5.917   5.163   3.223
 9115SOL    HW128244   5.849   5.094   3.196
 9115SOL    HW228245   5.901   5.189   3.318
 9116SOL     OW28246   0.590   0.077   3.018
 9116SOL    HW128247   0.672   0.129   2.993
 9116SOL    HW228248   0.538   0.128   3.086
 9117SOL     OW28249   4.161   1.672   6.299
 9117SOL    HW128250   4.201   1.702   6.386
 9117SOL    HW228251   4.070   1.714   6.289
 9118SOL     OW28252   6.017   3.959   0.743
 9118SOL    HW128253   6.025   3.859   0.748
 9118SOL    HW228254   6.107   4.000   0.761
 9119SOL     OW28255   3.964   6.911   1.277
 9119SOL    HW128256   3.899   6.944   1.209
 9119SOL    HW228257   4.055   6.946   1.257
 9120SOL     OW28258   6.742   3.129   6.165
 9120SOL    HW128259   6.782   3.199   6.224
 9120SOL    HW228260   6.815   3.086   6.111
 9121SOL     OW28261   3.901   0.426   5.465
 9121SOL    HW128262   3.990   0.385   5.445
 9121SOL    HW228263   3.829   0.372   5.423
 9122SOL     OW28264   2.121   3.991   2.012
 9122SOL    HW128265   2.141   3.897   2.040
 9122SOL    HW228266   2.087   4.043   2.090
 9123SOL     OW28267   1.442   0.539   3.251
 9123SOL    HW128268   1.475   0.494   3.168
 9123SOL    HW228269   1.461   0.637   3.245
 9124SOL     OW28270   3.572   4.988   1.814
 9124SOL    HW128271   3.618   4.990   1.725
 9124SOL    HW228272   3.602   4.907   1.865
 9125SOL     OW28273   3.634   5.898   0.299
 9125SOL    HW128274   3.703   5.836   0.336
 9125SOL    HW228275   3.581   5.851   0.228
 9126SOL     OW28276   4.392   4.604   1.039
 9126SOL    HW128277   4.480   4.567   1.010
 9126SOL    HW228278   4.366   4.561   1.126
 9127SOL     OW28279   6.638   3.153   5.153
 9127SOL    HW128280   6.729   3.129   5.118
 9127SOL    HW228281   6.587   3.201   5.082
 9128SOL     OW28282   6.162   2.794   4.577
 9128SOL    HW128283   6.112   2.736   4.641
 9128SOL    HW228284   6.101   2.866   4.543
 9129SOL     OW28285   1.707   1.973   1.115
 9129SOL    HW128286   1.733   1.946   1.208
 9129SOL    HW228287   1.614   1.942   1.097
 9130SOL     OW28288   2.381   4.052   5.546
 9130SOL    HW128289   2.323   4.076   5.468
 9130SOL    HW228290   2.327   4.005   5.616
 9131SOL     OW28291   5.314   2.627   0.345
 9131SOL    HW128292   5.384   2.676   0.294
 9131SOL    HW228293   5.352   2.595   0.432
 9132SOL     OW28294   0.933   4.826   3.906
 9132SOL    HW128295   0.999   4.873   3.847
 9132SOL    HW228296   0.864   4.892   3.938
 9133SOL     OW28297   3.367   0.419   1.036
 9133SOL    HW128298   3.390   0.496   0.977
 9133SOL    HW228299   3.316   0.451   1.116
 9134SOL     OW28300   4.574   5.110   0.984
 9134SOL    HW128301   4.659   5.149   0.950
 9134SOL    HW228302   4.500   5.132   0.920
 9135SOL     OW28303   0.947   6.196   2.209
 9135SOL    HW128304   0.911   6.288   2.197
 9135SOL    HW228305   1.041   6.200   2.243
 9136SOL     OW28306   5.204   4.815   6.271
 9136SOL    HW128307   5.138   4.750   6.235
 9136SOL    HW228308   5.180   4.838   6.366
 9137SOL     OW28309   5.010   6.221   6.123
 9137SOL    HW128310   5.080   6.206   6.193
 9137SOL    HW228311   4.922   6.238   6.167
 9138SOL     OW28312   2.048   2.774   0.292
 9138SOL    HW128313   2.003   2.781   0.381
 9138SOL    HW228314   2.010   2.698   0.240
 9139SOL     OW28315   0.260   0.828   1.213
 9139SOL    HW128316   0.297   0.859   1.125
 9139SOL    HW228317   0.186   0.889   1.241
 9140SOL     OW28318   0.775   4.563   1.997
 9140SOL    HW128319   0.704   4.581   2.065
 9140SOL    HW228320   0.820   4.648   1.972
 9141SOL     OW28321   0.242   5.723   6.306
 9141SOL    HW128322   0.167   5.777   6.344
 9141SOL    HW228323   0.211   5.629   6.292
 9142SOL     OW28324   0.670   3.296   2.905
 9142SOL    HW128325   0.645   3.299   2.808
 9142SOL    HW228326   0.607   3.237   2.954
 9143SOL     OW28327   0.120   3.957   2.127
 9143SOL    HW128328   0.085   3.955   2.034
 9143SOL    HW228329   0.211   3.915   2.130
 9144SOL     OW28330   3.087   5.179   4.363
 9144SOL    HW128331   3.161   5.155   4.301
 9144SOL    HW228332   3.120   5.181   4.457
 9145SOL     OW28333   1.309   6.753   6.322
 9145SOL    HW128334   1.311   6.817   6.245
 9145SOL    HW228335   1.256   6.672   6.296
 9146SOL     OW28336   5.956   3.162   3.552
 9146SOL    HW128337   5.986   3.110   3.472
 9146SOL    HW228338   5.971   3.107   3.634
 9147SOL     OW28339   5.712   0.010   4.387
 9147SOL    HW128340   5.717   0.095   4.439
 9147SOL    HW228341   5.782   0.012   4.314
 9148SOL     OW28342   6.345   0.162   1.998
 9148SOL    HW128343   6.413   0.095   2.027
 9148SOL    HW228344   6.385   0.254   2.002
 9149SOL     OW28345   6.129   2.811   1.099
 9149SOL    HW128346   6.219   2.855   1.097
 9149SOL    HW228347   6.064   2.870   1.146
 9150SOL     OW28348   2.701   3.961   0.005
 9150SOL    HW128349   2.779   4.019   7.002
 9150SOL    HW228350   2.626   3.981   6.960
 9151SOL     OW28351   2.091   3.903   3.754
 9151SOL    HW128352   2.002   3.891   3.798
 9151SOL    HW228353   2.125   3.814   3.721
 9152SOL     OW28354   2.176   3.809   4.209
 9152SOL    HW128355   2.192   3.754   4.291
 9152SOL    HW228356   2.079   3.831   4.201
 9153SOL     OW28357   0.246   2.078   6.597
 9153SOL    HW128358   0.338   2.105   6.623
 9153SOL    HW228359   0.235   1.980   6.611
 9154SOL     OW28360   6.323   5.399   3.205
 9154SOL    HW128361   6.270   5.320   3.172
 9154SOL    HW228362   6.264   5.458   3.260
 9155SOL     OW28363   1.686   5.635   2.626
 9155SOL    HW128364   1.743   5.559   2.594
 9155SOL    HW228365   1.738   5.692   2.689
 9156SOL     OW28366   6.792   3.483   0.830
 9156SOL    HW128367   6.713   3.506   0.773
 9156SOL    HW228368   6.875   3.516   0.786
 9157SOL     OW28369   3.313   4.184   6.181
 9157SOL    HW128370   3.355   4.228   6.102
 9157SOL    HW228371   3.309   4.085   6.167
 9158SOL     OW28372   6.755   3.878   3.965
 9158SOL    HW128373   6.763   3.893   3.866
 9158SOL    HW228374   6.665   3.909   3.996
 9159SOL     OW28375   3.033   6.902   3.178
 9159SOL    HW128376   3.121   6.884   3.221
 9159SOL    HW228377   2.966   6.928   3.248
 9160SOL     OW28378   0.839   4.898   6.622
 9160SOL    HW128379   0.841   4.865   6.528
 9160SOL    HW228380   0.772   4.972   6.630
 9161SOL     OW28381   5.703   3.752   1.904
 9161SOL    HW128382   5.789   3.743   1.954
 9161SOL    HW228383   5.626   3.742   1.966
 9162SOL     OW28384   4.240   1.658   2.493
 9162SOL    HW128385   4.265   1.753   2.473
 9162SOL    HW228386   4.173   1.656   2.568
 9163SOL     OW28387   0.835   2.526   2.622
 9163SOL    HW128388   0.911   2.489   2.677
 9163SOL    HW228389   0.870   2.599   2.563
 9164SOL     OW28390   2.204   0.329   6.493
 9164SOL    HW128391   2.204   0.236   6.458
 9164SOL    HW228392   2.114   0.370   6.478
 9165SOL     OW28393   4.991   2.583   4.962
 9165SOL    HW128394   5.065   2.516   4.962
 9165SOL    HW228395   5.014   2.659   4.902
 9166SOL     OW28396   4.805   5.717   1.870
 9166SOL    HW128397   4.749   5.694   1.791
 9166SOL    HW228398   4.745   5.740   1.947
 9167SOL     OW28399   0.937   1.034   5.778
 9167SOL    HW128400   0.982   1.122   5.796
 9167SOL    HW228401   1.002   0.960   5.796
 9168SOL     OW28402   6.588   5.323   4.712
 9168SOL    HW128403   6.491   5.303   4.723
 9168SOL    HW228404   6.622   5.279   4.629
 9169SOL     OW28405   6.118   5.481   6.620
 9169SOL    HW128406   6.091   5.556   6.679
 9169SOL    HW228407   6.200   5.507   6.568
 9170SOL     OW28408   1.441   1.563   6.186
 9170SOL    HW128409   1.395   1.483   6.146
 9170SOL    HW228410   1.516   1.532   6.243
 9171SOL     OW28411   2.886   5.029   0.792
 9171SOL    HW128412   2.938   4.945   0.774
 9171SOL    HW228413   2.892   5.051   0.890
 9172SOL     OW28414   5.467   1.245   4.691
 9172SOL    HW128415   5.555   1.216   4.655
 9172SOL    HW228416   5.397   1.177   4.666
 9173SOL     OW28417   6.315   2.597   3.675
 9173SOL    HW128418   6.270   2.582   3.763
 9173SOL    HW228419   6.281   2.532   3.608
 9174SOL     OW28420   0.959   5.703   6.880
 9174SOL    HW128421   0.984   5.789   6.925
 9174SOL    HW228422   1.029   5.680   6.812
 9175SOL     OW28423   1.971   6.843   0.619
 9175SOL    HW128424   1.977   6.751   0.659
 9175SOL    HW228425   2.060   6.888   0.627
 9176SOL     OW28426   1.996   1.180   3.067
 9176SOL    HW128427   1.897   1.177   3.071
 9176SOL    HW228428   2.033   1.089   3.088
 9177SOL     OW28429   0.503   4.778   4.003
 9177SOL    HW128430   0.551   4.693   3.978
 9177SOL    HW228431   0.522   4.799   4.099
 9178SOL     OW28432   2.313   6.377   0.086
 9178SOL    HW128433   2.359   6.439   0.150
 9178SOL    HW228434   2.228   6.418   0.054
 9179SOL     OW28435   4.241   6.310   5.421
 9179SOL    HW128436   4.325   6.288   5.470
 9179SOL    HW228437   4.255   6.391   5.364
 9180SOL     OW28438   6.888   1.580   4.171
 9180SOL    HW128439   6.905   1.661   4.228
 9180SOL    HW228440   6.824   1.519   4.217
 9181SOL     OW28441   4.327   1.819   3.514
 9181SOL    HW128442   4.341   1.765   3.431
 9181SOL    HW228443   4.416   1.841   3.554
 9182SOL     OW28444   2.038   1.454   3.052
 9182SOL    HW128445   2.036   1.354   3.058
 9182SOL    HW228446   2.128   1.487   3.080
 9183SOL     OW28447   5.567   2.644   6.630
 9183SOL    HW128448   5.624   2.565   6.654
 9183SOL    HW228449   5.545   2.695   6.713
 9184SOL     OW28450   3.108   3.029   0.827
 9184SOL    HW128451   3.079   3.056   0.919
 9184SOL    HW228452   3.139   3.109   0.777
 9185SOL     OW28453   0.449   0.813   6.772
 9185SOL    HW128454   0.483   0.792   6.863
 9185SOL    HW228455   0.391   0.738   6.740
 9186SOL     OW28456   5.162   0.330   6.663
 9186SOL    HW128457   5.087   0.348   6.726
 9186SOL    HW228458   5.170   0.405   6.597
 9187SOL     OW28459   4.701   1.529   6.792
 9187SOL    HW128460   4.787   1.485   6.819
 9187SOL    HW228461   4.694   1.618   6.838
 9188SOL     OW28462   1.184   0.219   1.525
 9188SOL    HW128463   1.098   0.219   1.575
 9188SOL    HW228464   1.177   0.159   1.445
 9189SOL     OW28465   2.781   1.221   3.336
 9189SOL    HW128466   2.748   1.314   3.321
 9189SOL    HW228467   2.867   1.224   3.386
 9190SOL     OW28468   5.684   3.862   5.592
 9190SOL    HW128469   5.777   3.827   5.578
 9190SOL    HW228470   5.683   3.961   5.579
 9191SOL     OW28471   5.761   6.094   6.669
 9191SOL    HW128472   5.687   6.053   6.616
 9191SOL    HW228473   5.844   6.097   6.613
 9192SOL     OW28474   0.205   4.485   6.208
 9192SOL    HW128475   0.108   4.509   6.212
 9192SOL    HW228476   0.222   4.428   6.128
 9193SOL     OW28477   4.061   3.215   3.398
 9193SOL    HW128478   3.962   3.196   3.399
 9193SOL    HW228479   4.087   3.250   3.308
 9194SOL     OW28480   3.154   5.560   2.779
 9194SOL    HW128481   3.153   5.660   2.779
 9194SOL    HW228482   3.218   5.527   2.848
 9195SOL     OW28483   0.269   3.061   3.427
 9195SOL    HW128484   0.332   2.985   3.410
 9195SOL    HW228485   0.235   3.096   3.339
 9196SOL     OW28486   4.072   0.877   3.492
 9196SOL    HW128487   4.011   0.933   3.548
 9196SOL    HW228488   4.167   0.894   3.519
 9197SOL     OW28489   2.568   3.109   6.683
 9197SOL    HW128490   2.550   3.029   6.625
 9197SOL    HW228491   2.485   3.131   6.736
 9198SOL     OW28492   5.691   3.592   5.950
 9198SOL    HW128493   5.699   3.687   5.920
 9198SOL    HW228494   5.618   3.547   5.899
 9199SOL     OW28495   1.624   3.430   6.406
 9199SOL    HW128496   1.690   3.482   6.352
 9199SOL    HW228497   1.536   3.426   6.358
 9200SOL     OW28498   6.673   0.079   0.818
 9200SOL    HW128499   6.683   0.045   0.724
 9200SOL    HW228500   6.760   0.069   0.866
 9201SOL     OW28501   0.055   4.399   1.632
 9201SOL    HW128502   0.114   4.338   1.578
 9201SOL    HW228503   6.985   4.354   1.648
 9202SOL     OW28504   2.438   4.994   4.173
 9202SOL    HW128505   2.453   4.986   4.271
 9202SOL    HW228506   2.485   4.920   4.125
 9203SOL     OW28507   5.607   1.213   6.016
 9203SOL    HW128508   5.697   1.235   5.978
 9203SOL    HW228509   5.552   1.167   5.947
 9204SOL     OW28510   5.491   3.913   3.530
 9204SOL    HW128511   5.545   3.876   3.605
 9204SOL    HW228512   5.445   3.838   3.482
 9205SOL     OW28513   6.034   2.806   3.061
 9205SOL    HW128514   5.981   2.781   3.141
 9205SOL    HW228515   5.987   2.879   3.010
 9206SOL     OW28516   1.940   6.086   3.686
 9206SOL    HW128517   2.010   6.016   3.670
 9206SOL    HW228518   1.931   6.144   3.605
 9207SOL     OW28519   4.278   6.066   6.172
 9207SOL    HW128520   4.253   5.991   6.111
 9207SOL    HW228521   4.368   6.049   6.211
 9208SOL     OW28522   4.906   3.259   2.336
 9208SOL    HW128523   4.873   3.334   2.393
 9208SOL    HW228524   5.006   3.259   2.335
 9209SOL     OW28525   3.956   1.202   2.979
 9209SOL    HW128526   4.002   1.130   2.927
 9209SOL    HW228527   3.887   1.246   2.921
 9210SOL     OW28528   2.098   0.559   1.412
 9210SOL    HW128529   2.001   0.537   1.424
 9210SOL    HW228530   2.144   0.484   1.366
 9211SOL     OW28531   5.015   1.597   6.469
 9211SOL    HW128532   5.020   1.637   6.377
 9211SOL    HW228533   4.932   1.541   6.476
 9212SOL     OW28534   5.301   4.499   4.228
 9212SOL    HW128535   5.260   4.413   4.197
 9212SOL    HW228536   5.237   4.574   4.211
 9213SOL     OW28537   6.061   0.292   3.834
 9213SOL    HW128538   5.993   0.341   3.780
 9213SOL    HW228539   6.065   0.331   3.926
 9214SOL     OW28540   1.468   2.642   4.508
 9214SOL    HW128541   1.557   2.686   4.525
 9214SOL    HW228542   1.439   2.593   4.591
 9215SOL     OW28543   0.629   3.660   2.696
 9215SOL    HW128544   0.550   3.670   2.635
 9215SOL    HW228545   0.664   3.750   2.720
 9216SOL     OW28546   2.866   5.544   5.090
 9216SOL    HW128547   2.790   5.480   5.074
 9216SOL    HW228548   2.846   5.630   5.044
 9217SOL     OW28549   5.434   1.424   6.081
 9217SOL    HW128550   5.372   1.399   6.156
 9217SOL    HW228551   5.511   1.360   6.078
 9218SOL     OW28552   5.991   6.833   6.479
 9218SOL    HW128553   5.984   6.765   6.552
 9218SOL    HW228554   6.061   6.900   6.503
 9219SOL     OW28555   3.785   2.578   5.403
 9219SOL    HW128556   3.692   2.540   5.407
 9219SOL    HW228557   3.781   2.677   5.395
 9220SOL     OW28558   1.584   6.340   2.860
 9220SOL    HW128559   1.549   6.343   2.953
 9220SOL    HW228560   1.509   6.320   2.797
 9221SOL     OW28561   2.388   0.774   6.576
 9221SOL    HW128562   2.449   0.823   6.639
 9221SOL    HW228563   2.352   0.693   6.621
 9222SOL     OW28564   1.615   4.787   3.591
 9222SOL    HW128565   1.525   4.777   3.549
 9222SOL    HW228566   1.605   4.817   3.685
 9223SOL     OW28567   1.320   4.195   4.481
 9223SOL    HW128568   1.390   4.168   4.416
 9223SOL    HW228569   1.285   4.114   4.528
 9224SOL     OW28570   1.353   4.680   3.524
 9224SOL    HW128571   1.381   4.585   3.539
 9224SOL    HW228572   1.310   4.716   3.606
 9225SOL     OW28573   3.985   6.805   6.582
 9225SOL    HW128574   4.062   6.868   6.589
 9225SOL    HW228575   4.016   6.718   6.545
 9226SOL     OW28576   0.969   6.832   1.273
 9226SOL    HW128577   1.004   6.795   1.187
 9226SOL    HW228578   0.870   6.845   1.265
 9227SOL     OW28579   2.373   5.283   0.801
 9227SOL    HW128580   2.274   5.282   0.792
 9227SOL    HW228581   2.412   5.208   0.747
 9228SOL     OW28582   2.111   2.522   5.627
 9228SOL    HW128583   2.012   2.522   5.618
 9228SOL    HW228584   2.152   2.489   5.542
 9229SOL     OW28585   0.495   4.324   6.878
 9229SOL    HW128586   0.513   4.420   6.898
 9229SOL    HW228587   0.485   4.312   6.779
 9230SOL     OW28588   4.824   2.393   4.107
 9230SOL    HW128589   4.810   2.399   4.009
 9230SOL    HW228590   4.921   2.396   4.128
 9231SOL     OW28591   0.962   5.312   4.974
 9231SOL    HW128592   0.926   5.256   5.048
 9231SOL    HW228593   0.974   5.406   5.007
 9232SOL     OW28594   2.251   5.776   1.833
 9232SOL    HW128595   2.186   5.700   1.831
 9232SOL    HW228596   2.331   5.749   1.887
 9233SOL     OW28597   0.453   0.034   0.769
 9233SOL    HW128598   0.403   0.040   0.855
 9233SOL    HW228599   0.467   0.125   0.731
 9234SOL     OW28600   2.336   4.757   0.633
 9234SOL    HW128601   2.377   4.708   0.556
 9234SOL    HW228602   2.291   4.840   0.600
 9235SOL     OW28603   2.534   2.577   3.233
 9235SOL    HW128604   2.462   2.646   3.239
 9235SOL    HW228605   2.572   2.561   3.325
 9236SOL     OW28606   1.795   2.785   6.545
 9236SOL    HW128607   1.758   2.773   6.637
 9236SOL    HW228608   1.719   2.800   6.481
 9237SOL     OW28609   5.931   5.470   3.349
 9237SOL    HW128610   5.917   5.390   3.408
 9237SOL    HW228611   5.972   5.544   3.403
 9238SOL     OW28612   1.516   3.382   5.088
 9238SOL    HW128613   1.439   3.318   5.089
 9238SOL    HW228614   1.584   3.353   5.156
 9239SOL     OW28615   0.618   4.722   0.284
 9239SOL    HW128616   0.606   4.786   0.360
 9239SOL    HW228617   0.681   4.648   0.311
 9240SOL     OW28618   5.006   2.758   2.615
 9240SOL    HW128619   5.072   2.694   2.574
 9240SOL    HW228620   4.943   2.791   2.545
 9241SOL     OW28621   6.756   6.204   0.311
 9241SOL    HW128622   6.733   6.197   0.213
 9241SOL    HW228623   6.691   6.149   0.363
 9242SOL     OW28624   1.365   2.274   2.124
 9242SOL    HW128625   1.415   2.189   2.139
 9242SOL    HW228626   1.420   2.352   2.156
 9243SOL     OW28627   0.361   0.590   1.068
 9243SOL    HW128628   0.308   0.520   1.019
 9243SOL    HW228629   0.432   0.546   1.122
 9244SOL     OW28630   3.697   6.390   5.376
 9244SOL    HW128631   3.754   6.419   5.454
 9244SOL    HW228632   3.637   6.465   5.350
 9245SOL     OW28633   1.024   4.021   3.144
 9245SOL    HW128634   1.102   3.972   3.182
 9245SOL    HW228635   0.976   3.962   3.079
 9246SOL     OW28636   6.055   6.992   4.580
 9246SOL    HW128637   6.003   0.002   4.660
 9246SOL    HW228638   6.002   6.927   4.526
 9247SOL     OW28639   3.841   5.729   2.727
 9247SOL    HW128640   3.913   5.771   2.671
 9247SOL    HW228641   3.829   5.782   2.810
 9248SOL     OW28642   2.785   1.582   4.980
 9248SOL    HW128643   2.767   1.519   5.056
 9248SOL    HW228644   2.713   1.651   4.977
 9249SOL     OW28645   3.861   4.785   1.799
 9249SOL    HW128646   3.792   4.713   1.794
 9249SOL    HW228647   3.856   4.831   1.887
 9250SOL     OW28648   6.850   4.088   4.291
 9250SOL    HW128649   6.931   4.077   4.349
 9250SOL    HW228650   6.868   4.160   4.223
 9251SOL     OW28651   4.003   2.807   0.926
 9251SOL    HW128652   3.932   2.793   0.996
 9251SOL    HW228653   4.049   2.720   0.908
 9252SOL     OW28654   4.158   0.955   5.113
 9252SOL    HW128655   4.100   0.882   5.150
 9252SOL    HW228656   4.248   0.952   5.156
 9253SOL     OW28657   0.427   4.587   5.604
 9253SOL    HW128658   0.455   4.682   5.617
 9253SOL    HW228659   0.407   4.572   5.507
 9254SOL     OW28660   6.062   4.163   2.579
 9254SOL    HW128661   6.078   4.157   2.481
 9254SOL    HW228662   6.020   4.251   2.601
 9255SOL     OW28663   6.456   4.192   0.420
 9255SOL    HW128664   6.462   4.097   0.448
 9255SOL    HW228665   6.363   4.212   0.388
 9256SOL     OW28666   2.132   6.797   1.924
 9256SOL    HW128667   2.219   6.826   1.964
 9256SOL    HW228668   2.057   6.852   1.963
 9257SOL     OW28669   0.105   5.874   3.645
 9257SOL    HW128670   0.101   5.798   3.580
 9257SOL    HW228671   0.159   5.948   3.607
 9258SOL     OW28672   3.467   3.512   0.136
 9258SOL    HW128673   3.563   3.512   0.163
 9258SOL    HW228674   3.450   3.587   0.073
 9259SOL     OW28675   1.770   1.191   6.256
 9259SOL    HW128676   1.694   1.246   6.290
 9259SOL    HW228677   1.811   1.236   6.176
 9260SOL     OW28678   5.818   3.150   5.827
 9260SOL    HW128679   5.772   3.201   5.899
 9260SOL    HW228680   5.789   3.183   5.738
 9261SOL     OW28681   4.322   1.788   0.848
 9261SOL    HW128682   4.257   1.712   0.849
 9261SOL    HW228683   4.338   1.819   0.942
 9262SOL     OW28684   6.485   6.405   4.249
 9262SOL    HW128685   6.471   6.358   4.337
 9262SOL    HW228686   6.562   6.469   4.257
 9263SOL     OW28687   2.545   4.911   2.971
 9263SOL    HW128688   2.598   4.841   2.925
 9263SOL    HW228689   2.449   4.884   2.973
 9264SOL     OW28690   5.706   3.825   6.658
 9264SOL    HW128691   5.682   3.814   6.754
 9264SOL    HW228692   5.663   3.752   6.604
 9265SOL     OW28693   4.128   2.075   6.855
 9265SOL    HW128694   4.200   2.135   6.889
 9265SOL    HW228695   4.116   2.090   6.757
 9266SOL     OW28696   0.656   4.546   1.487
 9266SOL    HW128697   0.733   4.607   1.470
 9266SOL    HW228698   0.621   4.561   1.579
 9267SOL     OW28699   0.912   1.169   3.841
 9267SOL    HW128700   0.880   1.258   3.871
 9267SOL    HW228701   0.947   1.175   3.747
 9268SOL     OW28702   0.736   7.013   1.751
 9268SOL    HW128703   0.646   6.969   1.753
 9268SOL    HW228704   0.792   6.977   1.825
 9269SOL     OW28705   4.341   6.969   0.394
 9269SOL    HW128706   4.385   0.039   0.375
 9269SOL    HW228707   4.405   6.911   0.444
 9270SOL     OW28708   3.609   0.867   6.127
 9270SOL    HW128709   3.688   0.891   6.069
 9270SOL    HW228710   3.585   0.771   6.113
 9271SOL     OW28711   0.906   0.657   6.902
 9271SOL    HW128712   0.968   0.586   6.868
 9271SOL    HW228713   0.840   0.616   6.965
 9272SOL     OW28714   6.520   6.482   6.224
 9272SOL    HW128715   6.507   6.574   6.189
 9272SOL    HW228716   6.536   6.419   6.148
 9273SOL     OW28717   5.394   5.802   3.846
 9273SOL    HW128718   5.401   5.708   3.815
 9273SOL    HW228719   5.320   5.848   3.796
 9274SOL     OW28720   0.675   3.156   0.608
 9274SOL    HW128721   0.633   3.148   0.518
 9274SOL    HW228722   0.683   3.065   0.649
 9275SOL     OW28723   0.578   6.515   1.242
 9275SOL    HW128724   0.582   6.575   1.162
 9275SOL    HW228725   0.487   6.474   1.248
 9276SOL     OW28726   3.528   4.305   0.335
 9276SOL    HW128727   3.520   4.320   0.434
 9276SOL    HW228728   3.443   4.268   0.299
 9277SOL     OW28729   4.422   5.032   2.387
 9277SOL    HW128730   4.381   4.942   2.399
 9277SOL    HW228731   4.452   5.043   2.292
 9278SOL     OW28732   0.141   0.567   4.136
 9278SOL    HW128733   0.074   0.502   4.171
 9278SOL    HW228734   0.159   0.546   4.039
 9279SOL     OW28735   3.487   5.253   1.577
 9279SOL    HW128736   3.537   5.325   1.626
 9279SOL    HW228737   3.414   5.218   1.635
 9280SOL     OW28738   1.331   1.257   2.678
 9280SOL    HW128739   1.416   1.227   2.635
 9280SOL    HW228740   1.296   1.184   2.737
 9281SOL     OW28741   3.815   3.427   6.535
 9281SOL    HW128742   3.776   3.391   6.450
 9281SOL    HW228743   3.778   3.376   6.613
 9282SOL     OW28744   2.973   0.227   4.854
 9282SOL    HW128745   3.058   0.272   4.824
 9282SOL    HW228746   2.897   0.292   4.847
 9283SOL     OW28747   5.351   6.682   6.362
 9283SOL    HW128748   5.382   6.751   6.296
 9283SOL    HW228749   5.415   6.678   6.439
 9284SOL     OW28750   3.601   4.169   5.192
 9284SOL    HW128751   3.588   4.263   5.223
 9284SOL    HW228752   3.698   4.153   5.173
 9285SOL     OW28753   6.023   3.058   2.335
 9285SOL    HW128754   6.047   2.992   2.405
 9285SOL    HW228755   6.050   3.023   2.245
 9286SOL     OW28756   4.608   6.320   0.982
 9286SOL    HW128757   4.619   6.234   1.031
 9286SOL    HW228758   4.613   6.304   0.884
 9287SOL     OW28759   2.627   4.711   5.724
 9287SOL    HW128760   2.563   4.641   5.691
 9287SOL    HW228761   2.611   4.796   5.674
 9288SOL     OW28762   4.516   2.492   3.930
 9288SOL    HW128763   4.514   2.538   4.019
 9288SOL    HW228764   4.560   2.552   3.863
 9289SOL     OW28765   4.475   6.270   6.244
 9289SOL    HW128766   4.500   6.363   6.215
 9289SOL    HW228767   4.426   6.224   6.170
 9290SOL     OW28768   5.198   0.259   4.814
 9290SOL    HW128769   5.245   0.214   4.890
 9290SOL    HW228770   5.265   0.299   4.752
 9291SOL     OW28771   1.179   5.845   5.285
 9291SOL    HW128772   1.171   5.939   5.253
 9291SOL    HW228773   1.214   5.844   5.379
 9292SOL     OW28774   0.998   1.301   5.883
 9292SOL    HW128775   1.003   1.359   5.964
 9292SOL    HW228776   0.994   1.358   5.801
 9293SOL     OW28777   4.672   2.823   5.623
 9293SOL    HW128778   4.659   2.820   5.524
 9293SOL    HW228779   4.762   2.787   5.646
 9294SOL     OW28780   4.816   0.813   0.325
 9294SOL    HW128781   4.779   0.726   0.356
 9294SOL    HW228782   4.838   0.808   0.228
 9295SOL     OW28783   0.320   0.513   5.287
 9295SOL    HW128784   0.338   0.416   5.273
 9295SOL    HW228785   0.406   0.562   5.297
 9296SOL     OW28786   2.936   4.143   0.889
 9296SOL    HW128787   2.966   4.230   0.851
 9296SOL    HW228788   2.843   4.152   0.926
 9297SOL     OW28789   6.588   6.491   3.144
 9297SOL    HW128790   6.648   6.460   3.217
 9297SOL    HW228791   6.492   6.479   3.171
 9298SOL     OW28792   1.285   6.701   5.732
 9298SOL    HW128793   1.282   6.688   5.633
 9298SOL    HW228794   1.288   6.612   5.777
 9299SOL     OW28795   1.948   2.338   4.509
 9299SOL    HW128796   1.977   2.350   4.414
 9299SOL    HW228797   2.007   2.392   4.569
 9300SOL     OW28798   1.569   5.975   5.368
 9300SOL    HW128799   1.564   5.960   5.467
 9300SOL    HW228800   1.554   5.888   5.321
 9301SOL     OW28801   0.430   4.092   4.315
 9301SOL    HW128802   0.488   4.119   4.239
 9301SOL    HW228803   0.475   4.019   4.367
 9302SOL     OW28804   2.210   3.072   4.779
 9302SOL    HW128805   2.271   3.075   4.858
 9302SOL    HW228806   2.251   3.014   4.708
 9303SOL     OW28807   3.076   3.900   0.328
 9303SOL    HW128808   2.980   3.896   0.302
 9303SOL    HW228809   3.107   3.810   0.358
 9304SOL     OW28810   5.087   5.001   0.925
 9304SOL    HW128811   5.130   4.956   1.004
 9304SOL    HW228812   5.154   5.058   0.879
 9305SOL     OW28813   2.319   1.312   0.649
 9305SOL    HW128814   2.309   1.363   0.564
 9305SOL    HW228815   2.414   1.282   0.660
 9306SOL     OW28816   0.535   3.937   4.798
 9306SOL    HW128817   0.477   4.017   4.784
 9306SOL    HW228818   0.491   3.874   4.861
 9307SOL     OW28819   2.413   3.118   0.818
 9307SOL    HW128820   2.389   3.171   0.737
 9307SOL    HW228821   2.342   3.050   0.836
 9308SOL     OW28822   1.439   3.902   1.588
 9308SOL    HW128823   1.414   3.965   1.662
 9308SOL    HW228824   1.417   3.944   1.500
 9309SOL     OW28825   4.937   5.744   5.619
 9309SOL    HW128826   4.962   5.666   5.677
 9309SOL    HW228827   4.900   5.818   5.675
 9310SOL     OW28828   4.524   5.496   5.668
 9310SOL    HW128829   4.620   5.475   5.681
 9310SOL    HW228830   4.470   5.449   5.738
 9311SOL     OW28831   4.483   3.306   1.684
 9311SOL    HW128832   4.524   3.244   1.750
 9311SOL    HW228833   4.479   3.262   1.594
 9312SOL     OW28834   1.434   1.929   1.043
 9312SOL    HW128835   1.403   2.008   1.096
 9312SOL    HW228836   1.357   1.890   0.992
 9313SOL     OW28837   1.210   0.431   2.079
 9313SOL    HW128838   1.240   0.369   2.007
 9313SOL    HW228839   1.264   0.515   2.076
 9314SOL     OW28840   5.081   2.729   0.645
 9314SOL    HW128841   5.159   2.745   0.706
 9314SOL    HW228842   5.033   2.646   0.674
 9315SOL     OW28843   5.513   1.292   6.996
 9315SOL    HW128844   5.545   1.377   0.020
 9315SOL    HW228845   5.425   1.266   0.016
 9316SOL     OW28846   5.306   0.692   5.724
 9316SOL    HW128847   5.232   0.755   5.703
 9316SOL    HW228848   5.302   0.667   5.821
 9317SOL     OW28849   2.905   5.529   3.889
 9317SOL    HW128850   2.878   5.546   3.984
 9317SOL    HW228851   3.003   5.510   3.885
 9318SOL     OW28852   4.984   6.054   0.601
 9318SOL    HW128853   5.083   6.068   0.603
 9318SOL    HW228854   4.950   6.064   0.508
 9319SOL     OW28855   2.698   4.203   1.053
 9319SOL    HW128856   2.663   4.149   0.976
 9319SOL    HW228857   2.658   4.169   1.138
 9320SOL     OW28858   5.527   0.100   6.154
 9320SOL    HW128859   5.573   0.179   6.194
 9320SOL    HW228860   5.480   0.127   6.070
 9321SOL     OW28861   0.101   3.186   5.648
 9321SOL    HW128862   0.193   3.206   5.615
 9321SOL    HW228863   0.097   3.205   5.747
 9322SOL     OW28864   6.344   3.794   5.671
 9322SOL    HW128865   6.366   3.857   5.597
 9322SOL    HW228866   6.324   3.703   5.634
 9323SOL     OW28867   1.222   3.569   3.516
 9323SOL    HW128868   1.241   3.658   3.557
 9323SOL    HW228869   1.153   3.580   3.444
 9324SOL     OW28870   1.207   4.326   0.793
 9324SOL    HW128871   1.278   4.271   0.837
 9324SOL    HW228872   1.188   4.289   0.702
 9325SOL     OW28873   1.860   5.443   2.493
 9325SOL    HW128874   1.926   5.492   2.434
 9325SOL    HW228875   1.885   5.347   2.497
 9326SOL     OW28876   4.146   3.895   0.135
 9326SOL    HW128877   4.185   3.939   0.216
 9326SOL    HW228878   4.133   3.963   0.063
 9327SOL     OW28879   4.626   0.625   3.126
 9327SOL    HW128880   4.536   0.637   3.166
 9327SOL    HW228881   4.643   0.698   3.060
 9328SOL     OW28882   3.131   6.521   4.556
 9328SOL    HW128883   3.176   6.431   4.551
 9328SOL    HW228884   3.032   6.509   4.543
 9329SOL     OW28885   0.033   5.913   5.790
 9329SOL    HW128886   7.001   5.828   5.801
 9329SOL    HW228887   0.120   5.907   5.840
 9330SOL     OW28888   6.705   0.196   0.099
 9330SOL    HW128889   6.667   0.140   0.025
 9330SOL    HW228890   6.702   0.292   0.072
 9331SOL     OW28891   1.368   3.375   4.833
 9331SOL    HW128892   1.424   3.412   4.908
 9331SOL    HW228893   1.384   3.277   4.825
 9332SOL     OW28894   4.042   5.983   0.743
 9332SOL    HW128895   4.140   6.006   0.746
 9332SOL    HW228896   4.016   5.963   0.649
 9333SOL     OW28897   3.723   4.846   0.446
 9333SOL    HW128898   3.684   4.757   0.470
 9333SOL    HW228899   3.650   4.913   0.436
 9334SOL     OW28900   4.937   6.329   5.148
 9334SOL    HW128901   4.904   6.398   5.213
 9334SOL    HW228902   5.026   6.357   5.113
 9335SOL     OW28903   2.242   1.911   1.519
 9335SOL    HW128904   2.181   1.902   1.598
 9335SOL    HW228905   2.223   1.997   1.472
 9336SOL     OW28906   6.284   0.598   5.263
 9336SOL    HW128907   6.227   0.619   5.342
 9336SOL    HW228908   6.227   0.596   5.181
 9337SOL     OW28909   4.532   0.146   6.344
 9337SOL    HW128910   4.523   0.108   6.252
 9337SOL    HW228911   4.606   0.214   6.345
 9338SOL     OW28912   6.878   6.312   0.535
 9338SOL    HW128913   6.783   6.344   0.541
 9338SOL    HW228914   6.897   6.284   0.441
 9339SOL     OW28915   5.771   4.550   6.512
 9339SOL    HW128916   5.746   4.645   6.494
 9339SOL    HW228917   5.863   4.532   6.478
 9340SOL     OW28918   3.607   6.211   2.182
 9340SOL    HW128919   3.549   6.198   2.102
 9340SOL    HW228920   3.618   6.123   2.229
 9341SOL     OW28921   6.221   4.156   6.312
 9341SOL    HW128922   6.314   4.122   6.327
 9341SOL    HW228923   6.162   4.127   6.387
 9342SOL     OW28924   2.671   0.326   4.516
 9342SOL    HW128925   2.691   0.301   4.611
 9342SOL    HW228926   2.703   0.254   4.455
 9343SOL     OW28927   4.586   4.536   1.886
 9343SOL    HW128928   4.565   4.442   1.910
 9343SOL    HW228929   4.682   4.555   1.907
 9344SOL     OW28930   5.370   4.927   6.077
 9344SOL    HW128931   5.314   4.904   6.157
 9344SOL    HW228932   5.423   5.009   6.096
 9345SOL     OW28933   0.061   6.226   0.023
 9345SOL    HW128934   0.044   6.190   6.950
 9345SOL    HW228935   0.086   6.151   0.084
 9346SOL     OW28936   5.312   6.697   1.999
 9346SOL    HW128937   5.345   6.791   1.986
 9346SOL    HW228938   5.270   6.688   2.089
 9347SOL     OW28939   3.635   5.727   1.333
 9347SOL    HW128940   3.626   5.629   1.349
 9347SOL    HW228941   3.730   5.749   1.311
 9348SOL     OW28942   2.517   6.404   3.134
 9348SOL    HW128943   2.540   6.501   3.147
 9348SOL    HW228944   2.585   6.362   3.074
 9349SOL     OW28945   6.728   5.726   2.505
 9349SOL    HW128946   6.712   5.804   2.566
 9349SOL    HW228947   6.642   5.701   2.460
 9350SOL     OW28948   6.942   1.495   4.977
 9350SOL    HW128949   7.003   1.464   4.905
 9350SOL    HW228950   6.853   1.518   4.938
 9351SOL     OW28951   1.962   0.937   5.186
 9351SOL    HW128952   1.931   0.874   5.114
 9351SOL    HW228953   2.045   0.901   5.228
 9352SOL     OW28954   1.809   2.832   5.470
 9352SOL    HW128955   1.812   2.927   5.503
 9352SOL    HW228956   1.892   2.785   5.497
 9353SOL     OW28957   1.512   4.352   1.670
 9353SOL    HW128958   1.488   4.448   1.657
 9353SOL    HW228959   1.587   4.328   1.609
 9354SOL     OW28960   6.227   1.929   1.295
 9354SOL    HW128961   6.211   1.881   1.381
 9354SOL    HW228962   6.225   1.864   1.219
 9355SOL     OW28963   6.640   0.610   4.542
 9355SOL    HW128964   6.563   0.557   4.508
 9355SOL    HW228965   6.696   0.640   4.464
 9356SOL     OW28966   4.390   5.305   2.026
 9356SOL    HW128967   4.293   5.329   2.014
 9356SOL    HW228968   4.437   5.379   2.073
 9357SOL     OW28969   2.817   3.326   0.362
 9357SOL    HW128970   2.900   3.284   0.327
 9357SOL    HW228971   2.771   3.263   0.425
 9358SOL     OW28972   5.645   4.352   2.042
 9358SOL    HW128973   5.586   4.366   2.122
 9358SOL    HW228974   5.716   4.422   2.040
 9359SOL     OW28975   6.768   3.842   6.959
 9359SOL    HW128976   6.855   3.810   6.921
 9359SOL    HW228977   6.782   3.875   0.034
 9360SOL     OW28978   1.783   0.073   5.541
 9360SOL    HW128979   1.786   0.042   5.446
 9360SOL    HW228980   1.876   0.096   5.571
 9361SOL     OW28981   3.250   6.147   2.872
 9361SOL    HW128982   3.238   6.242   2.898
 9361SOL    HW228983   3.309   6.101   2.938
 9362SOL     OW28984   2.054   1.079   2.524
 9362SOL    HW128985   2.098   1.006   2.471
 9362SOL    HW228986   2.119   1.114   2.592
 9363SOL     OW28987   3.567   5.645   2.187
 9363SOL    HW128988   3.555   5.556   2.231
 9363SOL    HW228989   3.651   5.645   2.133
 9364SOL     OW28990   4.596   2.793   6.205
 9364SOL    HW128991   4.565   2.701   6.232
 9364SOL    HW228992   4.654   2.786   6.124
 9365SOL     OW28993   2.771   2.310   5.227
 9365SOL    HW128994   2.724   2.395   5.203
 9365SOL    HW228995   2.853   2.332   5.280
 9366SOL     OW28996   3.336   1.698   0.364
 9366SOL    HW128997   3.270   1.624   0.375
 9366SOL    HW228998   3.316   1.771   0.430
 9367SOL     OW28999   0.263   5.319   3.929
 9367SOL    HW129000   0.252   5.249   3.859
 9367SOL    HW229001   0.343   5.375   3.908
 9368SOL     OW29002   3.812   1.865   2.297
 9368SOL    HW129003   3.879   1.857   2.371
 9368SOL    HW229004   3.829   1.794   2.229
 9369SOL     OW29005   6.426   1.601   6.211
 9369SOL    HW129006   6.351   1.537   6.227
 9369SOL    HW229007   6.438   1.614   6.112
 9370SOL     OW29008   5.656   1.054   3.153
 9370SOL    HW129009   5.748   1.037   3.187
 9370SOL    HW229010   5.651   1.144   3.112
 9371SOL     OW29011   1.569   5.385   0.540
 9371SOL    HW129012   1.544   5.447   0.466
 9371SOL    HW229013   1.486   5.344   0.579
 9372SOL     OW29014   5.476   6.174   3.149
 9372SOL    HW129015   5.515   6.091   3.188
 9372SOL    HW229016   5.550   6.240   3.130
 9373SOL     OW29017   4.571   1.972   2.809
 9373SOL    HW129018   4.606   2.059   2.773
 9373SOL    HW229019   4.583   1.900   2.740
 9374SOL     OW29020   5.646   2.643   0.610
 9374SOL    HW129021   5.684   2.729   0.575
 9374SOL    HW229022   5.548   2.640   0.593
 9375SOL     OW29023   6.628   1.471   3.182
 9375SOL    HW129024   6.585   1.485   3.271
 9375SOL    HW229025   6.724   1.497   3.187
 9376SOL     OW29026   3.178   3.545   0.788
 9376SOL    HW129027   3.235   3.627   0.785
 9376SOL    HW229028   3.144   3.532   0.881
 9377SOL     OW29029   6.332   5.502   3.563
 9377SOL    HW129030   6.336   5.573   3.493
 9377SOL    HW229031   6.338   5.412   3.519
 9378SOL     OW29032   2.342   0.120   5.656
 9378SOL    HW129033   2.283   0.100   5.578
 9378SOL    HW229034   2.296   0.094   5.741
 9379SOL     OW29035   4.814   4.544   5.005
 9379SOL    HW129036   4.800   4.623   5.066
 9379SOL    HW229037   4.743   4.543   4.934
 9380SOL     OW29038   6.281   6.306   5.669
 9380SOL    HW129039   6.322   6.261   5.749
 9380SOL    HW229040   6.330   6.391   5.652
 9381SOL     OW29041   3.137   3.261   5.595
 9381SOL    HW129042   3.167   3.348   5.556
 9381SOL    HW229043   3.040   3.247   5.573
 9382SOL     OW29044   3.790   1.475   3.502
 9382SOL    HW129045   3.761   1.466   3.407
 9382SOL    HW229046   3.739   1.411   3.559
 9383SOL     OW29047   3.692   5.918   4.983
 9383SOL    HW129048   3.658   5.916   5.077
 9383SOL    HW229049   3.622   5.958   4.924
 9384SOL     OW29050   4.515   5.897   2.165
 9384SOL    HW129051   4.425   5.937   2.146
 9384SOL    HW229052   4.537   5.908   2.262
 9385SOL     OW29053   4.180   2.000   2.712
 9385SOL    HW129054   4.226   1.960   2.791
 9385SOL    HW229055   4.228   2.084   2.684
 9386SOL     OW29056   3.558   6.061   4.403
 9386SOL    HW129057   3.509   6.022   4.481
 9386SOL    HW229058   3.506   6.138   4.366
 9387SOL     OW29059   4.277   6.998   0.948
 9387SOL    HW129060   4.283   6.982   0.850
 9387SOL    HW229061   4.206   6.939   0.987
 9388SOL     OW29062   1.739   6.188   2.662
 9388SOL    HW129063   1.715   6.241   2.743
 9388SOL    HW229064   1.805   6.240   2.607
 9389SOL     OW29065   2.417   0.011   5.050
 9389SOL    HW129066   2.353   0.007   4.973
 9389SOL    HW229067   2.472   6.945   5.052
 9390SOL     OW29068   3.830   5.605   3.248
 9390SOL    HW129069   3.853   5.702   3.244
 9390SOL    HW229070   3.892   5.558   3.311
 9391SOL     OW29071   1.973   0.670   5.535
 9391SOL    HW129072   1.946   0.677   5.630
 9391SOL    HW229073   1.965   0.760   5.491
 9392SOL     OW29074   0.450   6.849   4.323
 9392SOL    HW129075   0.480   6.883   4.233
 9392SOL    HW229076   0.351   6.835   4.321
 9393SOL     OW29077   3.894   1.716   4.259
 9393SOL    HW129078   3.980   1.674   4.288
 9393SOL    HW229079   3.849   1.759   4.338
 9394SOL     OW29080   5.906   2.515   3.315
 9394SOL    HW129081   5.859   2.480   3.234
 9394SOL    HW229082   5.974   2.583   3.288
 9395SOL     OW29083   2.824   2.139   0.579
 9395SOL    HW129084   2.923   2.149   0.590
 9395SOL    HW229085   2.793   2.197   0.504
 9396SOL     OW29086   0.221   6.403   4.649
 9396SOL    HW129087   0.292   6.436   4.711
 9396SOL    HW229088   0.193   6.476   4.588
 9397SOL     OW29089   2.715   0.278   0.153
 9397SOL    HW129090   2.676   0.239   0.070
 9397SOL    HW229091   2.808   0.243   0.166
 9398SOL     OW29092   2.146   0.151   6.855
 9398SOL    HW129093   2.141   0.051   6.857
 9398SOL    HW229094   2.100   0.185   6.772
 9399SOL     OW29095   0.245   2.215   0.073
 9399SOL    HW129096   0.157   2.211   0.120
 9399SOL    HW229097   0.317   2.181   0.134
 9400SOL     OW29098   5.187   3.799   1.870
 9400SOL    HW129099   5.248   3.760   1.801
 9400SOL    HW229100   5.093   3.774   1.849
 9401SOL     OW29101   2.873   6.389   3.716
 9401SOL    HW129102   2.839   6.447   3.643
 9401SOL    HW229103   2.919   6.309   3.677
 9402SOL     OW29104   1.737   4.624   5.691
 9402SOL    HW129105   1.784   4.556   5.635
 9402SOL    HW229106   1.753   4.605   5.788
 9403SOL     OW29107   4.758   1.556   2.662
 9403SOL    HW129108   4.813   1.582   2.741
 9403SOL    HW229109   4.818   1.539   2.584
 9404SOL     OW29110   1.549   4.620   6.708
 9404SOL    HW129111   1.563   4.530   6.751
 9404SOL    HW229112   1.514   4.606   6.615
 9405SOL     OW29113   6.595   6.624   2.273
 9405SOL    HW129114   6.630   6.564   2.345
 9405SOL    HW229115   6.511   6.584   2.235
 9406SOL     OW29116   6.810   1.319   5.855
 9406SOL    HW129117   6.713   1.333   5.871
 9406SOL    HW229118   6.837   1.229   5.888
 9407SOL     OW29119   2.921   6.783   2.561
 9407SOL    HW129120   3.011   6.740   2.574
 9407SOL    HW229121   2.856   6.713   2.532
 9408SOL     OW29122   3.567   1.665   6.021
 9408SOL    HW129123   3.505   1.592   5.993
 9408SOL    HW229124   3.534   1.753   5.987
 9409SOL     OW29125   4.692   4.279   4.750
 9409SOL    HW129126   4.619   4.315   4.809
 9409SOL    HW229127   4.675   4.183   4.730
 9410SOL     OW29128   3.462   5.636   1.821
 9410SOL    HW129129   3.556   5.619   1.851
 9410SOL    HW229130   3.413   5.549   1.814
 9411SOL     OW29131   3.417   4.417   0.950
 9411SOL    HW129132   3.512   4.430   0.923
 9411SOL    HW229133   3.409   4.426   1.050
 9412SOL     OW29134   0.465   3.491   1.769
 9412SOL    HW129135   0.453   3.590   1.765
 9412SOL    HW229136   0.452   3.453   1.677
 9413SOL     OW29137   4.261   5.481   4.786
 9413SOL    HW129138   4.338   5.511   4.729
 9413SOL    HW229139   4.289   5.481   4.882
 9414SOL     OW29140   3.637   1.844   3.397
 9414SOL    HW129141   3.596   1.934   3.386
 9414SOL    HW229142   3.655   1.804   3.306
 9415SOL     OW29143   2.678   6.183   2.400
 9415SOL    HW129144   2.660   6.240   2.320
 9415SOL    HW229145   2.614   6.106   2.401
 9416SOL     OW29146   0.726   1.805   1.529
 9416SOL    HW129147   0.813   1.836   1.568
 9416SOL    HW229148   0.742   1.721   1.477
 9417SOL     OW29149   2.708   0.397   5.602
 9417SOL    HW129150   2.611   0.377   5.598
 9417SOL    HW229151   2.723   0.481   5.654
 9418SOL     OW29152   2.670   6.728   0.733
 9418SOL    HW129153   2.577   6.749   0.762
 9418SOL    HW229154   2.681   6.629   0.722
 9419SOL     OW29155   3.324   6.298   5.356
 9419SOL    HW129156   3.315   6.387   5.399
 9419SOL    HW229157   3.386   6.304   5.278
 9420SOL     OW29158   0.689   2.022   4.800
 9420SOL    HW129159   0.622   2.011   4.874
 9420SOL    HW229160   0.753   1.945   4.802
 9421SOL     OW29161   2.477   5.696   5.011
 9421SOL    HW129162   2.438   5.630   4.947
 9421SOL    HW229163   2.412   5.771   5.025
 9422SOL     OW29164   5.175   0.114   2.676
 9422SOL    HW129165   5.140   0.050   2.744
 9422SOL    HW229166   5.248   0.169   2.716
 9423SOL     OW29167   3.906   0.682   2.992
 9423SOL    HW129168   3.880   0.689   3.088
 9423SOL    HW229169   3.845   0.618   2.945
 9424SOL     OW29170   4.801   0.373   5.419
 9424SOL    HW129171   4.828   0.469   5.408
 9424SOL    HW229172   4.883   0.317   5.430
 9425SOL     OW29173   0.197   3.475   6.292
 9425SOL    HW129174   0.246   3.522   6.219
 9425SOL    HW229175   0.225   3.512   6.381
 9426SOL     OW29176   2.934   1.645   0.204
 9426SOL    HW129177   2.864   1.691   0.259
 9426SOL    HW229178   3.022   1.692   0.217
 9427SOL     OW29179   2.332   4.744   5.194
 9427SOL    HW129180   2.404   4.692   5.148
 9427SOL    HW229181   2.311   4.827   5.141
 9428SOL     OW29182   5.155   0.321   1.522
 9428SOL    HW129183   5.063   0.282   1.512
 9428SOL    HW229184   5.184   0.316   1.617
 9429SOL     OW29185   1.383   4.738   1.848
 9429SOL    HW129186   1.359   4.769   1.756
 9429SOL    HW229187   1.482   4.726   1.854
 9430SOL     OW29188   7.016   6.550   2.331
 9430SOL    HW129189   0.020   6.464   2.376
 9430SOL    HW229190   0.006   6.540   2.232
 9431SOL     OW29191   5.702   4.297   0.673
 9431SOL    HW129192   5.669   4.216   0.625
 9431SOL    HW229193   5.761   4.269   0.749
 9432SOL     OW29194   6.894   0.272   3.384
 9432SOL    HW129195   6.985   0.260   3.422
 9432SOL    HW229196   6.888   0.361   3.339
 9433SOL     OW29197   3.434   4.958   3.796
 9433SOL    HW129198   3.525   4.980   3.761
 9433SOL    HW229199   3.377   4.923   3.722
 9434SOL     OW29200   5.647   4.748   3.321
 9434SOL    HW129201   5.718   4.685   3.354
 9434SOL    HW229202   5.619   4.810   3.394
 9435SOL     OW29203   0.891   1.641   3.756
 9435SOL    HW129204   0.917   1.640   3.660
 9435SOL    HW229205   0.882   1.547   3.790
 9436SOL     OW29206   1.020   4.092   1.854
 9436SOL    HW129207   1.043   4.136   1.767
 9436SOL    HW229208   1.086   4.121   1.923
 9437SOL     OW29209   1.412   6.392   3.574
 9437SOL    HW129210   1.430   6.477   3.624
 9437SOL    HW229211   1.344   6.408   3.503
 9438SOL     OW29212   1.124   6.222   1.288
 9438SOL    HW129213   1.058   6.154   1.320
 9438SOL    HW229214   1.102   6.249   1.194
 9439SOL     OW29215   0.180   3.292   1.942
 9439SOL    HW129216   0.205   3.218   1.879
 9439SOL    HW229217   0.206   3.380   1.902
 9440SOL     OW29218   5.029   6.041   4.053
 9440SOL    HW129219   5.101   5.971   4.052
 9440SOL    HW229220   5.061   6.120   4.106
 9441SOL     OW29221   1.383   5.349   5.019
 9441SOL    HW129222   1.462   5.396   4.978
 9441SOL    HW229223   1.348   5.282   4.953
 9442SOL     OW29224   6.321   2.181   0.199
 9442SOL    HW129225   6.250   2.251   0.210
 9442SOL    HW229226   6.372   2.199   0.115
 9443SOL     OW29227   2.237   4.750   1.090
 9443SOL    HW129228   2.222   4.791   1.179
 9443SOL    HW229229   2.299   4.807   1.036
 9444SOL     OW29230   0.835   3.906   6.481
 9444SOL    HW129231   0.911   3.969   6.496
 9444SOL    HW229232   0.833   3.879   6.385
 9445SOL     OW29233   5.253   3.250   2.044
 9445SOL    HW129234   5.192   3.173   2.058
 9445SOL    HW229235   5.222   3.303   1.965
 9446SOL     OW29236   6.120   6.636   3.481
 9446SOL    HW129237   6.190   6.579   3.525
 9446SOL    HW229238   6.151   6.664   3.390
 9447SOL     OW29239   5.796   3.694   3.431
 9447SOL    HW129240   5.896   3.690   3.429
 9447SOL    HW229241   5.758   3.616   3.381
 9448SOL     OW29242   5.840   6.206   6.214
 9448SOL    HW129243   5.765   6.242   6.158
 9448SOL    HW229244   5.906   6.278   6.232
 9449SOL     OW29245   6.984   5.851   6.507
 9449SOL    HW129246   0.015   5.784   6.563
 9449SOL    HW229247   7.008   5.944   6.538
 9450SOL     OW29248   3.188   4.965   4.894
 9450SOL    HW129249   3.130   4.927   4.822
 9450SOL    HW229250   3.282   4.932   4.882
 9451SOL     OW29251   4.171   5.673   5.869
 9451SOL    HW129252   4.213   5.734   5.936
 9451SOL    HW229253   4.078   5.651   5.897
 9452SOL     OW29254   1.869   3.144   0.822
 9452SOL    HW129255   1.802   3.156   0.895
 9452SOL    HW229256   1.851   3.210   0.749
 9453SOL     OW29257   2.193   4.566   3.406
 9453SOL    HW129258   2.153   4.594   3.493
 9453SOL    HW229259   2.256   4.490   3.420
 9454SOL     OW29260   1.894   3.376   5.615
 9454SOL    HW129261   1.799   3.368   5.585
 9454SOL    HW229262   1.923   3.290   5.656
 9455SOL     OW29263   3.515   1.625   2.777
 9455SOL    HW129264   3.449   1.699   2.762
 9455SOL    HW229265   3.594   1.638   2.717
 9456SOL     OW29266   0.317   4.606   0.271
 9456SOL    HW129267   0.314   4.675   0.199
 9456SOL    HW229268   0.410   4.598   0.305
 9457SOL     OW29269   1.813   3.475   6.146
 9457SOL    HW129270   1.912   3.470   6.159
 9457SOL    HW229271   1.778   3.385   6.120
 9458SOL     OW29272   1.302   4.234   6.475
 9458SOL    HW129273   1.299   4.326   6.514
 9458SOL    HW229274   1.336   4.239   6.381
 9459SOL     OW29275   6.538   4.621   2.297
 9459SOL    HW129276   6.584   4.592   2.213
 9459SOL    HW229277   6.577   4.573   2.375
 9460SOL     OW29278   0.124   1.687   4.883
 9460SOL    HW129279   0.052   1.705   4.816
 9460SOL    HW229280   0.106   1.601   4.930
 9461SOL     OW29281   6.585   1.736   3.502
 9461SOL    HW129282   6.573   1.640   3.474
 9461SOL    HW229283   6.516   1.759   3.571
 9462SOL     OW29284   2.204   3.952   3.054
 9462SOL    HW129285   2.254   4.024   3.007
 9462SOL    HW229286   2.189   3.979   3.150
 9463SOL     OW29287   0.326   1.196   1.377
 9463SOL    HW129288   0.353   1.104   1.404
 9463SOL    HW229289   0.325   1.256   1.457
 9464SOL     OW29290   5.179   6.663   0.134
 9464SOL    HW129291   5.129   6.735   0.182
 9464SOL    HW229292   5.255   6.632   0.192
 9465SOL     OW29293   6.957   0.149   2.995
 9465SOL    HW129294   0.024   0.115   3.033
 9465SOL    HW229295   6.884   0.143   3.064
 9466SOL     OW29296   3.902   3.829   5.119
 9466SOL    HW129297   3.992   3.818   5.160
 9466SOL    HW229298   3.909   3.820   5.020
 9467SOL     OW29299   1.184   3.129   1.418
 9467SOL    HW129300   1.146   3.181   1.494
 9467SOL    HW229301   1.272   3.089   1.445
 9468SOL     OW29302   5.455   2.659   6.015
 9468SOL    HW129303   5.407   2.735   6.059
 9468SOL    HW229304   5.554   2.671   6.025
 9469SOL     OW29305   5.906   5.547   1.730
 9469SOL    HW129306   5.901   5.641   1.698
 9469SOL    HW229307   5.962   5.493   1.666
 9470SOL     OW29308   5.830   3.136   6.250
 9470SOL    HW129309   5.753   3.199   6.265
 9470SOL    HW229310   5.806   3.045   6.284
 9471SOL     OW29311   6.260   2.286   5.290
 9471SOL    HW129312   6.271   2.238   5.376
 9471SOL    HW229313   6.238   2.220   5.218
 9472SOL     OW29314   6.670   3.867   4.300
 9472SOL    HW129315   6.602   3.851   4.227
 9472SOL    HW229316   6.705   3.960   4.293
 9473SOL     OW29317   3.546   6.174   5.517
 9473SOL    HW129318   3.624   6.231   5.490
 9473SOL    HW229319   3.502   6.137   5.435
 9474SOL     OW29320   6.292   3.545   1.031
 9474SOL    HW129321   6.208   3.568   1.079
 9474SOL    HW229322   6.280   3.457   0.984
 9475SOL     OW29323   3.082   3.048   0.263
 9475SOL    HW129324   3.128   2.994   0.193
 9475SOL    HW229325   3.051   3.134   0.225
 9476SOL     OW29326   3.126   3.937   4.822
 9476SOL    HW129327   3.105   3.896   4.733
 9476SOL    HW229328   3.165   4.028   4.809
 9477SOL     OW29329   6.830   3.566   2.092
 9477SOL    HW129330   6.816   3.640   2.026
 9477SOL    HW229331   6.918   3.577   2.137
 9478SOL     OW29332   5.942   3.853   6.280
 9478SOL    HW129333   6.010   3.902   6.334
 9478SOL    HW229334   5.944   3.887   6.186
 9479SOL     OW29335   6.128   6.675   6.268
 9479SOL    HW129336   6.089   6.746   6.326
 9479SOL    HW229337   6.168   6.603   6.325
 9480SOL     OW29338   4.646   4.477   6.873
 9480SOL    HW129339   4.601   4.509   6.789
 9480SOL    HW229340   4.738   4.445   6.850
 9481SOL     OW29341   5.749   3.926   1.594
 9481SOL    HW129342   5.704   4.011   1.566
 9481SOL    HW229343   5.726   3.853   1.530
 9482SOL     OW29344   6.219   1.587   3.381
 9482SOL    HW129345   6.250   1.571   3.287
 9482SOL    HW229346   6.120   1.573   3.387
 9483SOL     OW29347   1.355   1.650   0.790
 9483SOL    HW129348   1.347   1.595   0.707
 9483SOL    HW229349   1.450   1.650   0.821
 9484SOL     OW29350   4.617   1.527   3.476
 9484SOL    HW129351   4.523   1.498   3.458
 9484SOL    HW229352   4.616   1.610   3.533
 9485SOL     OW29353   0.727   0.382   1.988
 9485SOL    HW129354   0.705   0.479   1.977
 9485SOL    HW229355   0.649   0.327   1.958
 9486SOL     OW29356   2.466   5.185   1.440
 9486SOL    HW129357   2.408   5.157   1.517
 9486SOL    HW229358   2.552   5.220   1.475
 9487SOL     OW29359   3.112   3.484   3.524
 9487SOL    HW129360   3.056   3.475   3.607
 9487SOL    HW229361   3.174   3.561   3.534
 9488SOL     OW29362   2.939   6.565   1.544
 9488SOL    HW129363   2.918   6.471   1.572
 9488SOL    HW229364   3.038   6.577   1.542
 9489SOL     OW29365   3.538   4.173   1.381
 9489SOL    HW129366   3.513   4.134   1.470
 9489SOL    HW229367   3.599   4.251   1.395
 9490SOL     OW29368   5.862   6.472   0.141
 9490SOL    HW129369   5.838   6.375   0.141
 9490SOL    HW229370   5.866   6.505   0.047
 9491SOL     OW29371   6.914   4.898   4.544
 9491SOL    HW129372   6.907   4.998   4.536
 9491SOL    HW229373   7.010   4.872   4.548
 9492SOL     OW29374   3.268   3.708   2.675
 9492SOL    HW129375   3.273   3.707   2.576
 9492SOL    HW229376   3.334   3.773   2.712
 9493SOL     OW29377   4.433   5.454   3.504
 9493SOL    HW129378   4.518   5.427   3.551
 9493SOL    HW229379   4.390   5.529   3.555
 9494SOL     OW29380   4.045   4.125   0.891
 9494SOL    HW129381   3.955   4.101   0.926
 9494SOL    HW229382   4.103   4.043   0.887
 9495SOL     OW29383   6.340   2.470   4.350
 9495SOL    HW129384   6.434   2.453   4.381
 9495SOL    HW229385   6.280   2.399   4.387
 9496SOL     OW29386   5.175   5.104   0.670
 9496SOL    HW129387   5.174   5.204   0.683
 9496SOL    HW229388   5.226   5.082   0.587
 9497SOL     OW29389   5.136   4.071   0.471
 9497SOL    HW129390   5.143   4.001   0.543
 9497SOL    HW229391   5.095   4.153   0.510
 9498SOL     OW29392   5.421   0.578   6.443
 9498SOL    HW129393   5.457   0.599   6.352
 9498SOL    HW229394   5.347   0.643   6.465
 9499SOL     OW29395   2.561   3.197   5.669
 9499SOL    HW129396   2.480   3.155   5.628
 9499SOL    HW229397   2.552   3.297   5.666
 9500SOL     OW29398   3.766   6.934   1.949
 9500SOL    HW129399   3.708   6.880   1.889
 9500SOL    HW229400   3.838   6.876   1.987
 9501SOL     OW29401   3.015   1.556   4.162
 9501SOL    HW129402   2.975   1.631   4.110
 9501SOL    HW229403   3.110   1.578   4.183
 9502SOL     OW29404   0.397   1.688   4.797
 9502SOL    HW129405   0.408   1.654   4.703
 9502SOL    HW229406   0.312   1.653   4.835
 9503SOL     OW29407   0.726   1.014   1.851
 9503SOL    HW129408   0.792   0.939   1.845
 9503SOL    HW229409   0.749   1.085   1.785
 9504SOL     OW29410   0.172   2.342   1.186
 9504SOL    HW129411   0.233   2.315   1.261
 9504SOL    HW229412   0.180   2.440   1.171
 9505SOL     OW29413   4.977   3.671   3.462
 9505SOL    HW129414   5.004   3.590   3.513
 9505SOL    HW229415   4.879   3.686   3.472
 9506SOL     OW29416   0.759   3.158   6.207
 9506SOL    HW129417   0.798   3.112   6.287
 9506SOL    HW229418   0.833   3.184   6.145
 9507SOL     OW29419   1.820   1.243   3.900
 9507SOL    HW129420   1.901   1.187   3.886
 9507SOL    HW229421   1.829   1.329   3.850
 9508SOL     OW29422   6.363   2.548   0.599
 9508SOL    HW129423   6.454   2.540   0.640
 9508SOL    HW229424   6.316   2.628   0.637
 9509SOL     OW29425   1.133   6.562   5.394
 9509SOL    HW129426   1.217   6.538   5.442
 9509SOL    HW229427   1.085   6.478   5.368
 9510SOL     OW29428   0.676   3.864   1.710
 9510SOL    HW129429   0.704   3.768   1.711
 9510SOL    HW229430   0.623   3.883   1.627
 9511SOL     OW29431   1.214   1.653   6.743
 9511SOL    HW129432   1.301   1.696   6.722
 9511SOL    HW229433   1.151   1.666   6.667
 9512SOL     OW29434   5.721   1.956   3.239
 9512SOL    HW129435   5.662   1.934   3.316
 9512SOL    HW229436   5.740   2.054   3.238
 9513SOL     OW29437   1.042   3.181   4.787
 9513SOL    HW129438   1.038   3.270   4.741
 9513SOL    HW229439   1.137   3.152   4.797
 9514SOL     OW29440   1.485   3.643   6.816
 9514SOL    HW129441   1.402   3.634   6.760
 9514SOL    HW229442   1.473   3.592   6.901
 9515SOL     OW29443   1.593   6.106   0.415
 9515SOL    HW129444   1.617   6.089   0.319
 9515SOL    HW229445   1.669   6.079   0.474
 9516SOL     OW29446   4.860   3.630   4.451
 9516SOL    HW129447   4.892   3.553   4.506
 9516SOL    HW229448   4.840   3.708   4.510
 9517SOL     OW29449   1.507   4.922   0.790
 9517SOL    HW129450   1.423   4.869   0.783
 9517SOL    HW229451   1.553   4.902   0.876
 9518SOL     OW29452   0.979   2.084   6.667
 9518SOL    HW129453   0.928   2.053   6.586
 9518SOL    HW229454   0.979   2.012   6.736
 9519SOL     OW29455   3.645   3.209   3.169
 9519SOL    HW129456   3.582   3.263   3.224
 9519SOL    HW229457   3.689   3.267   3.100
 9520SOL     OW29458   6.491   1.499   3.433
 9520SOL    HW129459   6.498   1.411   3.480
 9520SOL    HW229460   6.396   1.528   3.431
 9521SOL     OW29461   3.602   3.871   1.580
 9521SOL    HW129462   3.667   3.822   1.639
 9521SOL    HW229463   3.576   3.958   1.623
 9522SOL     OW29464   4.079   5.571   3.036
 9522SOL    HW129465   4.126   5.643   3.087
 9522SOL    HW229466   3.981   5.590   3.035
 9523SOL     OW29467   2.597   5.098   5.157
 9523SOL    HW129468   2.499   5.084   5.143
 9523SOL    HW229469   2.645   5.010   5.149
 9524SOL     OW29470   1.673   2.581   0.992
 9524SOL    HW129471   1.717   2.655   1.043
 9524SOL    HW229472   1.575   2.600   0.985
 9525SOL     OW29473   1.517   1.942   4.996
 9525SOL    HW129474   1.506   1.992   4.910
 9525SOL    HW229475   1.614   1.942   5.022
 9526SOL     OW29476   6.120   4.715   1.492
 9526SOL    HW129477   6.115   4.636   1.431
 9526SOL    HW229478   6.041   4.774   1.476
 9527SOL     OW29479   2.309   0.258   4.820
 9527SOL    HW129480   2.299   0.332   4.887
 9527SOL    HW229481   2.237   0.265   4.751
 9528SOL     OW29482   5.997   1.821   1.130
 9528SOL    HW129483   5.988   1.833   1.031
 9528SOL    HW229484   6.030   1.729   1.150
 9529SOL     OW29485   5.683   4.012   0.612
 9529SOL    HW129486   5.619   3.971   0.677
 9529SOL    HW229487   5.649   3.999   0.519
 9530SOL     OW29488   1.058   4.771   4.233
 9530SOL    HW129489   0.999   4.739   4.159
 9530SOL    HW229490   1.152   4.739   4.218
 9531SOL     OW29491   4.332   4.591   3.009
 9531SOL    HW129492   4.378   4.519   3.062
 9531SOL    HW229493   4.398   4.662   2.987
 9532SOL     OW29494   6.990   5.233   1.048
 9532SOL    HW129495   0.054   5.283   1.074
 9532SOL    HW229496   6.946   5.196   1.130
 9533SOL     OW29497   0.626   5.083   3.437
 9533SOL    HW129498   0.586   5.131   3.359
 9533SOL    HW229499   0.651   5.149   3.508
 9534SOL     OW29500   5.969   4.479   4.728
 9534SOL    HW129501   6.035   4.525   4.787
 9534SOL    HW229502   6.009   4.465   4.638
 9535SOL     OW29503   1.776   0.972   6.042
 9535SOL    HW129504   1.857   0.916   6.058
 9535SOL    HW229505   1.754   1.024   6.124
 9536SOL     OW29506   3.307   3.536   5.940
 9536SOL    HW129507   3.384   3.509   5.881
 9536SOL    HW229508   3.221   3.508   5.897
 9537SOL     OW29509   3.066   1.596   4.887
 9537SOL    HW129510   3.014   1.606   4.802
 9537SOL    HW229511   3.002   1.588   4.964
 9538SOL     OW29512   4.557   0.445   4.498
 9538SOL    HW129513   4.488   0.476   4.564
 9538SOL    HW229514   4.536   0.351   4.470
 9539SOL     OW29515   2.893   3.564   4.494
 9539SOL    HW129516   2.832   3.577   4.416
 9539SOL    HW229517   2.906   3.651   4.541
 9540SOL     OW29518   5.599   5.428   4.276
 9540SOL    HW129519   5.546   5.387   4.351
 9540SOL    HW229520   5.692   5.392   4.278
 9541SOL     OW29521   1.988   0.834   6.140
 9541SOL    HW129522   1.973   0.759   6.203
 9541SOL    HW229523   2.049   0.901   6.181
 9542SOL     OW29524   5.773   5.286   4.594
 9542SOL    HW129525   5.799   5.213   4.531
 9542SOL    HW229526   5.770   5.251   4.687
 9543SOL     OW29527   3.791   0.479   6.320
 9543SOL    HW129528   3.792   0.379   6.327
 9543SOL    HW229529   3.854   0.517   6.387
 9544SOL     OW29530   5.234   3.373   4.480
 9544SOL    HW129531   5.186   3.426   4.550
 9544SOL    HW229532   5.326   3.351   4.513
 9545SOL     OW29533   5.787   4.932   2.453
 9545SOL    HW129534   5.810   4.997   2.526
 9545SOL    HW229535   5.868   4.914   2.397
 9546SOL     OW29536   3.954   1.140   5.979
 9546SOL    HW129537   3.909   1.051   5.973
 9546SOL    HW229538   4.052   1.129   5.968
 9547SOL     OW29539   2.291   5.418   3.755
 9547SOL    HW129540   2.330   5.402   3.665
 9547SOL    HW229541   2.360   5.459   3.815
 9548SOL     OW29542   0.149   5.574   4.696
 9548SOL    HW129543   0.207   5.591   4.616
 9548SOL    HW229544   0.117   5.661   4.733
 9549SOL     OW29545   2.702   1.389   2.033
 9549SOL    HW129546   2.627   1.386   2.099
 9549SOL    HW229547   2.770   1.456   2.062
 9550SOL     OW29548   6.538   1.475   0.414
 9550SOL    HW129549   6.550   1.544   0.342
 9550SOL    HW229550   6.441   1.458   0.428
 9551SOL     OW29551   6.012   3.012   6.018
 9551SOL    HW129552   5.948   3.026   6.094
 9551SOL    HW229553   5.965   3.026   5.931
 9552SOL     OW29554   2.415   6.067   5.937
 9552SOL    HW129555   2.330   6.085   5.986
 9552SOL    HW229556   2.480   6.023   5.998
 9553SOL     OW29557   5.576   2.401   0.183
 9553SOL    HW129558   5.673   2.376   0.178
 9553SOL    HW229559   5.568   2.494   0.220
 9554SOL     OW29560   1.485   6.366   3.123
 9554SOL    HW129561   1.450   6.456   3.148
 9554SOL    HW229562   1.468   6.302   3.198
 9555SOL     OW29563   0.071   1.286   3.201
 9555SOL    HW129564   0.032   1.325   3.118
 9555SOL    HW229565   0.020   1.318   3.280
 9556SOL     OW29566   1.612   3.303   0.917
 9556SOL    HW129567   1.671   3.340   0.846
 9556SOL    HW229568   1.524   3.276   0.877
 9557SOL     OW29569   5.690   0.073   0.918
 9557SOL    HW129570   5.592   0.057   0.902
 9557SOL    HW229571   5.704   0.103   1.012
 9558SOL     OW29572   5.928   5.648   5.288
 9558SOL    HW129573   5.932   5.700   5.374
 9558SOL    HW229574   5.843   5.668   5.241
 9559SOL     OW29575   1.125   4.752   0.486
 9559SOL    HW129576   1.220   4.737   0.460
 9559SOL    HW229577   1.095   4.678   0.546
 9560SOL     OW29578   2.401   0.988   2.974
 9560SOL    HW129579   2.354   1.009   3.060
 9560SOL    HW229580   2.455   1.067   2.946
 9561SOL     OW29581   0.452   0.963   1.458
 9561SOL    HW129582   0.548   0.943   1.480
 9561SOL    HW229583   0.417   0.895   1.394
 9562SOL     OW29584   2.909   6.972   4.892
 9562SOL    HW129585   2.814   6.951   4.915
 9562SOL    HW229586   2.923   0.053   4.897
 9563SOL     OW29587   6.997   6.892   0.121
 9563SOL    HW129588   6.946   6.812   0.151
 9563SOL    HW229589   0.072   6.888   0.156
 9564SOL     OW29590   2.303   0.980   0.634
 9564SOL    HW129591   2.254   1.050   0.580
 9564SOL    HW229592   2.313   1.012   0.728
 9565SOL     OW29593   3.776   1.207   5.601
 9565SOL    HW129594   3.867   1.168   5.607
 9565SOL    HW229595   3.750   1.243   5.691
 9566SOL     OW29596   2.757   5.972   0.217
 9566SOL    HW129597   2.673   6.006   0.260
 9566SOL    HW229598   2.737   5.888   0.166
 9567SOL     OW29599   5.029   4.629   0.377
 9567SOL    HW129600   4.957   4.675   0.429
 9567SOL    HW229601   5.118   4.645   0.420
 9568SOL     OW29602   4.647   2.036   0.132
 9568SOL    HW129603   4.666   2.102   0.059
 9568SOL    HW229604   4.655   2.081   0.221
 9569SOL     OW29605   0.089   1.604   2.174
 9569SOL    HW129606   0.055   1.522   2.220
 9569SOL    HW229607   0.186   1.617   2.196
 9570SOL     OW29608   0.712   3.340   1.744
 9570SOL    HW129609   0.694   3.325   1.647
 9570SOL    HW229610   0.644   3.291   1.799
 9571SOL     OW29611   3.596   2.876   5.800
 9571SOL    HW129612   3.592   2.918   5.709
 9571SOL    HW229613   3.690   2.876   5.833
 9572SOL     OW29614   2.077   5.017   2.305
 9572SOL    HW129615   2.087   4.936   2.363
 9572SOL    HW229616   2.016   4.995   2.228
 9573SOL     OW29617   0.524   2.051   6.378
 9573SOL    HW129618   0.444   2.056   6.439
 9573SOL    HW229619   0.603   2.018   6.430
 9574SOL     OW29620   3.471   2.819   2.673
 9574SOL    HW129621   3.510   2.849   2.585
 9574SOL    HW229622   3.396   2.880   2.698
 9575SOL     OW29623   0.329   1.762   1.976
 9575SOL    HW129624   0.344   1.855   1.940
 9575SOL    HW229625   0.379   1.750   2.061
 9576SOL     OW29626   1.888   1.705   0.504
 9576SOL    HW129627   1.884   1.613   0.543
 9576SOL    HW229628   1.936   1.766   0.567
 9577SOL     OW29629   0.581   0.235   5.943
 9577SOL    HW129630   0.647   0.310   5.948
 9577SOL    HW229631   0.512   0.256   5.873
 9578SOL     OW29632   1.169   3.639   3.032
 9578SOL    HW129633   1.260   3.623   3.070
 9578SOL    HW229634   1.163   3.598   2.941
 9579SOL     OW29635   0.198   5.322   3.156
 9579SOL    HW129636   0.264   5.291   3.088
 9579SOL    HW229637   0.227   5.290   3.247
 9580SOL     OW29638   4.319   3.345   0.946
 9580SOL    HW129639   4.285   3.302   1.029
 9580SOL    HW229640   4.369   3.278   0.891
 9581SOL     OW29641   0.431   0.314   6.920
 9581SOL    HW129642   0.411   0.319   6.822
 9581SOL    HW229643   0.347   0.330   6.972
 9582SOL     OW29644   4.499   5.549   5.101
 9582SOL    HW129645   4.494   5.602   5.016
 9582SOL    HW229646   4.438   5.590   5.169
 9583SOL     OW29647   2.997   3.926   1.308
 9583SOL    HW129648   2.936   3.854   1.342
 9583SOL    HW229649   2.987   3.935   1.209
 9584SOL     OW29650   6.959   5.385   5.840
 9584SOL    HW129651   7.002   5.362   5.927
 9584SOL    HW229652   0.008   5.379   5.766
 9585SOL     OW29653   5.755   6.440   3.672
 9585SOL    HW129654   5.831   6.414   3.732
 9585SOL    HW229655   5.770   6.402   3.581
 9586SOL     OW29656   5.094   5.081   2.184
 9586SOL    HW129657   5.044   5.000   2.215
 9586SOL    HW229658   5.153   5.056   2.107
 9587SOL     OW29659   0.892   0.219   1.590
 9587SOL    HW129660   0.853   0.144   1.643
 9587SOL    HW229661   0.893   0.302   1.647
 9588SOL     OW29662   6.364   6.530   1.191
 9588SOL    HW129663   6.382   6.444   1.237
 9588SOL    HW229664   6.381   6.606   1.254
 9589SOL     OW29665   1.737   5.143   0.201
 9589SOL    HW129666   1.814   5.200   0.231
 9589SOL    HW229667   1.703   5.177   0.113
 9590SOL     OW29668   5.588   3.331   1.469
 9590SOL    HW129669   5.559   3.328   1.565
 9590SOL    HW229670   5.509   3.311   1.410
 9591SOL     OW29671   3.018   5.367   5.775
 9591SOL    HW129672   2.937   5.336   5.724
 9591SOL    HW229673   3.046   5.296   5.839
 9592SOL     OW29674   2.807   4.635   0.242
 9592SOL    HW129675   2.773   4.659   0.333
 9592SOL    HW229676   2.885   4.572   0.252
 9593SOL     OW29677   0.842   1.284   6.761
 9593SOL    HW129678   0.793   1.204   6.796
 9593SOL    HW229679   0.816   1.365   6.814
 9594SOL     OW29680   1.858   5.074   3.823
 9594SOL    HW129681   1.857   5.167   3.787
 9594SOL    HW229682   1.912   5.072   3.908
 9595SOL     OW29683   0.244   3.019   4.268
 9595SOL    HW129684   0.179   3.046   4.197
 9595SOL    HW229685   0.297   2.941   4.236
 9596SOL     OW29686   1.378   5.150   6.658
 9596SOL    HW129687   1.331   5.140   6.570
 9596SOL    HW229688   1.472   5.117   6.649
 9597SOL     OW29689   7.007   4.093   1.481
 9597SOL    HW129690   0.043   4.132   1.407
 9597SOL    HW229691   6.910   4.097   1.456
 9598SOL     OW29692   1.513   4.949   3.302
 9598SOL    HW129693   1.592   4.891   3.281
 9598SOL    HW229694   1.537   5.012   3.376
 9599SOL     OW29695   2.530   0.737   4.305
 9599SOL    HW129696   2.482   0.758   4.390
 9599SOL    HW229697   2.624   0.768   4.311
 9600SOL     OW29698   3.310   6.590   0.089
 9600SOL    HW129699   3.233   6.635   0.134
 9600SOL    HW229700   3.343   6.515   0.146
 9601SOL     OW29701   4.984   4.281   1.156
 9601SOL    HW129702   5.024   4.220   1.087
 9601SOL    HW229703   4.926   4.227   1.217
 9602SOL     OW29704   6.294   4.025   6.660
 9602SOL    HW129705   6.269   3.937   6.701
 9602SOL    HW229706   6.212   4.078   6.642
 9603SOL     OW29707   4.745   1.283   5.609
 9603SOL    HW129708   4.744   1.383   5.622
 9603SOL    HW229709   4.750   1.239   5.699
 9604SOL     OW29710   4.883   0.315   0.880
 9604SOL    HW129711   4.837   0.246   0.936
 9604SOL    HW229712   4.944   0.269   0.816
 9605SOL     OW29713   0.745   5.861   3.561
 9605SOL    HW129714   0.826   5.869   3.619
 9605SOL    HW229715   0.724   5.949   3.519
 9606SOL     OW29716   1.892   6.340   0.349
 9606SOL    HW129717   1.855   6.421   0.395
 9606SOL    HW229718   1.944   6.285   0.414
 9607SOL     OW29719   1.838   1.185   6.516
 9607SOL    HW129720   1.937   1.184   6.533
 9607SOL    HW229721   1.821   1.190   6.418
 9608SOL     OW29722   6.852   5.171   2.017
 9608SOL    HW129723   6.812   5.080   2.014
 9608SOL    HW229724   6.901   5.183   2.104
 9609SOL     OW29725   2.349   3.289   0.220
 9609SOL    HW129726   2.256   3.258   0.201
 9609SOL    HW229727   2.397   3.221   0.274
 9610SOL     OW29728   1.555   4.874   3.849
 9610SOL    HW129729   1.460   4.897   3.827
 9610SOL    HW229730   1.580   4.913   3.937
 9611SOL     OW29731   1.119   5.952   6.762
 9611SOL    HW129732   1.140   6.045   6.732
 9611SOL    HW229733   1.051   5.912   6.700
 9612SOL     OW29734   0.482   4.170   1.345
 9612SOL    HW129735   0.423   4.235   1.297
 9612SOL    HW229736   0.528   4.217   1.420
 9613SOL     OW29737   5.264   0.626   3.781
 9613SOL    HW129738   5.233   0.574   3.701
 9613SOL    HW229739   5.184   0.656   3.834
 9614SOL     OW29740   3.924   2.383   1.532
 9614SOL    HW129741   3.983   2.381   1.613
 9614SOL    HW229742   3.833   2.417   1.558
 9615SOL     OW29743   2.606   0.147   0.730
 9615SOL    HW129744   2.648   0.058   0.712
 9615SOL    HW229745   2.581   0.153   0.827
 9616SOL     OW29746   3.343   3.592   1.242
 9616SOL    HW129747   3.380   3.512   1.289
 9616SOL    HW229748   3.246   3.602   1.263
 9617SOL     OW29749   1.079   3.658   3.296
 9617SOL    HW129750   1.091   3.646   3.198
 9617SOL    HW229751   0.981   3.657   3.318
 9618SOL     OW29752   4.403   6.901   6.824
 9618SOL    HW129753   4.375   6.805   6.819
 9618SOL    HW229754   4.503   6.907   6.823
 9619SOL     OW29755   1.506   6.581   6.450
 9619SOL    HW129756   1.485   6.598   6.547
 9619SOL    HW229757   1.479   6.661   6.396
 9620SOL     OW29758   4.331   1.148   6.221
 9620SOL    HW129759   4.404   1.143   6.289
 9620SOL    HW229760   4.320   1.242   6.191
 9621SOL     OW29761   0.733   1.996   1.757
 9621SOL    HW129762   0.714   1.972   1.662
 9621SOL    HW229763   0.673   1.943   1.817
 9622SOL     OW29764   6.881   1.326   0.773
 9622SOL    HW129765   6.823   1.406   0.757
 9622SOL    HW229766   6.923   1.333   0.864
 9623SOL     OW29767   2.988   3.891   5.602
 9623SOL    HW129768   2.999   3.909   5.700
 9623SOL    HW229769   2.900   3.846   5.586
 9624SOL     OW29770   6.709   4.003   2.060
 9624SOL    HW129771   6.769   4.049   2.125
 9624SOL    HW229772   6.696   4.060   1.979
 9625SOL     OW29773   4.830   5.202   6.680
 9625SOL    HW129774   4.733   5.210   6.702
 9625SOL    HW229775   4.874   5.292   6.688
 9626SOL     OW29776   3.996   4.657   6.635
 9626SOL    HW129777   3.945   4.697   6.711
 9626SOL    HW229778   4.032   4.568   6.662
 9627SOL     OW29779   6.854   6.041   4.776
 9627SOL    HW129780   6.934   5.989   4.803
 9627SOL    HW229781   6.842   6.120   4.837
 9628SOL     OW29782   4.811   4.779   6.704
 9628SOL    HW129783   4.898   4.816   6.736
 9628SOL    HW229784   4.822   4.682   6.682
 9629SOL     OW29785   0.203   0.141   1.864
 9629SOL    HW129786   0.149   0.220   1.835
 9629SOL    HW229787   0.230   0.152   1.960
 9630SOL     OW29788   6.794   6.808   5.295
 9630SOL    HW129789   6.726   6.874   5.328
 9630SOL    HW229790   6.874   6.857   5.262
 9631SOL     OW29791   6.962   6.737   6.889
 9631SOL    HW129792   6.986   6.798   6.965
 9631SOL    HW229793   6.986   6.781   6.803
 9632SOL     OW29794   0.741   6.982   2.739
 9632SOL    HW129795   0.712   6.895   2.780
 9632SOL    HW229796   0.751   0.032   2.811
 9633SOL     OW29797   5.293   4.776   5.869
 9633SOL    HW129798   5.324   4.816   5.783
 9633SOL    HW229799   5.324   4.832   5.945
 9634SOL     OW29800   1.024   5.853   4.071
 9634SOL    HW129801   0.934   5.825   4.038
 9634SOL    HW229802   1.020   5.869   4.170
 9635SOL     OW29803   1.523   4.702   4.859
 9635SOL    HW129804   1.443   4.683   4.916
 9635SOL    HW229805   1.591   4.629   4.872
 9636SOL     OW29806   4.332   1.891   5.689
 9636SOL    HW129807   4.261   1.905   5.620
 9636SOL    HW229808   4.345   1.976   5.741
 9637SOL     OW29809   2.342   1.288   6.311
 9637SOL    HW129810   2.257   1.235   6.311
 9637SOL    HW229811   2.363   1.317   6.218
 9638SOL     OW29812   6.515   3.661   0.032
 9638SOL    HW129813   6.484   3.740   0.085
 9638SOL    HW229814   6.611   3.674   0.006
 9639SOL     OW29815   3.435   1.263   2.232
 9639SOL    HW129816   3.361   1.315   2.189
 9639SOL    HW229817   3.437   1.282   2.330
 9640SOL     OW29818   2.165   3.011   3.311
 9640SOL    HW129819   2.192   2.987   3.218
 9640SOL    HW229820   2.214   2.953   3.376
 9641SOL     OW29821   3.683   6.479   0.587
 9641SOL    HW129822   3.683   6.575   0.559
 9641SOL    HW229823   3.596   6.457   0.631
 9642SOL     OW29824   3.479   6.507   4.740
 9642SOL    HW129825   3.462   6.410   4.757
 9642SOL    HW229826   3.405   6.562   4.780
 9643SOL     OW29827   5.300   5.057   4.387
 9643SOL    HW129828   5.354   4.977   4.414
 9643SOL    HW229829   5.208   5.048   4.423
 9644SOL     OW29830   1.167   4.262   6.089
 9644SOL    HW129831   1.159   4.321   6.169
 9644SOL    HW229832   1.210   4.176   6.116
 9645SOL     OW29833   3.012   5.193   3.563
 9645SOL    HW129834   2.988   5.141   3.645
 9645SOL    HW229835   2.955   5.275   3.557
 9646SOL     OW29836   2.994   4.725   1.762
 9646SOL    HW129837   2.941   4.677   1.832
 9646SOL    HW229838   3.034   4.658   1.699
 9647SOL     OW29839   6.244   5.429   2.025
 9647SOL    HW129840   6.294   5.383   1.953
 9647SOL    HW229841   6.273   5.394   2.114
 9648SOL     OW29842   4.361   1.433   0.583
 9648SOL    HW129843   4.437   1.489   0.616
 9648SOL    HW229844   4.337   1.462   0.490
 9649SOL     OW29845   3.015   6.672   0.033
 9649SOL    HW129846   2.945   6.676   6.981
 9649SOL    HW229847   3.068   6.587   0.024
 9650SOL     OW29848   5.993   5.427   2.130
 9650SOL    HW129849   6.076   5.453   2.082
 9650SOL    HW229850   5.984   5.327   2.130
 9651SOL     OW29851   0.068   0.948   6.301
 9651SOL    HW129852   0.037   1.035   6.339
 9651SOL    HW229853   0.066   0.952   6.201
 9652SOL     OW29854   2.295   4.526   0.797
 9652SOL    HW129855   2.218   4.522   0.861
 9652SOL    HW229856   2.287   4.609   0.741
 9653SOL     OW29857   4.187   5.287   4.595
 9653SOL    HW129858   4.191   5.268   4.497
 9653SOL    HW229859   4.242   5.369   4.615
 9654SOL     OW29860   3.283   2.884   1.583
 9654SOL    HW129861   3.377   2.906   1.555
 9654SOL    HW229862   3.266   2.787   1.569
 9655SOL     OW29863   6.933   1.246   6.962
 9655SOL    HW129864   6.874   1.182   7.011
 9655SOL    HW229865   0.009   1.231   6.989
 9656SOL     OW29866   2.749   1.647   0.762
 9656SOL    HW129867   2.763   1.745   0.779
 9656SOL    HW229868   2.754   1.597   0.848
 9657SOL     OW29869   5.966   0.540   3.721
 9657SOL    HW129870   6.048   0.589   3.750
 9657SOL    HW229871   5.885   0.597   3.735
 9658SOL     OW29872   6.393   2.104   3.551
 9658SOL    HW129873   6.374   2.019   3.502
 9658SOL    HW229874   6.370   2.092   3.648
 9659SOL     OW29875   6.609   4.393   0.610
 9659SOL    HW129876   6.623   4.310   0.556
 9659SOL    HW229877   6.525   4.438   0.582
 9660SOL     OW29878   0.823   5.677   0.287
 9660SOL    HW129879   0.746   5.622   0.319
 9660SOL    HW229880   0.792   5.744   0.220
 9661SOL     OW29881   4.082   5.921   1.459
 9661SOL    HW129882   4.151   5.960   1.398
 9661SOL    HW229883   4.126   5.857   1.522
 9662SOL     OW29884   5.943   2.520   5.109
 9662SOL    HW129885   5.982   2.558   5.026
 9662SOL    HW229886   5.894   2.592   5.158
 9663SOL     OW29887   0.997   5.524   3.983
 9663SOL    HW129888   0.926   5.514   4.053
 9663SOL    HW229889   0.955   5.551   3.897
 9664SOL     OW29890   5.631   6.579   3.079
 9664SOL    HW129891   5.538   6.569   3.112
 9664SOL    HW229892   5.680   6.647   3.134
 9665SOL     OW29893   5.154   5.282   5.254
 9665SOL    HW129894   5.232   5.334   5.219
 9665SOL    HW229895   5.078   5.288   5.190
 9666SOL     OW29896   5.295   4.510   2.236
 9666SOL    HW129897   5.230   4.562   2.290
 9666SOL    HW229898   5.245   4.447   2.176
 9667SOL     OW29899   3.463   2.931   4.097
 9667SOL    HW129900   3.455   2.936   4.197
 9667SOL    HW229901   3.374   2.951   4.056
 9668SOL     OW29902   6.323   1.102   6.490
 9668SOL    HW129903   6.244   1.138   6.541
 9668SOL    HW229904   6.310   1.118   6.393
 9669SOL     OW29905   0.626   1.268   1.271
 9669SOL    HW129906   0.583   1.275   1.180
 9669SOL    HW229907   0.724   1.251   1.260
 9670SOL     OW29908   5.473   5.012   6.510
 9670SOL    HW129909   5.382   4.974   6.495
 9670SOL    HW229910   5.529   4.945   6.560
 9671SOL     OW29911   0.767   4.821   6.147
 9671SOL    HW129912   0.708   4.858   6.218
 9671SOL    HW229913   0.718   4.820   6.060
 9672SOL     OW29914   1.515   6.570   4.686
 9672SOL    HW129915   1.422   6.603   4.671
 9672SOL    HW229916   1.579   6.625   4.633
 9673SOL     OW29917   5.229   4.431   6.844
 9673SOL    HW129918   5.156   4.365   6.824
 9673SOL    HW229919   5.303   4.386   6.893
 9674SOL     OW29920   2.609   6.215   3.330
 9674SOL    HW129921   2.553   6.264   3.264
 9674SOL    HW229922   2.573   6.232   3.422
 9675SOL     OW29923   5.846   1.496   1.102
 9675SOL    HW129924   5.784   1.572   1.122
 9675SOL    HW229925   5.796   1.421   1.061
 9676SOL     OW29926   1.309   3.440   5.745
 9676SOL    HW129927   1.330   3.525   5.793
 9676SOL    HW229928   1.365   3.366   5.781
 9677SOL     OW29929   2.627   5.258   6.199
 9677SOL    HW129930   2.677   5.343   6.184
 9677SOL    HW229931   2.658   5.216   6.284
 9678SOL     OW29932   3.277   4.079   3.097
 9678SOL    HW129933   3.228   4.166   3.087
 9678SOL    HW229934   3.353   4.092   3.160
 9679SOL     OW29935   1.452   1.847   1.947
 9679SOL    HW129936   1.498   1.758   1.950
 9679SOL    HW229937   1.501   1.908   1.886
 9680SOL     OW29938   6.218   0.017   3.883
 9680SOL    HW129939   6.170   6.949   3.873
 9680SOL    HW229940   6.151   0.090   3.901
 9681SOL     OW29941   2.761   0.893   1.458
 9681SOL    HW129942   2.713   0.852   1.381
 9681SOL    HW229943   2.831   0.957   1.424
 9682SOL     OW29944   5.292   5.310   3.609
 9682SOL    HW129945   5.364   5.266   3.662
 9682SOL    HW229946   5.246   5.378   3.665
 9683SOL     OW29947   3.143   5.210   0.633
 9683SOL    HW129948   3.215   5.141   0.621
 9683SOL    HW229949   3.064   5.185   0.577
 9684SOL     OW29950   0.031   2.884   4.965
 9684SOL    HW129951   0.123   2.869   5.001
 9684SOL    HW229952   0.004   2.806   4.908
 9685SOL     OW29953   2.222   2.943   0.884
 9685SOL    HW129954   2.201   2.952   0.982
 9685SOL    HW229955   2.173   2.864   0.847
 9686SOL     OW29956   5.848   1.812   0.868
 9686SOL    HW129957   5.795   1.884   0.824
 9686SOL    HW229958   5.871   1.741   0.801
 9687SOL     OW29959   2.232   0.725   4.060
 9687SOL    HW129960   2.293   0.717   4.139
 9687SOL    HW229961   2.235   0.819   4.025
 9688SOL     OW29962   6.617   2.325   3.668
 9688SOL    HW129963   6.606   2.310   3.570
 9688SOL    HW229964   6.685   2.261   3.703
 9689SOL     OW29965   1.694   6.316   1.363
 9689SOL    HW129966   1.596   6.335   1.355
 9689SOL    HW229967   1.725   6.338   1.455
 9690SOL     OW29968   5.786   5.398   6.675
 9690SOL    HW129969   5.803   5.409   6.577
 9690SOL    HW229970   5.768   5.488   6.716
 9691SOL     OW29971   2.637   4.494   1.304
 9691SOL    HW129972   2.600   4.481   1.212
 9691SOL    HW229973   2.607   4.418   1.363
 9692SOL     OW29974   2.281   5.216   2.652
 9692SOL    HW129975   2.207   5.259   2.601
 9692SOL    HW229976   2.344   5.286   2.684
 9693SOL     OW29977   6.372   5.247   1.866
 9693SOL    HW129978   6.416   5.310   1.802
 9693SOL    HW229979   6.432   5.169   1.882
 9694SOL     OW29980   2.411   1.053   6.065
 9694SOL    HW129981   2.327   1.026   6.111
 9694SOL    HW229982   2.467   1.109   6.127
 9695SOL     OW29983   6.475   4.007   1.240
 9695SOL    HW129984   6.443   3.934   1.301
 9695SOL    HW229985   6.445   3.987   1.146
 9696SOL     OW29986   5.192   1.926   1.216
 9696SOL    HW129987   5.157   1.859   1.151
 9696SOL    HW229988   5.259   1.985   1.170
 9697SOL     OW29989   0.059   5.294   6.744
 9697SOL    HW129990   0.128   5.346   6.795
 9697SOL    HW229991   6.990   5.298   6.793
 9698SOL     OW29992   5.533   0.860   5.851
 9698SOL    HW129993   5.590   0.881   5.772
 9698SOL    HW229994   5.467   0.789   5.826
 9699SOL     OW29995   0.382   4.719   6.553
 9699SOL    HW129996   0.316   4.651   6.519
 9699SOL    HW229997   0.474   4.681   6.548
 9700SOL     OW29998   4.264   5.345   5.287
 9700SOL    HW129999   4.204   5.364   5.365
 9700SOL    HW230000   4.292   5.249   5.289
 9701SOL     OW30001   3.381   5.459   4.729
 9701SOL    HW130002   3.423   5.436   4.816
 9701SOL    HW230003   3.333   5.379   4.693
 9702SOL     OW30004   5.690   0.706   6.874
 9702SOL    HW130005   5.751   0.698   6.796
 9702SOL    HW230006   5.602   0.743   6.845
 9703SOL     OW30007   3.796   5.565   3.906
 9703SOL    HW130008   3.812   5.648   3.960
 9703SOL    HW230009   3.766   5.492   3.967
 9704SOL     OW30010   3.043   1.135   2.369
 9704SOL    HW130011   3.137   1.108   2.389
 9704SOL    HW230012   3.043   1.219   2.315
 9705SOL     OW30013   5.478   5.372   0.905
 9705SOL    HW130014   5.492   5.332   0.996
 9705SOL    HW230015   5.396   5.429   0.906
 9706SOL     OW30016   0.505   2.372   1.110
 9706SOL    HW130017   0.537   2.294   1.164
 9706SOL    HW230018   0.480   2.341   1.019
 9707SOL     OW30019   6.418   4.232   1.369
 9707SOL    HW130020   6.448   4.151   1.318
 9707SOL    HW230021   6.371   4.203   1.453
 9708SOL     OW30022   1.526   2.804   3.221
 9708SOL    HW130023   1.517   2.722   3.277
 9708SOL    HW230024   1.522   2.778   3.124
 9709SOL     OW30025   6.612   5.528   3.278
 9709SOL    HW130026   6.611   5.439   3.233
 9709SOL    HW230027   6.556   5.592   3.225
 9710SOL     OW30028   0.310   1.956   2.250
 9710SOL    HW130029   0.220   1.986   2.281
 9710SOL    HW230030   0.310   1.950   2.150
 9711SOL     OW30031   1.684   3.262   6.037
 9711SOL    HW130032   1.743   3.190   6.074
 9711SOL    HW230033   1.659   3.238   5.943
 9712SOL     OW30034   5.478   3.985   4.957
 9712SOL    HW130035   5.516   4.011   5.046
 9712SOL    HW230036   5.453   3.888   4.959
 9713SOL     OW30037   0.546   4.840   2.927
 9713SOL    HW130038   0.528   4.925   2.977
 9713SOL    HW230039   0.554   4.860   2.829
 9714SOL     OW30040   2.104   1.005   2.083
 9714SOL    HW130041   2.152   1.091   2.067
 9714SOL    HW230042   2.140   0.961   2.165
 9715SOL     OW30043   6.344   5.141   5.131
 9715SOL    HW130044   6.438   5.175   5.140
 9715SOL    HW230045   6.343   5.058   5.075
 9716SOL     OW30046   4.446   2.923   6.753
 9716SOL    HW130047   4.388   2.841   6.761
 9716SOL    HW230048   4.459   2.945   6.656
 9717SOL     OW30049   6.008   5.432   5.478
 9717SOL    HW130050   5.939   5.449   5.549
 9717SOL    HW230051   5.965   5.436   5.388
 9718SOL     OW30052   4.720   3.174   1.607
 9718SOL    HW130053   4.686   3.136   1.694
 9718SOL    HW230054   4.725   3.101   1.539
 9719SOL     OW30055   0.978   2.371   6.684
 9719SOL    HW130056   0.974   2.273   6.700
 9719SOL    HW230057   0.946   2.419   6.766
 9720SOL     OW30058   0.663   5.748   1.657
 9720SOL    HW130059   0.594   5.761   1.729
 9720SOL    HW230060   0.717   5.667   1.678
 9721SOL     OW30061   0.671   2.596   0.954
 9721SOL    HW130062   0.749   2.653   0.978
 9721SOL    HW230063   0.586   2.645   0.975
 9722SOL     OW30064   0.669   6.555   3.563
 9722SOL    HW130065   0.738   6.521   3.627
 9722SOL    HW230066   0.707   6.631   3.510
 9723SOL     OW30067   1.785   6.305   3.134
 9723SOL    HW130068   1.869   6.357   3.119
 9723SOL    HW230069   1.709   6.350   3.087
 9724SOL     OW30070   2.740   3.092   0.776
 9724SOL    HW130071   2.641   3.091   0.763
 9724SOL    HW230072   2.764   3.039   0.857
 9725SOL     OW30073   4.122   3.714   6.222
 9725SOL    HW130074   4.163   3.797   6.261
 9725SOL    HW230075   4.122   3.642   6.291
 9726SOL     OW30076   4.164   6.986   4.572
 9726SOL    HW130077   4.196   6.903   4.617
 9726SOL    HW230078   4.208   6.994   4.483
 9727SOL     OW30079   1.054   3.465   5.309
 9727SOL    HW130080   0.960   3.457   5.274
 9727SOL    HW230081   1.074   3.386   5.367
 9728SOL     OW30082   0.827   6.639   6.573
 9728SOL    HW130083   0.764   6.563   6.556
 9728SOL    HW230084   0.865   6.670   6.487
 9729SOL     OW30085   0.809   4.432   2.530
 9729SOL    HW130086   0.741   4.390   2.591
 9729SOL    HW230087   0.783   4.527   2.512
 9730SOL     OW30088   0.559   3.682   2.180
 9730SOL    HW130089   0.512   3.628   2.110
 9730SOL    HW230090   0.639   3.632   2.212
 9731SOL     OW30091   4.219   4.541   0.799
 9731SOL    HW130092   4.203   4.502   0.890
 9731SOL    HW230093   4.316   4.533   0.776
 9732SOL     OW30094   5.276   5.823   2.759
 9732SOL    HW130095   5.224   5.837   2.843
 9732SOL    HW230096   5.224   5.765   2.697
 9733SOL     OW30097   5.838   5.013   5.118
 9733SOL    HW130098   5.764   4.980   5.059
 9733SOL    HW230099   5.861   4.943   5.186
 9734SOL     OW30100   5.403   1.993   3.960
 9734SOL    HW130101   5.461   1.918   3.991
 9734SOL    HW230102   5.406   1.997   3.860
 9735SOL     OW30103   1.638   4.752   2.437
 9735SOL    HW130104   1.683   4.683   2.495
 9735SOL    HW230105   1.662   4.736   2.342
 9736SOL     OW30106   5.879   1.593   6.249
 9736SOL    HW130107   5.933   1.653   6.189
 9736SOL    HW230108   5.784   1.591   6.216
 9737SOL     OW30109   5.736   3.058   4.866
 9737SOL    HW130110   5.682   3.141   4.878
 9737SOL    HW230111   5.832   3.077   4.890
 9738SOL     OW30112   1.480   0.066   3.343
 9738SOL    HW130113   1.415   0.135   3.374
 9738SOL    HW230114   1.519   0.095   3.255
 9739SOL     OW30115   0.109   5.237   1.959
 9739SOL    HW130116   0.100   5.328   1.918
 9739SOL    HW230117   0.019   5.204   1.986
 9740SOL     OW30118   6.146   3.198   3.181
 9740SOL    HW130119   6.243   3.198   3.156
 9740SOL    HW230120   6.109   3.290   3.168
 9741SOL     OW30121   4.651   1.323   2.124
 9741SOL    HW130122   4.716   1.250   2.104
 9741SOL    HW230123   4.670   1.401   2.064
 9742SOL     OW30124   4.541   6.961   3.060
 9742SOL    HW130125   4.489   6.918   3.135
 9742SOL    HW230126   4.500   6.935   2.973
 9743SOL     OW30127   1.874   2.191   4.731
 9743SOL    HW130128   1.953   2.145   4.772
 9743SOL    HW230129   1.903   2.240   4.649
 9744SOL     OW30130   0.415   0.341   2.963
 9744SOL    HW130131   0.398   0.270   2.894
 9744SOL    HW230132   0.365   0.319   3.046
 9745SOL     OW30133   0.275   2.785   6.035
 9745SOL    HW130134   0.372   2.802   6.056
 9745SOL    HW230135   0.219   2.826   6.107
 9746SOL     OW30136   5.767   1.674   5.853
 9746SOL    HW130137   5.703   1.626   5.914
 9746SOL    HW230138   5.754   1.773   5.862
 9747SOL     OW30139   1.530   1.406   1.736
 9747SOL    HW130140   1.440   1.381   1.703
 9747SOL    HW230141   1.595   1.332   1.717
 9748SOL     OW30142   1.337   0.827   4.683
 9748SOL    HW130143   1.306   0.733   4.696
 9748SOL    HW230144   1.401   0.851   4.756
 9749SOL     OW30145   2.034   2.125   4.974
 9749SOL    HW130146   2.102   2.055   4.996
 9749SOL    HW230147   2.061   2.212   5.017
 9750SOL     OW30148   5.155   5.232   3.924
 9750SOL    HW130149   5.190   5.312   3.875
 9750SOL    HW230150   5.208   5.219   4.007
 9751SOL     OW30151   2.361   2.187   1.059
 9751SOL    HW130152   2.380   2.142   1.146
 9751SOL    HW230153   2.264   2.173   1.035
 9752SOL     OW30154   4.547   0.619   6.852
 9752SOL    HW130155   4.521   0.637   6.947
 9752SOL    HW230156   4.488   0.547   6.815
 9753SOL     OW30157   6.101   6.058   4.672
 9753SOL    HW130158   6.068   6.108   4.752
 9753SOL    HW230159   6.071   5.963   4.679
 9754SOL     OW30160   1.036   1.430   0.080
 9754SOL    HW130161   1.102   1.476   0.022
 9754SOL    HW230162   1.037   1.471   0.172
 9755SOL     OW30163   4.496   3.354   5.467
 9755SOL    HW130164   4.431   3.423   5.435
 9755SOL    HW230165   4.516   3.290   5.392
 9756SOL     OW30166   6.130   3.098   0.264
 9756SOL    HW130167   6.158   3.041   0.187
 9756SOL    HW230168   6.151   3.194   0.245
 9757SOL     OW30169   5.415   3.008   3.296
 9757SOL    HW130170   5.462   2.934   3.344
 9757SOL    HW230171   5.360   3.060   3.361
 9758SOL     OW30172   1.641   6.819   6.312
 9758SOL    HW130173   1.729   6.775   6.293
 9758SOL    HW230174   1.626   6.821   6.411
 9759SOL     OW30175   2.130   6.729   0.977
 9759SOL    HW130176   2.157   6.636   0.953
 9759SOL    HW230177   2.174   6.756   1.063
 9760SOL     OW30178   4.739   3.708   5.333
 9760SOL    HW130179   4.713   3.643   5.262
 9760SOL    HW230180   4.740   3.662   5.422
 9761SOL     OW30181   5.878   6.202   2.429
 9761SOL    HW130182   5.844   6.196   2.523
 9761SOL    HW230183   5.914   6.294   2.413
 9762SOL     OW30184   2.771   2.270   4.477
 9762SOL    HW130185   2.766   2.178   4.515
 9762SOL    HW230186   2.714   2.332   4.532
 9763SOL     OW30187   4.345   2.450   1.901
 9763SOL    HW130188   4.308   2.368   1.944
 9763SOL    HW230189   4.424   2.482   1.954
 9764SOL     OW30190   0.339   2.193   3.179
 9764SOL    HW130191   0.256   2.174   3.125
 9764SOL    HW230192   0.315   2.251   3.256
 9765SOL     OW30193   6.756   2.156   4.533
 9765SOL    HW130194   6.806   2.206   4.604
 9765SOL    HW230195   6.685   2.100   4.576
 9766SOL     OW30196   2.553   0.480   3.192
 9766SOL    HW130197   2.632   0.483   3.131
 9766SOL    HW230198   2.469   0.483   3.138
 9767SOL     OW30199   5.590   2.190   5.217
 9767SOL    HW130200   5.659   2.146   5.275
 9767SOL    HW230201   5.635   2.233   5.138
 9768SOL     OW30202   4.822   1.876   2.229
 9768SOL    HW130203   4.902   1.846   2.280
 9768SOL    HW230204   4.835   1.970   2.198
 9769SOL     OW30205   2.068   1.301   2.035
 9769SOL    HW130206   1.976   1.325   2.065
 9769SOL    HW230207   2.134   1.362   2.079
 9770SOL     OW30208   5.997   6.635   6.663
 9770SOL    HW130209   6.092   6.605   6.660
 9770SOL    HW230210   5.953   6.598   6.745
 9771SOL     OW30211   4.357   4.621   1.503
 9771SOL    HW130212   4.330   4.569   1.584
 9771SOL    HW230213   4.369   4.558   1.426
 9772SOL     OW30214   0.811   6.640   1.912
 9772SOL    HW130215   0.787   6.592   1.828
 9772SOL    HW230216   0.734   6.637   1.975
 9773SOL     OW30217   5.116   6.270   4.224
 9773SOL    HW130218   5.195   6.315   4.183
 9773SOL    HW230219   5.044   6.337   4.241
 9774SOL     OW30220   6.151   5.194   2.436
 9774SOL    HW130221   6.117   5.287   2.446
 9774SOL    HW230222   6.142   5.145   2.522
 9775SOL     OW30223   2.374   2.044   3.993
 9775SOL    HW130224   2.440   2.035   4.068
 9775SOL    HW230225   2.422   2.043   3.906
 9776SOL     OW30226   6.822   5.867   4.568
 9776SOL    HW130227   6.727   5.837   4.567
 9776SOL    HW230228   6.830   5.950   4.623
 9777SOL     OW30229   5.632   5.189   6.379
 9777SOL    HW130230   5.721   5.144   6.375
 9777SOL    HW230231   5.568   5.132   6.431
 9778SOL     OW30232   6.018   0.424   3.486
 9778SOL    HW130233   5.958   0.452   3.412
 9778SOL    HW230234   5.979   0.451   3.574
 9779SOL     OW30235   2.784   2.039   4.610
 9779SOL    HW130236   2.794   2.016   4.707
 9779SOL    HW230237   2.694   2.012   4.578
 9780SOL     OW30238   1.944   1.934   0.971
 9780SOL    HW130239   1.849   1.951   0.998
 9780SOL    HW230240   1.946   1.892   0.881
 9781SOL     OW30241   1.982   4.409   3.700
 9781SOL    HW130242   2.033   4.493   3.681
 9781SOL    HW230243   2.044   4.339   3.735
 9782SOL     OW30244   6.698   0.452   1.598
 9782SOL    HW130245   6.683   0.508   1.516
 9782SOL    HW230246   6.741   0.366   1.572
 9783SOL     OW30247   6.103   1.586   1.889
 9783SOL    HW130248   6.077   1.573   1.985
 9783SOL    HW230249   6.194   1.628   1.885
 9784SOL     OW30250   4.997   1.353   3.800
 9784SOL    HW130251   4.900   1.334   3.790
 9784SOL    HW230252   5.026   1.420   3.731
 9785SOL     OW30253   0.031   4.037   3.785
 9785SOL    HW130254   0.031   3.971   3.860
 9785SOL    HW230255   0.011   3.989   3.699
 9786SOL     OW30256   1.715   5.191   6.006
 9786SOL    HW130257   1.806   5.174   6.045
 9786SOL    HW230258   1.650   5.209   6.080
 9787SOL     OW30259   5.178   4.086   1.581
 9787SOL    HW130260   5.236   4.100   1.662
 9787SOL    HW230261   5.083   4.077   1.610
 9788SOL     OW30262   0.268   0.524   3.890
 9788SOL    HW130263   0.264   0.543   3.792
 9788SOL    HW230264   0.340   0.580   3.931
 9789SOL     OW30265   2.321   5.712   6.658
 9789SOL    HW130266   2.365   5.647   6.719
 9789SOL    HW230267   2.323   5.803   6.698
 9790SOL     OW30268   5.926   3.225   5.001
 9790SOL    HW130269   5.909   3.323   4.991
 9790SOL    HW230270   5.885   3.193   5.087
 9791SOL     OW30271   0.840   0.871   2.486
 9791SOL    HW130272   0.783   0.945   2.452
 9791SOL    HW230273   0.936   0.890   2.465
 9792SOL     OW30274   4.576   5.220   1.784
 9792SOL    HW130275   4.507   5.258   1.723
 9792SOL    HW230276   4.634   5.156   1.733
 9793SOL     OW30277   5.716   5.399   2.911
 9793SOL    HW130278   5.691   5.305   2.890
 9793SOL    HW230279   5.813   5.414   2.893
 9794SOL     OW30280   5.926   3.621   6.864
 9794SOL    HW130281   5.868   3.579   6.794
 9794SOL    HW230282   5.976   3.550   6.913
 9795SOL     OW30283   0.892   2.772   4.171
 9795SOL    HW130284   0.887   2.872   4.179
 9795SOL    HW230285   0.808   2.738   4.128
 9796SOL     OW30286   3.399   4.185   0.847
 9796SOL    HW130287   3.422   4.262   0.906
 9796SOL    HW230288   3.481   4.128   0.834
 9797SOL     OW30289   4.326   3.817   0.541
 9797SOL    HW130290   4.340   3.766   0.456
 9797SOL    HW230291   4.252   3.774   0.594
 9798SOL     OW30292   2.536   0.831   0.623
 9798SOL    HW130293   2.450   0.881   0.626
 9798SOL    HW230294   2.524   0.740   0.662
 9799SOL     OW30295   3.538   3.436   2.646
 9799SOL    HW130296   3.499   3.392   2.565
 9799SOL    HW230297   3.515   3.383   2.727
 9800SOL     OW30298   3.911   5.947   5.971
 9800SOL    HW130299   3.878   5.854   5.956
 9800SOL    HW230300   3.932   5.959   6.068
 9801SOL     OW30301   4.089   4.789   7.001
 9801SOL    HW130302   4.172   4.840   0.005
 9801SOL    HW230303   4.068   4.725   0.056
 9802SOL     OW30304   6.602   2.870   2.098
 9802SOL    HW130305   6.582   2.772   2.096
 9802SOL    HW230306   6.603   2.902   2.193
 9803SOL     OW30307   6.217   0.510   6.630
 9803SOL    HW130308   6.249   0.500   6.535
 9803SOL    HW230309   6.128   0.467   6.639
 9804SOL     OW30310   0.115   5.522   3.720
 9804SOL    HW130311   0.045   5.454   3.739
 9804SOL    HW230312   0.145   5.565   3.806
 9805SOL     OW30313   1.429   5.694   6.846
 9805SOL    HW130314   1.439   5.754   6.767
 9805SOL    HW230315   1.466   5.740   6.928
 9806SOL     OW30316   0.487   2.069   1.579
 9806SOL    HW130317   0.435   2.010   1.516
 9806SOL    HW230318   0.565   2.108   1.531
 9807SOL     OW30319   2.994   1.633   6.565
 9807SOL    HW130320   2.988   1.632   6.465
 9807SOL    HW230321   2.972   1.542   6.600
 9808SOL     OW30322   5.719   0.869   5.636
 9808SOL    HW130323   5.725   0.924   5.552
 9808SOL    HW230324   5.809   0.832   5.658
 9809SOL     OW30325   0.703   1.443   5.902
 9809SOL    HW130326   0.728   1.376   5.972
 9809SOL    HW230327   0.697   1.399   5.813
 9810SOL     OW30328   2.423   2.201   3.274
 9810SOL    HW130329   2.493   2.192   3.203
 9810SOL    HW230330   2.339   2.237   3.233
 9811SOL     OW30331   6.282   5.743   3.451
 9811SOL    HW130332   6.314   5.795   3.371
 9811SOL    HW230333   6.305   5.793   3.534
 9812SOL     OW30334   3.861   2.054   6.732
 9812SOL    HW130335   3.803   2.135   6.729
 9812SOL    HW230336   3.924   2.061   6.809
 9813SOL     OW30337   6.409   5.824   7.003
 9813SOL    HW130338   6.357   5.810   0.069
 9813SOL    HW230339   6.347   5.825   6.925
 9814SOL     OW30340   6.468   0.630   6.241
 9814SOL    HW130341   6.497   0.635   6.336
 9814SOL    HW230342   6.453   0.722   6.206
 9815SOL     OW30343   6.518   2.061   1.139
 9815SOL    HW130344   6.570   2.015   1.067
 9815SOL    HW230345   6.564   2.048   1.227
 9816SOL     OW30346   6.472   0.887   6.125
 9816SOL    HW130347   6.512   0.973   6.092
 9816SOL    HW230348   6.372   0.897   6.131
 9817SOL     OW30349   3.083   5.456   1.695
 9817SOL    HW130350   3.031   5.433   1.612
 9817SOL    HW230351   3.112   5.552   1.690
 9818SOL     OW30352   1.958   1.633   3.470
 9818SOL    HW130353   2.000   1.565   3.530
 9818SOL    HW230354   2.030   1.689   3.429
 9819SOL     OW30355   5.895   4.597   5.058
 9819SOL    HW130356   5.987   4.585   5.022
 9819SOL    HW230357   5.875   4.524   5.123
 9820SOL     OW30358   2.804   2.410   6.336
 9820SOL    HW130359   2.877   2.422   6.403
 9820SOL    HW230360   2.814   2.479   6.264
 9821SOL     OW30361   4.667   2.157   1.619
 9821SOL    HW130362   4.753   2.138   1.572
 9821SOL    HW230363   4.614   2.223   1.566
 9822SOL     OW30364   4.219   5.633   4.373
 9822SOL    HW130365   4.148   5.586   4.321
 9822SOL    HW230366   4.203   5.619   4.471
 9823SOL     OW30367   1.373   0.569   2.293
 9823SOL    HW130368   1.389   0.608   2.202
 9823SOL    HW230369   1.403   0.634   2.363
 9824SOL     OW30370   2.561   6.016   5.480
 9824SOL    HW130371   2.554   5.918   5.497
 9824SOL    HW230372   2.637   6.054   5.533
 9825SOL     OW30373   5.307   6.095   5.042
 9825SOL    HW130374   5.280   6.009   4.997
 9825SOL    HW230375   5.267   6.098   5.134
 9826SOL     OW30376   3.724   0.036   5.573
 9826SOL    HW130377   3.700   0.133   5.575
 9826SOL    HW230378   3.707   7.014   5.663
 9827SOL     OW30379   2.146   5.576   2.931
 9827SOL    HW130380   2.175   5.488   2.968
 9827SOL    HW230381   2.186   5.590   2.841
 9828SOL     OW30382   3.588   2.098   4.822
 9828SOL    HW130383   3.579   2.139   4.731
 9828SOL    HW230384   3.535   2.013   4.825
 9829SOL     OW30385   5.168   6.502   5.913
 9829SOL    HW130386   5.187   6.483   6.009
 9829SOL    HW230387   5.254   6.515   5.864
 9830SOL     OW30388   5.873   1.452   2.507
 9830SOL    HW130389   5.799   1.437   2.572
 9830SOL    HW230390   5.836   1.481   2.419
 9831SOL     OW30391   0.378   4.448   2.096
 9831SOL    HW130392   0.473   4.470   2.120
 9831SOL    HW230393   0.320   4.527   2.116
 9832SOL     OW30394   5.094   4.757   4.456
 9832SOL    HW130395   5.094   4.657   4.459
 9832SOL    HW230396   5.105   4.788   4.362
 9833SOL     OW30397   3.692   3.862   3.377
 9833SOL    HW130398   3.641   3.861   3.463
 9833SOL    HW230399   3.647   3.801   3.312
 9834SOL     OW30400   2.308   5.512   5.563
 9834SOL    HW130401   2.265   5.455   5.493
 9834SOL    HW230402   2.363   5.456   5.623
 9835SOL     OW30403   3.746   4.131   4.442
 9835SOL    HW130404   3.821   4.127   4.508
 9835SOL    HW230405   3.777   4.093   4.355
 9836SOL     OW30406   1.061   3.876   6.033
 9836SOL    HW130407   1.155   3.861   6.002
 9836SOL    HW230408   1.058   3.953   6.097
 9837SOL     OW30409   5.407   1.927   1.738
 9837SOL    HW130410   5.366   1.930   1.829
 9837SOL    HW230411   5.425   2.020   1.706
 9838SOL     OW30412   1.424   6.147   1.368
 9838SOL    HW130413   1.436   6.138   1.269
 9838SOL    HW230414   1.327   6.156   1.390
 9839SOL     OW30415   4.624   1.197   3.938
 9839SOL    HW130416   4.644   1.255   4.017
 9839SOL    HW230417   4.687   1.120   3.936
 9840SOL     OW30418   5.186   1.111   6.849
 9840SOL    HW130419   5.136   1.190   6.885
 9840SOL    HW230420   5.160   1.029   6.901
 9841SOL     OW30421   0.032   5.642   3.507
 9841SOL    HW130422   6.954   5.656   3.527
 9841SOL    HW230423   0.076   5.596   3.584
 9842SOL     OW30424   3.465   3.159   0.437
 9842SOL    HW130425   3.397   3.094   0.471
 9842SOL    HW230426   3.451   3.248   0.480
 9843SOL     OW30427   6.505   0.294   1.692
 9843SOL    HW130428   6.522   0.327   1.785
 9843SOL    HW230429   6.560   0.347   1.628
 9844SOL     OW30430   5.632   0.434   4.444
 9844SOL    HW130431   5.587   0.413   4.357
 9844SOL    HW230432   5.674   0.524   4.439
 9845SOL     OW30433   1.210   2.245   2.543
 9845SOL    HW130434   1.142   2.278   2.608
 9845SOL    HW230435   1.179   2.262   2.450
 9846SOL     OW30436   5.395   1.144   1.095
 9846SOL    HW130437   5.324   1.199   1.139
 9846SOL    HW230438   5.481   1.154   1.145
 9847SOL     OW30439   3.801   2.841   1.702
 9847SOL    HW130440   3.760   2.871   1.615
 9847SOL    HW230441   3.820   2.921   1.758
 9848SOL     OW30442   3.052   3.999   5.264
 9848SOL    HW130443   3.000   4.076   5.301
 9848SOL    HW230444   3.124   3.973   5.328
 9849SOL     OW30445   1.482   0.669   6.518
 9849SOL    HW130446   1.441   0.580   6.537
 9849SOL    HW230447   1.449   0.703   6.430
 9850SOL     OW30448   0.492   0.379   4.273
 9850SOL    HW130449   0.477   0.477   4.262
 9850SOL    HW230450   0.581   0.363   4.316
 9851SOL     OW30451   3.461   4.972   4.802
 9851SOL    HW130452   3.466   4.917   4.718
 9851SOL    HW230453   3.541   5.031   4.807
 9852SOL     OW30454   1.172   1.704   6.310
 9852SOL    HW130455   1.174   1.626   6.373
 9852SOL    HW230456   1.242   1.691   6.239
 9853SOL     OW30457   0.041   4.015   4.435
 9853SOL    HW130458   0.113   4.085   4.433
 9853SOL    HW230459   0.069   3.938   4.379
 9854SOL     OW30460   1.080   5.643   5.962
 9854SOL    HW130461   1.098   5.545   5.962
 9854SOL    HW230462   0.999   5.663   5.907
 9855SOL     OW30463   0.740   3.474   0.671
 9855SOL    HW130464   0.680   3.540   0.715
 9855SOL    HW230465   0.718   3.382   0.703
 9856SOL     OW30466   5.706   5.086   3.857
 9856SOL    HW130467   5.779   5.064   3.793
 9856SOL    HW230468   5.710   5.024   3.936
 9857SOL     OW30469   5.353   2.706   3.510
 9857SOL    HW130470   5.440   2.746   3.481
 9857SOL    HW230471   5.278   2.750   3.460
 9858SOL     OW30472   1.097   6.645   2.185
 9858SOL    HW130473   1.154   6.726   2.172
 9858SOL    HW230474   1.065   6.641   2.280
 9859SOL     OW30475   6.678   4.779   5.140
 9859SOL    HW130476   6.755   4.822   5.094
 9859SOL    HW230477   6.708   4.696   5.187
 9860SOL     OW30478   1.872   2.484   5.052
 9860SOL    HW130479   1.820   2.436   4.981
 9860SOL    HW230480   1.816   2.495   5.133
 9861SOL     OW30481   2.861   1.385   3.935
 9861SOL    HW130482   2.870   1.478   3.898
 9861SOL    HW230483   2.818   1.390   4.026
 9862SOL     OW30484   2.228   4.492   1.150
 9862SOL    HW130485   2.305   4.434   1.120
 9862SOL    HW230486   2.252   4.588   1.139
 9863SOL     OW30487   2.889   5.836   0.539
 9863SOL    HW130488   2.953   5.802   0.470
 9863SOL    HW230489   2.904   5.787   0.625
 9864SOL     OW30490   2.872   6.510   5.174
 9864SOL    HW130491   2.961   6.482   5.211
 9864SOL    HW230492   2.806   6.436   5.185
 9865SOL     OW30493   0.520   6.967   5.230
 9865SOL    HW130494   0.447   0.013   5.250
 9865SOL    HW230495   0.481   6.878   5.206
 9866SOL     OW30496   6.009   4.473   4.450
 9866SOL    HW130497   6.087   4.533   4.433
 9866SOL    HW230498   5.924   4.517   4.421
 9867SOL     OW30499   5.063   1.809   2.344
 9867SOL    HW130500   4.984   1.784   2.401
 9867SOL    HW230501   5.121   1.873   2.394
 9868SOL     OW30502   1.036   4.285   3.556
 9868SOL    HW130503   1.095   4.333   3.491
 9868SOL    HW230504   0.966   4.233   3.506
 9869SOL     OW30505   0.145   2.426   0.585
 9869SOL    HW130506   0.222   2.483   0.613
 9869SOL    HW230507   0.164   2.331   0.609
 9870SOL     OW30508   3.846   1.597   1.964
 9870SOL    HW130509   3.795   1.521   2.005
 9870SOL    HW230510   3.918   1.626   2.027
 9871SOL     OW30511   6.782   3.337   5.340
 9871SOL    HW130512   6.787   3.267   5.411
 9871SOL    HW230513   6.778   3.294   5.250
 9872SOL     OW30514   2.329   5.401   5.036
 9872SOL    HW130515   2.325   5.458   5.118
 9872SOL    HW230516   2.238   5.393   4.996
 9873SOL     OW30517   1.951   2.235   5.865
 9873SOL    HW130518   1.916   2.205   5.954
 9873SOL    HW230519   2.030   2.294   5.879
 9874SOL     OW30520   0.608   2.964   4.585
 9874SOL    HW130521   0.598   2.889   4.519
 9874SOL    HW230522   0.552   3.042   4.555
 9875SOL     OW30523   0.360   6.199   0.683
 9875SOL    HW130524   0.292   6.272   0.686
 9875SOL    HW230525   0.451   6.238   0.690
 9876SOL     OW30526   3.425   0.105   3.367
 9876SOL    HW130527   3.347   0.150   3.411
 9876SOL    HW230528   3.510   0.136   3.410
 9877SOL     OW30529   6.988   4.437   4.600
 9877SOL    HW130530   6.982   4.440   4.500
 9877SOL    HW230531   6.951   4.350   4.633
 9878SOL     OW30532   1.819   3.002   6.905
 9878SOL    HW130533   1.918   3.016   6.909
 9878SOL    HW230534   1.775   3.046   6.983
 9879SOL     OW30535   1.285   4.602   6.170
 9879SOL    HW130536   1.303   4.634   6.263
 9879SOL    HW230537   1.202   4.546   6.170
 9880SOL     OW30538   2.472   0.937   0.294
 9880SOL    HW130539   2.571   0.927   0.294
 9880SOL    HW230540   2.434   0.894   0.377
 9881SOL     OW30541   5.276   0.550   4.202
 9881SOL    HW130542   5.208   0.541   4.274
 9881SOL    HW230543   5.358   0.499   4.227
 9882SOL     OW30544   3.881   3.004   4.969
 9882SOL    HW130545   3.817   2.928   4.973
 9882SOL    HW230546   3.862   3.060   4.889
 9883SOL     OW30547   1.595   6.192   1.955
 9883SOL    HW130548   1.562   6.282   1.980
 9883SOL    HW230549   1.575   6.127   2.028
 9884SOL     OW30550   1.640   3.085   6.683
 9884SOL    HW130551   1.682   3.126   6.602
 9884SOL    HW230552   1.711   3.064   6.750
 9885SOL     OW30553   6.620   3.050   4.213
 9885SOL    HW130554   6.659   2.959   4.195
 9885SOL    HW230555   6.552   3.042   4.286
 9886SOL     OW30556   5.751   6.083   1.700
 9886SOL    HW130557   5.792   6.173   1.714
 9886SOL    HW230558   5.737   6.067   1.603
 9887SOL     OW30559   4.194   6.617   0.509
 9887SOL    HW130560   4.202   6.659   0.418
 9887SOL    HW230561   4.210   6.519   0.502
 9888SOL     OW30562   5.318   5.524   2.421
 9888SOL    HW130563   5.395   5.585   2.402
 9888SOL    HW230564   5.306   5.461   2.344
 9889SOL     OW30565   6.728   4.875   2.837
 9889SOL    HW130566   6.738   4.855   2.739
 9889SOL    HW230567   6.791   4.817   2.889
 9890SOL     OW30568   6.800   2.808   0.600
 9890SOL    HW130569   6.850   2.895   0.607
 9890SOL    HW230570   6.861   2.732   0.622
 9891SOL     OW30571   4.803   5.229   0.881
 9891SOL    HW130572   4.813   5.246   0.783
 9891SOL    HW230573   4.893   5.231   0.925
 9892SOL     OW30574   2.103   5.275   3.883
 9892SOL    HW130575   2.163   5.322   3.818
 9892SOL    HW230576   2.008   5.291   3.858
 9893SOL     OW30577   5.873   5.141   2.673
 9893SOL    HW130578   5.964   5.101   2.656
 9893SOL    HW230579   5.850   5.130   2.770
 9894SOL     OW30580   3.936   2.108   5.849
 9894SOL    HW130581   3.891   2.197   5.854
 9894SOL    HW230582   3.957   2.077   5.942
 9895SOL     OW30583   5.320   2.617   6.525
 9895SOL    HW130584   5.257   2.550   6.564
 9895SOL    HW230585   5.409   2.608   6.568
 9896SOL     OW30586   3.260   3.256   0.698
 9896SOL    HW130587   3.360   3.257   0.698
 9896SOL    HW230588   3.226   3.350   0.700
 9897SOL     OW30589   4.720   1.408   3.066
 9897SOL    HW130590   4.706   1.421   2.968
 9897SOL    HW230591   4.710   1.311   3.088
 9898SOL     OW30592   1.111   5.187   5.478
 9898SOL    HW130593   1.053   5.264   5.452
 9898SOL    HW230594   1.173   5.215   5.551
 9899SOL     OW30595   5.572   4.454   2.266
 9899SOL    HW130596   5.614   4.524   2.323
 9899SOL    HW230597   5.477   4.479   2.247
 9900SOL     OW30598   1.232   2.141   3.735
 9900SOL    HW130599   1.183   2.174   3.655
 9900SOL    HW230600   1.237   2.214   3.804
 9901SOL     OW30601   2.106   2.048   6.444
 9901SOL    HW130602   2.166   1.968   6.440
 9901SOL    HW230603   2.092   2.075   6.539
 9902SOL     OW30604   3.614   3.433   0.806
 9902SOL    HW130605   3.586   3.498   0.876
 9902SOL    HW230606   3.537   3.414   0.745
 9903SOL     OW30607   4.396   1.470   2.367
 9903SOL    HW130608   4.350   1.538   2.424
 9903SOL    HW230609   4.471   1.428   2.418
 9904SOL     OW30610   6.569   3.015   0.374
 9904SOL    HW130611   6.500   2.984   0.308
 9904SOL    HW230612   6.649   2.955   0.368
 9905SOL     OW30613   1.379   6.317   6.644
 9905SOL    HW130614   1.299   6.258   6.634
 9905SOL    HW230615   1.458   6.262   6.669
 9906SOL     OW30616   1.571   2.438   6.057
 9906SOL    HW130617   1.666   2.459   6.035
 9906SOL    HW230618   1.533   2.376   5.988
 9907SOL     OW30619   2.375   5.938   3.297
 9907SOL    HW130620   2.290   5.987   3.278
 9907SOL    HW230621   2.413   5.969   3.385
 9908SOL     OW30622   0.581   3.338   6.372
 9908SOL    HW130623   0.538   3.392   6.300
 9908SOL    HW230624   0.663   3.294   6.336
 9909SOL     OW30625   2.977   1.718   2.698
 9909SOL    HW130626   2.996   1.776   2.777
 9909SOL    HW230627   3.017   1.627   2.713
 9910SOL     OW30628   6.974   4.816   1.120
 9910SOL    HW130629   0.041   4.842   1.075
 9910SOL    HW230630   6.985   4.821   1.219
 9911SOL     OW30631   4.530   4.753   2.912
 9911SOL    HW130632   4.536   4.802   2.825
 9911SOL    HW230633   4.499   4.816   2.983
 9912SOL     OW30634   4.431   1.142   2.144
 9912SOL    HW130635   4.412   1.144   2.046
 9912SOL    HW230636   4.499   1.212   2.166
 9913SOL     OW30637   5.251   3.021   2.552
 9913SOL    HW130638   5.201   3.077   2.618
 9913SOL    HW230639   5.187   2.960   2.506
 9914SOL     OW30640   1.627   0.294   5.518
 9914SOL    HW130641   1.663   0.337   5.435
 9914SOL    HW230642   1.683   0.215   5.541
 9915SOL     OW30643   5.190   3.294   4.239
 9915SOL    HW130644   5.194   3.309   4.338
 9915SOL    HW230645   5.099   3.317   4.206
 9916SOL     OW30646   2.035   3.063   2.603
 9916SOL    HW130647   2.020   3.106   2.692
 9916SOL    HW230648   2.122   3.014   2.603
 9917SOL     OW30649   3.444   3.895   5.084
 9917SOL    HW130650   3.362   3.845   5.114
 9917SOL    HW230651   3.426   3.993   5.089
 9918SOL     OW30652   2.157   1.553   5.990
 9918SOL    HW130653   2.250   1.558   5.951
 9918SOL    HW230654   2.100   1.496   5.932
 9919SOL     OW30655   1.158   6.161   2.542
 9919SOL    HW130656   1.241   6.208   2.575
 9919SOL    HW230657   1.130   6.093   2.609
 9920SOL     OW30658   4.115   0.128   2.031
 9920SOL    HW130659   4.127   0.207   1.970
 9920SOL    HW230660   4.095   0.047   1.977
 9921SOL     OW30661   5.910   0.342   3.111
 9921SOL    HW130662   5.964   0.333   3.028
 9921SOL    HW230663   5.870   0.253   3.134
 9922SOL     OW30664   4.097   4.799   1.034
 9922SOL    HW130665   4.040   4.869   0.991
 9922SOL    HW230666   4.038   4.733   1.081
 9923SOL     OW30667   6.565   2.215   6.131
 9923SOL    HW130668   6.532   2.273   6.205
 9923SOL    HW230669   6.564   2.120   6.160
 9924SOL     OW30670   5.864   1.141   2.707
 9924SOL    HW130671   5.803   1.089   2.648
 9924SOL    HW230672   5.811   1.204   2.763
 9925SOL     OW30673   2.648   3.846   5.626
 9925SOL    HW130674   2.613   3.935   5.655
 9925SOL    HW230675   2.602   3.817   5.543
 9926SOL     OW30676   1.577   1.511   0.945
 9926SOL    HW130677   1.630   1.501   1.029
 9926SOL    HW230678   1.487   1.470   0.957
 9927SOL     OW30679   1.102   1.808   2.379
 9927SOL    HW130680   1.179   1.813   2.315
 9927SOL    HW230681   1.065   1.900   2.394
 9928SOL     OW30682   0.515   4.853   1.584
 9928SOL    HW130683   0.469   4.938   1.556
 9928SOL    HW230684   0.612   4.858   1.561
 9929SOL     OW30685   3.345   4.495   5.611
 9929SOL    HW130686   3.426   4.495   5.552
 9929SOL    HW230687   3.291   4.413   5.595
 9930SOL     OW30688   0.381   0.716   6.396
 9930SOL    HW130689   0.286   0.722   6.366
 9930SOL    HW230690   0.412   0.805   6.429
 9931SOL     OW30691   1.259   6.423   4.799
 9931SOL    HW130692   1.239   6.505   4.745
 9931SOL    HW230693   1.351   6.430   4.836
 9932SOL     OW30694   1.450   2.037   0.556
 9932SOL    HW130695   1.438   2.098   0.634
 9932SOL    HW230696   1.540   1.994   0.559
 9933SOL     OW30697   2.889   0.570   3.276
 9933SOL    HW130698   2.837   0.516   3.210
 9933SOL    HW230699   2.848   0.661   3.284
 9934SOL     OW30700   5.882   1.578   6.570
 9934SOL    HW130701   5.889   1.567   6.471
 9934SOL    HW230702   5.886   1.675   6.594
 9935SOL     OW30703   3.100   2.074   0.488
 9935SOL    HW130704   3.155   2.108   0.412
 9935SOL    HW230705   3.147   1.997   0.531
 9936SOL     OW30706   5.059   5.048   5.829
 9936SOL    HW130707   5.127   5.008   5.890
 9936SOL    HW230708   5.037   5.141   5.859
 9937SOL     OW30709   0.075   0.315   2.798
 9937SOL    HW130710   0.160   0.266   2.777
 9937SOL    HW230711   0.022   0.262   2.865
 9938SOL     OW30712   6.576   1.330   4.704
 9938SOL    HW130713   6.649   1.286   4.652
 9938SOL    HW230714   6.540   1.408   4.651
 9939SOL     OW30715   2.183   3.694   0.975
 9939SOL    HW130716   2.096   3.733   0.947
 9939SOL    HW230717   2.257   3.757   0.951
 9940SOL     OW30718   0.582   0.185   3.297
 9940SOL    HW130719   0.636   0.245   3.239
 9940SOL    HW230720   0.493   0.167   3.254
 9941SOL     OW30721   4.083   5.370   5.502
 9941SOL    HW130722   4.140   5.442   5.542
 9941SOL    HW230723   3.987   5.388   5.520
 9942SOL     OW30724   4.522   4.463   3.182
 9942SOL    HW130725   4.621   4.469   3.193
 9942SOL    HW230726   4.478   4.519   3.252
 9943SOL     OW30727   1.772   3.886   0.078
 9943SOL    HW130728   1.691   3.931   0.041
 9943SOL    HW230729   1.751   3.791   0.099
 9944SOL     OW30730   1.582   4.963   0.048
 9944SOL    HW130731   1.620   4.994   0.135
 9944SOL    HW230732   1.517   5.031   0.014
 9945SOL     OW30733   6.202   4.202   0.330
 9945SOL    HW130734   6.149   4.246   0.258
 9945SOL    HW230735   6.142   4.142   0.383
 9946SOL     OW30736   5.933   0.754   3.007
 9946SOL    HW130737   6.021   0.707   3.004
 9946SOL    HW230738   5.946   0.849   2.977
 9947SOL     OW30739   1.085   2.641   4.342
 9947SOL    HW130740   1.134   2.574   4.287
 9947SOL    HW230741   0.994   2.656   4.304
 9948SOL     OW30742   6.113   6.932   3.570
 9948SOL    HW130743   6.138   6.845   3.528
 9948SOL    HW230744   6.071   6.916   3.659
 9949SOL     OW30745   6.399   4.219   5.243
 9949SOL    HW130746   6.476   4.231   5.305
 9949SOL    HW230747   6.424   4.250   5.152
 9950SOL     OW30748   6.584   4.962   6.327
 9950SOL    HW130749   6.645   4.902   6.275
 9950SOL    HW230750   6.526   5.014   6.265
 9951SOL     OW30751   0.790   3.107   2.229
 9951SOL    HW130752   0.833   3.068   2.148
 9951SOL    HW230753   0.701   3.145   2.203
 9952SOL     OW30754   0.909   3.740   1.364
 9952SOL    HW130755   0.866   3.814   1.416
 9952SOL    HW230756   0.984   3.700   1.418
 9953SOL     OW30757   6.398   2.484   3.040
 9953SOL    HW130758   6.434   2.474   3.133
 9953SOL    HW230759   6.377   2.580   3.023
 9954SOL     OW30760   3.107   1.647   5.214
 9954SOL    HW130761   3.199   1.666   5.181
 9954SOL    HW230762   3.085   1.551   5.199
 9955SOL     OW30763   4.284   3.595   0.873
 9955SOL    HW130764   4.297   3.506   0.916
 9955SOL    HW230765   4.372   3.643   0.868
 9956SOL     OW30766   1.262   4.498   2.704
 9956SOL    HW130767   1.200   4.539   2.772
 9956SOL    HW230768   1.218   4.499   2.614
 9957SOL     OW30769   5.436   6.918   1.634
 9957SOL    HW130770   5.446   6.971   1.551
 9957SOL    HW230771   5.470   6.971   1.712
 9958SOL     OW30772   3.901   4.674   6.236
 9958SOL    HW130773   3.907   4.687   6.137
 9958SOL    HW230774   3.873   4.759   6.280
 9959SOL     OW30775   4.356   4.063   1.372
 9959SOL    HW130776   4.274   4.064   1.315
 9959SOL    HW230777   4.332   4.033   1.464
 9960SOL     OW30778   6.371   6.310   1.389
 9960SOL    HW130779   6.317   6.322   1.472
 9960SOL    HW230780   6.439   6.238   1.403
 9961SOL     OW30781   1.696   4.027   1.607
 9961SOL    HW130782   1.620   3.965   1.587
 9961SOL    HW230783   1.703   4.095   1.535
 9962SOL     OW30784   3.421   5.928   1.822
 9962SOL    HW130785   3.384   5.967   1.738
 9962SOL    HW230786   3.404   5.829   1.823
 9963SOL     OW30787   2.363   1.723   0.499
 9963SOL    HW130788   2.394   1.817   0.516
 9963SOL    HW230789   2.294   1.698   0.566
 9964SOL     OW30790   4.661   4.447   5.395
 9964SOL    HW130791   4.721   4.521   5.364
 9964SOL    HW230792   4.717   4.368   5.423
 9965SOL     OW30793   2.878   6.245   4.859
 9965SOL    HW130794   2.837   6.154   4.857
 9965SOL    HW230795   2.973   6.238   4.892
 9966SOL     OW30796   2.932   4.799   2.139
 9966SOL    HW130797   2.894   4.727   2.080
 9966SOL    HW230798   2.887   4.795   2.228
 9967SOL     OW30799   6.030   6.488   2.645
 9967SOL    HW130800   6.124   6.515   2.664
 9967SOL    HW230801   6.023   6.455   2.551
 9968SOL     OW30802   4.552   5.827   7.012
 9968SOL    HW130803   4.515   5.734   7.014
 9968SOL    HW230804   4.568   5.858   0.087
 9969SOL     OW30805   0.777   4.424   4.819
 9969SOL    HW130806   0.807   4.359   4.750
 9969SOL    HW230807   0.701   4.479   4.783
 9970SOL     OW30808   5.502   5.475   1.856
 9970SOL    HW130809   5.450   5.480   1.771
 9970SOL    HW230810   5.590   5.431   1.840
 9971SOL     OW30811   1.340   2.880   1.805
 9971SOL    HW130812   1.254   2.928   1.825
 9971SOL    HW230813   1.414   2.920   1.859
 9972SOL     OW30814   3.416   3.758   0.805
 9972SOL    HW130815   3.340   3.795   0.751
 9972SOL    HW230816   3.501   3.767   0.753
 9973SOL     OW30817   4.013   2.183   4.234
 9973SOL    HW130818   4.025   2.195   4.135
 9973SOL    HW230819   4.092   2.223   4.282
 9974SOL     OW30820   6.513   2.434   3.386
 9974SOL    HW130821   6.427   2.469   3.422
 9974SOL    HW230822   6.587   2.498   3.407
 9975SOL     OW30823   0.990   5.276   6.954
 9975SOL    HW130824   1.030   5.290   6.864
 9975SOL    HW230825   0.949   5.361   6.986
 9976SOL     OW30826   1.532   5.511   5.846
 9976SOL    HW130827   1.620   5.530   5.890
 9976SOL    HW230828   1.547   5.494   5.748
 9977SOL     OW30829   5.608   4.935   4.979
 9977SOL    HW130830   5.601   4.835   4.976
 9977SOL    HW230831   5.525   4.973   5.019
 9978SOL     OW30832   0.156   1.966   5.916
 9978SOL    HW130833   0.250   1.971   5.950
 9978SOL    HW230834   0.107   2.050   5.939
 9979SOL     OW30835   5.150   3.351   6.120
 9979SOL    HW130836   5.105   3.319   6.203
 9979SOL    HW230837   5.082   3.391   6.058
 9980SOL     OW30838   1.537   0.919   0.135
 9980SOL    HW130839   1.525   0.821   0.149
 9980SOL    HW230840   1.633   0.942   0.143
 9981SOL     OW30841   1.355   2.449   1.144
 9981SOL    HW130842   1.407   2.422   1.063
 9981SOL    HW230843   1.385   2.540   1.173
 9982SOL     OW30844   2.131   1.044   4.811
 9982SOL    HW130845   2.158   1.042   4.908
 9982SOL    HW230846   2.140   1.137   4.776
 9983SOL     OW30847   5.909   2.752   2.657
 9983SOL    HW130848   5.913   2.666   2.708
 9983SOL    HW230849   5.823   2.799   2.678
 9984SOL     OW30850   0.030   6.156   1.380
 9984SOL    HW130851   7.001   6.076   1.343
 9984SOL    HW230852   0.097   6.127   1.448
 9985SOL     OW30853   3.502   4.994   0.471
 9985SOL    HW130854   3.453   4.972   0.556
 9985SOL    HW230855   3.513   5.093   0.463
 9986SOL     OW30856   5.105   4.308   0.606
 9986SOL    HW130857   5.192   4.356   0.613
 9986SOL    HW230858   5.035   4.358   0.657
 9987SOL     OW30859   5.336   3.155   1.635
 9987SOL    HW130860   5.270   3.162   1.560
 9987SOL    HW230861   5.306   3.085   1.700
 9988SOL     OW30862   6.650   5.122   4.205
 9988SOL    HW130863   6.656   5.153   4.299
 9988SOL    HW230864   6.685   5.193   4.144
 9989SOL     OW30865   5.749   3.387   2.111
 9989SOL    HW130866   5.777   3.331   2.032
 9989SOL    HW230867   5.793   3.352   2.193
 9990SOL     OW30868   0.291   6.728   3.259
 9990SOL    HW130869   0.284   6.804   3.323
 9990SOL    HW230870   0.217   6.732   3.192
 9991SOL     OW30871   1.391   3.841   3.616
 9991SOL    HW130872   1.405   3.935   3.646
 9991SOL    HW230873   1.455   3.820   3.542
 9992SOL     OW30874   3.311   3.984   1.004
 9992SOL    HW130875   3.325   4.071   0.958
 9992SOL    HW230876   3.242   3.931   0.955
 9993SOL     OW30877   3.248   6.215   3.799
 9993SOL    HW130878   3.325   6.246   3.743
 9993SOL    HW230879   3.200   6.294   3.836
 9994SOL     OW30880   0.060   3.994   3.314
 9994SOL    HW130881   0.148   3.946   3.316
 9994SOL    HW230882   0.072   4.083   3.271
 9995SOL     OW30883   3.245   1.276   3.681
 9995SOL    HW130884   3.225   1.360   3.730
 9995SOL    HW230885   3.280   1.207   3.745
 9996SOL     OW30886   3.088   4.106   0.541
 9996SOL    HW130887   3.029   4.053   0.602
 9996SOL    HW230888   3.100   4.057   0.455
 9997SOL     OW30889   5.326   2.027   3.714
 9997SOL    HW130890   5.311   2.029   3.615
 9997SOL    HW230891   5.237   2.027   3.761
 9998SOL     OW30892   5.127   3.716   2.471
 9998SOL    HW130893   5.221   3.745   2.450
 9998SOL    HW230894   5.064   3.792   2.454
 9999SOL     OW30895   0.825   0.030   4.242
 9999SOL    HW130896   0.905   0.086   4.266
 9999SOL    HW230897   0.807   6.984   4.316
10000SOL     OW30898   5.544   1.291   1.436
10000SOL    HW130899   5.538   1.388   1.414
10000SOL    HW230900   5.572   1.240   1.354
10001SOL     OW30901   3.496   6.398   2.351
10001SOL    HW130902   3.554   6.331   2.304
10001SOL    HW230903   3.402   6.365   2.352
10002SOL     OW30904   2.059   1.160   0.604
10002SOL    HW130905   2.010   1.163   0.691
10002SOL    HW230906   2.136   1.225   0.607
10003SOL     OW30907   2.784   1.608   2.373
10003SOL    HW130908   2.841   1.670   2.319
10003SOL    HW230909   2.838   1.530   2.404
10004SOL     OW30910   5.710   4.670   4.871
10004SOL    HW130911   5.616   4.646   4.893
10004SOL    HW230912   5.772   4.630   4.939
10005SOL     OW30913   3.121   5.374   3.093
10005SOL    HW130914   3.056   5.402   3.022
10005SOL    HW230915   3.092   5.411   3.181
10006SOL     OW30916   5.475   0.338   5.155
10006SOL    HW130917   5.504   0.380   5.069
10006SOL    HW230918   5.548   0.278   5.189
10007SOL     OW30919   0.456   3.603   4.639
10007SOL    HW130920   0.549   3.600   4.676
10007SOL    HW230921   0.407   3.519   4.664
10008SOL     OW30922   4.345   2.086   3.778
10008SOL    HW130923   4.409   2.141   3.832
10008SOL    HW230924   4.262   2.140   3.759
10009SOL     OW30925   1.853   3.894   1.444
10009SOL    HW130926   1.809   3.916   1.531
10009SOL    HW230927   1.896   3.804   1.450
10010SOL     OW30928   3.007   5.552   6.566
10010SOL    HW130929   3.085   5.608   6.536
10010SOL    HW230930   3.033   5.500   6.648
10011SOL     OW30931   0.594   4.590   6.998
10011SOL    HW130932   0.664   4.581   6.928
10011SOL    HW230933   0.560   4.684   6.998
10012SOL     OW30934   4.788   0.269   2.307
10012SOL    HW130935   4.786   0.172   2.283
10012SOL    HW230936   4.711   0.316   2.264
10013SOL     OW30937   1.068   4.655   4.482
10013SOL    HW130938   1.047   4.720   4.409
10013SOL    HW230939   1.167   4.655   4.499
10014SOL     OW30940   1.656   6.948   2.517
10014SOL    HW130941   1.637   6.851   2.527
10014SOL    HW230942   1.753   6.961   2.497
10015SOL     OW30943   3.935   5.034   7.000
10015SOL    HW130944   3.866   4.977   6.955
10015SOL    HW230945   4.018   4.979   7.016
10016SOL     OW30946   2.349   1.424   5.140
10016SOL    HW130947   2.448   1.426   5.142
10016SOL    HW230948   2.314   1.509   5.100
10017SOL     OW30949   2.324   1.759   2.838
10017SOL    HW130950   2.231   1.729   2.817
10017SOL    HW230951   2.390   1.702   2.790
10018SOL     OW30952   6.805   3.864   5.676
10018SOL    HW130953   6.757   3.783   5.710
10018SOL    HW230954   6.869   3.837   5.605
10019SOL     OW30955   0.344   1.303   3.241
10019SOL    HW130956   0.383   1.245   3.313
10019SOL    HW230957   0.251   1.273   3.221
10020SOL     OW30958   0.321   1.100   2.202
10020SOL    HW130959   0.227   1.073   2.221
10020SOL    HW230960   0.322   1.191   2.160
10021SOL     OW30961   1.186   3.094   1.851
10021SOL    HW130962   1.250   3.162   1.887
10021SOL    HW230963   1.124   3.138   1.786
10022SOL     OW30964   2.171   5.888   0.052
10022SOL    HW130965   2.172   5.977   0.100
10022SOL    HW230966   2.169   5.903   6.972
10023SOL     OW30967   2.761   6.095   5.638
10023SOL    HW130968   2.773   6.183   5.684
10023SOL    HW230969   2.792   6.021   5.697
10024SOL     OW30970   0.775   4.985   2.811
10024SOL    HW130971   0.776   4.965   2.909
10024SOL    HW230972   0.828   5.068   2.794
10025SOL     OW30973   1.508   2.931   2.294
10025SOL    HW130974   1.507   2.968   2.387
10025SOL    HW230975   1.465   2.996   2.232
10026SOL     OW30976   4.949   0.718   3.435
10026SOL    HW130977   5.018   0.778   3.474
10026SOL    HW230978   4.894   0.678   3.508
10027SOL     OW30979   0.854   2.819   4.862
10027SOL    HW130980   0.933   2.840   4.919
10027SOL    HW230981   0.878   2.747   4.797
10028SOL     OW30982   2.857   1.161   0.747
10028SOL    HW130983   2.834   1.120   0.659
10028SOL    HW230984   2.938   1.219   0.737
10029SOL     OW30985   0.824   3.453   3.688
10029SOL    HW130986   0.780   3.364   3.697
10029SOL    HW230987   0.763   3.525   3.719
10030SOL     OW30988   3.283   6.713   4.878
10030SOL    HW130989   3.317   6.806   4.866
10030SOL    HW230990   3.229   6.686   4.799
10031SOL     OW30991   4.483   5.036   4.900
10031SOL    HW130992   4.559   4.972   4.885
10031SOL    HW230993   4.420   4.998   4.968
10032SOL     OW30994   3.911   0.245   6.129
10032SOL    HW130995   3.941   0.275   6.220
10032SOL    HW230996   3.826   0.193   6.138
10033SOL     OW30997   4.252   1.829   4.708
10033SOL    HW130998   4.266   1.853   4.804
10033SOL    HW230999   4.160   1.855   4.680
10034SOL     OW31000   2.482   1.314   3.775
10034SOL    HW131001   2.394   1.288   3.814
10034SOL    HW231002   2.469   1.353   3.684
10035SOL     OW31003   5.534   4.178   1.081
10035SOL    HW131004   5.594   4.252   1.111
10035SOL    HW231005   5.441   4.196   1.115
10036SOL     OW31006   6.700   0.816   0.743
10036SOL    HW131007   6.634   0.756   0.790
10036SOL    HW231008   6.681   0.911   0.766
10037SOL     OW31009   6.292   6.471   6.383
10037SOL    HW131010   6.368   6.474   6.318
10037SOL    HW231011   6.328   6.463   6.476
10038SOL     OW31012   4.315   6.960   6.057
10038SOL    HW131013   4.310   6.890   5.986
10038SOL    HW231014   4.249   6.939   6.129
10039SOL     OW31015   5.781   6.683   5.190
10039SOL    HW131016   5.699   6.658   5.138
10039SOL    HW231017   5.778   6.639   5.280
10040SOL     OW31018   4.750   6.279   6.210
10040SOL    HW131019   4.664   6.260   6.259
10040SOL    HW231020   4.738   6.358   6.151
10041SOL     OW31021   5.489   5.202   6.096
10041SOL    HW131022   5.561   5.177   6.161
10041SOL    HW231023   5.474   5.300   6.099
10042SOL     OW31024   0.402   0.838   5.419
10042SOL    HW131025   0.396   0.753   5.471
10042SOL    HW231026   0.450   0.907   5.474
10043SOL     OW31027   0.610   0.659   3.750
10043SOL    HW131028   0.550   0.735   3.776
10043SOL    HW231029   0.620   0.657   3.651
10044SOL     OW31030   2.590   2.007   3.816
10044SOL    HW131031   2.673   2.016   3.871
10044SOL    HW231032   2.615   1.995   3.720
10045SOL     OW31033   5.171   0.120   3.821
10045SOL    HW131034   5.161   0.128   3.920
10045SOL    HW231035   5.257   0.161   3.792
10046SOL     OW31036   1.240   1.872   1.711
10046SOL    HW131037   1.174   1.796   1.717
10046SOL    HW231038   1.228   1.932   1.790
10047SOL     OW31039   6.013   3.171   4.726
10047SOL    HW131040   6.024   3.087   4.780
10047SOL    HW231041   5.960   3.238   4.780
10048SOL     OW31042   3.379   1.951   2.434
10048SOL    HW131043   3.295   2.004   2.447
10048SOL    HW231044   3.451   2.010   2.399
10049SOL     OW31045   0.637   0.990   6.680
10049SOL    HW131046   0.728   0.984   6.721
10049SOL    HW231047   0.577   0.922   6.722
10050SOL     OW31048   6.375   2.417   5.050
10050SOL    HW131049   6.283   2.381   5.066
10050SOL    HW231050   6.433   2.398   5.130
10051SOL     OW31051   6.356   2.614   4.786
10051SOL    HW131052   6.365   2.591   4.883
10051SOL    HW231053   6.363   2.713   4.774
10052SOL     OW31054   1.612   2.096   2.456
10052SOL    HW131055   1.633   2.006   2.497
10052SOL    HW231056   1.585   2.083   2.361
10053SOL     OW31057   3.181   5.130   2.018
10053SOL    HW131058   3.198   5.040   2.058
10053SOL    HW231059   3.165   5.121   1.920
10054SOL     OW31060   3.918   6.400   5.939
10054SOL    HW131061   3.941   6.330   5.871
10054SOL    HW231062   3.863   6.359   6.012
10055SOL     OW31063   5.802   2.486   5.449
10055SOL    HW131064   5.744   2.416   5.491
10055SOL    HW231065   5.889   2.445   5.420
10056SOL     OW31066   6.510   5.391   0.402
10056SOL    HW131067   6.557   5.357   0.484
10056SOL    HW231068   6.515   5.490   0.399
10057SOL     OW31069   3.907   1.080   4.205
10057SOL    HW131070   3.815   1.114   4.185
10057SOL    HW231071   3.936   1.017   4.132
10058SOL     OW31072   0.598   3.731   4.242
10058SOL    HW131073   0.695   3.725   4.223
10058SOL    HW231074   0.584   3.784   4.326
10059SOL     OW31075   5.659   6.314   0.413
10059SOL    HW131076   5.627   6.279   0.501
10059SOL    HW231077   5.658   6.414   0.414
10060SOL     OW31078   2.432   1.293   1.982
10060SOL    HW131079   2.500   1.329   1.919
10060SOL    HW231080   2.340   1.308   1.944
10061SOL     OW31081   5.158   1.257   4.558
10061SOL    HW131082   5.080   1.281   4.616
10061SOL    HW231083   5.174   1.329   4.491
10062SOL     OW31084   6.195   6.855   4.954
10062SOL    HW131085   6.278   6.807   4.983
10062SOL    HW231086   6.119   6.789   4.946
10063SOL     OW31087   1.610   2.098   3.308
10063SOL    HW131088   1.688   2.057   3.354
10063SOL    HW231089   1.535   2.032   3.304
10064SOL     OW31090   6.056   5.677   5.926
10064SOL    HW131091   6.147   5.665   5.966
10064SOL    HW231092   6.047   5.770   5.889
10065SOL     OW31093   2.215   0.782   1.742
10065SOL    HW131094   2.247   0.755   1.833
10065SOL    HW231095   2.261   0.867   1.715
10066SOL     OW31096   1.660   1.360   4.405
10066SOL    HW131097   1.700   1.294   4.468
10066SOL    HW231098   1.696   1.345   4.313
10067SOL     OW31099   5.419   3.780   5.621
10067SOL    HW131100   5.402   3.716   5.696
10067SOL    HW231101   5.508   3.823   5.634
10068SOL     OW31102   5.732   3.367   4.454
10068SOL    HW131103   5.819   3.416   4.449
10068SOL    HW231104   5.733   3.290   4.390
10069SOL     OW31105   1.744   5.418   3.442
10069SOL    HW131106   1.671   5.407   3.510
10069SOL    HW231107   1.783   5.509   3.449
10070SOL     OW31108   0.230   0.107   5.034
10070SOL    HW131109   0.262   0.115   5.128
10070SOL    HW231110   0.278   0.173   4.976
10071SOL     OW31111   5.206   5.719   3.639
10071SOL    HW131112   5.119   5.741   3.595
10071SOL    HW231113   5.272   5.688   3.570
10072SOL     OW31114   0.681   6.193   4.050
10072SOL    HW131115   0.772   6.160   4.026
10072SOL    HW231116   0.616   6.163   3.981
10073SOL     OW31117   6.381   4.043   4.438
10073SOL    HW131118   6.446   4.093   4.380
10073SOL    HW231119   6.340   4.107   4.504
10074SOL     OW31120   0.803   0.439   5.298
10074SOL    HW131121   0.819   0.341   5.303
10074SOL    HW231122   0.714   0.457   5.256
10075SOL     OW31123   1.452   2.549   2.600
10075SOL    HW131124   1.443   2.450   2.595
10075SOL    HW231125   1.549   2.574   2.602
10076SOL     OW31126   5.644   0.416   3.810
10076SOL    HW131127   5.570   0.482   3.811
10076SOL    HW231128   5.683   0.411   3.718
10077SOL     OW31129   3.160   2.129   6.533
10077SOL    HW131130   3.236   2.191   6.550
10077SOL    HW231131   3.183   2.037   6.564
10078SOL     OW31132   6.708   6.464   4.041
10078SOL    HW131133   6.734   6.403   4.116
10078SOL    HW231134   6.776   6.536   4.031
10079SOL     OW31135   1.172   3.458   1.890
10079SOL    HW131136   1.185   3.412   1.978
10079SOL    HW231137   1.095   3.417   1.842
10080SOL     OW31138   3.071   1.311   5.669
10080SOL    HW131139   3.085   1.408   5.691
10080SOL    HW231140   3.018   1.268   5.742
10081SOL     OW31141   0.420   0.623   0.148
10081SOL    HW131142   0.366   0.585   0.072
10081SOL    HW231143   0.479   0.696   0.112
10082SOL     OW31144   0.204   4.253   2.264
10082SOL    HW131145   0.287   4.289   2.221
10082SOL    HW231146   0.172   4.173   2.213
10083SOL     OW31147   5.187   0.754   2.555
10083SOL    HW131148   5.114   0.797   2.501
10083SOL    HW231149   5.241   0.694   2.497
10084SOL     OW31150   3.256   0.903   5.984
10084SOL    HW131151   3.196   0.827   6.010
10084SOL    HW231152   3.240   0.926   5.888
10085SOL     OW31153   0.330   6.114   2.401
10085SOL    HW131154   0.250   6.109   2.342
10085SOL    HW231155   0.371   6.205   2.395
10086SOL     OW31156   5.953   5.196   1.575
10086SOL    HW131157   5.989   5.289   1.581
10086SOL    HW231158   5.995   5.139   1.646
10087SOL     OW31159   0.236   0.076   4.053
10087SOL    HW131160   0.195   0.149   3.999
10087SOL    HW231161   0.239   0.102   4.149
10088SOL     OW31162   6.940   0.125   0.232
10088SOL    HW131163   6.850   0.155   0.201
10088SOL    HW231164   6.966   0.042   0.183
10089SOL     OW31165   2.475   2.572   2.967
10089SOL    HW131166   2.574   2.577   2.977
10089SOL    HW231167   2.432   2.567   3.057
10090SOL     OW31168   1.248   4.832   0.836
10090SOL    HW131169   1.283   4.738   0.832
10090SOL    HW231170   1.226   4.855   0.931
10091SOL     OW31171   1.358   3.401   5.488
10091SOL    HW131172   1.328   3.426   5.580
10091SOL    HW231173   1.318   3.464   5.421
10092SOL     OW31174   2.181   3.488   4.956
10092SOL    HW131175   2.172   3.586   4.970
10092SOL    HW231176   2.173   3.441   5.044
10093SOL     OW31177   0.679   4.435   5.085
10093SOL    HW131178   0.732   4.431   5.000
10093SOL    HW231179   0.631   4.522   5.090
10094SOL     OW31180   2.252   6.332   1.950
10094SOL    HW131181   2.322   6.288   2.007
10094SOL    HW231182   2.169   6.346   2.003
10095SOL     OW31183   6.312   2.102   5.928
10095SOL    HW131184   6.306   2.136   5.834
10095SOL    HW231185   6.407   2.079   5.948
10096SOL     OW31186   5.660   4.978   1.932
10096SOL    HW131187   5.625   5.060   1.977
10096SOL    HW231188   5.655   4.901   1.996
10097SOL     OW31189   0.970   1.088   0.129
10097SOL    HW131190   1.011   0.997   0.135
10097SOL    HW231191   0.988   1.139   0.213
10098SOL     OW31192   2.185   0.763   5.259
10098SOL    HW131193   2.252   0.810   5.201
10098SOL    HW231194   2.208   0.666   5.263
10099SOL     OW31195   0.086   4.967   0.480
10099SOL    HW131196   0.015   5.037   0.490
10099SOL    HW231197   0.046   4.885   0.440
10100SOL     OW31198   5.000   0.088   4.542
10100SOL    HW131199   5.091   0.054   4.520
10100SOL    HW231200   5.005   0.184   4.569
10101SOL     OW31201   5.644   4.274   1.786
10101SOL    HW131202   5.630   4.298   1.882
10101SOL    HW231203   5.694   4.188   1.781
10102SOL     OW31204   1.478   1.113   2.954
10102SOL    HW131205   1.556   1.140   2.896
10102SOL    HW231206   1.489   1.153   3.045
10103SOL     OW31207   2.293   1.526   5.675
10103SOL    HW131208   2.203   1.569   5.678
10103SOL    HW231209   2.330   1.533   5.583
10104SOL     OW31210   1.418   2.410   4.391
10104SOL    HW131211   1.504   2.369   4.360
10104SOL    HW231212   1.431   2.508   4.403
10105SOL     OW31213   1.125   0.856   0.164
10105SOL    HW131214   1.147   0.772   0.213
10105SOL    HW231215   1.168   0.855   0.074
10106SOL     OW31216   4.422   5.664   1.200
10106SOL    HW131217   4.491   5.736   1.197
10106SOL    HW231218   4.408   5.635   1.295
10107SOL     OW31219   0.516   2.115   6.646
10107SOL    HW131220   0.531   2.021   6.678
10107SOL    HW231221   0.528   2.178   6.722
10108SOL     OW31222   6.483   6.052   6.857
10108SOL    HW131223   6.501   6.123   6.788
10108SOL    HW231224   6.388   6.023   6.850
10109SOL     OW31225   3.611   6.832   1.331
10109SOL    HW131226   3.645   6.738   1.345
10109SOL    HW231227   3.625   6.858   1.236
10110SOL     OW31228   4.844   6.623   4.894
10110SOL    HW131229   4.824   6.717   4.923
10110SOL    HW231230   4.762   6.582   4.854
10111SOL     OW31231   5.591   3.113   4.022
10111SOL    HW131232   5.597   3.195   3.966
10111SOL    HW231233   5.612   3.033   3.966
10112SOL     OW31234   5.323   4.275   4.588
10112SOL    HW131235   5.381   4.354   4.572
10112SOL    HW231236   5.362   4.195   4.543
10113SOL     OW31237   4.146   0.390   5.354
10113SOL    HW131238   4.197   0.421   5.435
10113SOL    HW231239   4.188   0.429   5.272
10114SOL     OW31240   5.310   0.476   0.888
10114SOL    HW131241   5.338   0.441   0.978
10114SOL    HW231242   5.364   0.558   0.867
10115SOL     OW31243   3.206   2.005   3.459
10115SOL    HW131244   3.143   2.072   3.420
10115SOL    HW231245   3.200   1.920   3.408
10116SOL     OW31246   0.316   6.619   0.257
10116SOL    HW131247   0.281   6.541   0.205
10116SOL    HW231248   0.410   6.638   0.229
10117SOL     OW31249   6.915   6.353   4.919
10117SOL    HW131250   7.005   6.362   4.960
10117SOL    HW231251   6.845   6.358   4.991
10118SOL     OW31252   1.133   5.450   3.270
10118SOL    HW131253   1.105   5.360   3.235
10118SOL    HW231254   1.119   5.519   3.199
10119SOL     OW31255   0.742   6.620   4.521
10119SOL    HW131256   0.802   6.588   4.594
10119SOL    HW231257   0.684   6.545   4.489
10120SOL     OW31258   1.114   3.861   4.253
10120SOL    HW131259   1.168   3.910   4.185
10120SOL    HW231260   1.175   3.815   4.318
10121SOL     OW31261   6.609   4.446   6.490
10121SOL    HW131262   6.537   4.479   6.551
10121SOL    HW231263   6.697   4.450   6.536
10122SOL     OW31264   5.863   3.152   0.769
10122SOL    HW131265   5.915   3.069   0.750
10122SOL    HW231266   5.910   3.207   0.838
10123SOL     OW31267   6.575   6.676   0.204
10123SOL    HW131268   6.528   6.764   0.199
10123SOL    HW231269   6.664   6.688   0.246
10124SOL     OW31270   1.978   3.239   6.910
10124SOL    HW131271   2.010   3.153   6.872
10124SOL    HW231272   1.954   3.302   6.836
10125SOL     OW31273   1.681   0.346   2.729
10125SOL    HW131274   1.736   0.263   2.732
10125SOL    HW231275   1.742   0.426   2.723
10126SOL     OW31276   0.027   6.952   6.422
10126SOL    HW131277   0.037   0.033   6.433
10126SOL    HW231278   6.975   6.934   6.353
10127SOL     OW31279   2.051   4.624   5.831
10127SOL    HW131280   2.047   4.679   5.915
10127SOL    HW231281   2.097   4.676   5.759
10128SOL     OW31282   1.515   1.317   1.307
10128SOL    HW131283   1.480   1.266   1.228
10128SOL    HW231284   1.554   1.252   1.373
10129SOL     OW31285   5.130   2.980   4.018
10129SOL    HW131286   5.075   3.026   4.088
10129SOL    HW231287   5.208   3.037   3.994
10130SOL     OW31288   2.028   4.210   2.177
10130SOL    HW131289   2.026   4.140   2.249
10130SOL    HW231290   2.073   4.292   2.212
10131SOL     OW31291   0.488   0.488   3.359
10131SOL    HW131292   0.403   0.505   3.310
10131SOL    HW231293   0.532   0.406   3.322
10132SOL     OW31294   3.081   0.098   4.392
10132SOL    HW131295   3.085   0.061   4.299
10132SOL    HW231296   3.126   0.188   4.394
10133SOL     OW31297   4.708   6.081   1.357
10133SOL    HW131298   4.758   6.147   1.301
10133SOL    HW231299   4.645   6.130   1.418
10134SOL     OW31300   6.624   6.445   3.654
10134SOL    HW131301   6.608   6.536   3.692
10134SOL    HW231302   6.708   6.407   3.694
10135SOL     OW31303   4.909   3.293   3.421
10135SOL    HW131304   4.941   3.316   3.329
10135SOL    HW231305   4.950   3.356   3.487
10136SOL     OW31306   5.586   0.755   3.151
10136SOL    HW131307   5.601   0.706   3.064
10136SOL    HW231308   5.628   0.845   3.146
10137SOL     OW31309   5.935   4.356   3.994
10137SOL    HW131310   6.026   4.316   3.997
10137SOL    HW231311   5.890   4.346   4.082
10138SOL     OW31312   5.184   1.975   0.700
10138SOL    HW131313   5.208   2.049   0.764
10138SOL    HW231314   5.138   1.902   0.750
10139SOL     OW31315   3.926   3.957   3.159
10139SOL    HW131316   3.884   4.014   3.089
10139SOL    HW231317   3.865   3.950   3.238
10140SOL     OW31318   6.532   6.312   6.011
10140SOL    HW131319   6.565   6.231   5.964
10140SOL    HW231320   6.511   6.383   5.945
10141SOL     OW31321   3.528   1.833   4.577
10141SOL    HW131322   3.523   1.764   4.650
10141SOL    HW231323   3.449   1.823   4.516
10142SOL     OW31324   6.252   6.529   4.607
10142SOL    HW131325   6.247   6.485   4.697
10142SOL    HW231326   6.250   6.629   4.619
10143SOL     OW31327   4.253   0.939   0.085
10143SOL    HW131328   4.272   0.841   0.091
10143SOL    HW231329   4.284   0.984   0.169
10144SOL     OW31330   3.493   6.679   6.258
10144SOL    HW131331   3.561   6.703   6.327
10144SOL    HW231332   3.538   6.673   6.168
10145SOL     OW31333   2.957   5.462   5.408
10145SOL    HW131334   2.895   5.429   5.480
10145SOL    HW231335   2.961   5.395   5.334
10146SOL     OW31336   4.179   5.179   4.351
10146SOL    HW131337   4.090   5.152   4.315
10146SOL    HW231338   4.243   5.194   4.275
10147SOL     OW31339   5.863   4.206   4.991
10147SOL    HW131340   5.930   4.239   4.924
10147SOL    HW231341   5.797   4.147   4.946
10148SOL     OW31342   5.023   5.167   6.868
10148SOL    HW131343   4.950   5.160   6.800
10148SOL    HW231344   4.983   5.185   6.958
10149SOL     OW31345   5.505   2.530   1.057
10149SOL    HW131346   5.576   2.459   1.061
10149SOL    HW231347   5.547   2.620   1.049
10150SOL     OW31348   4.071   3.332   0.543
10150SOL    HW131349   4.127   3.264   0.590
10150SOL    HW231350   3.977   3.327   0.578
10151SOL     OW31351   1.073   6.804   0.158
10151SOL    HW131352   1.028   6.715   0.159
10151SOL    HW231353   1.165   6.795   0.196
10152SOL     OW31354   0.907   6.470   4.688
10152SOL    HW131355   0.905   6.506   4.781
10152SOL    HW231356   0.982   6.404   4.679
10153SOL     OW31357   4.906   6.327   3.719
10153SOL    HW131358   4.894   6.270   3.800
10153SOL    HW231359   4.835   6.305   3.652
10154SOL     OW31360   5.594   6.986   4.952
10154SOL    HW131361   5.671   7.008   5.012
10154SOL    HW231362   5.629   6.952   4.864
10155SOL     OW31363   3.701   2.257   5.575
10155SOL    HW131364   3.730   2.335   5.630
10155SOL    HW231365   3.766   2.242   5.501
10156SOL     OW31366   6.137   1.412   2.405
10156SOL    HW131367   6.194   1.458   2.473
10156SOL    HW231368   6.041   1.424   2.428
10157SOL     OW31369   6.122   2.217   6.590
10157SOL    HW131370   6.098   2.314   6.592
10157SOL    HW231371   6.095   2.174   6.677
10158SOL     OW31372   5.838   3.848   0.950
10158SOL    HW131373   5.824   3.914   0.876
10158SOL    HW231374   5.773   3.772   0.939
10159SOL     OW31375   2.650   2.850   6.167
10159SOL    HW131376   2.706   2.769   6.184
10159SOL    HW231377   2.709   2.929   6.149
10160SOL     OW31378   2.138   3.013   2.102
10160SOL    HW131379   2.073   2.962   2.045
10160SOL    HW231380   2.206   3.057   2.042
10161SOL     OW31381   3.122   2.973   6.386
10161SOL    HW131382   3.141   2.971   6.288
10161SOL    HW231383   3.052   2.905   6.408
10162SOL     OW31384   3.722   4.588   0.537
10162SOL    HW131385   3.732   4.566   0.634
10162SOL    HW231386   3.787   4.536   0.483
10163SOL     OW31387   5.990   4.933   6.209
10163SOL    HW131388   6.006   4.978   6.122
10163SOL    HW231389   5.926   4.857   6.197
10164SOL     OW31390   5.856   3.486   4.826
10164SOL    HW131391   5.778   3.511   4.768
10164SOL    HW231392   5.883   3.566   4.880
10165SOL     OW31393   0.403   1.920   3.213
10165SOL    HW131394   0.397   2.010   3.169
10165SOL    HW231395   0.316   1.872   3.201
10166SOL     OW31396   3.214   1.764   1.827
10166SOL    HW131397   3.289   1.801   1.773
10166SOL    HW231398   3.236   1.671   1.856
10167SOL     OW31399   2.619   3.123   0.046
10167SOL    HW131400   2.544   3.076   0.094
10167SOL    HW231401   2.592   3.217   0.026
10168SOL     OW31402   6.115   3.790   5.838
10168SOL    HW131403   6.210   3.795   5.808
10168SOL    HW231404   6.054   3.808   5.761
10169SOL     OW31405   6.498   4.601   3.783
10169SOL    HW131406   6.403   4.586   3.809
10169SOL    HW231407   6.555   4.527   3.819
10170SOL     OW31408   1.323   5.366   5.963
10170SOL    HW131409   1.385   5.420   5.906
10170SOL    HW231410   1.330   5.397   6.058
10171SOL     OW31411   6.492   3.066   5.863
10171SOL    HW131412   6.395   3.044   5.861
10171SOL    HW231413   6.517   3.096   5.955
10172SOL     OW31414   6.674   6.562   4.447
10172SOL    HW131415   6.756   6.617   4.433
10172SOL    HW231416   6.614   6.607   4.514
10173SOL     OW31417   0.832   2.382   1.083
10173SOL    HW131418   0.915   2.394   1.028
10173SOL    HW231419   0.768   2.456   1.063
10174SOL     OW31420   5.524   5.180   2.061
10174SOL    HW131421   5.527   5.133   2.149
10174SOL    HW231422   5.517   5.278   2.075
10175SOL     OW31423   5.338   2.159   4.185
10175SOL    HW131424   5.280   2.101   4.243
10175SOL    HW231425   5.393   2.101   4.125
10176SOL     OW31426   1.014   3.400   5.768
10176SOL    HW131427   1.108   3.393   5.732
10176SOL    HW231428   0.953   3.428   5.694
10177SOL     OW31429   2.493   0.578   0.415
10177SOL    HW131430   2.404   0.591   0.460
10177SOL    HW231431   2.552   0.656   0.434
10178SOL     OW31432   6.893   0.635   5.680
10178SOL    HW131433   6.929   0.669   5.593
10178SOL    HW231434   6.793   0.636   5.678
10179SOL     OW31435   0.996   1.678   6.559
10179SOL    HW131436   0.995   1.751   6.490
10179SOL    HW231437   0.979   1.590   6.514
10180SOL     OW31438   3.956   0.199   6.395
10180SOL    HW131439   4.015   0.231   6.469
10180SOL    HW231440   3.861   0.202   6.426
10181SOL     OW31441   5.754   2.609   1.807
10181SOL    HW131442   5.741   2.708   1.800
10181SOL    HW231443   5.741   2.580   1.902
10182SOL     OW31444   4.036   0.912   1.187
10182SOL    HW131445   3.940   0.894   1.168
10182SOL    HW231446   4.078   0.830   1.226
10183SOL     OW31447   0.003   2.340   6.823
10183SOL    HW131448   6.975   2.364   6.739
10183SOL    HW231449   0.015   2.241   6.827
10184SOL     OW31450   3.950   0.925   6.401
10184SOL    HW131451   3.870   0.980   6.378
10184SOL    HW231452   3.973   0.866   6.324
10185SOL     OW31453   5.774   5.961   2.026
10185SOL    HW131454   5.776   6.030   1.954
10185SOL    HW231455   5.862   5.959   2.073
10186SOL     OW31456   6.098   4.322   3.546
10186SOL    HW131457   6.178   4.382   3.534
10186SOL    HW231458   6.085   4.267   3.465
10187SOL     OW31459   0.444   3.380   0.673
10187SOL    HW131460   0.475   3.415   0.585
10187SOL    HW231461   0.476   3.286   0.684
10188SOL     OW31462   3.474   5.695   0.623
10188SOL    HW131463   3.548   5.760   0.641
10188SOL    HW231464   3.407   5.737   0.562
10189SOL     OW31465   0.789   0.889   6.335
10189SOL    HW131466   0.858   0.837   6.387
10189SOL    HW231467   0.731   0.826   6.284
10190SOL     OW31468   4.904   3.094   1.868
10190SOL    HW131469   4.819   3.060   1.909
10190SOL    HW231470   4.892   3.189   1.839
10191SOL     OW31471   5.421   5.387   5.170
10191SOL    HW131472   5.426   5.317   5.241
10191SOL    HW231473   5.451   5.348   5.082
10192SOL     OW31474   4.584   0.858   5.757
10192SOL    HW131475   4.534   0.944   5.753
10192SOL    HW231476   4.668   0.870   5.810
10193SOL     OW31477   4.189   3.343   1.980
10193SOL    HW131478   4.184   3.262   1.922
10193SOL    HW231479   4.133   3.329   2.062
10194SOL     OW31480   5.726   5.466   5.410
10194SOL    HW131481   5.752   5.547   5.358
10194SOL    HW231482   5.629   5.472   5.435
10195SOL     OW31483   6.297   5.496   0.784
10195SOL    HW131484   6.213   5.548   0.778
10195SOL    HW231485   6.375   5.558   0.794
10196SOL     OW31486   4.595   1.848   4.005
10196SOL    HW131487   4.497   1.833   3.989
10196SOL    HW231488   4.622   1.936   3.965
10197SOL     OW31489   5.969   1.966   5.757
10197SOL    HW131490   5.994   2.053   5.800
10197SOL    HW231491   5.874   1.969   5.728
10198SOL     OW31492   2.567   6.992   2.428
10198SOL    HW131493   2.564   6.905   2.378
10198SOL    HW231494   2.662   7.014   2.450
10199SOL     OW31495   2.399   2.359   6.999
10199SOL    HW131496   2.416   2.298   6.921
10199SOL    HW231497   2.483   2.367   0.035
10200SOL     OW31498   4.799   1.811   0.220
10200SOL    HW131499   4.731   1.879   0.195
10200SOL    HW231500   4.755   1.732   0.262
10201SOL     OW31501   1.671   4.114   0.950
10201SOL    HW131502   1.717   4.042   1.002
10201SOL    HW231503   1.714   4.124   0.860
10202SOL     OW31504   3.473   3.434   0.547
10202SOL    HW131505   3.570   3.423   0.523
10202SOL    HW231506   3.447   3.530   0.533
10203SOL     OW31507   6.319   3.257   3.653
10203SOL    HW131508   6.249   3.211   3.707
10203SOL    HW231509   6.279   3.335   3.604
10204SOL     OW31510   5.008   6.073   0.272
10204SOL    HW131511   4.940   6.002   0.291
10204SOL    HW231512   5.090   6.031   0.233
10205SOL     OW31513   1.811   0.982   1.518
10205SOL    HW131514   1.832   0.912   1.586
10205SOL    HW231515   1.887   0.990   1.453
10206SOL     OW31516   0.142   0.806   0.545
10206SOL    HW131517   0.221   0.855   0.581
10206SOL    HW231518   0.173   0.725   0.495
10207SOL     OW31519   1.212   1.970   6.825
10207SOL    HW131520   1.208   2.050   6.765
10207SOL    HW231521   1.289   1.912   6.798
10208SOL     OW31522   5.631   4.190   3.818
10208SOL    HW131523   5.653   4.193   3.916
10208SOL    HW231524   5.716   4.189   3.765
10209SOL     OW31525   0.151   0.066   6.882
10209SOL    HW131526   0.203   7.012   6.928
10209SOL    HW231527   0.140   0.143   6.945
10210SOL     OW31528   4.608   6.366   2.113
10210SOL    HW131529   4.524   6.333   2.157
10210SOL    HW231530   4.660   6.288   2.078
10211SOL     OW31531   4.089   6.522   4.778
10211SOL    HW131532   4.182   6.512   4.742
10211SOL    HW231533   4.045   6.433   4.781
10212SOL     OW31534   0.871   0.184   5.356
10212SOL    HW131535   0.947   0.226   5.405
10212SOL    HW231536   0.843   0.100   5.402
10213SOL     OW31537   5.543   3.152   1.012
10213SOL    HW131538   5.538   3.250   1.034
10213SOL    HW231539   5.472   3.104   1.063
10214SOL     OW31540   1.586   1.557   2.202
10214SOL    HW131541   1.519   1.484   2.192
10214SOL    HW231542   1.668   1.535   2.150
10215SOL     OW31543   4.137   3.372   3.590
10215SOL    HW131544   4.119   3.303   3.520
10215SOL    HW231545   4.171   3.455   3.546
10216SOL     OW31546   0.094   1.477   1.270
10216SOL    HW131547   0.122   1.469   1.365
10216SOL    HW231548   7.018   1.444   1.260
10217SOL     OW31549   3.374   1.805   3.116
10217SOL    HW131550   3.471   1.830   3.115
10217SOL    HW231551   3.322   1.873   3.065
10218SOL     OW31552   1.609   1.710   1.651
10218SOL    HW131553   1.560   1.637   1.603
10218SOL    HW231554   1.547   1.787   1.666
10219SOL     OW31555   6.923   2.212   2.584
10219SOL    HW131556   6.831   2.174   2.586
10219SOL    HW231557   6.969   2.183   2.500
10220SOL     OW31558   4.548   2.073   0.997
10220SOL    HW131559   4.627   2.105   1.048
10220SOL    HW231560   4.492   2.014   1.055
10221SOL     OW31561   0.552   4.931   2.649
10221SOL    HW131562   0.638   4.944   2.698
10221SOL    HW231563   0.569   4.924   2.551
10222SOL     OW31564   2.817   3.496   5.945
10222SOL    HW131565   2.768   3.572   5.901
10222SOL    HW231566   2.755   3.417   5.950
10223SOL     OW31567   0.705   4.960   1.397
10223SOL    HW131568   0.773   4.909   1.450
10223SOL    HW231569   0.699   5.054   1.431
10224SOL     OW31570   0.014   3.474   4.161
10224SOL    HW131571   6.966   3.439   4.096
10224SOL    HW231572   6.999   3.561   4.199
10225SOL     OW31573   1.532   4.915   5.839
10225SOL    HW131574   1.617   4.914   5.890
10225SOL    HW231575   1.458   4.879   5.895
10226SOL     OW31576   2.733   0.479   6.742
10226SOL    HW131577   2.754   0.515   6.833
10226SOL    HW231578   2.783   0.394   6.727
10227SOL     OW31579   5.227   4.668   0.550
10227SOL    HW131580   5.158   4.690   0.619
10227SOL    HW231581   5.300   4.614   0.591
10228SOL     OW31582   0.367   6.970   1.769
10228SOL    HW131583   0.426   6.945   1.846
10228SOL    HW231584   0.301   0.020   1.799
10229SOL     OW31585   0.918   2.982   4.580
10229SOL    HW131586   0.820   2.984   4.560
10229SOL    HW231587   0.941   3.057   4.642
10230SOL     OW31588   5.677   5.708   2.857
10230SOL    HW131589   5.589   5.683   2.897
10230SOL    HW231590   5.684   5.669   2.765
10231SOL     OW31591   0.176   5.728   5.101
10231SOL    HW131592   0.097   5.668   5.115
10231SOL    HW231593   0.260   5.675   5.109
10232SOL     OW31594   2.766   1.232   3.734
10232SOL    HW131595   2.799   1.278   3.816
10232SOL    HW231596   2.670   1.254   3.719
10233SOL     OW31597   3.935   4.040   4.792
10233SOL    HW131598   3.992   4.101   4.848
10233SOL    HW231599   3.841   4.073   4.791
10234SOL     OW31600   6.298   1.627   1.188
10234SOL    HW131601   6.222   1.591   1.241
10234SOL    HW231602   6.384   1.611   1.236
10235SOL     OW31603   1.869   2.697   2.110
10235SOL    HW131604   1.834   2.788   2.085
10235SOL    HW231605   1.864   2.636   2.031
10236SOL     OW31606   2.770   6.916   0.317
10236SOL    HW131607   2.789   6.954   0.226
10236SOL    HW231608   2.821   6.968   0.386
10237SOL     OW31609   0.092   3.033   0.035
10237SOL    HW131610   0.119   2.944   0.071
10237SOL    HW231611   7.017   3.028   7.017
10238SOL     OW31612   4.086   4.287   1.563
10238SOL    HW131613   4.010   4.226   1.543
10238SOL    HW231614   4.162   4.235   1.600
10239SOL     OW31615   1.113   2.918   4.385
10239SOL    HW131616   1.090   2.821   4.371
10239SOL    HW231617   1.057   2.955   4.459
10240SOL     OW31618   1.999   5.526   2.264
10240SOL    HW131619   2.022   5.616   2.228
10240SOL    HW231620   2.066   5.459   2.233
10241SOL     OW31621   5.346   0.578   2.403
10241SOL    HW131622   5.355   0.480   2.421
10241SOL    HW231623   5.435   0.615   2.376
10242SOL     OW31624   6.645   1.629   0.931
10242SOL    HW131625   6.743   1.642   0.948
10242SOL    HW231626   6.632   1.578   0.847
10243SOL     OW31627   2.414   4.438   1.871
10243SOL    HW131628   2.487   4.506   1.862
10243SOL    HW231629   2.446   4.350   1.836
10244SOL     OW31630   2.148   4.242   0.570
10244SOL    HW131631   2.206   4.215   0.647
10244SOL    HW231632   2.193   4.314   0.518
10245SOL     OW31633   3.497   3.620   1.017
10245SOL    HW131634   3.460   3.666   0.936
10245SOL    HW231635   3.428   3.618   1.089
10246SOL     OW31636   3.365   4.154   4.054
10246SOL    HW131637   3.271   4.127   4.074
10246SOL    HW231638   3.412   4.181   4.138
10247SOL     OW31639   6.934   4.310   6.323
10247SOL    HW131640   6.861   4.248   6.294
10247SOL    HW231641   7.011   4.256   6.358
10248SOL     OW31642   1.012   6.742   2.694
10248SOL    HW131643   0.932   6.756   2.636
10248SOL    HW231644   1.056   6.830   2.712
10249SOL     OW31645   3.339   6.018   6.721
10249SOL    HW131646   3.382   6.107   6.737
10249SOL    HW231647   3.280   6.023   6.641
10250SOL     OW31648   6.512   3.504   1.192
10250SOL    HW131649   6.560   3.435   1.138
10250SOL    HW231650   6.450   3.556   1.132
10251SOL     OW31651   2.330   1.615   4.387
10251SOL    HW131652   2.342   1.648   4.293
10251SOL    HW231653   2.362   1.520   4.393
10252SOL     OW31654   3.941   3.514   6.129
10252SOL    HW131655   3.985   3.599   6.158
10252SOL    HW231656   3.987   3.479   6.047
10253SOL     OW31657   2.816   6.097   0.569
10253SOL    HW131658   2.838   6.003   0.544
10253SOL    HW231659   2.865   6.160   0.508
10254SOL     OW31660   4.725   1.540   5.123
10254SOL    HW131661   4.780   1.488   5.188
10254SOL    HW231662   4.702   1.629   5.162
10255SOL     OW31663   2.457   6.914   0.861
10255SOL    HW131664   2.392   6.985   0.837
10255SOL    HW231665   2.479   6.920   0.958
10256SOL     OW31666   3.866   1.507   2.430
10256SOL    HW131667   3.924   1.557   2.365
10256SOL    HW231668   3.848   1.415   2.395
10257SOL     OW31669   1.787   5.718   3.949
10257SOL    HW131670   1.767   5.813   3.925
10257SOL    HW231671   1.720   5.658   3.905
10258SOL     OW31672   3.747   2.110   2.760
10258SOL    HW131673   3.764   2.120   2.662
10258SOL    HW231674   3.820   2.155   2.811
10259SOL     OW31675   0.891   4.165   3.385
10259SOL    HW131676   0.933   4.140   3.298
10259SOL    HW231677   0.838   4.088   3.420
10260SOL     OW31678   0.692   1.624   3.036
10260SOL    HW131679   0.639   1.539   3.039
10260SOL    HW231680   0.682   1.671   3.124
10261SOL     OW31681   6.949   5.153   0.803
10261SOL    HW131682   6.854   5.121   0.794
10261SOL    HW231683   6.962   5.194   0.893
10262SOL     OW31684   3.005   6.586   6.305
10262SOL    HW131685   2.975   6.492   6.292
10262SOL    HW231686   3.101   6.587   6.334
10263SOL     OW31687   5.673   0.023   0.493
10263SOL    HW131688   5.698   6.982   0.416
10263SOL    HW231689   5.590   0.074   0.469
10264SOL     OW31690   7.017   6.120   6.573
10264SOL    HW131691   6.956   6.181   6.522
10264SOL    HW231692   6.992   6.121   6.670
10265SOL     OW31693   3.665   2.344   0.279
10265SOL    HW131694   3.632   2.295   0.198
10265SOL    HW231695   3.642   2.441   0.272
10266SOL     OW31696   3.701   3.091   3.570
10266SOL    HW131697   3.747   3.082   3.482
10266SOL    HW231698   3.762   3.058   3.643
10267SOL     OW31699   5.266   1.479   0.672
10267SOL    HW131700   5.218   1.394   0.648
10267SOL    HW231701   5.332   1.461   0.745
10268SOL     OW31702   6.087   6.442   2.381
10268SOL    HW131703   6.135   6.524   2.411
10268SOL    HW231704   6.069   6.448   2.283
10269SOL     OW31705   0.635   3.364   5.698
10269SOL    HW131706   0.654   3.272   5.734
10269SOL    HW231707   0.537   3.375   5.685
10270SOL     OW31708   3.251   5.113   2.442
10270SOL    HW131709   3.250   5.035   2.505
10270SOL    HW231710   3.236   5.198   2.493
10271SOL     OW31711   3.711   2.238   0.534
10271SOL    HW131712   3.696   2.258   0.437
10271SOL    HW231713   3.684   2.317   0.589
10272SOL     OW31714   0.794   0.914   5.179
10272SOL    HW131715   0.867   0.973   5.212
10272SOL    HW231716   0.718   0.971   5.147
10273SOL     OW31717   3.413   5.814   3.224
10273SOL    HW131718   3.323   5.850   3.199
10273SOL    HW231719   3.466   5.795   3.141
10274SOL     OW31720   1.087   5.021   5.745
10274SOL    HW131721   1.177   4.979   5.735
10274SOL    HW231722   1.070   5.081   5.666
10275SOL     OW31723   0.265   0.793   2.199
10275SOL    HW131724   0.295   0.730   2.127
10275SOL    HW231725   0.333   0.793   2.273
10276SOL     OW31726   4.926   5.963   5.384
10276SOL    HW131727   4.859   5.973   5.310
10276SOL    HW231728   4.928   5.868   5.415
10277SOL     OW31729   1.486   6.251   4.913
10277SOL    HW131730   1.454   6.185   4.846
10277SOL    HW231731   1.560   6.211   4.967
10278SOL     OW31732   1.220   1.492   3.397
10278SOL    HW131733   1.245   1.396   3.403
10278SOL    HW231734   1.302   1.547   3.384
10279SOL     OW31735   1.689   5.053   4.380
10279SOL    HW131736   1.601   5.008   4.400
10279SOL    HW231737   1.756   5.026   4.448
10280SOL     OW31738   6.544   2.730   6.211
10280SOL    HW131739   6.618   2.793   6.237
10280SOL    HW231740   6.572   2.676   6.132
10281SOL     OW31741   6.083   1.793   4.005
10281SOL    HW131742   6.024   1.871   4.023
10281SOL    HW231743   6.172   1.807   4.050
10282SOL     OW31744   5.304   3.524   3.898
10282SOL    HW131745   5.398   3.531   3.866
10282SOL    HW231746   5.272   3.430   3.888
10283SOL     OW31747   1.737   3.101   1.073
10283SOL    HW131748   1.748   3.089   1.172
10283SOL    HW231749   1.703   3.193   1.054
10284SOL     OW31750   5.432   1.804   5.260
10284SOL    HW131751   5.460   1.730   5.199
10284SOL    HW231752   5.508   1.826   5.322
10285SOL     OW31753   4.767   6.330   3.028
10285SOL    HW131754   4.824   6.278   3.092
10285SOL    HW231755   4.747   6.420   3.065
10286SOL     OW31756   4.196   0.617   3.944
10286SOL    HW131757   4.225   0.703   3.984
10286SOL    HW231758   4.164   0.632   3.850
10287SOL     OW31759   2.762   5.449   1.742
10287SOL    HW131760   2.693   5.515   1.712
10287SOL    HW231761   2.755   5.438   1.841
10288SOL     OW31762   4.553   6.195   3.186
10288SOL    HW131763   4.480   6.259   3.161
10288SOL    HW231764   4.637   6.220   3.137
10289SOL     OW31765   2.881   6.323   0.375
10289SOL    HW131766   2.941   6.282   0.307
10289SOL    HW231767   2.895   6.422   0.377
10290SOL     OW31768   3.040   3.353   2.695
10290SOL    HW131769   3.021   3.258   2.671
10290SOL    HW231770   2.986   3.414   2.637
10291SOL     OW31771   3.782   1.834   2.828
10291SOL    HW131772   3.789   1.910   2.764
10291SOL    HW231773   3.873   1.813   2.865
10292SOL     OW31774   0.711   2.238   4.966
10292SOL    HW131775   0.719   2.170   4.893
10292SOL    HW231776   0.635   2.300   4.945
10293SOL     OW31777   1.125   3.093   2.569
10293SOL    HW131778   1.175   3.022   2.619
10293SOL    HW231779   1.150   3.089   2.472
10294SOL     OW31780   4.367   1.411   3.412
10294SOL    HW131781   4.373   1.350   3.334
10294SOL    HW231782   4.326   1.362   3.489
10295SOL     OW31783   0.652   2.889   5.786
10295SOL    HW131784   0.566   2.854   5.749
10295SOL    HW231785   0.714   2.813   5.805
10296SOL     OW31786   5.506   1.117   6.252
10296SOL    HW131787   5.542   1.210   6.258
10296SOL    HW231788   5.553   1.067   6.179
10297SOL     OW31789   1.669   0.947   6.317
10297SOL    HW131790   1.727   0.908   6.388
10297SOL    HW231791   1.693   1.043   6.302
10298SOL     OW31792   2.610   4.580   0.845
10298SOL    HW131793   2.662   4.647   0.899
10298SOL    HW231794   2.516   4.612   0.834
10299SOL     OW31795   3.890   4.884   2.833
10299SOL    HW131796   3.809   4.914   2.784
10299SOL    HW231797   3.954   4.840   2.770
10300SOL     OW31798   1.365   4.123   1.711
10300SOL    HW131799   1.283   4.177   1.689
10300SOL    HW231800   1.445   4.183   1.709
10301SOL     OW31801   4.435   2.103   5.249
10301SOL    HW131802   4.415   2.012   5.284
10301SOL    HW231803   4.410   2.172   5.318
10302SOL     OW31804   2.475   6.387   4.665
10302SOL    HW131805   2.437   6.418   4.578
10302SOL    HW231806   2.525   6.462   4.708
10303SOL     OW31807   1.414   6.015   3.891
10303SOL    HW131808   1.439   6.066   3.809
10303SOL    HW231809   1.369   6.076   3.957
10304SOL     OW31810   5.786   0.375   1.593
10304SOL    HW131811   5.880   0.407   1.587
10304SOL    HW231812   5.782   0.279   1.565
10305SOL     OW31813   1.946   3.899   5.696
10305SOL    HW131814   1.957   3.927   5.601
10305SOL    HW231815   1.872   3.953   5.738
10306SOL     OW31816   5.450   5.750   0.242
10306SOL    HW131817   5.355   5.723   0.254
10306SOL    HW231818   5.459   5.848   0.260
10307SOL     OW31819   3.350   1.831   5.322
10307SOL    HW131820   3.321   1.784   5.239
10307SOL    HW231821   3.314   1.925   5.321
10308SOL     OW31822   2.177   3.830   2.804
10308SOL    HW131823   2.212   3.897   2.739
10308SOL    HW231824   2.181   3.869   2.896
10309SOL     OW31825   0.489   1.942   0.316
10309SOL    HW131826   0.439   2.021   0.353
10309SOL    HW231827   0.433   1.898   0.246
10310SOL     OW31828   3.338   3.940   0.417
10310SOL    HW131829   3.265   3.911   0.355
10310SOL    HW231830   3.424   3.947   0.365
10311SOL     OW31831   6.824   5.553   0.544
10311SOL    HW131832   6.882   5.472   0.537
10311SOL    HW231833   6.740   5.529   0.593
10312SOL     OW31834   3.817   6.542   2.447
10312SOL    HW131835   3.916   6.537   2.453
10312SOL    HW231836   3.776   6.507   2.532
10313SOL     OW31837   4.050   5.660   2.104
10313SOL    HW131838   4.121   5.642   2.172
10313SOL    HW231839   4.017   5.754   2.116
10314SOL     OW31840   6.466   0.678   0.844
10314SOL    HW131841   6.439   0.649   0.936
10314SOL    HW231842   6.502   0.600   0.794
10315SOL     OW31843   5.662   5.968   4.805
10315SOL    HW131844   5.686   5.975   4.902
10315SOL    HW231845   5.699   6.047   4.756
10316SOL     OW31846   6.201   2.291   5.702
10316SOL    HW131847   6.148   2.347   5.766
10316SOL    HW231848   6.263   2.349   5.650
10317SOL     OW31849   4.243   5.895   6.426
10317SOL    HW131850   4.316   5.901   6.358
10317SOL    HW231851   4.197   5.807   6.418
10318SOL     OW31852   4.925   0.374   6.873
10318SOL    HW131853   4.863   0.344   6.800
10318SOL    HW231854   4.910   0.471   6.892
10319SOL     OW31855   0.402   3.507   5.457
10319SOL    HW131856   0.444   3.445   5.523
10319SOL    HW231857   0.302   3.497   5.461
10320SOL     OW31858   0.990   6.598   2.422
10320SOL    HW131859   0.893   6.603   2.397
10320SOL    HW231860   1.011   6.670   2.488
10321SOL     OW31861   5.049   2.050   2.087
10321SOL    HW131862   5.082   1.956   2.086
10321SOL    HW231863   4.982   2.062   2.014
10322SOL     OW31864   5.317   5.596   4.802
10322SOL    HW131865   5.278   5.672   4.752
10322SOL    HW231866   5.348   5.627   4.892
10323SOL     OW31867   6.024   4.411   5.566
10323SOL    HW131868   6.089   4.448   5.632
10323SOL    HW231869   6.073   4.376   5.486
10324SOL     OW31870   3.269   2.904   2.110
10324SOL    HW131871   3.177   2.941   2.124
10324SOL    HW231872   3.271   2.850   2.026
10325SOL     OW31873   6.338   4.313   1.816
10325SOL    HW131874   6.380   4.225   1.797
10325SOL    HW231875   6.238   4.303   1.813
10326SOL     OW31876   4.464   4.608   6.507
10326SOL    HW131877   4.463   4.508   6.510
10326SOL    HW231878   4.440   4.644   6.597
10327SOL     OW31879   2.539   2.304   0.611
10327SOL    HW131880   2.474   2.254   0.554
10327SOL    HW231881   2.621   2.324   0.558
10328SOL     OW31882   6.615   2.569   0.681
10328SOL    HW131883   6.655   2.650   0.638
10328SOL    HW231884   6.675   2.491   0.667
10329SOL     OW31885   3.019   1.129   3.850
10329SOL    HW131886   2.926   1.094   3.841
10329SOL    HW231887   3.019   1.205   3.915
10330SOL     OW31888   3.971   1.205   2.194
10330SOL    HW131889   3.966   1.210   2.095
10330SOL    HW231890   4.036   1.134   2.221
10331SOL     OW31891   6.780   6.912   6.255
10331SOL    HW131892   6.702   6.867   6.298
10331SOL    HW231893   6.777   7.010   6.274
10332SOL     OW31894   0.095   0.444   1.058
10332SOL    HW131895   0.096   0.454   0.959
10332SOL    HW231896   0.002   0.428   1.090
10333SOL     OW31897   0.372   4.551   5.345
10333SOL    HW131898   0.366   4.457   5.313
10333SOL    HW231899   0.413   4.608   5.273
10334SOL     OW31900   3.205   0.393   4.813
10334SOL    HW131901   3.198   0.491   4.835
10334SOL    HW231902   3.289   0.376   4.763
10335SOL     OW31903   2.892   4.073   6.566
10335SOL    HW131904   2.796   4.064   6.591
10335SOL    HW231905   2.915   4.008   6.494
10336SOL     OW31906   6.753   0.181   1.829
10336SOL    HW131907   6.758   0.084   1.852
10336SOL    HW231908   6.757   0.192   1.730
10337SOL     OW31909   0.143   6.250   6.274
10337SOL    HW131910   0.188   6.170   6.312
10337SOL    HW231911   0.186   6.275   6.187
10338SOL     OW31912   2.218   6.564   2.254
10338SOL    HW131913   2.193   6.660   2.268
10338SOL    HW231914   2.136   6.509   2.239
10339SOL     OW31915   4.456   3.948   6.680
10339SOL    HW131916   4.381   4.013   6.674
10339SOL    HW231917   4.522   3.966   6.606
10340SOL     OW31918   1.150   3.604   0.922
10340SOL    HW131919   1.190   3.604   0.830
10340SOL    HW231920   1.098   3.689   0.935
10341SOL     OW31921   2.069   3.176   2.341
10341SOL    HW131922   2.099   3.105   2.277
10341SOL    HW231923   2.090   3.147   2.434
10342SOL     OW31924   1.565   0.223   4.551
10342SOL    HW131925   1.545   0.129   4.578
10342SOL    HW231926   1.484   0.264   4.510
10343SOL     OW31927   3.319   5.384   6.665
10343SOL    HW131928   3.365   5.431   6.590
10343SOL    HW231929   3.361   5.294   6.679
10344SOL     OW31930   4.236   3.161   0.680
10344SOL    HW131931   4.326   3.204   0.692
10344SOL    HW231932   4.249   3.063   0.661
10345SOL     OW31933   1.738   1.392   6.021
10345SOL    HW131934   1.639   1.378   6.023
10345SOL    HW231935   1.764   1.459   6.090
10346SOL     OW31936   0.520   5.383   1.314
10346SOL    HW131937   0.451   5.429   1.370
10346SOL    HW231938   0.474   5.328   1.244
10347SOL     OW31939   3.902   1.666   3.333
10347SOL    HW131940   3.976   1.612   3.294
10347SOL    HW231941   3.837   1.606   3.379
10348SOL     OW31942   6.655   2.172   6.958
10348SOL    HW131943   6.687   2.141   6.868
10348SOL    HW231944   6.729   2.217   7.006
10349SOL     OW31945   1.246   0.782   6.945
10349SOL    HW131946   1.216   0.693   6.911
10349SOL    HW231947   1.338   0.802   6.911
10350SOL     OW31948   2.565   6.124   4.820
10350SOL    HW131949   2.660   6.092   4.827
10350SOL    HW231950   2.563   6.218   4.786
10351SOL     OW31951   4.370   4.833   6.268
10351SOL    HW131952   4.464   4.806   6.289
10351SOL    HW231953   4.307   4.768   6.310
10352SOL     OW31954   3.608   1.360   6.195
10352SOL    HW131955   3.594   1.263   6.211
10352SOL    HW231956   3.526   1.411   6.221
10353SOL     OW31957   6.732   3.186   5.799
10353SOL    HW131958   6.759   3.124   5.725
10353SOL    HW231959   6.666   3.140   5.858
10354SOL     OW31960   5.591   2.571   2.658
10354SOL    HW131961   5.604   2.668   2.676
10354SOL    HW231962   5.638   2.546   2.573
10355SOL     OW31963   2.463   6.602   2.116
10355SOL    HW131964   2.375   6.568   2.149
10355SOL    HW231965   2.510   6.531   2.064
10356SOL     OW31966   0.826   4.879   5.073
10356SOL    HW131967   0.875   4.795   5.095
10356SOL    HW231968   0.838   4.900   4.976
10357SOL     OW31969   1.564   2.804   6.326
10357SOL    HW131970   1.526   2.726   6.276
10357SOL    HW231971   1.553   2.887   6.273
10358SOL     OW31972   6.636   3.190   3.042
10358SOL    HW131973   6.661   3.262   2.977
10358SOL    HW231974   6.712   3.125   3.050
10359SOL     OW31975   0.892   1.995   0.931
10359SOL    HW131976   0.793   2.007   0.935
10359SOL    HW231977   0.935   2.046   1.006
10360SOL     OW31978   4.781   4.408   3.258
10360SOL    HW131979   4.854   4.467   3.224
10360SOL    HW231980   4.797   4.386   3.354
10361SOL     OW31981   2.757   6.490   3.416
10361SOL    HW131982   2.723   6.577   3.452
10361SOL    HW231983   2.689   6.418   3.433
10362SOL     OW31984   0.597   5.044   4.598
10362SOL    HW131985   0.574   4.946   4.604
10362SOL    HW231986   0.696   5.055   4.608
10363SOL     OW31987   4.551   1.307   1.640
10363SOL    HW131988   4.526   1.403   1.651
10363SOL    HW231989   4.546   1.282   1.544
10364SOL     OW31990   3.152   2.962   1.335
10364SOL    HW131991   3.197   2.961   1.424
10364SOL    HW231992   3.181   3.044   1.284
10365SOL     OW31993   4.172   4.643   6.334
10365SOL    HW131994   4.078   4.636   6.301
10365SOL    HW231995   4.179   4.601   6.425
10366SOL     OW31996   2.835   0.492   4.344
10366SOL    HW131997   2.758   0.552   4.323
10366SOL    HW231998   2.801   0.406   4.383
10367SOL     OW31999   6.440   2.353   2.667
10367SOL    HW132000   6.504   2.430   2.657
10367SOL    HW232001   6.353   2.387   2.703
10368SOL     OW32002   1.731   1.715   1.885
10368SOL    HW132003   1.710   1.709   1.788
10368SOL    HW232004   1.771   1.804   1.905
10369SOL     OW32005   4.294   0.474   5.570
10369SOL    HW132006   4.233   0.542   5.528
10369SOL    HW232007   4.365   0.520   5.622
10370SOL     OW32008   5.257   1.620   5.444
10370SOL    HW132009   5.303   1.657   5.363
10370SOL    HW232010   5.307   1.649   5.526
10371SOL     OW32011   3.070   5.697   4.878
10371SOL    HW132012   3.071   5.620   4.942
10371SOL    HW232013   3.117   5.775   4.919
10372SOL     OW32014   1.475   1.321   5.989
10372SOL    HW132015   1.465   1.317   5.890
10372SOL    HW232016   1.412   1.255   6.031
10373SOL     OW32017   2.313   6.329   4.867
10373SOL    HW132018   2.275   6.241   4.836
10373SOL    HW232019   2.378   6.363   4.799
10374SOL     OW32020   3.748   1.388   2.889
10374SOL    HW132021   3.769   1.431   2.801
10374SOL    HW232022   3.730   1.458   2.957
10375SOL     OW32023   4.167   2.194   6.616
10375SOL    HW132024   4.204   2.117   6.565
10375SOL    HW232025   4.160   2.274   6.556
10376SOL     OW32026   0.905   6.404   3.823
10376SOL    HW132027   0.892   6.493   3.866
10376SOL    HW232028   0.825   6.346   3.840
10377SOL     OW32029   6.617   0.612   3.899
10377SOL    HW132030   6.713   0.641   3.909
10377SOL    HW232031   6.564   0.648   3.975
10378SOL     OW32032   6.886   1.079   5.996
10378SOL    HW132033   6.976   1.086   6.039
10378SOL    HW232034   6.865   0.983   5.977
10379SOL     OW32035   3.998   0.594   5.007
10379SOL    HW132036   4.062   0.602   4.930
10379SOL    HW232037   3.998   0.499   5.040
10380SOL     OW32038   6.264   1.506   3.114
10380SOL    HW132039   6.313   1.454   3.044
10380SOL    HW232040   6.167   1.480   3.114
10381SOL     OW32041   4.821   5.528   6.144
10381SOL    HW132042   4.851   5.622   6.129
10381SOL    HW232043   4.899   5.467   6.145
10382SOL     OW32044   2.366   4.825   5.923
10382SOL    HW132045   2.280   4.818   5.973
10382SOL    HW232046   2.423   4.896   5.964
10383SOL     OW32047   0.936   3.209   0.969
10383SOL    HW132048   0.837   3.205   0.982
10383SOL    HW232049   0.958   3.192   0.873
10384SOL     OW32050   0.888   0.187   0.528
10384SOL    HW132051   0.914   0.129   0.605
10384SOL    HW232052   0.792   0.170   0.504
10385SOL     OW32053   5.005   0.089   6.516
10385SOL    HW132054   5.040   0.182   6.528
10385SOL    HW232055   4.946   0.085   6.435
10386SOL     OW32056   0.430   3.704   4.894
10386SOL    HW132057   0.494   3.638   4.934
10386SOL    HW232058   0.423   3.688   4.795
10387SOL     OW32059   3.979   1.867   2.555
10387SOL    HW132060   3.958   1.789   2.614
10387SOL    HW232061   4.053   1.920   2.595
10388SOL     OW32062   0.875   5.566   3.701
10388SOL    HW132063   0.803   5.634   3.715
10388SOL    HW232064   0.835   5.483   3.662
10389SOL     OW32065   0.616   5.980   2.355
10389SOL    HW132066   0.518   5.986   2.378
10389SOL    HW232067   0.664   6.058   2.393
10390SOL     OW32068   1.503   3.722   2.269
10390SOL    HW132069   1.573   3.789   2.293
10390SOL    HW232070   1.510   3.700   2.172
10391SOL     OW32071   1.289   5.817   5.576
10391SOL    HW132072   1.252   5.727   5.551
10391SOL    HW232073   1.387   5.809   5.593
10392SOL     OW32074   6.456   4.009   0.609
10392SOL    HW132075   6.482   3.915   0.632
10392SOL    HW232076   6.495   4.071   0.678
10393SOL     OW32077   0.972   1.518   2.715
10393SOL    HW132078   1.059   1.536   2.669
10393SOL    HW232079   0.896   1.542   2.654
10394SOL     OW32080   2.826   6.806   6.131
10394SOL    HW132081   2.863   6.898   6.140
10394SOL    HW232082   2.880   6.743   6.188
10395SOL     OW32083   6.400   0.950   4.900
10395SOL    HW132084   6.392   1.046   4.875
10395SOL    HW232085   6.425   0.896   4.819
10396SOL     OW32086   1.241   0.844   3.465
10396SOL    HW132087   1.316   0.872   3.524
10396SOL    HW232088   1.218   0.748   3.484
10397SOL     OW32089   3.775   1.554   3.872
10397SOL    HW132090   3.775   1.640   3.822
10397SOL    HW232091   3.705   1.492   3.834
10398SOL     OW32092   6.421   2.284   6.993
10398SOL    HW132093   6.506   2.252   6.951
10398SOL    HW232094   6.364   2.326   6.922
10399SOL     OW32095   4.712   1.730   5.335
10399SOL    HW132096   4.809   1.717   5.355
10399SOL    HW232097   4.659   1.725   5.420
10400SOL     OW32098   3.608   5.921   2.179
10400SOL    HW132099   3.588   5.823   2.190
10400SOL    HW232100   3.635   5.939   2.085
10401SOL     OW32101   6.617   6.647   1.936
10401SOL    HW132102   6.541   6.619   1.878
10401SOL    HW232103   6.588   6.646   2.032
10402SOL     OW32104   0.420   2.810   5.680
10402SOL    HW132105   0.378   2.760   5.604
10402SOL    HW232106   0.348   2.838   5.744
10403SOL     OW32107   5.373   1.351   2.694
10403SOL    HW132108   5.281   1.319   2.674
10403SOL    HW232109   5.434   1.272   2.704
10404SOL     OW32110   0.826   6.768   3.747
10404SOL    HW132111   0.758   6.720   3.804
10404SOL    HW232112   0.799   6.864   3.737
10405SOL     OW32113   1.693   5.416   5.183
10405SOL    HW132114   1.658   5.472   5.108
10405SOL    HW232115   1.617   5.370   5.229
10406SOL     OW32116   1.742   4.542   4.856
10406SOL    HW132117   1.734   4.472   4.786
10406SOL    HW232118   1.835   4.543   4.892
10407SOL     OW32119   1.346   0.737   6.075
10407SOL    HW132120   1.401   0.654   6.060
10407SOL    HW232121   1.280   0.747   6.001
10408SOL     OW32122   4.408   5.965   2.808
10408SOL    HW132123   4.371   6.057   2.821
10408SOL    HW232124   4.470   5.964   2.730
10409SOL     OW32125   0.057   4.795   1.411
10409SOL    HW132126   0.147   4.753   1.427
10409SOL    HW232127   7.005   4.725   1.414
10410SOL     OW32128   5.007   0.604   1.298
10410SOL    HW132129   4.946   0.670   1.254
10410SOL    HW232130   4.974   0.511   1.280
10411SOL     OW32131   2.271   4.720   4.222
10411SOL    HW132132   2.270   4.677   4.132
10411SOL    HW232133   2.357   4.699   4.269
10412SOL     OW32134   0.451   1.554   0.041
10412SOL    HW132135   0.458   1.501   6.975
10412SOL    HW232136   0.506   1.510   0.112
10413SOL     OW32137   0.995   2.406   0.771
10413SOL    HW132138   1.058   2.419   0.848
10413SOL    HW232139   1.037   2.443   0.688
10414SOL     OW32140   5.114   6.279   6.559
10414SOL    HW132141   5.097   6.309   6.653
10414SOL    HW232142   5.051   6.326   6.498
10415SOL     OW32143   1.189   5.299   3.728
10415SOL    HW132144   1.219   5.266   3.818
10415SOL    HW232145   1.221   5.237   3.657
10416SOL     OW32146   6.186   1.578   5.959
10416SOL    HW132147   6.115   1.516   5.993
10416SOL    HW232148   6.149   1.671   5.953
10417SOL     OW32149   4.145   4.754   3.159
10417SOL    HW132150   4.069   4.689   3.159
10417SOL    HW232151   4.222   4.714   3.109
10418SOL     OW32152   6.904   4.337   5.972
10418SOL    HW132153   6.958   4.410   5.932
10418SOL    HW232154   6.855   4.372   6.052
10419SOL     OW32155   3.397   1.426   4.990
10419SOL    HW132156   3.371   1.362   4.917
10419SOL    HW232157   3.456   1.379   5.056
10420SOL     OW32158   7.008   3.482   2.823
10420SOL    HW132159   6.999   3.570   2.869
10420SOL    HW232160   6.983   3.408   2.887
10421SOL     OW32161   1.287   4.414   3.934
10421SOL    HW132162   1.205   4.451   3.891
10421SOL    HW232163   1.261   4.351   4.008
10422SOL     OW32164   6.782   4.287   5.272
10422SOL    HW132165   6.712   4.261   5.339
10422SOL    HW232166   6.845   4.210   5.258
10423SOL     OW32167   3.796   4.927   4.332
10423SOL    HW132168   3.775   4.832   4.355
10423SOL    HW232169   3.717   4.968   4.288
10424SOL     OW32170   4.167   1.180   6.983
10424SOL    HW132171   4.162   1.257   0.028
10424SOL    HW232172   4.204   1.100   0.011
10425SOL     OW32173   1.103   6.662   1.447
10425SOL    HW132174   1.071   6.741   1.394
10425SOL    HW232175   1.194   6.682   1.484
10426SOL     OW32176   5.082   3.207   5.245
10426SOL    HW132177   5.049   3.300   5.265
10426SOL    HW232178   5.182   3.207   5.242
10427SOL     OW32179   4.971   5.613   5.070
10427SOL    HW132180   4.910   5.648   5.141
10427SOL    HW232181   4.978   5.514   5.079
10428SOL     OW32182   1.215   1.933   3.286
10428SOL    HW132183   1.313   1.946   3.300
10428SOL    HW232184   1.195   1.934   3.188
10429SOL     OW32185   1.128   3.765   2.284
10429SOL    HW132186   1.105   3.740   2.191
10429SOL    HW232187   1.203   3.831   2.284
10430SOL     OW32188   3.702   5.992   4.174
10430SOL    HW132189   3.647   6.016   4.254
10430SOL    HW232190   3.673   6.046   4.096
10431SOL     OW32191   2.529   1.917   4.514
10431SOL    HW132192   2.473   1.843   4.552
10431SOL    HW232193   2.597   1.879   4.452
10432SOL     OW32194   0.115   6.834   4.948
10432SOL    HW132195   0.156   6.925   4.961
10432SOL    HW232196   0.015   6.842   4.952
10433SOL     OW32197   2.037   0.425   1.776
10433SOL    HW132198   2.007   0.480   1.854
10433SOL    HW232199   2.097   0.480   1.717
10434SOL     OW32200   5.073   0.055   5.764
10434SOL    HW132201   4.990   0.010   5.730
10434SOL    HW232202   5.145   7.005   5.774
10435SOL     OW32203   0.990   2.068   6.281
10435SOL    HW132204   0.961   1.984   6.327
10435SOL    HW232205   0.930   2.143   6.308
10436SOL     OW32206   0.021   4.161   5.225
10436SOL    HW132207   0.109   4.150   5.271
10436SOL    HW232208   0.021   4.107   5.141
10437SOL     OW32209   4.678   5.175   5.065
10437SOL    HW132210   4.625   5.118   5.003
10437SOL    HW232211   4.629   5.261   5.081
10438SOL     OW32212   0.127   6.701   6.158
10438SOL    HW132213   0.056   6.643   6.118
10438SOL    HW232214   0.129   6.687   6.257
10439SOL     OW32215   6.506   0.838   4.665
10439SOL    HW132216   6.440   0.885   4.605
10439SOL    HW232217   6.549   0.764   4.614
10440SOL     OW32218   6.759   1.428   6.863
10440SOL    HW132219   6.813   1.364   6.917
10440SOL    HW232220   6.821   1.488   6.812
10441SOL     OW32221   3.483   1.453   1.454
10441SOL    HW132222   3.526   1.533   1.496
10441SOL    HW232223   3.385   1.469   1.444
10442SOL     OW32224   3.028   0.850   5.243
10442SOL    HW132225   2.964   0.773   5.251
10442SOL    HW232226   3.121   0.817   5.257
10443SOL     OW32227   0.310   2.096   2.857
10443SOL    HW132228   0.287   2.160   2.784
10443SOL    HW232229   0.240   2.102   2.929
10444SOL     OW32230   3.480   5.030   3.518
10444SOL    HW132231   3.462   5.113   3.465
10444SOL    HW232232   3.559   4.982   3.481
10445SOL     OW32233   0.387   3.996   1.988
10445SOL    HW132234   0.346   3.916   1.945
10445SOL    HW232235   0.462   3.966   2.048
10446SOL     OW32236   1.551   4.140   5.247
10446SOL    HW132237   1.520   4.153   5.153
10446SOL    HW232238   1.568   4.043   5.263
10447SOL     OW32239   6.150   1.990   3.121
10447SOL    HW132240   6.235   2.013   3.166
10447SOL    HW232241   6.109   2.072   3.081
10448SOL     OW32242   2.991   0.721   3.710
10448SOL    HW132243   2.935   0.760   3.636
10448SOL    HW232244   2.991   0.621   3.701
10449SOL     OW32245   3.626   5.707   6.843
10449SOL    HW132246   3.533   5.718   6.878
10449SOL    HW232247   3.646   5.610   6.831
10450SOL     OW32248   6.206   0.085   6.276
10450SOL    HW132249   6.172   0.132   6.357
10450SOL    HW232250   6.297   0.046   6.295
10451SOL     OW32251   1.920   0.631   4.043
10451SOL    HW132252   1.980   0.561   4.005
10451SOL    HW232253   1.882   0.600   4.130
10452SOL     OW32254   6.609   2.852   2.789
10452SOL    HW132255   6.661   2.880   2.709
10452SOL    HW232256   6.537   2.919   2.808
10453SOL     OW32257   4.216   6.499   2.657
10453SOL    HW132258   4.215   6.592   2.692
10453SOL    HW232259   4.178   6.437   2.727
10454SOL     OW32260   6.491   1.460   6.838
10454SOL    HW132261   6.471   1.399   6.762
10454SOL    HW232262   6.590   1.464   6.853
10455SOL     OW32263   6.228   6.524   4.176
10455SOL    HW132264   6.311   6.511   4.230
10455SOL    HW232265   6.155   6.465   4.210
10456SOL     OW32266   6.967   5.651   0.105
10456SOL    HW132267   6.914   5.568   0.084
10456SOL    HW232268   6.910   5.732   0.090
10457SOL     OW32269   4.365   3.395   6.964
10457SOL    HW132270   4.323   3.350   0.024
10457SOL    HW232271   4.350   3.493   6.970
10458SOL     OW32272   6.957   0.270   5.752
10458SOL    HW132273   6.966   0.171   5.764
10458SOL    HW232274   6.860   0.293   5.739
10459SOL     OW32275   0.154   5.450   0.865
10459SOL    HW132276   0.216   5.511   0.815
10459SOL    HW232277   0.206   5.374   0.903
10460SOL     OW32278   6.630   4.241   1.573
10460SOL    HW132279   6.632   4.161   1.513
10460SOL    HW232280   6.580   4.316   1.529
10461SOL     OW32281   6.387   4.570   5.337
10461SOL    HW132282   6.424   4.536   5.423
10461SOL    HW232283   6.381   4.670   5.340
10462SOL     OW32284   4.982   1.920   1.642
10462SOL    HW132285   4.952   1.867   1.722
10462SOL    HW232286   5.054   1.983   1.669
10463SOL     OW32287   4.900   2.121   6.153
10463SOL    HW132288   4.937   2.128   6.245
10463SOL    HW232289   4.824   2.056   6.152
10464SOL     OW32290   5.299   4.926   2.362
10464SOL    HW132291   5.360   4.892   2.434
10464SOL    HW232292   5.354   4.957   2.284
10465SOL     OW32293   5.430   4.015   2.762
10465SOL    HW132294   5.475   3.928   2.740
10465SOL    HW232295   5.382   4.048   2.681
10466SOL     OW32296   5.345   4.166   6.033
10466SOL    HW132297   5.247   4.175   6.016
10466SOL    HW232298   5.359   4.115   6.118
10467SOL     OW32299   1.917   2.554   6.686
10467SOL    HW132300   1.964   2.520   6.605
10467SOL    HW232301   1.862   2.634   6.662
10468SOL     OW32302   3.239   4.913   3.599
10468SOL    HW132303   3.183   4.875   3.525
10468SOL    HW232304   3.296   4.987   3.564
10469SOL     OW32305   4.962   3.230   5.737
10469SOL    HW132306   5.013   3.197   5.657
10469SOL    HW232307   4.970   3.330   5.742
10470SOL     OW32308   2.482   1.700   3.442
10470SOL    HW132309   2.421   1.727   3.517
10470SOL    HW232310   2.478   1.769   3.369
10471SOL     OW32311   2.575   0.926   6.701
10471SOL    HW132312   2.621   0.875   6.773
10471SOL    HW232313   2.542   1.013   6.737
10472SOL     OW32314   2.867   5.199   1.020
10472SOL    HW132315   2.964   5.218   1.004
10472SOL    HW232316   2.846   5.212   1.117
10473SOL     OW32317   5.257   5.815   6.453
10473SOL    HW132318   5.302   5.880   6.514
10473SOL    HW232319   5.314   5.799   6.373
10474SOL     OW32320   5.319   0.802   4.285
10474SOL    HW132321   5.304   0.715   4.239
10474SOL    HW232322   5.232   0.841   4.313
10475SOL     OW32323   2.515   6.141   1.884
10475SOL    HW132324   2.506   6.113   1.789
10475SOL    HW232325   2.611   6.162   1.904
10476SOL     OW32326   4.902   6.176   5.855
10476SOL    HW132327   4.942   6.169   5.946
10476SOL    HW232328   4.804   6.192   5.863
10477SOL     OW32329   0.086   6.253   3.856
10477SOL    HW132330   0.141   6.214   3.783
10477SOL    HW232331   0.128   6.338   3.887
10478SOL     OW32332   6.219   6.999   0.153
10478SOL    HW132333   6.144   0.033   0.112
10478SOL    HW232334   6.232   0.008   0.248
10479SOL     OW32335   6.816   2.585   2.027
10479SOL    HW132336   6.749   2.554   2.093
10479SOL    HW232337   6.904   2.599   2.073
10480SOL     OW32338   1.637   0.693   2.375
10480SOL    HW132339   1.726   0.726   2.408
10480SOL    HW232340   1.651   0.630   2.299
10481SOL     OW32341   0.800   6.533   3.184
10481SOL    HW132342   0.759   6.614   3.225
10481SOL    HW232343   0.853   6.560   3.103
10482SOL     OW32344   6.165   4.606   4.849
10482SOL    HW132345   6.244   4.665   4.834
10482SOL    HW232346   6.181   4.548   4.929
10483SOL     OW32347   5.856   5.294   0.607
10483SOL    HW132348   5.918   5.239   0.551
10483SOL    HW232349   5.770   5.308   0.558
10484SOL     OW32350   5.234   1.088   0.895
10484SOL    HW132351   5.145   1.124   0.920
10484SOL    HW232352   5.299   1.104   0.970
10485SOL     OW32353   3.690   4.072   6.386
10485SOL    HW132354   3.743   4.153   6.364
10485SOL    HW232355   3.751   3.994   6.397
10486SOL     OW32356   6.716   2.241   0.787
10486SOL    HW132357   6.638   2.178   0.785
10486SOL    HW232358   6.788   2.204   0.846
10487SOL     OW32359   5.088   6.482   2.003
10487SOL    HW132360   5.163   6.525   1.952
10487SOL    HW232361   5.005   6.483   1.946
10488SOL     OW32362   2.422   3.354   6.470
10488SOL    HW132363   2.460   3.447   6.473
10488SOL    HW232364   2.396   3.332   6.376
10489SOL     OW32365   0.491   6.782   5.596
10489SOL    HW132366   0.523   6.873   5.621
10489SOL    HW232367   0.414   6.756   5.655
10490SOL     OW32368   5.787   1.724   2.391
10490SOL    HW132369   5.883   1.712   2.416
10490SOL    HW232370   5.743   1.785   2.458
10491SOL     OW32371   1.763   3.183   6.446
10491SOL    HW132372   1.752   3.280   6.464
10491SOL    HW232373   1.860   3.162   6.433
10492SOL     OW32374   5.208   3.892   5.503
10492SOL    HW132375   5.295   3.847   5.523
10492SOL    HW232376   5.188   3.960   5.573
10493SOL     OW32377   3.184   0.365   1.690
10493SOL    HW132378   3.141   0.451   1.664
10493SOL    HW232379   3.115   0.292   1.690
10494SOL     OW32380   5.364   2.852   5.761
10494SOL    HW132381   5.307   2.927   5.795
10494SOL    HW232382   5.457   2.884   5.746
10495SOL     OW32383   2.072   0.093   0.987
10495SOL    HW132384   2.036   0.024   1.050
10495SOL    HW232385   2.032   0.182   1.009
10496SOL     OW32386   0.186   6.823   0.946
10496SOL    HW132387   0.243   6.742   0.931
10496SOL    HW232388   0.097   6.795   0.981
10497SOL     OW32389   2.022   6.479   1.554
10497SOL    HW132390   2.090   6.411   1.527
10497SOL    HW232391   2.012   6.548   1.482
10498SOL     OW32392   2.640   6.873   1.492
10498SOL    HW132393   2.550   6.831   1.478
10498SOL    HW232394   2.676   6.847   1.581
10499SOL     OW32395   2.805   6.548   2.447
10499SOL    HW132396   2.852   6.461   2.436
10499SOL    HW232397   2.716   6.533   2.489
10500SOL     OW32398   0.530   1.090   5.507
10500SOL    HW132399   0.628   1.084   5.528
10500SOL    HW232400   0.518   1.120   5.412
10501SOL     OW32401   1.737   5.727   3.424
10501SOL    HW132402   1.812   5.722   3.490
10501SOL    HW232403   1.774   5.752   3.334
10502SOL     OW32404   3.306   6.895   1.293
10502SOL    HW132405   3.401   6.905   1.264
10502SOL    HW232406   3.245   6.929   1.221
10503SOL     OW32407   4.531   2.587   0.743
10503SOL    HW132408   4.530   2.678   0.785
10503SOL    HW232409   4.445   2.540   0.763
10504SOL     OW32410   1.905   2.746   0.563
10504SOL    HW132411   1.888   2.652   0.536
10504SOL    HW232412   1.913   2.752   0.662
10505SOL     OW32413   6.253   5.523   0.384
10505SOL    HW132414   6.193   5.485   0.455
10505SOL    HW232415   6.287   5.449   0.326
10506SOL     OW32416   0.621   5.079   6.637
10506SOL    HW132417   0.525   5.070   6.611
10506SOL    HW232418   0.634   5.163   6.689
10507SOL     OW32419   2.166   6.151   0.132
10507SOL    HW132420   2.231   6.226   0.131
10507SOL    HW232421   2.113   6.152   0.047
10508SOL     OW32422   5.792   6.064   4.315
10508SOL    HW132423   5.785   5.969   4.348
10508SOL    HW232424   5.734   6.122   4.372
10509SOL     OW32425   0.838   6.737   5.987
10509SOL    HW132426   0.825   6.826   5.942
10509SOL    HW232427   0.781   6.668   5.942
10510SOL     OW32428   5.839   5.063   5.813
10510SOL    HW132429   5.885   5.058   5.724
10510SOL    HW232430   5.753   5.012   5.808
10511SOL     OW32431   4.771   2.696   1.211
10511SOL    HW132432   4.832   2.729   1.138
10511SOL    HW232433   4.805   2.609   1.245
10512SOL     OW32434   3.884   0.860   6.013
10512SOL    HW132435   3.882   0.812   5.925
10512SOL    HW232436   3.913   0.796   6.084
10513SOL     OW32437   0.148   2.877   5.810
10513SOL    HW132438   0.166   2.818   5.889
10513SOL    HW232439   0.133   2.971   5.842
10514SOL     OW32440   0.072   3.761   0.430
10514SOL    HW132441   7.017   3.737   0.366
10514SOL    HW232442   0.145   3.693   0.423
10515SOL     OW32443   5.642   3.214   3.224
10515SOL    HW132444   5.716   3.192   3.288
10515SOL    HW232445   5.570   3.146   3.231
10516SOL     OW32446   4.764   1.159   6.632
10516SOL    HW132447   4.835   1.104   6.589
10516SOL    HW232448   4.801   1.200   6.716
10517SOL     OW32449   0.840   2.202   2.497
10517SOL    HW132450   0.817   2.288   2.452
10517SOL    HW232451   0.913   2.217   2.563
10518SOL     OW32452   1.228   5.057   0.220
10518SOL    HW132453   1.154   5.040   0.155
10518SOL    HW232454   1.269   4.970   0.247
10519SOL     OW32455   3.113   2.416   6.114
10519SOL    HW132456   3.111   2.449   6.208
10519SOL    HW232457   3.161   2.481   6.056
10520SOL     OW32458   2.263   2.576   6.615
10520SOL    HW132459   2.182   2.566   6.558
10520SOL    HW232460   2.252   2.656   6.675
10521SOL     OW32461   6.322   5.509   1.532
10521SOL    HW132462   6.301   5.553   1.619
10521SOL    HW232463   6.366   5.574   1.471
10522SOL     OW32464   6.110   0.369   0.773
10522SOL    HW132465   6.165   0.449   0.748
10522SOL    HW232466   6.016   0.397   0.789
10523SOL     OW32467   6.983   6.336   4.661
10523SOL    HW132468   0.063   6.346   4.648
10523SOL    HW232469   6.966   6.280   4.742
10524SOL     OW32470   1.766   1.764   4.855
10524SOL    HW132471   1.770   1.754   4.955
10524SOL    HW232472   1.748   1.859   4.832
10525SOL     OW32473   3.261   6.799   5.416
10525SOL    HW132474   3.161   6.791   5.422
10525SOL    HW232475   3.300   6.708   5.400
10526SOL     OW32476   0.346   0.618   2.882
10526SOL    HW132477   0.252   0.587   2.893
10526SOL    HW232478   0.407   0.538   2.876
10527SOL     OW32479   0.930   2.410   3.868
10527SOL    HW132480   0.883   2.404   3.956
10527SOL    HW232481   0.881   2.355   3.800
10528SOL     OW32482   1.012   4.104   5.467
10528SOL    HW132483   0.944   4.120   5.395
10528SOL    HW232484   1.096   4.068   5.427
10529SOL     OW32485   1.400   6.171   3.298
10529SOL    HW132486   1.452   6.093   3.263
10529SOL    HW232487   1.326   6.138   3.356
10530SOL     OW32488   1.631   1.065   5.833
10530SOL    HW132489   1.540   1.087   5.868
10530SOL    HW232490   1.686   1.027   5.907
10531SOL     OW32491   1.135   3.753   4.595
10531SOL    HW132492   1.170   3.713   4.679
10531SOL    HW232493   1.204   3.816   4.557
10532SOL     OW32494   2.296   3.168   0.571
10532SOL    HW132495   2.235   3.090   0.581
10532SOL    HW232496   2.244   3.253   0.574
10533SOL     OW32497   3.278   1.572   4.298
10533SOL    HW132498   3.231   1.569   4.387
10533SOL    HW232499   3.372   1.602   4.312
10534SOL     OW32500   0.171   5.762   0.871
10534SOL    HW132501   0.090   5.704   0.860
10534SOL    HW232502   0.253   5.709   0.848
10535SOL     OW32503   0.307   2.610   2.068
10535SOL    HW132504   0.293   2.709   2.065
10535SOL    HW232505   0.242   2.569   2.132
10536SOL     OW32506   3.739   0.523   2.867
10536SOL    HW132507   3.766   0.432   2.898
10536SOL    HW232508   3.654   0.550   2.913
10537SOL     OW32509   3.345   5.438   2.955
10537SOL    HW132510   3.420   5.379   2.988
10537SOL    HW232511   3.267   5.429   3.017
10538SOL     OW32512   4.949   2.812   6.490
10538SOL    HW132513   4.908   2.898   6.520
10538SOL    HW232514   5.041   2.830   6.455
10539SOL     OW32515   0.786   4.244   6.679
10539SOL    HW132516   0.871   4.290   6.653
10539SOL    HW232517   0.719   4.253   6.605
10540SOL     OW32518   1.616   1.040   5.379
10540SOL    HW132519   1.621   1.105   5.303
10540SOL    HW232520   1.657   0.954   5.352
10541SOL     OW32521   3.529   3.641   1.856
10541SOL    HW132522   3.622   3.678   1.850
10541SOL    HW232523   3.463   3.716   1.859
10542SOL     OW32524   6.829   1.589   0.195
10542SOL    HW132525   6.744   1.551   0.160
10542SOL    HW232526   6.896   1.516   0.208
10543SOL     OW32527   0.619   1.062   5.022
10543SOL    HW132528   0.570   0.977   5.044
10543SOL    HW232529   0.592   1.092   4.931
10544SOL     OW32530   2.115   0.371   3.170
10544SOL    HW132531   2.154   0.400   3.258
10544SOL    HW232532   2.060   0.446   3.132
10545SOL     OW32533   6.239   0.867   2.736
10545SOL    HW132534   6.280   0.905   2.819
10545SOL    HW232535   6.167   0.802   2.762
10546SOL     OW32536   0.662   0.699   6.173
10546SOL    HW132537   0.710   0.614   6.194
10546SOL    HW232538   0.577   0.678   6.124
10547SOL     OW32539   4.772   1.562   1.569
10547SOL    HW132540   4.765   1.628   1.643
10547SOL    HW232541   4.689   1.506   1.566
10548SOL     OW32542   4.931   3.806   5.022
10548SOL    HW132543   4.991   3.838   5.095
10548SOL    HW232544   4.891   3.718   5.048
10549SOL     OW32545   6.749   0.521   2.483
10549SOL    HW132546   6.766   0.468   2.399
10549SOL    HW232547   6.725   0.615   2.458
10550SOL     OW32548   4.185   6.631   4.459
10550SOL    HW132549   4.265   6.626   4.399
10550SOL    HW232550   4.104   6.655   4.406
10551SOL     OW32551   1.111   2.851   4.992
10551SOL    HW132552   1.079   2.788   5.064
10551SOL    HW232553   1.210   2.864   5.001
10552SOL     OW32554   3.795   1.920   5.703
10552SOL    HW132555   3.812   1.955   5.611
10552SOL    HW232556   3.850   1.971   5.769
10553SOL     OW32557   1.148   4.589   1.893
10553SOL    HW132558   1.078   4.652   1.928
10553SOL    HW232559   1.231   4.640   1.873
10554SOL     OW32560   5.414   4.937   6.925
10554SOL    HW132561   5.370   4.865   6.872
10554SOL    HW232562   5.498   4.966   6.878
10555SOL     OW32563   2.945   1.730   1.107
10555SOL    HW132564   2.873   1.791   1.075
10555SOL    HW232565   3.034   1.764   1.075
10556SOL     OW32566   1.340   3.118   5.115
10556SOL    HW132567   1.245   3.114   5.083
10556SOL    HW232568   1.345   3.082   5.208
10557SOL     OW32569   1.158   2.734   3.054
10557SOL    HW132570   1.143   2.797   3.130
10557SOL    HW232571   1.256   2.724   3.037
10558SOL     OW32572   3.870   6.964   4.870
10558SOL    HW132573   3.832   6.908   4.796
10558SOL    HW232574   3.823   0.034   4.873
10559SOL     OW32575   3.881   1.226   0.800
10559SOL    HW132576   3.819   1.304   0.793
10559SOL    HW232577   3.898   1.188   0.709
10560SOL     OW32578   2.231   5.922   4.574
10560SOL    HW132579   2.313   5.975   4.554
10560SOL    HW232580   2.178   5.908   4.490
10561SOL     OW32581   2.636   5.058   0.233
10561SOL    HW132582   2.707   4.990   0.217
10561SOL    HW232583   2.678   5.146   0.254
10562SOL     OW32584   5.080   6.355   0.287
10562SOL    HW132585   5.069   6.256   0.272
10562SOL    HW232586   5.139   6.370   0.367
10563SOL     OW32587   1.527   0.800   3.914
10563SOL    HW132588   1.484   0.778   4.002
10563SOL    HW232589   1.549   0.897   3.911
10564SOL     OW32590   5.736   6.793   2.079
10564SOL    HW132591   5.784   6.856   2.140
10564SOL    HW232592   5.710   6.711   2.130
10565SOL     OW32593   0.371   0.641   6.082
10565SOL    HW132594   0.299   0.654   6.014
10565SOL    HW232595   0.335   0.662   6.173
10566SOL     OW32596   4.635   3.263   6.955
10566SOL    HW132597   4.659   3.236   0.030
10566SOL    HW232598   4.545   3.306   6.955
10567SOL     OW32599   2.196   3.124   3.829
10567SOL    HW132600   2.145   3.145   3.745
10567SOL    HW232601   2.293   3.143   3.815
10568SOL     OW32602   5.633   1.129   1.235
10568SOL    HW132603   5.582   1.053   1.276
10568SOL    HW232604   5.721   1.095   1.201
10569SOL     OW32605   6.416   3.046   2.003
10569SOL    HW132606   6.496   2.987   1.991
10569SOL    HW232607   6.446   3.141   2.011
10570SOL     OW32608   2.057   5.236   2.509
10570SOL    HW132609   2.074   5.196   2.419
10570SOL    HW232610   2.027   5.164   2.572
10571SOL     OW32611   6.677   5.285   4.445
10571SOL    HW132612   6.771   5.318   4.442
10571SOL    HW232613   6.614   5.361   4.425
10572SOL     OW32614   6.050   3.613   3.433
10572SOL    HW132615   6.083   3.673   3.507
10572SOL    HW232616   6.111   3.620   3.355
10573SOL     OW32617   5.663   5.930   3.848
10573SOL    HW132618   5.596   5.859   3.868
10573SOL    HW232619   5.631   5.986   3.772
10574SOL     OW32620   2.074   2.055   3.842
10574SOL    HW132621   2.094   2.056   3.940
10574SOL    HW232622   1.995   2.114   3.824
10575SOL     OW32623   0.613   1.034   3.610
10575SOL    HW132624   0.577   1.012   3.700
10575SOL    HW232625   0.711   1.056   3.618
10576SOL     OW32626   0.659   6.491   5.263
10576SOL    HW132627   0.712   6.520   5.183
10576SOL    HW232628   0.610   6.406   5.242
10577SOL     OW32629   1.446   2.559   6.550
10577SOL    HW132630   1.530   2.530   6.505
10577SOL    HW232631   1.466   2.589   6.643
10578SOL     OW32632   6.509   0.442   3.704
10578SOL    HW132633   6.436   0.374   3.699
10578SOL    HW232634   6.532   0.460   3.800
10579SOL     OW32635   3.960   1.777   0.362
10579SOL    HW132636   3.928   1.714   0.433
10579SOL    HW232637   4.017   1.727   0.297
10580SOL     OW32638   6.575   0.069   0.316
10580SOL    HW132639   6.521   0.006   0.262
10580SOL    HW232640   6.647   0.110   0.259
10581SOL     OW32641   5.889   6.912   2.911
10581SOL    HW132642   5.799   6.952   2.922
10581SOL    HW232643   5.917   6.921   2.815
10582SOL     OW32644   3.828   4.864   6.415
10582SOL    HW132645   3.783   4.795   6.472
10582SOL    HW232646   3.920   4.882   6.451
10583SOL     OW32647   4.253   0.903   5.625
10583SOL    HW132648   4.223   0.851   5.705
10583SOL    HW232649   4.329   0.963   5.651
10584SOL     OW32650   5.801   6.762   1.128
10584SOL    HW132651   5.773   6.747   1.033
10584SOL    HW232652   5.831   6.676   1.169
10585SOL     OW32653   1.480   3.234   5.828
10585SOL    HW132654   1.428   3.219   5.912
10585SOL    HW232655   1.449   3.171   5.757
10586SOL     OW32656   1.560   5.794   5.582
10586SOL    HW132657   1.634   5.837   5.634
10586SOL    HW232658   1.586   5.701   5.557
10587SOL     OW32659   6.093   3.883   0.077
10587SOL    HW132660   6.053   3.903   7.005
10587SOL    HW232661   6.147   3.962   0.107
10588SOL     OW32662   0.847   4.074   2.071
10588SOL    HW132663   0.896   4.089   1.985
10588SOL    HW232664   0.770   4.136   2.077
10589SOL     OW32665   5.241   1.438   4.363
10589SOL    HW132666   5.166   1.476   4.310
10589SOL    HW232667   5.326   1.447   4.311
10590SOL     OW32668   1.287   0.262   1.846
10590SOL    HW132669   1.225   0.281   1.770
10590SOL    HW232670   1.380   0.288   1.821
10591SOL     OW32671   1.345   1.664   5.378
10591SOL    HW132672   1.397   1.704   5.454
10591SOL    HW232673   1.409   1.630   5.309
10592SOL     OW32674   5.197   2.686   1.053
10592SOL    HW132675   5.259   2.714   1.127
10592SOL    HW232676   5.174   2.589   1.064
10593SOL     OW32677   3.094   5.281   0.887
10593SOL    HW132678   3.123   5.243   0.799
10593SOL    HW232679   3.113   5.380   0.888
10594SOL     OW32680   5.515   1.987   3.420
10594SOL    HW132681   5.478   1.906   3.467
10594SOL    HW232682   5.446   2.059   3.417
10595SOL     OW32683   3.432   0.282   5.829
10595SOL    HW132684   3.410   0.354   5.895
10595SOL    HW232685   3.348   0.242   5.794
10596SOL     OW32686   4.479   7.016   1.662
10596SOL    HW132687   4.386   0.016   1.629
10596SOL    HW232688   4.475   6.971   1.751
10597SOL     OW32689   2.861   1.362   4.451
10597SOL    HW132690   2.921   1.328   4.523
10597SOL    HW232691   2.909   1.358   4.363
10598SOL     OW32692   2.820   2.370   6.970
10598SOL    HW132693   2.791   2.296   0.012
10598SOL    HW232694   2.761   2.371   6.888
10599SOL     OW32695   5.755   1.803   0.540
10599SOL    HW132696   5.673   1.824   0.592
10599SOL    HW232697   5.764   1.868   0.464
10600SOL     OW32698   2.027   2.906   0.055
10600SOL    HW132699   2.057   2.876   0.146
10600SOL    HW232700   2.027   2.827   7.011
10601SOL     OW32701   2.203   5.240   5.840
10601SOL    HW132702   2.142   5.319   5.839
10601SOL    HW232703   2.259   5.242   5.922
10602SOL     OW32704   5.080   1.446   2.701
10602SOL    HW132705   5.035   1.396   2.775
10602SOL    HW232706   5.122   1.529   2.737
10603SOL     OW32707   2.161   6.103   3.238
10603SOL    HW132708   2.173   6.198   3.269
10603SOL    HW232709   2.181   6.097   3.140
10604SOL     OW32710   5.424   4.502   4.481
10604SOL    HW132711   5.500   4.566   4.473
10604SOL    HW232712   5.377   4.496   4.393
10605SOL     OW32713   1.033   5.025   0.030
10605SOL    HW132714   1.007   5.120   0.009
10605SOL    HW232715   0.954   4.966   0.017
10606SOL     OW32716   6.067   0.586   1.833
10606SOL    HW132717   6.166   0.599   1.822
10606SOL    HW232718   6.050   0.517   1.904
10607SOL     OW32719   4.407   3.710   5.605
10607SOL    HW132720   4.404   3.682   5.509
10607SOL    HW232721   4.324   3.680   5.651
10608SOL     OW32722   5.570   1.956   4.944
10608SOL    HW132723   5.482   1.909   4.935
10608SOL    HW232724   5.554   2.055   4.947
10609SOL     OW32725   3.334   5.532   1.292
10609SOL    HW132726   3.382   5.565   1.374
10609SOL    HW232727   3.256   5.476   1.319
10610SOL     OW32728   0.804   4.333   0.079
10610SOL    HW132729   0.720   4.337   0.133
10610SOL    HW232730   0.818   4.420   0.031
10611SOL     OW32731   5.673   3.333   6.981
10611SOL    HW132732   5.618   3.357   6.900
10611SOL    HW232733   5.613   3.303   0.036
10612SOL     OW32734   2.403   6.753   5.862
10612SOL    HW132735   2.313   6.797   5.862
10612SOL    HW232736   2.451   6.776   5.777
10613SOL     OW32737   0.270   6.732   5.777
10613SOL    HW132738   0.198   6.679   5.733
10613SOL    HW232739   0.229   6.806   5.830
10614SOL     OW32740   6.924   1.419   3.959
10614SOL    HW132741   6.913   1.491   4.026
10614SOL    HW232742   7.010   1.431   3.910
10615SOL     OW32743   4.346   5.685   5.292
10615SOL    HW132744   4.259   5.658   5.333
10615SOL    HW232745   4.331   5.714   5.197
10616SOL     OW32746   3.722   6.341   0.056
10616SOL    HW132747   3.782   6.382   0.125
10616SOL    HW232748   3.627   6.360   0.080
10617SOL     OW32749   2.314   2.219   0.429
10617SOL    HW132750   2.269   2.157   0.364
10617SOL    HW232751   2.263   2.305   0.434
10618SOL     OW32752   5.854   3.114   0.337
10618SOL    HW132753   5.831   3.193   0.395
10618SOL    HW232754   5.949   3.121   0.309
10619SOL     OW32755   0.032   3.662   2.211
10619SOL    HW132756   0.096   3.708   2.149
10619SOL    HW232757   0.050   3.692   2.305
10620SOL     OW32758   0.972   5.417   5.427
10620SOL    HW132759   1.046   5.444   5.365
10620SOL    HW232760   0.913   5.496   5.445
10621SOL     OW32761   1.162   6.272   0.488
10621SOL    HW132762   1.252   6.310   0.467
10621SOL    HW232763   1.155   6.256   0.587
10622SOL     OW32764   4.439   1.175   1.262
10622SOL    HW132765   4.441   1.145   1.166
10622SOL    HW232766   4.345   1.170   1.296
10623SOL     OW32767   5.706   3.128   4.297
10623SOL    HW132768   5.761   3.045   4.300
10623SOL    HW232769   5.652   3.130   4.212
10624SOL     OW32770   1.077   1.173   4.795
10624SOL    HW132771   1.099   1.152   4.700
10624SOL    HW232772   0.985   1.214   4.799
10625SOL     OW32773   0.749   4.129   6.912
10625SOL    HW132774   0.800   4.187   6.976
10625SOL    HW232775   0.729   4.181   6.829
10626SOL     OW32776   0.912   2.486   1.363
10626SOL    HW132777   0.988   2.421   1.363
10626SOL    HW232778   0.862   2.479   1.277
10627SOL     OW32779   5.733   5.979   2.863
10627SOL    HW132780   5.747   5.888   2.823
10627SOL    HW232781   5.651   5.977   2.921
10628SOL     OW32782   5.441   5.190   5.603
10628SOL    HW132783   5.496   5.170   5.523
10628SOL    HW232784   5.466   5.127   5.677
10629SOL     OW32785   2.599   4.536   5.357
10629SOL    HW132786   2.554   4.584   5.281
10629SOL    HW232787   2.693   4.568   5.366
10630SOL     OW32788   6.556   0.839   3.392
10630SOL    HW132789   6.541   0.795   3.481
10630SOL    HW232790   6.521   0.933   3.395
10631SOL     OW32791   0.842   5.877   4.390
10631SOL    HW132792   0.812   5.782   4.395
10631SOL    HW232793   0.938   5.884   4.417
10632SOL     OW32794   5.973   2.204   4.298
10632SOL    HW132795   5.934   2.137   4.360
10632SOL    HW232796   5.908   2.280   4.286
10633SOL     OW32797   2.591   4.103   1.307
10633SOL    HW132798   2.545   4.015   1.319
10633SOL    HW232799   2.552   4.170   1.370
10634SOL     OW32800   3.381   5.411   0.325
10634SOL    HW132801   3.334   5.388   0.239
10634SOL    HW232802   3.316   5.407   0.400
10635SOL     OW32803   2.712   1.143   1.066
10635SOL    HW132804   2.672   1.207   1.132
10635SOL    HW232805   2.660   1.057   1.067
10636SOL     OW32806   1.019   2.112   1.827
10636SOL    HW132807   1.061   2.108   1.737
10636SOL    HW232808   0.930   2.067   1.825
10637SOL     OW32809   3.616   4.026   5.490
10637SOL    HW132810   3.620   3.967   5.409
10637SOL    HW232811   3.682   4.100   5.481
10638SOL     OW32812   0.109   6.377   3.029
10638SOL    HW132813   0.115   6.277   3.026
10638SOL    HW232814   0.089   6.411   2.937
10639SOL     OW32815   0.684   2.079   3.620
10639SOL    HW132816   0.613   2.009   3.628
10639SOL    HW232817   0.731   2.070   3.532
10640SOL     OW32818   4.571   0.216   6.895
10640SOL    HW132819   4.669   0.199   6.888
10640SOL    HW232820   4.528   0.140   6.945
10641SOL     OW32821   4.153   1.703   0.151
10641SOL    HW132822   4.103   1.756   0.082
10641SOL    HW232823   4.238   1.750   0.174
10642SOL     OW32824   0.400   2.666   1.629
10642SOL    HW132825   0.471   2.605   1.594
10642SOL    HW232826   0.373   2.730   1.557
10643SOL     OW32827   2.339   4.225   5.824
10643SOL    HW132828   2.325   4.305   5.882
10643SOL    HW232829   2.324   4.250   5.729
10644SOL     OW32830   4.772   1.795   3.663
10644SOL    HW132831   4.728   1.723   3.716
10644SOL    HW232832   4.714   1.877   3.664
10645SOL     OW32833   1.001   1.005   4.282
10645SOL    HW132834   0.975   1.055   4.364
10645SOL    HW232835   0.926   0.946   4.253
10646SOL     OW32836   0.434   2.206   5.583
10646SOL    HW132837   0.472   2.281   5.637
10646SOL    HW232838   0.468   2.119   5.618
10647SOL     OW32839   5.418   5.452   6.142
10647SOL    HW132840   5.396   5.531   6.085
10647SOL    HW232841   5.486   5.477   6.210
10648SOL     OW32842   5.365   3.428   6.487
10648SOL    HW132843   5.365   3.468   6.396
10648SOL    HW232844   5.315   3.342   6.487
10649SOL     OW32845   0.030   4.496   3.807
10649SOL    HW132846   0.044   4.535   3.716
10649SOL    HW232847   7.007   4.406   3.798
10650SOL     OW32848   1.307   6.754   3.583
10650SOL    HW132849   1.394   6.757   3.633
10650SOL    HW232850   1.232   6.779   3.644
10651SOL     OW32851   4.223   6.621   6.068
10651SOL    HW132852   4.283   6.542   6.085
10651SOL    HW232853   4.268   6.684   6.006
10652SOL     OW32854   3.445   0.133   6.617
10652SOL    HW132855   3.411   0.184   6.538
10652SOL    HW232856   3.377   0.136   6.691
10653SOL     OW32857   5.056   4.711   4.804
10653SOL    HW132858   5.089   4.758   4.886
10653SOL    HW232859   4.996   4.635   4.830
10654SOL     OW32860   3.474   6.988   1.505
10654SOL    HW132861   3.530   6.917   1.462
10654SOL    HW232862   3.379   6.957   1.510
10655SOL     OW32863   2.956   5.164   1.827
10655SOL    HW132864   2.955   5.149   1.926
10655SOL    HW232865   2.917   5.253   1.806
10656SOL     OW32866   6.260   1.949   0.323
10656SOL    HW132867   6.293   2.041   0.302
10656SOL    HW232868   6.208   1.951   0.408
10657SOL     OW32869   6.422   6.659   0.932
10657SOL    HW132870   6.381   6.595   0.867
10657SOL    HW232871   6.394   6.634   1.025
10658SOL     OW32872   0.553   4.542   4.730
10658SOL    HW132873   0.459   4.543   4.764
10658SOL    HW232874   0.576   4.632   4.694
10659SOL     OW32875   6.440   6.919   0.957
10659SOL    HW132876   6.530   6.958   0.935
10659SOL    HW232877   6.440   6.821   0.936
10660SOL     OW32878   5.082   3.975   6.256
10660SOL    HW132879   5.105   4.051   6.196
10660SOL    HW232880   5.078   3.890   6.203
10661SOL     OW32881   6.698   6.809   2.634
10661SOL    HW132882   6.617   6.781   2.685
10661SOL    HW232883   6.767   6.843   2.697
10662SOL     OW32884   5.932   1.197   1.669
10662SOL    HW132885   5.846   1.198   1.618
10662SOL    HW232886   5.970   1.105   1.670
10663SOL     OW32887   1.050   0.479   1.170
10663SOL    HW132888   0.986   0.444   1.239
10663SOL    HW232889   1.143   0.474   1.207
10664SOL     OW32890   2.298   3.816   6.375
10664SOL    HW132891   2.343   3.903   6.392
10664SOL    HW232892   2.239   3.793   6.453
10665SOL     OW32893   1.442   1.061   6.934
10665SOL    HW132894   1.346   1.084   6.953
10665SOL    HW232895   1.485   1.028   7.018
10666SOL     OW32896   3.978   4.371   0.214
10666SOL    HW132897   3.907   4.310   0.180
10666SOL    HW232898   3.952   4.466   0.197
10667SOL     OW32899   4.212   1.796   5.986
10667SOL    HW132900   4.217   1.820   5.889
10667SOL    HW232901   4.124   1.753   6.005
10668SOL     OW32902   1.368   2.222   5.967
10668SOL    HW132903   1.456   2.192   6.004
10668SOL    HW232904   1.312   2.142   5.945
10669SOL     OW32905   0.593   0.261   0.997
10669SOL    HW132906   0.622   0.273   0.902
10669SOL    HW232907   0.493   0.255   1.001
10670SOL     OW32908   5.256   4.477   6.113
10670SOL    HW132909   5.312   4.407   6.069
10670SOL    HW232910   5.237   4.551   6.049
10671SOL     OW32911   2.100   3.596   2.675
10671SOL    HW132912   2.116   3.632   2.584
10671SOL    HW232913   2.144   3.655   2.743
10672SOL     OW32914   0.039   2.992   0.402
10672SOL    HW132915   0.100   3.052   0.350
10672SOL    HW232916   0.062   2.896   0.384
10673SOL     OW32917   2.908   2.767   5.657
10673SOL    HW132918   2.954   2.691   5.611
10673SOL    HW232919   2.905   2.846   5.596
10674SOL     OW32920   3.883   3.624   0.744
10674SOL    HW132921   3.922   3.678   0.670
10674SOL    HW232922   3.888   3.527   0.721
10675SOL     OW32923   0.561   0.588   5.297
10675SOL    HW132924   0.593   0.640   5.376
10675SOL    HW232925   0.601   0.625   5.213
10676SOL     OW32926   6.233   0.086   5.978
10676SOL    HW132927   6.278   0.174   5.987
10676SOL    HW232928   6.177   0.068   6.059
10677SOL     OW32929   0.602   0.801   2.145
10677SOL    HW132930   0.619   0.899   2.131
10677SOL    HW232931   0.556   0.787   2.233
10678SOL     OW32932   3.674   5.660   2.510
10678SOL    HW132933   3.712   5.660   2.603
10678SOL    HW232934   3.583   5.618   2.512
10679SOL     OW32935   5.733   5.580   4.841
10679SOL    HW132936   5.744   5.488   4.879
10679SOL    HW232937   5.737   5.648   4.915
10680SOL     OW32938   1.893   3.388   2.659
10680SOL    HW132939   1.984   3.428   2.648
10680SOL    HW232940   1.899   3.310   2.722
10681SOL     OW32941   6.457   4.541   0.163
10681SOL    HW132942   6.395   4.615   0.138
10681SOL    HW232943   6.517   4.570   0.237
10682SOL     OW32944   1.741   1.620   3.309
10682SOL    HW132945   1.829   1.627   3.357
10682SOL    HW232946   1.758   1.610   3.211
10683SOL     OW32947   2.214   2.639   4.023
10683SOL    HW132948   2.301   2.619   3.978
10683SOL    HW232949   2.153   2.685   3.959
10684SOL     OW32950   5.414   3.907   0.681
10684SOL    HW132951   5.433   3.907   0.779
10684SOL    HW232952   5.317   3.889   0.666
10685SOL     OW32953   0.538   3.526   3.351
10685SOL    HW132954   0.489   3.581   3.283
10685SOL    HW232955   0.502   3.432   3.349
10686SOL     OW32956   4.092   5.852   6.790
10686SOL    HW132957   4.154   5.774   6.795
10686SOL    HW232958   4.117   5.910   6.713
10687SOL     OW32959   6.816   5.386   1.831
10687SOL    HW132960   6.826   5.291   1.862
10687SOL    HW232961   6.739   5.393   1.768
10688SOL     OW32962   6.408   4.186   2.249
10688SOL    HW132963   6.341   4.252   2.283
10688SOL    HW232964   6.366   4.095   2.245
10689SOL     OW32965   6.854   7.001   2.810
10689SOL    HW132966   6.909   0.062   2.834
10689SOL    HW232967   6.757   0.004   2.822
10690SOL     OW32968   4.492   5.610   3.247
10690SOL    HW132969   4.543   5.569   3.323
10690SOL    HW232970   4.532   5.699   3.225
10691SOL     OW32971   6.550   1.110   1.845
10691SOL    HW132972   6.611   1.036   1.817
10691SOL    HW232973   6.488   1.132   1.770
10692SOL     OW32974   3.057   5.852   3.965
10692SOL    HW132975   3.054   5.836   3.867
10692SOL    HW232976   3.143   5.896   3.990
10693SOL     OW32977   0.967   1.174   0.798
10693SOL    HW132978   0.872   1.186   0.768
10693SOL    HW232979   1.000   1.084   0.768
10694SOL     OW32980   3.669   6.114   1.160
10694SOL    HW132981   3.719   6.107   1.073
10694SOL    HW232982   3.606   6.191   1.157
10695SOL     OW32983   6.953   2.698   4.048
10695SOL    HW132984   6.938   2.725   3.952
10695SOL    HW232985   6.968   2.600   4.052
10696SOL     OW32986   6.888   6.113   1.990
10696SOL    HW132987   6.898   6.198   1.938
10696SOL    HW232988   6.800   6.113   2.037
10697SOL     OW32989   0.259   6.229   3.273
10697SOL    HW132990   0.221   6.178   3.196
10697SOL    HW232991   0.251   6.327   3.254
10698SOL     OW32992   2.873   6.946   3.463
10698SOL    HW132993   2.899   6.854   3.492
10698SOL    HW232994   2.882   7.009   3.540
10699SOL     OW32995   4.358   1.639   2.860
10699SOL    HW132996   4.290   1.571   2.835
10699SOL    HW232997   4.391   1.686   2.778
10700SOL     OW32998   0.846   0.086   0.784
10700SOL    HW132999   0.776   0.156   0.795
10700SOL    HW233000   0.914   0.095   0.857
10701SOL     OW33001   4.508   5.939   6.324
10701SOL    HW133002   4.524   5.842   6.344
10701SOL    HW233003   4.568   5.967   6.249
10702SOL     OW33004   5.398   2.754   1.231
10702SOL    HW133005   5.403   2.781   1.327
10702SOL    HW233006   5.450   2.670   1.218
10703SOL     OW33007   3.938   3.576   3.313
10703SOL    HW133008   3.893   3.576   3.224
10703SOL    HW233009   3.879   3.534   3.381
10704SOL     OW33010   4.864   6.566   1.812
10704SOL    HW133011   4.881   6.491   1.748
10704SOL    HW233012   4.905   6.650   1.777
10705SOL     OW33013   1.283   3.854   6.408
10705SOL    HW133014   1.247   3.763   6.386
10705SOL    HW233015   1.218   3.903   6.465
10706SOL     OW33016   4.593   0.464   2.198
10706SOL    HW133017   4.602   0.451   2.099
10706SOL    HW233018   4.586   0.562   2.218
10707SOL     OW33019   7.011   7.000   5.713
10707SOL    HW133020   7.005   6.978   5.811
10707SOL    HW233021   7.003   6.915   5.660
10708SOL     OW33022   4.940   1.032   1.348
10708SOL    HW133023   4.848   1.058   1.378
10708SOL    HW233024   4.933   0.958   1.281
10709SOL     OW33025   6.649   0.537   5.082
10709SOL    HW133026   6.614   0.462   5.025
10709SOL    HW233027   6.581   0.611   5.086
10710SOL     OW33028   6.521   5.524   3.756
10710SOL    HW133029   6.566   5.611   3.735
10710SOL    HW233030   6.449   5.507   3.689
10711SOL     OW33031   1.879   0.331   3.893
10711SOL    HW133032   1.969   0.365   3.865
10711SOL    HW233033   1.808   0.392   3.857
10712SOL     OW33034   3.929   1.414   4.932
10712SOL    HW133035   3.989   1.488   4.963
10712SOL    HW233036   3.833   1.442   4.944
10713SOL     OW33037   2.329   5.709   2.182
10713SOL    HW133038   2.390   5.683   2.257
10713SOL    HW233039   2.370   5.683   2.095
10714SOL     OW33040   0.534   4.659   5.117
10714SOL    HW133041   0.594   4.732   5.083
10714SOL    HW233042   0.478   4.624   5.042
10715SOL     OW33043   4.750   2.108   4.008
10715SOL    HW133044   4.764   2.191   4.063
10715SOL    HW233045   4.837   2.062   3.994
10716SOL     OW33046   6.130   1.195   4.741
10716SOL    HW133047   6.061   1.230   4.804
10716SOL    HW233048   6.146   1.262   4.668
10717SOL     OW33049   6.699   1.104   2.091
10717SOL    HW133050   6.641   1.117   2.010
10717SOL    HW233051   6.746   1.016   2.084
10718SOL     OW33052   6.780   5.437   0.100
10718SOL    HW133053   6.836   5.354   0.102
10718SOL    HW233054   6.686   5.416   0.127
10719SOL     OW33055   5.309   0.975   1.898
10719SOL    HW133056   5.264   0.961   1.986
10719SOL    HW233057   5.241   0.975   1.825
10720SOL     OW33058   6.907   3.816   6.103
10720SOL    HW133059   6.828   3.853   6.054
10720SOL    HW233060   6.916   3.863   6.191
10721SOL     OW33061   6.029   2.295   4.866
10721SOL    HW133062   6.102   2.262   4.926
10721SOL    HW233063   5.962   2.222   4.852
10722SOL     OW33064   6.376   3.828   0.367
10722SOL    HW133065   6.414   3.860   0.280
10722SOL    HW233066   6.318   3.899   0.406
10723SOL     OW33067   5.221   4.013   6.938
10723SOL    HW133068   5.313   4.051   6.942
10723SOL    HW233069   5.177   4.019   0.009
10724SOL     OW33070   4.402   6.710   6.266
10724SOL    HW133071   4.390   6.634   6.331
10724SOL    HW233072   4.398   6.797   6.316
10725SOL     OW33073   0.487   6.236   4.230
10725SOL    HW133074   0.551   6.205   4.160
10725SOL    HW233075   0.406   6.178   4.229
10726SOL     OW33076   5.906   0.592   4.749
10726SOL    HW133077   5.986   0.650   4.762
10726SOL    HW233078   5.854   0.624   4.669
10727SOL     OW33079   2.067   5.012   5.155
10727SOL    HW133080   2.036   4.968   5.240
10727SOL    HW233081   2.056   4.949   5.079
10728SOL     OW33082   4.942   6.904   3.061
10728SOL    HW133083   4.981   6.820   3.023
10728SOL    HW233084   4.993   6.983   3.027
10729SOL     OW33085   5.866   2.463   3.036
10729SOL    HW133086   5.934   2.390   3.026
10729SOL    HW233087   5.789   2.445   2.975
10730SOL     OW33088   2.272   5.983   2.254
10730SOL    HW133089   2.187   6.014   2.298
10730SOL    HW233090   2.261   5.889   2.223
10731SOL     OW33091   3.355   5.851   0.421
10731SOL    HW133092   3.363   5.781   0.350
10731SOL    HW233093   3.432   5.914   0.414
10732SOL     OW33094   5.024   6.187   2.536
10732SOL    HW133095   5.039   6.111   2.474
10732SOL    HW233096   4.926   6.207   2.541
10733SOL     OW33097   5.781   1.208   6.610
10733SOL    HW133098   5.687   1.238   6.629
10733SOL    HW233099   5.797   1.120   6.656
10734SOL     OW33100   1.103   0.226   6.752
10734SOL    HW133101   1.021   0.282   6.745
10734SOL    HW233102   1.101   0.176   6.839
10735SOL     OW33103   1.008   5.241   1.851
10735SOL    HW133104   0.918   5.226   1.812
10735SOL    HW233105   1.019   5.183   1.932
10736SOL     OW33106   6.754   0.910   4.242
10736SOL    HW133107   6.796   0.934   4.330
10736SOL    HW233108   6.815   0.936   4.167
10737SOL     OW33109   0.257   1.910   1.238
10737SOL    HW133110   0.324   1.873   1.303
10737SOL    HW233111   0.187   1.841   1.220
10738SOL     OW33112   2.764   0.566   2.767
10738SOL    HW133113   2.819   0.486   2.745
10738SOL    HW233114   2.739   0.613   2.682
10739SOL     OW33115   6.189   2.016   2.719
10739SOL    HW133116   6.253   1.952   2.762
10739SOL    HW233117   6.228   2.049   2.632
10740SOL     OW33118   1.438   6.867   5.923
10740SOL    HW133119   1.409   6.957   5.892
10740SOL    HW233120   1.388   6.796   5.874
10741SOL     OW33121   1.621   3.008   3.403
10741SOL    HW133122   1.565   3.085   3.435
10741SOL    HW233123   1.563   2.943   3.355
10742SOL     OW33124   6.367   5.367   2.269
10742SOL    HW133125   6.312   5.378   2.353
10742SOL    HW233126   6.464   5.377   2.291
10743SOL     OW33127   3.612   1.636   5.249
10743SOL    HW133128   3.517   1.647   5.276
10743SOL    HW233129   3.646   1.548   5.280
10744SOL     OW33130   3.538   0.195   1.401
10744SOL    HW133131   3.516   0.108   1.445
10744SOL    HW233132   3.453   0.247   1.386
10745SOL     OW33133   1.941   4.523   1.143
10745SOL    HW133134   1.917   4.443   1.089
10745SOL    HW233135   2.024   4.504   1.196
10746SOL     OW33136   2.514   6.089   0.311
10746SOL    HW133137   2.578   6.144   0.258
10746SOL    HW233138   2.464   6.149   0.375
10747SOL     OW33139   6.115   2.633   4.292
10747SOL    HW133140   6.053   2.641   4.370
10747SOL    HW233141   6.194   2.579   4.317
10748SOL     OW33142   4.139   5.417   1.077
10748SOL    HW133143   4.176   5.510   1.069
10748SOL    HW233144   4.039   5.419   1.067
10749SOL     OW33145   6.207   4.375   2.874
10749SOL    HW133146   6.121   4.422   2.851
10749SOL    HW233147   6.279   4.443   2.886
10750SOL     OW33148   4.877   3.588   3.978
10750SOL    HW133149   4.946   3.628   3.918
10750SOL    HW233150   4.863   3.647   4.058
10751SOL     OW33151   1.494   3.750   4.886
10751SOL    HW133152   1.505   3.844   4.853
10751SOL    HW233153   1.410   3.711   4.848
10752SOL     OW33154   6.421   5.184   6.576
10752SOL    HW133155   6.364   5.115   6.532
10752SOL    HW233156   6.496   5.139   6.625
10753SOL     OW33157   4.606   6.495   4.493
10753SOL    HW133158   4.638   6.584   4.526
10753SOL    HW233159   4.665   6.423   4.528
10754SOL     OW33160   0.673   3.114   1.931
10754SOL    HW133161   0.741   3.151   1.868
10754SOL    HW233162   0.667   3.015   1.918
10755SOL     OW33163   7.011   2.846   1.574
10755SOL    HW133164   6.951   2.838   1.654
10755SOL    HW233165   0.085   2.818   1.599
10756SOL     OW33166   6.133   1.923   0.572
10756SOL    HW133167   6.202   1.878   0.629
10756SOL    HW233168   6.082   1.989   0.627
10757SOL     OW33169   6.635   3.718   0.458
10757SOL    HW133170   6.551   3.761   0.425
10757SOL    HW233171   6.650   3.632   0.410
10758SOL     OW33172   1.144   5.833   6.139
10758SOL    HW133173   1.109   5.762   6.077
10758SOL    HW233174   1.224   5.798   6.187
10759SOL     OW33175   1.649   2.177   6.238
10759SOL    HW133176   1.648   2.118   6.157
10759SOL    HW233177   1.574   2.150   6.300
10760SOL     OW33178   0.952   6.410   0.407
10760SOL    HW133179   1.029   6.371   0.458
10760SOL    HW233180   0.873   6.350   0.417
10761SOL     OW33181   0.791   1.975   6.056
10761SOL    HW133182   0.863   2.027   6.101
10761SOL    HW233183   0.827   1.933   5.972
10762SOL     OW33184   4.073   0.656   5.660
10762SOL    HW133185   4.019   0.577   5.691
10762SOL    HW233186   4.019   0.709   5.595
10763SOL     OW33187   5.930   0.749   3.297
10763SOL    HW133188   5.912   0.783   3.204
10763SOL    HW233189   5.882   0.663   3.311
10764SOL     OW33190   4.359   1.003   4.866
10764SOL    HW133191   4.346   1.100   4.890
10764SOL    HW233192   4.412   0.998   4.781
10765SOL     OW33193   6.041   2.286   2.549
10765SOL    HW133194   5.981   2.266   2.471
10765SOL    HW233195   6.123   2.230   2.543
10766SOL     OW33196   1.378   5.061   0.568
10766SOL    HW133197   1.399   5.031   0.661
10766SOL    HW233198   1.463   5.072   0.517
10767SOL     OW33199   1.634   6.530   0.730
10767SOL    HW133200   1.686   6.589   0.791
10767SOL    HW233201   1.674   6.438   0.732
10768SOL     OW33202   5.986   5.134   0.443
10768SOL    HW133203   6.040   5.074   0.502
10768SOL    HW233204   6.039   5.159   0.362
10769SOL     OW33205   2.720   4.304   5.445
10769SOL    HW133206   2.669   4.223   5.415
10769SOL    HW233207   2.686   4.384   5.396
10770SOL     OW33208   5.544   6.395   4.857
10770SOL    HW133209   5.470   6.329   4.846
10770SOL    HW233210   5.525   6.477   4.803
10771SOL     OW33211   4.826   0.017   5.619
10771SOL    HW133212   4.784   0.090   5.674
10771SOL    HW233213   4.819   0.040   5.522
10772SOL     OW33214   5.476   6.451   3.808
10772SOL    HW133215   5.563   6.454   3.760
10772SOL    HW233216   5.413   6.517   3.767
10773SOL     OW33217   0.159   4.201   0.716
10773SOL    HW133218   0.104   4.265   0.770
10773SOL    HW233219   0.107   4.118   0.698
10774SOL     OW33220   1.769   2.352   0.820
10774SOL    HW133221   1.708   2.395   0.753
10774SOL    HW233222   1.762   2.399   0.908
10775SOL     OW33223   1.899   4.390   0.743
10775SOL    HW133224   1.855   4.464   0.795
10775SOL    HW233225   1.927   4.425   0.654
10776SOL     OW33226   0.069   0.577   2.888
10776SOL    HW133227   0.073   0.488   2.843
10776SOL    HW233228   7.006   0.627   2.856
10777SOL     OW33229   2.805   0.797   3.486
10777SOL    HW133230   2.799   0.832   3.392
10777SOL    HW233231   2.771   0.867   3.549
10778SOL     OW33232   6.713   6.274   4.506
10778SOL    HW133233   6.690   6.370   4.490
10778SOL    HW233234   6.795   6.267   4.562
10779SOL     OW33235   5.673   5.044   3.159
10779SOL    HW133236   5.667   5.130   3.209
10779SOL    HW233237   5.666   4.968   3.224
10780SOL     OW33238   0.590   6.008   4.505
10780SOL    HW133239   0.626   6.097   4.531
10780SOL    HW233240   0.664   5.951   4.469
10781SOL     OW33241   5.942   2.268   5.216
10781SOL    HW133242   6.007   2.203   5.176
10781SOL    HW233243   5.948   2.356   5.167
10782SOL     OW33244   0.131   3.454   5.473
10782SOL    HW133245   0.109   3.409   5.387
10782SOL    HW233246   0.048   3.465   5.527
10783SOL     OW33247   1.464   2.284   2.568
10783SOL    HW133248   1.528   2.211   2.545
10783SOL    HW233249   1.374   2.263   2.530
10784SOL     OW33250   3.036   6.075   2.305
10784SOL    HW133251   3.005   6.170   2.307
10784SOL    HW233252   3.133   6.072   2.284
10785SOL     OW33253   1.543   5.192   1.451
10785SOL    HW133254   1.584   5.167   1.363
10785SOL    HW233255   1.609   5.176   1.524
10786SOL     OW33256   4.291   2.046   1.973
10786SOL    HW133257   4.273   1.975   1.905
10786SOL    HW233258   4.325   2.004   2.057
10787SOL     OW33259   3.149   1.506   3.851
10787SOL    HW133260   3.105   1.484   3.938
10787SOL    HW233261   3.225   1.569   3.866
10788SOL     OW33262   0.380   4.211   0.088
10788SOL    HW133263   0.372   4.111   0.084
10788SOL    HW233264   0.422   4.244   0.004
10789SOL     OW33265   6.549   1.157   6.899
10789SOL    HW133266   6.557   1.247   6.857
10789SOL    HW233267   6.538   1.167   6.998
10790SOL     OW33268   0.346   2.828   5.021
10790SOL    HW133269   0.309   2.788   5.105
10790SOL    HW233270   0.431   2.782   4.997
10791SOL     OW33271   1.926   1.653   2.559
10791SOL    HW133272   1.980   1.686   2.636
10791SOL    HW233273   1.831   1.640   2.588
10792SOL     OW33274   3.466   2.062   1.428
10792SOL    HW133275   3.366   2.059   1.428
10792SOL    HW233276   3.497   2.155   1.446
10793SOL     OW33277   5.091   1.558   4.710
10793SOL    HW133278   5.026   1.564   4.786
10793SOL    HW233279   5.176   1.518   4.741
10794SOL     OW33280   4.443   2.931   1.707
10794SOL    HW133281   4.513   2.960   1.772
10794SOL    HW233282   4.457   2.975   1.619
10795SOL     OW33283   0.083   3.738   2.483
10795SOL    HW133284   0.022   3.798   2.535
10795SOL    HW233285   0.056   3.643   2.497
10796SOL     OW33286   6.562   6.494   7.008
10796SOL    HW133287   6.556   6.558   0.066
10796SOL    HW233288   6.624   6.530   6.939
10797SOL     OW33289   3.988   2.972   0.526
10797SOL    HW133290   3.928   2.911   0.474
10797SOL    HW233291   3.932   3.039   0.575
10798SOL     OW33292   2.740   6.703   6.380
10798SOL    HW133293   2.828   6.656   6.369
10798SOL    HW233294   2.702   6.682   6.470
10799SOL     OW33295   3.069   1.464   2.693
10799SOL    HW133296   2.988   1.428   2.738
10799SOL    HW233297   3.151   1.423   2.733
10800SOL     OW33298   1.118   0.005   6.984
10800SOL    HW133299   1.066   6.982   0.041
10800SOL    HW233300   1.111   6.966   6.903
10801SOL     OW33301   2.163   6.252   5.751
10801SOL    HW133302   2.178   6.349   5.772
10801SOL    HW233303   2.245   6.214   5.709
10802SOL     OW33304   1.689   3.970   4.056
10802SOL    HW133305   1.744   3.948   4.136
10802SOL    HW233306   1.741   3.949   3.973
10803SOL     OW33307   6.031   4.604   5.318
10803SOL    HW133308   5.971   4.529   5.346
10803SOL    HW233309   6.091   4.573   5.244
10804SOL     OW33310   5.988   4.067   1.851
10804SOL    HW133311   6.014   4.140   1.788
10804SOL    HW233312   6.054   4.061   1.925
10805SOL     OW33313   4.185   6.313   0.518
10805SOL    HW133314   4.085   6.315   0.522
10805SOL    HW233315   4.221   6.274   0.603
10806SOL     OW33316   5.648   3.682   0.870
10806SOL    HW133317   5.585   3.626   0.817
10806SOL    HW233318   5.596   3.752   0.919
10807SOL     OW33319   3.322   6.036   3.419
10807SOL    HW133320   3.227   6.027   3.389
10807SOL    HW233321   3.342   5.966   3.487
10808SOL     OW33322   0.526   2.779   6.157
10808SOL    HW133323   0.562   2.864   6.195
10808SOL    HW233324   0.601   2.714   6.144
10809SOL     OW33325   3.199   0.999   3.995
10809SOL    HW133326   3.191   1.052   4.079
10809SOL    HW233327   3.118   1.013   3.938
10810SOL     OW33328   6.939   1.451   5.251
10810SOL    HW133329   6.917   1.451   5.153
10810SOL    HW233330   0.016   1.425   5.263
10811SOL     OW33331   4.193   5.537   5.113
10811SOL    HW133332   4.237   5.465   5.166
10811SOL    HW233333   4.133   5.496   5.045
10812SOL     OW33334   6.396   3.033   2.791
10812SOL    HW133335   6.438   3.113   2.749
10812SOL    HW233336   6.378   3.051   2.888
10813SOL     OW33337   3.067   6.157   2.002
10813SOL    HW133338   3.025   6.231   2.055
10813SOL    HW233339   3.139   6.195   1.944
10814SOL     OW33340   1.795   0.025   4.972
10814SOL    HW133341   1.856   0.104   4.973
10814SOL    HW233342   1.848   6.960   4.959
10815SOL     OW33343   5.568   3.978   3.095
10815SOL    HW133344   5.544   4.063   3.143
10815SOL    HW233345   5.574   3.996   2.997
10816SOL     OW33346   1.559   0.953   2.358
10816SOL    HW133347   1.644   1.001   2.379
10816SOL    HW233348   1.576   0.854   2.358
10817SOL     OW33349   5.194   0.320   2.464
10817SOL    HW133350   5.230   0.247   2.406
10817SOL    HW233351   5.160   0.281   2.550
10818SOL     OW33352   5.640   2.982   6.891
10818SOL    HW133353   5.708   2.936   6.833
10818SOL    HW233354   5.687   3.024   6.969
10819SOL     OW33355   0.603   4.920   6.333
10819SOL    HW133356   0.542   4.886   6.404
10819SOL    HW233357   0.581   5.016   6.313
10820SOL     OW33358   0.206   6.509   3.862
10820SOL    HW133359   0.250   6.521   3.773
10820SOL    HW233360   0.275   6.502   3.934
10821SOL     OW33361   6.800   0.198   1.561
10821SOL    HW133362   6.773   0.106   1.535
10821SOL    HW233363   6.898   0.210   1.543
10822SOL     OW33364   0.856   3.799   2.324
10822SOL    HW133365   0.808   3.711   2.334
10822SOL    HW233366   0.947   3.783   2.287
10823SOL     OW33367   2.502   6.238   1.258
10823SOL    HW133368   2.566   6.162   1.267
10823SOL    HW233369   2.421   6.209   1.206
10824SOL     OW33370   4.552   0.942   2.448
10824SOL    HW133371   4.521   0.882   2.374
10824SOL    HW233372   4.509   1.032   2.438
10825SOL     OW33373   3.224   0.920   1.063
10825SOL    HW133374   3.284   0.897   0.987
10825SOL    HW233375   3.148   0.976   1.030
10826SOL     OW33376   0.285   3.705   2.013
10826SOL    HW133377   0.322   3.614   2.030
10826SOL    HW233378   0.307   3.734   1.920
10827SOL     OW33379   6.928   3.687   4.276
10827SOL    HW133380   6.831   3.694   4.253
10827SOL    HW233381   6.942   3.723   4.369
10828SOL     OW33382   1.051   5.996   0.423
10828SOL    HW133383   1.100   6.076   0.459
10828SOL    HW233384   1.060   5.920   0.488
10829SOL     OW33385   3.013   3.957   2.088
10829SOL    HW133386   2.991   3.968   1.991
10829SOL    HW233387   2.929   3.934   2.138
10830SOL     OW33388   5.560   3.251   5.057
10830SOL    HW133389   5.495   3.264   4.982
10830SOL    HW233390   5.599   3.339   5.083
10831SOL     OW33391   5.492   1.120   2.912
10831SOL    HW133392   5.521   1.100   2.818
10831SOL    HW233393   5.491   1.035   2.965
10832SOL     OW33394   0.997   1.957   0.199
10832SOL    HW133395   0.898   1.968   0.195
10832SOL    HW233396   1.036   2.029   0.257
10833SOL     OW33397   2.609   1.065   4.315
10833SOL    HW133398   2.593   1.119   4.398
10833SOL    HW233399   2.661   0.983   4.339
10834SOL     OW33400   0.510   1.476   5.496
10834SOL    HW133401   0.543   1.569   5.478
10834SOL    HW233402   0.424   1.480   5.547
10835SOL     OW33403   6.063   2.069   2.234
10835SOL    HW133404   5.981   2.090   2.287
10835SOL    HW233405   6.113   2.153   2.215
10836SOL     OW33406   0.523   1.845   5.577
10836SOL    HW133407   0.532   1.910   5.653
10836SOL    HW233408   0.429   1.845   5.545
10837SOL     OW33409   0.078   4.662   0.407
10837SOL    HW133410   0.176   4.645   0.397
10837SOL    HW233411   0.036   4.589   0.460
10838SOL     OW33412   5.784   6.839   6.816
10838SOL    HW133413   5.760   6.768   6.751
10838SOL    HW233414   5.881   6.862   6.807
10839SOL     OW33415   2.399   1.686   6.959
10839SOL    HW133416   2.394   1.739   6.874
10839SOL    HW233417   2.422   1.747   0.016
10840SOL     OW33418   3.450   5.625   1.533
10840SOL    HW133419   3.481   5.575   1.614
10840SOL    HW233420   3.501   5.711   1.525
10841SOL     OW33421   4.289   5.745   6.137
10841SOL    HW133422   4.275   5.729   6.235
10841SOL    HW233423   4.382   5.719   6.112
10842SOL     OW33424   6.549   2.933   0.838
10842SOL    HW133425   6.547   3.033   0.835
10842SOL    HW233426   6.641   2.902   0.861
10843SOL     OW33427   1.038   1.690   1.739
10843SOL    HW133428   1.051   1.624   1.666
10843SOL    HW233429   0.967   1.657   1.801
10844SOL     OW33430   5.721   0.128   3.608
10844SOL    HW133431   5.736   0.116   3.706
10844SOL    HW233432   5.645   0.071   3.578
10845SOL     OW33433   1.275   1.105   1.467
10845SOL    HW133434   1.235   1.104   1.375
10845SOL    HW233435   1.264   1.015   1.509
10846SOL     OW33436   3.949   2.287   0.955
10846SOL    HW133437   3.954   2.212   0.888
10846SOL    HW233438   3.878   2.266   1.023
10847SOL     OW33439   3.524   2.033   6.045
10847SOL    HW133440   3.472   2.077   6.118
10847SOL    HW233441   3.513   2.085   5.960
10848SOL     OW33442   2.130   0.761   6.944
10848SOL    HW133443   2.070   0.708   7.003
10848SOL    HW233444   2.183   0.826   6.999
10849SOL     OW33445   2.857   4.970   4.499
10849SOL    HW133446   2.814   5.056   4.527
10849SOL    HW233447   2.943   4.958   4.549
10850SOL     OW33448   5.508   6.556   0.106
10850SOL    HW133449   5.530   6.635   0.050
10850SOL    HW233450   5.587   6.531   0.163
10851SOL     OW33451   2.764   2.392   5.859
10851SOL    HW133452   2.784   2.489   5.870
10851SOL    HW233453   2.739   2.374   5.763
10852SOL     OW33454   0.151   1.120   6.574
10852SOL    HW133455   0.132   1.165   6.486
10852SOL    HW233456   0.069   1.125   6.631
10853SOL     OW33457   2.766   1.597   4.532
10853SOL    HW133458   2.786   1.523   4.469
10853SOL    HW233459   2.693   1.569   4.595
10854SOL     OW33460   6.477   6.915   0.127
10854SOL    HW133461   6.385   6.950   0.110
10854SOL    HW233462   6.531   6.921   0.043
10855SOL     OW33463   1.562   6.309   2.377
10855SOL    HW133464   1.483   6.371   2.367
10855SOL    HW233465   1.535   6.230   2.432
10856SOL     OW33466   6.119   6.307   6.912
10856SOL    HW133467   6.175   6.291   6.993
10856SOL    HW233468   6.090   6.219   6.874
10857SOL     OW33469   6.121   2.217   3.549
10857SOL    HW133470   6.216   2.197   3.525
10857SOL    HW233471   6.102   2.182   3.641
10858SOL     OW33472   1.175   3.233   0.179
10858SOL    HW133473   1.145   3.270   0.267
10858SOL    HW233474   1.194   3.135   0.188
10859SOL     OW33475   0.909   4.664   3.331
10859SOL    HW133476   0.899   4.668   3.232
10859SOL    HW233477   0.875   4.577   3.365
10860SOL     OW33478   6.277   1.535   0.178
10860SOL    HW133479   6.283   1.444   0.220
10860SOL    HW233480   6.366   1.562   0.144
10861SOL     OW33481   2.928   2.622   1.712
10861SOL    HW133482   3.023   2.651   1.702
10861SOL    HW233483   2.922   2.556   1.787
10862SOL     OW33484   3.425   2.258   5.880
10862SOL    HW133485   3.420   2.300   5.971
10862SOL    HW233486   3.335   2.259   5.837
10863SOL     OW33487   2.510   0.664   3.441
10863SOL    HW133488   2.567   0.628   3.515
10863SOL    HW233489   2.536   0.621   3.355
10864SOL     OW33490   2.140   4.405   1.848
10864SOL    HW133491   2.100   4.328   1.797
10864SOL    HW233492   2.239   4.395   1.852
10865SOL     OW33493   5.005   2.976   3.175
10865SOL    HW133494   4.940   2.915   3.219
10865SOL    HW233495   4.956   3.050   3.128
10866SOL     OW33496   6.654   3.739   1.614
10866SOL    HW133497   6.629   3.656   1.665
10866SOL    HW233498   6.578   3.765   1.555
10867SOL     OW33499   3.275   2.066   0.281
10867SOL    HW133500   3.374   2.075   0.269
10867SOL    HW233501   3.232   2.052   0.192
10868SOL     OW33502   0.705   2.351   3.609
10868SOL    HW133503   0.683   2.254   3.621
10868SOL    HW233504   0.788   2.360   3.554
10869NA      NA33505   0.030   1.776   5.849
10870NA      NA33506   4.459   4.364   5.261
10871NA      NA33507   1.580   5.479   2.842
10872NA      NA33508   5.262   4.331   3.528
10873NA      NA33509   4.435   2.517   5.151
10874NA      NA33510   2.481   5.252   1.038
10875NA      NA33511   1.284   5.552   0.310
10876NA      NA33512   3.416   4.042   1.224
10877NA      NA33513   4.311   4.779   0.934
10878NA      NA33514   3.503   0.895   6.328
10879NA      NA33515   5.548   5.873   2.062
10880NA      NA33516   1.153   6.720   5.220
10881NA      NA33517   4.460   5.086   1.952
10882NA      NA33518   2.830   3.236   6.723
   7.01847   7.01847   7.01847
