Generated by trjconv : CNT in water t= 545.00000
33518
    1C        C    1   2.838   2.763   4.744
    1C        C    2   2.895   2.714   4.863
    1C        C    3   2.844   2.772   4.980
    1C        C    4   2.843   2.770   4.256
    1C        C    5   2.893   2.722   4.380
    1C        C    6   2.835   2.763   4.502
    1C        C    7   3.007   2.635   4.622
    1C        C    8   2.889   2.713   4.622
    1C        C    9   3.075   2.607   4.742
    1C        C   10   3.005   2.626   4.864
    1C        C   11   3.175   2.485   4.967
    1C        C   12   3.055   2.556   4.975
    1C        C   13   2.845   2.767   3.767
    1C        C   14   2.898   2.722   3.890
    1C        C   15   2.846   2.770   4.012
    1C        C   16   3.016   2.644   4.134
    1C        C   17   2.899   2.724   4.135
    1C        C   18   3.075   2.609   4.257
    1C        C   19   3.012   2.647   4.378
    1C        C   20   3.205   2.558   4.500
    1C        C   21   3.073   2.607   4.500
    1C        C   22   3.276   2.540   4.622
    1C        C   23   3.207   2.554   4.744
    1C        C   24   3.409   2.475   4.860
    1C        C   25   3.267   2.494   4.858
    1C        C   26   3.486   2.467   4.977
    1C        C   27   2.849   2.767   3.278
    1C        C   28   2.898   2.717   3.401
    1C        C   29   2.848   2.769   3.523
    1C        C   30   3.016   2.641   3.644
    1C        C   31   2.899   2.719   3.645
    1C        C   32   3.074   2.604   3.768
    1C        C   33   3.013   2.639   3.890
    1C        C   34   3.207   2.552   4.015
    1C        C   35   3.077   2.607   4.012
    1C        C   36   3.274   2.528   4.137
    1C        C   37   3.205   2.554   4.258
    1C        C   38   3.413   2.507   4.377
    1C        C   39   3.275   2.537   4.379
    1C        C   40   3.482   2.499   4.499
    1C        C   41   3.412   2.505   4.622
    1C        C   42   3.627   2.474   4.741
    1C        C   43   3.485   2.478   4.740
    1C        C   44   3.701   2.481   4.861
    1C        C   45   3.625   2.473   4.978
    1C        C   46   2.839   2.750   2.790
    1C        C   47   2.896   2.709   2.913
    1C        C   48   2.843   2.762   3.033
    1C        C   49   3.013   2.635   3.156
    1C        C   50   2.901   2.721   3.155
    1C        C   51   3.072   2.597   3.279
    1C        C   52   3.008   2.628   3.401
    1C        C   53   3.203   2.542   3.526
    1C        C   54   3.073   2.597   3.522
    1C        C   55   3.273   2.526   3.648
    1C        C   56   3.205   2.551   3.769
    1C        C   57   3.411   2.502   3.891
    1C        C   58   3.272   2.531   3.892
    1C        C   59   3.483   2.497   4.012
    1C        C   60   3.412   2.499   4.134
    1C        C   61   3.626   2.500   4.256
    1C        C   62   3.485   2.496   4.256
    1C        C   63   3.697   2.500   4.377
    1C        C   64   3.623   2.493   4.498
    1C        C   65   3.830   2.540   4.619
    1C        C   66   3.695   2.498   4.619
    1C        C   67   3.896   2.571   4.739
    1C        C   68   3.835   2.527   4.859
    1C        C   69   4.043   2.584   4.972
    1C        C   70   3.915   2.529   4.974
    1C        C   71   2.817   2.725   2.306
    1C        C   72   2.876   2.684   2.428
    1C        C   73   2.828   2.741   2.547
    1C        C   74   3.006   2.621   2.668
    1C        C   75   2.889   2.700   2.668
    1C        C   76   3.069   2.589   2.790
    1C        C   77   3.009   2.624   2.913
    1C        C   78   3.203   2.541   3.034
    1C        C   79   3.072   2.592   3.035
    1C        C   80   3.270   2.521   3.157
    1C        C   81   3.202   2.541   3.279
    1C        C   82   3.407   2.497   3.399
    1C        C   83   3.268   2.522   3.402
    1C        C   84   3.479   2.491   3.521
    1C        C   85   3.412   2.501   3.644
    1C        C   86   3.621   2.495   3.766
    1C        C   87   3.480   2.491   3.768
    1C        C   88   3.693   2.505   3.887
    1C        C   89   3.624   2.499   4.010
    1C        C   90   3.829   2.550   4.132
    1C        C   91   3.695   2.507   4.132
    1C        C   92   3.898   2.570   4.254
    1C        C   93   3.832   2.542   4.376
    1C        C   94   4.024   2.632   4.495
    1C        C   95   3.898   2.567   4.498
    1C        C   96   4.084   2.673   4.616
    1C        C   97   4.026   2.629   4.737
    1C        C   98   4.182   2.768   4.856
    1C        C   99   4.096   2.654   4.859
    1C        C  100   4.207   2.843   4.972
    1C        C  101   2.817   2.727   2.066
    1C        C  102   2.981   2.584   2.186
    1C        C  103   2.869   2.672   2.184
    1C        C  104   3.056   2.564   2.305
    1C        C  105   2.997   2.611   2.425
    1C        C  106   3.198   2.533   2.546
    1C        C  107   3.065   2.582   2.545
    1C        C  108   3.267   2.515   2.668
    1C        C  109   3.199   2.533   2.791
    1C        C  110   3.409   2.489   2.911
    1C        C  111   3.271   2.518   2.912
    1C        C  112   3.479   2.487   3.034
    1C        C  113   3.409   2.493   3.156
    1C        C  114   3.621   2.496   3.276
    1C        C  115   3.480   2.492   3.278
    1C        C  116   3.691   2.503   3.398
    1C        C  117   3.621   2.495   3.521
    1C        C  118   3.827   2.540   3.642
    1C        C  119   3.691   2.502   3.643
    1C        C  120   3.891   2.567   3.765
    1C        C  121   3.829   2.541   3.889
    1C        C  122   4.018   2.645   4.007
    1C        C  123   3.894   2.575   4.009
    1C        C  124   4.080   2.676   4.130
    1C        C  125   4.021   2.638   4.252
    1C        C  126   4.191   2.764   4.373
    1C        C  127   4.084   2.672   4.374
    1C        C  128   4.239   2.819   4.494
    1C        C  129   4.190   2.766   4.615
    1C        C  130   4.323   2.934   4.737
    1C        C  131   4.239   2.819   4.736
    1C        C  132   4.351   3.005   4.856
    1C        C  133   4.284   2.958   4.970
    1C        C  134   3.168   2.465   2.075
    1C        C  135   3.034   2.504   2.079
    1C        C  136   3.255   2.472   2.185
    1C        C  137   3.187   2.509   2.303
    1C        C  138   3.399   2.474   2.423
    1C        C  139   3.260   2.500   2.424
    1C        C  140   3.473   2.477   2.543
    1C        C  141   3.406   2.488   2.667
    1C        C  142   3.619   2.485   2.787
    1C        C  143   3.478   2.481   2.788
    1C        C  144   3.689   2.497   2.909
    1C        C  145   3.620   2.492   3.032
    1C        C  146   3.829   2.530   3.150
    1C        C  147   3.692   2.495   3.153
    1C        C  148   3.893   2.558   3.273
    1C        C  149   3.828   2.535   3.396
    1C        C  150   4.019   2.626   3.517
    1C        C  151   3.895   2.559   3.519
    1C        C  152   4.075   2.667   3.640
    1C        C  153   4.014   2.636   3.764
    1C        C  154   4.187   2.768   3.885
    1C        C  155   4.073   2.684   3.883
    1C        C  156   4.243   2.812   4.007
    1C        C  157   4.193   2.761   4.129
    1C        C  158   4.337   2.918   4.248
    1C        C  159   4.247   2.809   4.251
    1C        C  160   4.372   2.980   4.370
    1C        C  161   4.326   2.931   4.494
    1C        C  162   4.434   3.115   4.613
    1C        C  163   4.367   2.990   4.615
    1C        C  164   4.460   3.185   4.732
    1C        C  165   4.432   3.120   4.855
    1C        C  166   4.510   3.321   4.967
    1C        C  167   4.475   3.186   4.970
    1C        C  168   3.472   2.428   2.069
    1C        C  169   3.394   2.452   2.183
    1C        C  170   3.612   2.464   2.303
    1C        C  171   3.470   2.462   2.302
    1C        C  172   3.687   2.484   2.421
    1C        C  173   3.614   2.484   2.542
    1C        C  174   3.823   2.533   2.662
    1C        C  175   3.685   2.501   2.663
    1C        C  176   3.890   2.558   2.784
    1C        C  177   3.825   2.537   2.907
    1C        C  178   4.018   2.626   3.026
    1C        C  179   3.893   2.562   3.029
    1C        C  180   4.081   2.658   3.148
    1C        C  181   4.019   2.622   3.270
    1C        C  182   4.186   2.750   3.394
    1C        C  183   4.076   2.662   3.393
    1C        C  184   4.237   2.801   3.516
    1C        C  185   4.186   2.755   3.639
    1C        C  186   4.334   2.911   3.759
    1C        C  187   4.237   2.808   3.759
    1C        C  188   4.376   2.972   3.880
    1C        C  189   4.333   2.920   4.004
    1C        C  190   4.438   3.104   4.125
    1C        C  191   4.373   2.979   4.126
    1C        C  192   4.464   3.168   4.248
    1C        C  193   4.438   3.105   4.372
    1C        C  194   4.510   3.311   4.485
    1C        C  195   4.465   3.178   4.490
    1C        C  196   4.526   3.385   4.605
    1C        C  197   4.502   3.321   4.728
    1C        C  198   4.550   3.533   4.849
    1C        C  199   4.533   3.391   4.848
    1C        C  200   4.582   3.618   4.960
    1C        C  201   3.611   2.413   2.071
    1C        C  202   3.823   2.506   2.179
    1C        C  203   3.688   2.457   2.184
    1C        C  204   3.893   2.540   2.298
    1C        C  205   3.825   2.515   2.419
    1C        C  206   4.019   2.609   2.540
    1C        C  207   3.892   2.548   2.539
    1C        C  208   4.082   2.649   2.660
    1C        C  209   4.016   2.621   2.782
    1C        C  210   4.194   2.741   2.900
    1C        C  211   4.080   2.657   2.903
    1C        C  212   4.243   2.789   3.024
    1C        C  213   4.194   2.744   3.148
    1C        C  214   4.326   2.908   3.269
    1C        C  215   4.238   2.797   3.271
    1C        C  216   4.365   2.969   3.390
    1C        C  217   4.325   2.911   3.512
    1C        C  218   4.428   3.095   3.635
    1C        C  219   4.369   2.966   3.634
    1C        C  220   4.456   3.164   3.755
    1C        C  221   4.438   3.099   3.879
    1C        C  222   4.505   3.301   3.997
    1C        C  223   4.468   3.164   4.001
    1C        C  224   4.513   3.372   4.118
    1C        C  225   4.501   3.305   4.242
    1C        C  226   4.517   3.520   4.361
    1C        C  227   4.516   3.379   4.361
    1C        C  228   4.515   3.594   4.481
    1C        C  229   4.535   3.526   4.603
    1C        C  230   4.505   3.738   4.721
    1C        C  231   4.540   3.600   4.723
    1C        C  232   4.492   3.815   4.838
    1C        C  233   4.547   3.753   4.952
    1C        C  234   4.013   2.607   2.057
    1C        C  235   3.899   2.528   2.063
    1C        C  236   4.081   2.643   2.174
    1C        C  237   4.021   2.602   2.295
    1C        C  238   4.194   2.728   2.416
    1C        C  239   4.081   2.641   2.417
    1C        C  240   4.246   2.783   2.536
    1C        C  241   4.190   2.740   2.658
    1C        C  242   4.331   2.903   2.780
    1C        C  243   4.243   2.792   2.778
    1C        C  244   4.375   2.956   2.903
    1C        C  245   4.331   2.899   3.024
    1C        C  246   4.429   3.089   3.142
    1C        C  247   4.371   2.960   3.145
    1C        C  248   4.450   3.157   3.265
    1C        C  249   4.429   3.096   3.390
    1C        C  250   4.496   3.296   3.510
    1C        C  251   4.457   3.160   3.513
    1C        C  252   4.507   3.368   3.631
    1C        C  253   4.500   3.298   3.753
    1C        C  254   4.517   3.511   3.875
    1C        C  255   4.519   3.369   3.874
    1C        C  256   4.513   3.584   3.996
    1C        C  257   4.520   3.513   4.118
    1C        C  258   4.489   3.728   4.236
    1C        C  259   4.514   3.589   4.237
    1C        C  260   4.469   3.798   4.357
    1C        C  261   4.485   3.732   4.480
    1C        C  262   4.430   3.938   4.598
    1C        C  263   4.479   3.806   4.600
    1C        C  264   4.403   4.009   4.717
    1C        C  265   4.431   3.942   4.838
    1C        C  266   4.314   4.125   4.950
    1C        C  267   4.382   4.003   4.954
    1C        C  268   4.261   2.766   2.057
    1C        C  269   4.194   2.727   2.174
    1C        C  270   4.340   2.883   2.292
    1C        C  271   4.249   2.774   2.295
    1C        C  272   4.374   2.950   2.412
    1C        C  273   4.335   2.892   2.535
    1C        C  274   4.439   3.080   2.657
    1C        C  275   4.370   2.957   2.655
    1C        C  276   4.468   3.147   2.778
    1C        C  277   4.445   3.079   2.899
    1C        C  278   4.497   3.287   3.020
    1C        C  279   4.465   3.149   3.020
    1C        C  280   4.506   3.358   3.142
    1C        C  281   4.492   3.292   3.265
    1C        C  282   4.515   3.504   3.385
    1C        C  283   4.506   3.363   3.387
    1C        C  284   4.512   3.576   3.506
    1C        C  285   4.515   3.509   3.630
    1C        C  286   4.493   3.720   3.749
    1C        C  287   4.514   3.580   3.753
    1C        C  288   4.475   3.792   3.869
    1C        C  289   4.493   3.724   3.992
    1C        C  290   4.427   3.928   4.112
    1C        C  291   4.474   3.795   4.112
    1C        C  292   4.396   3.996   4.232
    1C        C  293   4.422   3.932   4.355
    1C        C  294   4.323   4.122   4.472
    1C        C  295   4.394   4.000   4.476
    1C        C  296   4.283   4.184   4.593
    1C        C  297   4.328   4.130   4.715
    1C        C  298   4.192   4.306   4.832
    1C        C  299   4.278   4.192   4.833
    1C        C  300   4.162   4.399   4.937
    1C        C  301   4.344   2.877   2.057
    1C        C  302   4.468   3.061   2.175
    1C        C  303   4.393   2.940   2.172
    1C        C  304   4.479   3.137   2.294
    1C        C  305   4.445   3.071   2.415
    1C        C  306   4.507   3.279   2.533
    1C        C  307   4.470   3.143   2.534
    1C        C  308   4.515   3.352   2.654
    1C        C  309   4.500   3.285   2.777
    1C        C  310   4.519   3.498   2.897
    1C        C  311   4.511   3.357   2.898
    1C        C  312   4.516   3.571   3.018
    1C        C  313   4.516   3.499   3.140
    1C        C  314   4.487   3.711   3.261
    1C        C  315   4.512   3.572   3.261
    1C        C  316   4.468   3.782   3.381
    1C        C  317   4.488   3.715   3.504
    1C        C  318   4.423   3.918   3.621
    1C        C  319   4.474   3.786   3.626
    1C        C  320   4.392   3.984   3.743
    1C        C  321   4.419   3.921   3.867
    1C        C  322   4.311   4.103   3.986
    1C        C  323   4.393   3.988   3.989
    1C        C  324   4.271   4.163   4.107
    1C        C  325   4.322   4.116   4.230
    1C        C  326   4.177   4.275   4.349
    1C        C  327   4.278   4.176   4.350
    1C        C  328   4.130   4.332   4.469
    1C        C  329   4.190   4.290   4.590
    1C        C  330   4.016   4.424   4.708
    1C        C  331   4.133   4.344   4.708
    1C        C  332   3.961   4.483   4.825
    1C        C  333   4.046   4.476   4.937
    1C        C  334   4.544   3.265   2.057
    1C        C  335   4.530   3.125   2.062
    1C        C  336   4.532   3.345   2.171
    1C        C  337   4.508   3.277   2.293
    1C        C  338   4.520   3.492   2.406
    1C        C  339   4.517   3.351   2.412
    1C        C  340   4.518   3.563   2.528
    1C        C  341   4.520   3.493   2.651
    1C        C  342   4.496   3.704   2.769
    1C        C  343   4.517   3.565   2.773
    1C        C  344   4.477   3.776   2.890
    1C        C  345   4.490   3.710   3.014
    1C        C  346   4.413   3.906   3.134
    1C        C  347   4.467   3.776   3.137
    1C        C  348   4.383   3.975   3.254
    1C        C  349   4.420   3.915   3.376
    1C        C  350   4.314   4.098   3.497
    1C        C  351   4.393   3.981   3.498
    1C        C  352   4.267   4.154   3.618
    1C        C  353   4.313   4.101   3.740
    1C        C  354   4.167   4.256   3.863
    1C        C  355   4.266   4.155   3.862
    1C        C  356   4.116   4.307   3.984
    1C        C  357   4.170   4.262   4.106
    1C        C  358   4.001   4.393   4.226
    1C        C  359   4.120   4.317   4.226
    1C        C  360   3.943   4.438   4.347
    1C        C  361   4.011   4.408   4.467
    1C        C  362   3.823   4.512   4.586
    1C        C  363   3.951   4.453   4.587
    1C        C  364   3.757   4.544   4.707
    1C        C  365   3.831   4.536   4.827
    1C        C  366   3.623   4.583   4.948
    1C        C  367   3.761   4.571   4.944
    1C        C  368   4.504   3.561   2.048
    1C        C  369   4.520   3.485   2.165
    1C        C  370   4.498   3.703   2.281
    1C        C  371   4.514   3.562   2.283
    1C        C  372   4.483   3.772   2.403
    1C        C  373   4.500   3.703   2.525
    1C        C  374   4.420   3.901   2.644
    1C        C  375   4.476   3.771   2.646
    1C        C  376   4.386   3.965   2.766
    1C        C  377   4.422   3.906   2.889
    1C        C  378   4.314   4.089   3.008
    1C        C  379   4.389   3.970   3.010
    1C        C  380   4.266   4.146   3.128
    1C        C  381   4.309   4.095   3.252
    1C        C  382   4.164   4.247   3.376
    1C        C  383   4.266   4.150   3.375
    1C        C  384   4.113   4.298   3.497
    1C        C  385   4.167   4.254   3.620
    1C        C  386   3.998   4.385   3.740
    1C        C  387   4.113   4.303   3.741
    1C        C  388   3.937   4.425   3.860
    1C        C  389   3.999   4.387   3.981
    1C        C  390   3.810   4.481   4.104
    1C        C  391   3.938   4.422   4.103
    1C        C  392   3.745   4.514   4.225
    1C        C  393   3.816   4.499   4.347
    1C        C  394   3.610   4.555   4.471
    1C        C  395   3.748   4.527   4.467
    1C        C  396   3.539   4.568   4.593
    1C        C  397   3.617   4.564   4.711
    1C        C  398   3.405   4.551   4.836
    1C        C  399   3.545   4.571   4.832
    1C        C  400   3.338   4.516   4.954
    1C        C  401   4.495   3.699   2.046
    1C        C  402   4.453   3.914   2.163
    1C        C  403   4.491   3.778   2.162
    1C        C  404   4.407   3.973   2.283
    1C        C  405   4.432   3.904   2.403
    1C        C  406   4.321   4.089   2.521
    1C        C  407   4.396   3.969   2.523
    1C        C  408   4.273   4.143   2.642
    1C        C  409   4.312   4.085   2.765
    1C        C  410   4.167   4.243   2.885
    1C        C  411   4.268   4.144   2.886
    1C        C  412   4.110   4.287   3.007
    1C        C  413   4.164   4.244   3.130
    1C        C  414   3.995   4.371   3.249
    1C        C  415   4.111   4.291   3.252
    1C        C  416   3.932   4.405   3.371
    1C        C  417   3.994   4.375   3.494
    1C        C  418   3.805   4.467   3.616
    1C        C  419   3.935   4.411   3.616
    1C        C  420   3.739   4.500   3.737
    1C        C  421   3.807   4.481   3.859
    1C        C  422   3.604   4.536   3.982
    1C        C  423   3.742   4.505   3.982
    1C        C  424   3.536   4.546   4.106
    1C        C  425   3.607   4.543   4.228
    1C        C  426   3.396   4.559   4.352
    1C        C  427   3.537   4.559   4.350
    1C        C  428   3.325   4.553   4.474
    1C        C  429   3.398   4.566   4.594
    1C        C  430   3.193   4.511   4.720
    1C        C  431   3.330   4.547   4.716
    1C        C  432   3.124   4.484   4.841
    1C        C  433   3.201   4.489   4.957
    1C        C  434   4.382   4.120   2.046
    1C        C  435   4.449   3.997   2.050
    1C        C  436   4.299   4.156   2.157
    1C        C  437   4.328   4.091   2.280
    1C        C  438   4.174   4.244   2.401
    1C        C  439   4.273   4.144   2.399
    1C        C  440   4.119   4.292   2.522
    1C        C  441   4.170   4.240   2.644
    1C        C  442   3.999   4.371   2.762
    1C        C  443   4.118   4.294   2.763
    1C        C  444   3.934   4.404   2.883
    1C        C  445   3.992   4.365   3.006
    1C        C  446   3.807   4.472   3.125
    1C        C  447   3.933   4.408   3.127
    1C        C  448   3.740   4.489   3.248
    1C        C  449   3.804   4.464   3.371
    1C        C  450   3.602   4.529   3.491
    1C        C  451   3.738   4.491   3.493
    1C        C  452   3.535   4.543   3.614
    1C        C  453   3.604   4.538   3.737
    1C        C  454   3.394   4.549   3.860
    1C        C  455   3.536   4.554   3.860
    1C        C  456   3.326   4.539   3.983
    1C        C  457   3.395   4.545   4.107
    1C        C  458   3.189   4.505   4.234
    1C        C  459   3.327   4.538   4.230
    1C        C  460   3.120   4.488   4.356
    1C        C  461   3.189   4.515   4.476
    1C        C  462   2.994   4.434   4.599
    1C        C  463   3.122   4.494   4.599
    1C        C  464   2.929   4.396   4.718
    1C        C  465   2.987   4.440   4.841
    1C        C  466   2.795   4.338   4.952
    1C        C  467   2.900   4.431   4.954
    1C        C  468   4.117   4.275   2.039
    1C        C  469   4.183   4.240   2.158
    1C        C  470   4.001   4.363   2.276
    1C        C  471   4.122   4.288   2.277
    1C        C  472   3.935   4.399   2.396
    1C        C  473   4.001   4.368   2.517
    1C        C  474   3.809   4.461   2.637
    1C        C  475   3.936   4.399   2.639
    1C        C  476   3.741   4.490   2.758
    1C        C  477   3.806   4.464   2.880
    1C        C  478   3.601   4.520   3.004
    1C        C  479   3.739   4.489   3.002
    1C        C  480   3.531   4.531   3.126
    1C        C  481   3.602   4.520   3.248
    1C        C  482   3.390   4.540   3.371
    1C        C  483   3.531   4.538   3.369
    1C        C  484   3.321   4.535   3.494
    1C        C  485   3.394   4.542   3.615
    1C        C  486   3.186   4.508   3.743
    1C        C  487   3.324   4.537   3.738
    1C        C  488   3.120   4.483   3.865
    1C        C  489   3.189   4.503   3.987
    1C        C  490   3.001   4.414   4.110
    1C        C  491   3.124   4.483   4.110
    1C        C  492   2.939   4.382   4.233
    1C        C  493   2.992   4.428   4.356
    1C        C  494   2.825   4.299   4.477
    1C        C  495   2.934   4.389   4.479
    1C        C  496   2.768   4.254   4.598
    1C        C  497   2.815   4.311   4.718
    1C        C  498   2.663   4.161   4.840
    1C        C  499   2.750   4.272   4.837
    1C        C  500   2.595   4.111   4.952
    1C        C  501   3.999   4.348   2.038
    1C        C  502   3.813   4.460   2.153
    1C        C  503   3.940   4.399   2.154
    1C        C  504   3.736   4.474   2.271
    1C        C  505   3.804   4.451   2.393
    1C        C  506   3.601   4.507   2.516
    1C        C  507   3.739   4.478   2.516
    1C        C  508   3.529   4.516   2.638
    1C        C  509   3.602   4.515   2.759
    1C        C  510   3.391   4.524   2.881
    1C        C  511   3.532   4.525   2.881
    1C        C  512   3.320   4.523   3.003
    1C        C  513   3.390   4.531   3.125
    1C        C  514   3.184   4.492   3.251
    1C        C  515   3.321   4.527   3.248
    1C        C  516   3.118   4.471   3.374
    1C        C  517   3.185   4.498   3.496
    1C        C  518   2.998   4.409   3.622
    1C        C  519   3.121   4.478   3.621
    1C        C  520   2.939   4.371   3.745
    1C        C  521   2.999   4.410   3.866
    1C        C  522   2.837   4.276   3.994
    1C        C  523   2.943   4.369   3.990
    1C        C  524   2.789   4.225   4.116
    1C        C  525   2.834   4.287   4.235
    1C        C  526   2.697   4.127   4.363
    1C        C  527   2.780   4.241   4.357
    1C        C  528   2.654   4.070   4.485
    1C        C  529   2.684   4.140   4.603
    1C        C  530   2.578   3.955   4.729
    1C        C  531   2.635   4.085   4.724
    1C        C  532   2.533   3.896   4.850
    1C        C  533   2.527   3.989   4.959
    1C        C  534   3.612   4.553   2.035
    1C        C  535   3.746   4.512   2.042
    1C        C  536   3.530   4.530   2.150
    1C        C  537   3.597   4.504   2.273
    1C        C  538   3.388   4.515   2.394
    1C        C  539   3.529   4.518   2.395
    1C        C  540   3.318   4.506   2.517
    1C        C  541   3.388   4.514   2.640
    1C        C  542   3.178   4.489   2.762
    1C        C  543   3.316   4.517   2.761
    1C        C  544   3.113   4.466   2.886
    1C        C  545   3.182   4.491   3.007
    1C        C  546   2.994   4.396   3.133
    1C        C  547   3.117   4.465   3.129
    1C        C  548   2.938   4.356   3.256
    1C        C  549   2.998   4.397   3.377
    1C        C  550   2.830   4.275   3.503
    1C        C  551   2.940   4.363   3.502
    1C        C  552   2.781   4.227   3.627
    1C        C  553   2.831   4.280   3.748
    1C        C  554   2.702   4.115   3.874
    1C        C  555   2.786   4.228   3.871
    1C        C  556   2.658   4.059   3.996
    1C        C  557   2.698   4.116   4.119
    1C        C  558   2.600   3.934   4.242
    1C        C  559   2.658   4.063   4.243
    1C        C  560   2.571   3.872   4.365
    1C        C  561   2.595   3.941   4.486
    1C        C  562   2.531   3.743   4.612
    1C        C  563   2.568   3.880   4.610
    1C        C  564   2.511   3.676   4.735
    1C        C  565   2.516   3.754   4.854
    1C        C  566   2.520   3.539   4.973
    1C        C  567   2.529   3.678   4.971
    1C        C  568   3.323   4.465   2.035
    1C        C  569   3.390   4.509   2.150
    1C        C  570   3.180   4.474   2.276
    1C        C  571   3.317   4.514   2.272
    1C        C  572   3.113   4.454   2.398
    1C        C  573   3.180   4.479   2.520
    1C        C  574   2.983   4.398   2.643
    1C        C  575   3.110   4.460   2.642
    1C        C  576   2.930   4.355   2.766
    1C        C  577   2.993   4.392   2.887
    1C        C  578   2.824   4.268   3.013
    1C        C  579   2.934   4.357   3.011
    1C        C  580   2.777   4.217   3.136
    1C        C  581   2.830   4.265   3.258
    1C        C  582   2.697   4.106   3.382
    1C        C  583   2.781   4.220   3.383
    1C        C  584   2.659   4.051   3.506
    1C        C  585   2.696   4.114   3.627
    1C        C  586   2.603   3.927   3.751
    1C        C  587   2.666   4.053   3.752
    1C        C  588   2.572   3.865   3.874
    1C        C  589   2.600   3.930   3.997
    1C        C  590   2.537   3.731   4.124
    1C        C  591   2.574   3.867   4.121
    1C        C  592   2.522   3.666   4.248
    1C        C  593   2.530   3.736   4.370
    1C        C  594   2.502   3.528   4.493
    1C        C  595   2.515   3.669   4.494
    1C        C  596   2.507   3.459   4.616
    1C        C  597   2.511   3.534   4.736
    1C        C  598   2.539   3.321   4.859
    1C        C  599   2.521   3.461   4.857
    1C        C  600   2.531   3.242   4.975
    1C        C  601   3.188   4.437   2.038
    1C        C  602   2.980   4.386   2.155
    1C        C  603   3.111   4.442   2.156
    1C        C  604   2.923   4.350   2.281
    1C        C  605   2.985   4.393   2.400
    1C        C  606   2.815   4.267   2.527
    1C        C  607   2.921   4.361   2.522
    1C        C  608   2.766   4.214   2.649
    1C        C  609   2.823   4.262   2.769
    1C        C  610   2.688   4.102   2.891
    1C        C  611   2.773   4.215   2.892
    1C        C  612   2.649   4.048   3.016
    1C        C  613   2.690   4.106   3.138
    1C        C  614   2.587   3.922   3.262
    1C        C  615   2.656   4.046   3.261
    1C        C  616   2.566   3.859   3.387
    1C        C  617   2.599   3.923   3.508
    1C        C  618   2.527   3.724   3.636
    1C        C  619   2.575   3.857   3.631
    1C        C  620   2.515   3.657   3.759
    1C        C  621   2.531   3.730   3.879
    1C        C  622   2.506   3.521   4.005
    1C        C  623   2.517   3.662   4.002
    1C        C  624   2.503   3.452   4.128
    1C        C  625   2.502   3.526   4.249
    1C        C  626   2.526   3.317   4.376
    1C        C  627   2.507   3.457   4.372
    1C        C  628   2.543   3.247   4.497
    1C        C  629   2.529   3.319   4.618
    1C        C  630   2.584   3.110   4.739
    1C        C  631   2.546   3.247   4.738
    1C        C  632   2.610   3.041   4.860
    1C        C  633   2.560   3.105   4.978
    1C        C  634   2.778   4.296   2.052
    1C        C  635   2.889   4.381   2.044
    1C        C  636   2.745   4.223   2.167
    1C        C  637   2.808   4.267   2.285
    1C        C  638   2.676   4.104   2.407
    1C        C  639   2.758   4.218   2.408
    1C        C  640   2.635   4.044   2.528
    1C        C  641   2.677   4.105   2.648
    1C        C  642   2.581   3.917   2.774
    1C        C  643   2.641   4.045   2.771
    1C        C  644   2.560   3.852   2.897
    1C        C  645   2.590   3.920   3.018
    1C        C  646   2.521   3.720   3.145
    1C        C  647   2.563   3.855   3.140
    1C        C  648   2.506   3.654   3.269
    1C        C  649   2.524   3.724   3.390
    1C        C  650   2.501   3.516   3.515
    1C        C  651   2.508   3.657   3.513
    1C        C  652   2.505   3.445   3.637
    1C        C  653   2.504   3.516   3.760
    1C        C  654   2.529   3.309   3.885
    1C        C  655   2.505   3.449   3.884
    1C        C  656   2.542   3.243   4.009
    1C        C  657   2.522   3.312   4.131
    1C        C  658   2.601   3.117   4.253
    1C        C  659   2.544   3.247   4.254
    1C        C  660   2.630   3.053   4.376
    1C        C  661   2.598   3.117   4.498
    1C        C  662   2.697   2.928   4.620
    1C        C  663   2.623   3.048   4.619
    1C        C  664   2.745   2.871   4.740
    1C        C  665   2.688   2.921   4.860
    1C        C  666   2.739   2.864   4.978
    1C        C  667   2.679   4.017   2.054
    1C        C  668   2.678   4.099   2.167
    1C        C  669   2.580   3.908   2.289
    1C        C  670   2.635   4.040   2.288
    1C        C  671   2.553   3.843   2.411
    1C        C  672   2.579   3.914   2.530
    1C        C  673   2.512   3.714   2.658
    1C        C  674   2.554   3.849   2.653
    1C        C  675   2.504   3.643   2.780
    1C        C  676   2.526   3.715   2.900
    1C        C  677   2.503   3.508   3.027
    1C        C  678   2.511   3.649   3.024
    1C        C  679   2.503   3.439   3.151
    1C        C  680   2.498   3.513   3.272
    1C        C  681   2.522   3.303   3.397
    1C        C  682   2.501   3.442   3.394
    1C        C  683   2.537   3.234   3.520
    1C        C  684   2.522   3.305   3.642
    1C        C  685   2.600   3.108   3.767
    1C        C  686   2.546   3.239   3.764
    1C        C  687   2.633   3.048   3.890
    1C        C  688   2.597   3.112   4.011
    1C        C  689   2.708   2.932   4.136
    1C        C  690   2.631   3.050   4.133
    1C        C  691   2.748   2.874   4.259
    1C        C  692   2.709   2.937   4.379
    1C        C  693   2.744   2.871   4.499
    1C        C  694   2.629   3.886   2.053
    1C        C  695   2.521   3.702   2.174
    1C        C  696   2.573   3.833   2.170
    1C        C  697   2.511   3.630   2.295
    1C        C  698   2.518   3.706   2.414
    1C        C  699   2.487   3.500   2.539
    1C        C  700   2.498   3.641   2.538
    1C        C  701   2.493   3.429   2.661
    1C        C  702   2.496   3.502   2.782
    1C        C  703   2.520   3.296   2.908
    1C        C  704   2.497   3.435   2.906
    1C        C  705   2.536   3.227   3.031
    1C        C  706   2.525   3.300   3.151
    1C        C  707   2.594   3.103   3.275
    1C        C  708   2.542   3.234   3.275
    1C        C  709   2.631   3.043   3.398
    1C        C  710   2.597   3.106   3.519
    1C        C  711   2.708   2.929   3.646
    1C        C  712   2.631   3.048   3.643
    1C        C  713   2.750   2.873   3.768
    1C        C  714   2.709   2.929   3.891
    1C        C  715   2.755   2.878   4.014
    1C        C  716   2.453   3.495   2.056
    1C        C  717   2.483   3.632   2.058
    1C        C  718   2.466   3.417   2.175
    1C        C  719   2.475   3.493   2.295
    1C        C  720   2.514   3.287   2.421
    1C        C  721   2.487   3.426   2.419
    1C        C  722   2.534   3.219   2.544
    1C        C  723   2.517   3.290   2.664
    1C        C  724   2.590   3.093   2.789
    1C        C  725   2.534   3.223   2.788
    1C        C  726   2.619   3.028   2.911
    1C        C  727   2.586   3.095   3.031
    1C        C  728   2.705   2.920   3.154
    1C        C  729   2.626   3.038   3.153
    1C        C  730   2.752   2.870   3.278
    1C        C  731   2.715   2.929   3.400
    1C        C  732   2.753   2.873   3.524
    1C        C  733   2.489   3.192   2.068
    1C        C  734   2.487   3.275   2.181
    1C        C  735   2.579   3.081   2.300
    1C        C  736   2.529   3.214   2.302
    1C        C  737   2.607   3.019   2.424
    1C        C  738   2.585   3.087   2.545
    1C        C  739   2.700   2.911   2.665
    1C        C  740   2.621   3.027   2.668
    1C        C  741   2.742   2.852   2.787
    1C        C  742   2.696   2.910   2.907
    1C        C  743   2.746   2.865   3.031
    1C        C  744   2.534   3.061   2.071
    1C        C  745   2.680   2.890   2.184
    1C        C  746   2.602   3.007   2.182
    1C        C  747   2.728   2.836   2.305
    1C        C  748   2.683   2.900   2.423
    1C        C  749   2.739   2.851   2.543
    1C        C  750   2.731   2.836   2.065
    1C        C  751   3.659   2.308   1.978
    1C        O  752   3.704   2.199   2.023
    1C        O  753   3.591   2.281   1.859
    1C        C  754   4.598   3.076   1.941
    1C        O  755   4.543   3.079   1.827
    1C        O  756   4.702   2.982   1.945
    1C        C  757   4.430   4.220   1.947
    1C        O  758   4.504   4.318   1.973
    1C        O  759   4.405   4.206   1.810
    1C        C  760   3.593   4.666   1.941
    1C        O  761   3.678   4.753   1.909
    1C        O  762   3.525   4.633   1.823
    1C        C  763   2.894   4.465   1.922
    1C        O  764   2.879   4.416   1.807
    1C        O  765   2.845   4.596   1.921
    1C        C  766   2.354   3.455   1.954
    1C        O  767   2.404   3.424   1.842
    1C        O  768   2.215   3.469   1.966
    1C        C  769   4.700   3.598   5.047
    1C        O  770   4.694   3.586   5.172
    1C        O  771   4.826   3.642   5.005
    1C        C  772   4.276   4.444   5.020
    1C        O  773   4.278   4.421   5.144
    1C        O  774   4.368   4.541   4.980
    1C        C  775   4.131   2.533   5.080
    1C        O  776   4.201   2.429   5.062
    1C        O  777   4.131   2.586   5.209
    1C        C  778   2.870   4.560   5.019
    1C        O  779   2.810   4.653   4.958
    1C        O  780   2.918   4.590   5.147
    1C        C  781   2.466   3.032   5.065
    1C        O  782   2.348   3.016   5.023
    1C        O  783   2.481   3.029   5.203
    1C        C  784   2.408   3.998   5.046
    1C        O  785   2.292   3.978   5.000
    1C        O  786   2.405   3.978   5.185
    1C        C  787   2.949   2.393   2.029
    1C        O  788   2.894   2.406   1.917
    1C        O  789   2.905   2.289   2.111
    1C        C  790   3.170   2.369   5.058
    1C        O  791   3.122   2.260   5.016
    1C        O  792   3.213   2.372   5.191
    1C        H  793   4.312   2.998   5.065
    1C        H  794   4.174   2.804   5.066
    1C        H  795   4.522   3.126   5.045
    1C        H  796   4.517   3.372   5.060
    1C        H  797   4.547   3.810   5.042
    1C        H  798   4.375   3.946   5.044
    1C        H  799   4.321   4.182   5.040
    1C        H  800   4.012   4.512   5.032
    1C        H  801   3.815   4.597   5.033
    1C        H  802   3.576   4.629   5.033
    1C        H  803   3.390   4.491   5.044
    1C        H  804   3.163   4.446   5.047
    1C        H  805   3.898   2.450   5.045
    1C        H  806   3.674   2.489   5.072
    1C        H  807   3.043   2.604   5.070
    1C        H  808   3.444   2.415   5.061
    1C        H  809   2.869   2.734   5.077
    1C        H  810   2.681   2.863   5.068
    1C        H  811   2.477   3.283   5.057
    1C        H  812   2.497   3.500   5.070
    1C        H  813   2.532   3.727   5.066
    1C        H  814   2.578   4.179   5.033
    1C        H  815   2.731   4.340   5.037
    1C        H  816   2.747   2.911   1.990
    1C        H  817   2.882   2.722   1.982
    1C        H  818   3.199   2.411   1.988
    1C        H  819   3.428   2.429   1.971
    1C        H  820   3.891   2.451   1.989
    1C        H  821   4.013   2.683   1.981
    1C        H  822   4.244   2.713   1.965
    1C        H  823   4.325   2.946   1.976
    1C        H  824   4.594   3.307   1.972
    1C        H  825   4.474   3.512   1.958
    1C        H  826   4.548   3.751   1.969
    1C        H  827   3.803   4.516   1.951
    1C        H  828   3.962   4.376   1.941
    1C        H  829   4.163   4.261   1.943
    1C        H  830   4.533   3.984   1.985
    1C        H  831   2.593   3.854   1.957
    1C        H  832   2.735   4.046   1.967
    1C        H  833   2.712   4.290   1.967
    1C        H  834   3.360   4.494   1.939
    1C        H  835   3.160   4.368   1.961
    1C        H  836   2.499   2.997   1.993
    1C        H  837   2.456   3.236   1.976
    1C        H  838   2.408   3.689   2.007
    2V3OU   H29  839   2.802   3.546   5.995
    2V3OU   C27  840   2.775   3.499   6.092
    2V3OU   H27  841   2.714   3.569   6.155
    2V3OU   H28  842   2.717   3.404   6.076
    2V3OU   O11  843   2.902   3.476   6.155
    2V3OU   C15  844   2.916   3.391   6.263
    2V3OU   C13  845   3.049   3.367   6.302
    2V3OU   C14  846   3.069   3.263   6.394
    2V3OU   C16  847   2.966   3.180   6.437
    2V3OU    H6  848   2.989   3.103   6.513
    2V3OU   C12  849   3.207   3.227   6.431
    2V3OU    O2  850   3.232   3.125   6.499
    2V3OU   C10  851   3.322   3.305   6.382
    2V3OU    C8  852   3.453   3.267   6.405
    2V3OU   O10  853   3.485   3.151   6.470
    2V3OU   H26  854   3.399   3.119   6.502
    2V3OU    C6  855   3.557   3.344   6.344
    2V3OU    C5  856   3.535   3.460   6.271
    2V3OU    C4  857   3.695   3.289   6.335
    2V3OU    H4  858   3.720   3.220   6.421
    2V3OU    H5  859   3.705   3.227   6.241
    2V3OU    C2  860   3.810   3.389   6.345
    2V3OU    O6  861   3.803   3.468   6.464
    2V3OU   H21  862   3.763   3.551   6.434
    2V3OU    C3  863   3.780   3.487   6.231
    2V3OU    H2  864   3.862   3.563   6.223
    2V3OU    H3  865   3.780   3.430   6.135
    2V3OU   C25  866   3.949   3.326   6.325
    2V3OU    O7  867   3.995   3.292   6.217
    2V3OU   C26  868   4.024   3.284   6.450
    2V3OU   H22  869   4.057   3.380   6.498
    2V3OU   H23  870   4.111   3.219   6.422
    2V3OU    O8  871   3.959   3.205   6.548
    2V3OU   H24  872   3.917   3.261   6.616
    2V3OU    C1  873   3.646   3.557   6.244
    2V3OU    H1  874   3.623   3.616   6.150
    2V3OU    O3  875   3.654   3.648   6.354
    2V3OU   C19  876   3.615   3.785   6.343
    2V3OU    H9  877   3.515   3.791   6.292
    2V3OU    O4  878   3.712   3.840   6.256
    2V3OU   C20  879   3.841   3.870   6.310
    2V3OU   H10  880   3.891   3.769   6.321
    2V3OU   C24  881   3.605   3.853   6.480
    2V3OU   H16  882   3.543   3.786   6.545
    2V3OU   H17  883   3.550   3.948   6.462
    2V3OU   C23  884   3.747   3.867   6.536
    2V3OU   H15  885   3.789   3.762   6.551
    2V3OU    N1  886   3.728   3.944   6.657
    2V3OU   H19  887   3.805   3.930   6.720
    2V3OU   H20  888   3.638   3.929   6.698
    2V3OU   C21  889   3.845   3.945   6.443
    2V3OU   H11  890   3.948   3.925   6.486
    2V3OU    O5  891   3.828   4.085   6.432
    2V3OU   H18  892   3.775   4.103   6.511
    2V3OU   C22  893   3.911   3.948   6.200
    2V3OU   H12  894   3.863   4.048   6.184
    2V3OU   H13  895   3.895   3.889   6.106
    2V3OU   H14  896   4.021   3.953   6.219
    2V3OU   C11  897   3.156   3.465   6.279
    2V3OU    O1  898   3.127   3.580   6.239
    2V3OU    C9  899   3.295   3.423   6.308
    2V3OU    C7  900   3.398   3.499   6.254
    2V3OU    O9  901   3.378   3.611   6.176
    2V3OU   H25  902   3.282   3.623   6.178
    2V3OU   C17  903   2.815   3.306   6.312
    2V3OU    H7  904   2.710   3.333   6.297
    2V3OU   C18  905   2.834   3.199   6.399
    2V3OU    H8  906   2.754   3.136   6.441
    3SOL     OW  907   3.522   2.871   4.197
    3SOL    HW1  908   3.504   2.789   4.143
    3SOL    HW2  909   3.437   2.922   4.211
    4SOL     OW  910   0.341   6.339   0.818
    4SOL    HW1  911   0.315   6.415   0.758
    4SOL    HW2  912   0.263   6.276   0.827
    5SOL     OW  913   4.038   2.404   0.893
    5SOL    HW1  914   4.076   2.312   0.907
    5SOL    HW2  915   3.938   2.398   0.890
    6SOL     OW  916   3.779   1.652   2.512
    6SOL    HW1  917   3.733   1.631   2.599
    6SOL    HW2  918   3.732   1.727   2.466
    7SOL     OW  919   2.339   2.789   4.637
    7SOL    HW1  920   2.390   2.756   4.557
    7SOL    HW2  921   2.281   2.866   4.610
    8SOL     OW  922   1.092   2.348   5.681
    8SOL    HW1  923   1.180   2.367   5.725
    8SOL    HW2  924   1.089   2.252   5.655
    9SOL     OW  925   1.389   2.310   6.498
    9SOL    HW1  926   1.320   2.331   6.566
    9SOL    HW2  927   1.397   2.211   6.488
   10SOL     OW  928   5.303   5.021   1.475
   10SOL    HW1  929   5.232   5.031   1.544
   10SOL    HW2  930   5.389   5.059   1.509
   11SOL     OW  931   2.788   2.025   0.487
   11SOL    HW1  932   2.772   1.938   0.535
   11SOL    HW2  933   2.710   2.045   0.428
   12SOL     OW  934   4.939   5.478   1.830
   12SOL    HW1  935   5.019   5.471   1.770
   12SOL    HW2  936   4.897   5.387   1.841
   13SOL     OW  937   5.530   5.935   2.323
   13SOL    HW1  938   5.469   6.005   2.360
   13SOL    HW2  939   5.619   5.976   2.302
   14SOL     OW  940   4.123   6.402   0.438
   14SOL    HW1  941   4.027   6.420   0.416
   14SOL    HW2  942   4.165   6.351   0.363
   15SOL     OW  943   0.578   6.210   6.614
   15SOL    HW1  944   0.580   6.147   6.691
   15SOL    HW2  945   0.648   6.280   6.627
   16SOL     OW  946   2.016   5.562   4.645
   16SOL    HW1  947   2.077   5.537   4.570
   16SOL    HW2  948   1.982   5.655   4.631
   17SOL     OW  949   6.923   1.635   3.859
   17SOL    HW1  950   7.011   1.592   3.875
   17SOL    HW2  951   6.907   1.706   3.928
   18SOL     OW  952   3.049   1.179   5.317
   18SOL    HW1  953   3.081   1.231   5.395
   18SOL    HW2  954   2.970   1.224   5.276
   19SOL     OW  955   2.834   6.158   3.153
   19SOL    HW1  956   2.820   6.172   3.055
   19SOL    HW2  957   2.754   6.111   3.191
   20SOL     OW  958   0.056   1.751   5.514
   20SOL    HW1  959   0.071   1.750   5.415
   20SOL    HW2  960   0.143   1.763   5.561
   21SOL     OW  961   1.864   3.818   1.888
   21SOL    HW1  962   1.842   3.907   1.848
   21SOL    HW2  963   1.958   3.819   1.922
   22SOL     OW  964   0.588   1.067   0.078
   22SOL    HW1  965   0.682   1.034   0.068
   22SOL    HW2  966   0.562   1.067   0.174
   23SOL     OW  967   6.741   5.258   0.125
   23SOL    HW1  968   6.764   5.235   0.031
   23SOL    HW2  969   6.791   5.198   0.187
   24SOL     OW  970   5.184   1.339   6.718
   24SOL    HW1  971   5.085   1.331   6.718
   24SOL    HW2  972   5.224   1.261   6.670
   25SOL     OW  973   1.257   0.984   4.588
   25SOL    HW1  974   1.274   0.923   4.665
   25SOL    HW2  975   1.178   0.951   4.536
   26SOL     OW  976   2.002   0.356   6.499
   26SOL    HW1  977   1.910   0.367   6.463
   26SOL    HW2  978   2.006   0.390   6.593
   27SOL     OW  979   0.148   0.080   2.224
   27SOL    HW1  980   0.149   0.148   2.297
   27SOL    HW2  981   0.054   0.063   2.195
   28SOL     OW  982   1.850   1.140   5.737
   28SOL    HW1  983   1.933   1.092   5.766
   28SOL    HW2  984   1.832   1.118   5.641
   29SOL     OW  985   5.558   1.041   1.439
   29SOL    HW1  986   5.573   0.945   1.414
   29SOL    HW2  987   5.490   1.045   1.513
   30SOL     OW  988   5.022   0.358   5.184
   30SOL    HW1  989   5.059   0.308   5.106
   30SOL    HW2  990   4.961   0.431   5.152
   31SOL     OW  991   6.351   4.582   4.324
   31SOL    HW1  992   6.335   4.597   4.421
   31SOL    HW2  993   6.265   4.556   4.279
   32SOL     OW  994   3.081   1.179   0.909
   32SOL    HW1  995   3.142   1.238   0.963
   32SOL    HW2  996   2.989   1.216   0.911
   33SOL     OW  997   1.898   5.177   5.496
   33SOL    HW1  998   1.980   5.155   5.549
   33SOL    HW2  999   1.818   5.134   5.538
   34SOL     OW 1000   1.955   6.274   5.623
   34SOL    HW1 1001   1.992   6.319   5.541
   34SOL    HW2 1002   1.916   6.343   5.684
   35SOL     OW 1003   1.300   3.206   4.368
   35SOL    HW1 1004   1.288   3.107   4.367
   35SOL    HW2 1005   1.364   3.232   4.440
   36SOL     OW 1006   5.870   1.406   3.766
   36SOL    HW1 1007   5.829   1.497   3.766
   36SOL    HW2 1008   5.945   1.402   3.832
   37SOL     OW 1009   1.471   6.401   4.373
   37SOL    HW1 1010   1.506   6.495   4.377
   37SOL    HW2 1011   1.531   6.346   4.315
   38SOL     OW 1012   0.844   3.454   1.367
   38SOL    HW1 1013   0.837   3.422   1.462
   38SOL    HW2 1014   0.756   3.442   1.322
   39SOL     OW 1015   6.292   4.927   1.137
   39SOL    HW1 1016   6.378   4.876   1.145
   39SOL    HW2 1017   6.277   4.952   1.041
   40SOL     OW 1018   3.715   0.897   6.753
   40SOL    HW1 1019   3.657   0.937   6.682
   40SOL    HW2 1020   3.810   0.893   6.720
   41SOL     OW 1021   5.351   4.278   1.799
   41SOL    HW1 1022   5.445   4.262   1.767
   41SOL    HW2 1023   5.296   4.196   1.783
   42SOL     OW 1024   2.866   4.018   6.639
   42SOL    HW1 1025   2.865   3.982   6.732
   42SOL    HW2 1026   2.928   3.963   6.583
   43SOL     OW 1027   5.049   6.900   4.838
   43SOL    HW1 1028   5.132   6.862   4.798
   43SOL    HW2 1029   4.990   6.826   4.870
   44SOL     OW 1030   6.442   0.577   6.328
   44SOL    HW1 1031   6.438   0.536   6.419
   44SOL    HW2 1032   6.349   0.588   6.293
   45SOL     OW 1033   2.904   4.303   5.894
   45SOL    HW1 1034   2.952   4.276   5.810
   45SOL    HW2 1035   2.807   4.281   5.885
   46SOL     OW 1036   0.898   4.717   4.387
   46SOL    HW1 1037   0.832   4.684   4.455
   46SOL    HW2 1038   0.919   4.643   4.323
   47SOL     OW 1039   6.097   4.257   6.913
   47SOL    HW1 1040   6.056   4.167   6.924
   47SOL    HW2 1041   6.024   4.325   6.902
   48SOL     OW 1042   0.331   3.927   0.060
   48SOL    HW1 1043   0.390   3.846   0.056
   48SOL    HW2 1044   0.373   4.000   0.006
   49SOL     OW 1045   3.201   2.482   6.738
   49SOL    HW1 1046   3.288   2.433   6.739
   49SOL    HW2 1047   3.216   2.577   6.713
   50SOL     OW 1048   4.992   2.191   0.160
   50SOL    HW1 1049   5.007   2.289   0.171
   50SOL    HW2 1050   4.948   2.173   0.072
   51SOL     OW 1051   1.160   6.272   2.285
   51SOL    HW1 1052   1.120   6.328   2.357
   51SOL    HW2 1053   1.195   6.187   2.325
   52SOL     OW 1054   5.631   1.758   2.203
   52SOL    HW1 1055   5.552   1.697   2.194
   52SOL    HW2 1056   5.630   1.801   2.293
   53SOL     OW 1057   4.515   0.972   0.828
   53SOL    HW1 1058   4.586   0.920   0.876
   53SOL    HW2 1059   4.524   0.958   0.729
   54SOL     OW 1060   6.391   0.255   6.930
   54SOL    HW1 1061   6.390   0.341   6.879
   54SOL    HW2 1062   6.320   0.257   7.000
   55SOL     OW 1063   1.621   3.766   5.594
   55SOL    HW1 1064   1.589   3.794   5.504
   55SOL    HW2 1065   1.705   3.712   5.585
   56SOL     OW 1066   0.520   2.504   6.701
   56SOL    HW1 1067   0.526   2.405   6.711
   56SOL    HW2 1068   0.608   2.545   6.726
   57SOL     OW 1069   4.041   6.114   1.420
   57SOL    HW1 1070   4.109   6.076   1.483
   57SOL    HW2 1071   3.954   6.125   1.467
   58SOL     OW 1072   1.064   0.827   6.869
   58SOL    HW1 1073   1.053   0.844   6.771
   58SOL    HW2 1074   1.126   0.895   6.907
   59SOL     OW 1075   4.169   3.014   6.860
   59SOL    HW1 1076   4.083   3.053   6.827
   59SOL    HW2 1077   4.217   2.968   6.784
   60SOL     OW 1078   6.789   3.294   2.506
   60SOL    HW1 1079   6.801   3.313   2.408
   60SOL    HW2 1080   6.775   3.381   2.555
   61SOL     OW 1081   1.675   5.714   3.066
   61SOL    HW1 1082   1.657   5.635   3.125
   61SOL    HW2 1083   1.640   5.695   2.974
   62SOL     OW 1084   5.264   2.814   3.121
   62SOL    HW1 1085   5.285   2.804   3.023
   62SOL    HW2 1086   5.300   2.736   3.171
   63SOL     OW 1087   3.914   0.255   6.441
   63SOL    HW1 1088   3.997   0.300   6.474
   63SOL    HW2 1089   3.934   0.158   6.425
   64SOL     OW 1090   1.611   2.396   6.657
   64SOL    HW1 1091   1.538   2.368   6.595
   64SOL    HW2 1092   1.697   2.400   6.608
   65SOL     OW 1093   0.985   5.057   5.555
   65SOL    HW1 1094   0.926   5.131   5.524
   65SOL    HW2 1095   1.079   5.074   5.525
   66SOL     OW 1096   4.656   1.271   1.343
   66SOL    HW1 1097   4.619   1.317   1.262
   66SOL    HW2 1098   4.750   1.241   1.323
   67SOL     OW 1099   0.314   3.612   1.086
   67SOL    HW1 1100   0.301   3.516   1.111
   67SOL    HW2 1101   0.302   3.669   1.167
   68SOL     OW 1102   0.444   0.849   6.173
   68SOL    HW1 1103   0.441   0.783   6.249
   68SOL    HW2 1104   0.493   0.809   6.096
   69SOL     OW 1105   1.515   6.993   6.499
   69SOL    HW1 1106   1.520   7.011   6.597
   69SOL    HW2 1107   1.543   0.060   6.448
   70SOL     OW 1108   4.917   4.743   3.186
   70SOL    HW1 1109   5.000   4.788   3.152
   70SOL    HW2 1110   4.907   4.653   3.144
   71SOL     OW 1111   4.483   2.121   5.324
   71SOL    HW1 1112   4.478   2.023   5.304
   71SOL    HW2 1113   4.555   2.163   5.268
   72SOL     OW 1114   6.989   1.112   2.244
   72SOL    HW1 1115   0.065   1.096   2.208
   72SOL    HW2 1116   6.978   1.209   2.267
   73SOL     OW 1117   2.736   0.670   1.289
   73SOL    HW1 1118   2.739   0.770   1.283
   73SOL    HW2 1119   2.735   0.632   1.197
   74SOL     OW 1120   2.285   1.101   0.050
   74SOL    HW1 1121   2.216   1.103   6.993
   74SOL    HW2 1122   2.360   1.040   0.023
   75SOL     OW 1123   2.733   2.824   1.353
   75SOL    HW1 1124   2.830   2.852   1.353
   75SOL    HW2 1125   2.679   2.894   1.399
   76SOL     OW 1126   3.796   5.294   6.335
   76SOL    HW1 1127   3.790   5.279   6.237
   76SOL    HW2 1128   3.776   5.390   6.356
   77SOL     OW 1129   6.930   5.246   4.448
   77SOL    HW1 1130   6.999   5.306   4.490
   77SOL    HW2 1131   6.927   5.159   4.496
   78SOL     OW 1132   5.468   1.381   1.168
   78SOL    HW1 1133   5.525   1.301   1.184
   78SOL    HW2 1134   5.478   1.410   1.072
   79SOL     OW 1135   1.313   4.420   4.376
   79SOL    HW1 1136   1.342   4.509   4.412
   79SOL    HW2 1137   1.221   4.429   4.337
   80SOL     OW 1138   3.868   2.047   5.418
   80SOL    HW1 1139   3.791   2.010   5.365
   80SOL    HW2 1140   3.871   2.146   5.408
   81SOL     OW 1141   3.363   4.992   2.915
   81SOL    HW1 1142   3.420   5.018   2.993
   81SOL    HW2 1143   3.422   4.965   2.839
   82SOL     OW 1144   3.418   0.306   1.905
   82SOL    HW1 1145   3.453   0.381   1.962
   82SOL    HW2 1146   3.387   0.342   1.817
   83SOL     OW 1147   5.403   1.362   3.858
   83SOL    HW1 1148   5.348   1.333   3.780
   83SOL    HW2 1149   5.349   1.355   3.942
   84SOL     OW 1150   5.696   2.564   2.862
   84SOL    HW1 1151   5.700   2.655   2.821
   84SOL    HW2 1152   5.636   2.506   2.808
   85SOL     OW 1153   2.586   5.522   3.474
   85SOL    HW1 1154   2.518   5.586   3.439
   85SOL    HW2 1155   2.625   5.558   3.558
   86SOL     OW 1156   4.936   0.960   0.533
   86SOL    HW1 1157   4.922   0.973   0.632
   86SOL    HW2 1158   5.033   0.941   0.516
   87SOL     OW 1159   3.050   3.075   6.827
   87SOL    HW1 1160   3.041   3.170   6.797
   87SOL    HW2 1161   3.147   3.053   6.840
   88SOL     OW 1162   1.615   2.556   1.067
   88SOL    HW1 1163   1.542   2.558   1.135
   88SOL    HW2 1164   1.680   2.630   1.086
   89SOL     OW 1165   3.312   4.128   4.906
   89SOL    HW1 1166   3.216   4.148   4.886
   89SOL    HW2 1167   3.331   4.032   4.887
   90SOL     OW 1168   6.707   4.046   2.095
   90SOL    HW1 1169   6.772   4.026   2.168
   90SOL    HW2 1170   6.750   4.032   2.006
   91SOL     OW 1171   4.618   5.956   0.791
   91SOL    HW1 1172   4.621   5.877   0.853
   91SOL    HW2 1173   4.573   6.032   0.835
   92SOL     OW 1174   5.560   5.487   0.273
   92SOL    HW1 1175   5.556   5.388   0.287
   92SOL    HW2 1176   5.620   5.528   0.342
   93SOL     OW 1177   3.073   3.781   1.982
   93SOL    HW1 1178   3.090   3.700   2.037
   93SOL    HW2 1179   3.055   3.859   2.042
   94SOL     OW 1180   2.724   1.570   4.379
   94SOL    HW1 1181   2.672   1.573   4.293
   94SOL    HW2 1182   2.820   1.592   4.360
   95SOL     OW 1183   0.942   6.209   3.853
   95SOL    HW1 1184   0.857   6.159   3.868
   95SOL    HW2 1185   0.924   6.293   3.801
   96SOL     OW 1186   0.031   5.993   0.144
   96SOL    HW1 1187   6.975   6.033   0.202
   96SOL    HW2 1188   7.003   5.945   0.067
   97SOL     OW 1189   3.875   4.693   5.255
   97SOL    HW1 1190   3.852   4.609   5.304
   97SOL    HW2 1191   3.797   4.755   5.254
   98SOL     OW 1192   0.997   3.177   4.494
   98SOL    HW1 1193   1.094   3.199   4.506
   98SOL    HW2 1194   0.986   3.078   4.483
   99SOL     OW 1195   4.353   4.793   4.869
   99SOL    HW1 1196   4.314   4.713   4.914
   99SOL    HW2 1197   4.286   4.831   4.805
  100SOL     OW 1198   1.603   1.032   5.408
  100SOL    HW1 1199   1.702   1.032   5.426
  100SOL    HW2 1200   1.570   0.938   5.407
  101SOL     OW 1201   5.383   3.290   2.677
  101SOL    HW1 1202   5.403   3.265   2.772
  101SOL    HW2 1203   5.434   3.230   2.616
  102SOL     OW 1204   3.635   0.057   0.064
  102SOL    HW1 1205   3.552   0.060   0.008
  102SOL    HW2 1206   3.683   0.144   0.059
  103SOL     OW 1207   1.570   1.977   1.419
  103SOL    HW1 1208   1.636   2.007   1.350
  103SOL    HW2 1209   1.572   2.041   1.496
  104SOL     OW 1210   0.268   4.856   1.299
  104SOL    HW1 1211   0.221   4.822   1.217
  104SOL    HW2 1212   0.294   4.779   1.357
  105SOL     OW 1213   6.877   1.317   5.061
  105SOL    HW1 1214   6.843   1.234   5.016
  105SOL    HW2 1215   6.854   1.397   5.004
  106SOL     OW 1216   4.442   3.318   1.750
  106SOL    HW1 1217   4.492   3.373   1.683
  106SOL    HW2 1218   4.500   3.242   1.780
  107SOL     OW 1219   4.221   6.777   2.382
  107SOL    HW1 1220   4.250   6.682   2.368
  107SOL    HW2 1221   4.286   6.839   2.340
  108SOL     OW 1222   3.608   1.356   4.998
  108SOL    HW1 1223   3.620   1.341   4.900
  108SOL    HW2 1224   3.524   1.312   5.029
  109SOL     OW 1225   2.072   1.590   5.156
  109SOL    HW1 1226   1.984   1.597   5.202
  109SOL    HW2 1227   2.137   1.541   5.214
  110SOL     OW 1228   4.294   4.614   5.634
  110SOL    HW1 1229   4.361   4.580   5.569
  110SOL    HW2 1230   4.328   4.599   5.727
  111SOL     OW 1231   5.790   3.089   1.327
  111SOL    HW1 1232   5.721   3.143   1.277
  111SOL    HW2 1233   5.873   3.083   1.272
  112SOL     OW 1234   4.763   6.819   4.999
  112SOL    HW1 1235   4.776   6.911   4.962
  112SOL    HW2 1236   4.781   6.820   5.097
  113SOL     OW 1237   0.803   5.102   2.058
  113SOL    HW1 1238   0.810   5.004   2.037
  113SOL    HW2 1239   0.881   5.150   2.018
  114SOL     OW 1240   6.744   1.774   2.318
  114SOL    HW1 1241   6.795   1.755   2.234
  114SOL    HW2 1242   6.797   1.836   2.377
  115SOL     OW 1243   4.320   1.082   3.033
  115SOL    HW1 1244   4.282   1.174   3.033
  115SOL    HW2 1245   4.345   1.056   2.939
  116SOL     OW 1246   6.105   5.686   0.848
  116SOL    HW1 1247   6.038   5.614   0.866
  116SOL    HW2 1248   6.059   5.774   0.840
  117SOL     OW 1249   2.499   1.756   0.370
  117SOL    HW1 1250   2.442   1.823   0.416
  117SOL    HW2 1251   2.561   1.714   0.436
  118SOL     OW 1252   0.021   2.221   2.034
  118SOL    HW1 1253   0.040   2.316   2.008
  118SOL    HW2 1254   0.072   2.159   1.973
  119SOL     OW 1255   5.903   6.055   5.054
  119SOL    HW1 1256   5.926   6.150   5.074
  119SOL    HW2 1257   5.871   6.010   5.137
  120SOL     OW 1258   4.489   1.445   4.715
  120SOL    HW1 1259   4.409   1.435   4.774
  120SOL    HW2 1260   4.468   1.408   4.624
  121SOL     OW 1261   6.789   5.745   5.790
  121SOL    HW1 1262   6.789   5.649   5.761
  121SOL    HW2 1263   6.823   5.751   5.884
  122SOL     OW 1264   6.932   4.917   5.868
  122SOL    HW1 1265   6.879   4.891   5.788
  122SOL    HW2 1266   6.920   4.848   5.939
  123SOL     OW 1267   1.031   2.765   0.925
  123SOL    HW1 1268   0.934   2.750   0.911
  123SOL    HW2 1269   1.084   2.697   0.874
  124SOL     OW 1270   2.391   3.799   6.671
  124SOL    HW1 1271   2.483   3.828   6.645
  124SOL    HW2 1272   2.361   3.725   6.611
  125SOL     OW 1273   4.652   2.373   0.360
  125SOL    HW1 1274   4.624   2.454   0.411
  125SOL    HW2 1275   4.725   2.326   0.410
  126SOL     OW 1276   3.788   3.493   4.908
  126SOL    HW1 1277   3.833   3.421   4.856
  126SOL    HW2 1278   3.740   3.452   4.986
  127SOL     OW 1279   0.041   5.245   6.135
  127SOL    HW1 1280   7.007   5.238   6.048
  127SOL    HW2 1281   7.002   5.202   6.207
  128SOL     OW 1282   4.516   4.215   6.029
  128SOL    HW1 1283   4.420   4.191   6.019
  128SOL    HW2 1284   4.570   4.164   5.961
  129SOL     OW 1285   0.592   4.388   1.240
  129SOL    HW1 1286   0.638   4.461   1.189
  129SOL    HW2 1287   0.660   4.336   1.291
  130SOL     OW 1288   5.951   3.699   4.815
  130SOL    HW1 1289   5.984   3.655   4.898
  130SOL    HW2 1290   5.911   3.788   4.838
  131SOL     OW 1291   1.016   3.885   2.553
  131SOL    HW1 1292   0.926   3.910   2.517
  131SOL    HW2 1293   1.087   3.919   2.492
  132SOL     OW 1294   4.068   2.416   1.399
  132SOL    HW1 1295   4.043   2.466   1.482
  132SOL    HW2 1296   4.167   2.405   1.394
  133SOL     OW 1297   4.277   4.558   6.206
  133SOL    HW1 1298   4.372   4.530   6.196
  133SOL    HW2 1299   4.217   4.483   6.180
  134SOL     OW 1300   6.403   2.030   6.745
  134SOL    HW1 1301   6.332   1.993   6.686
  134SOL    HW2 1302   6.439   1.957   6.803
  135SOL     OW 1303   4.503   4.502   3.642
  135SOL    HW1 1304   4.526   4.483   3.737
  135SOL    HW2 1305   4.459   4.591   3.635
  136SOL     OW 1306   3.851   6.657   6.102
  136SOL    HW1 1307   3.792   6.629   6.177
  136SOL    HW2 1308   3.880   6.576   6.050
  137SOL     OW 1309   1.869   4.579   6.941
  137SOL    HW1 1310   1.923   4.542   0.001
  137SOL    HW2 1311   1.885   4.525   6.859
  138SOL     OW 1312   0.987   5.975   0.397
  138SOL    HW1 1313   0.900   5.965   0.350
  138SOL    HW2 1314   1.041   6.047   0.354
  139SOL     OW 1315   0.537   1.055   0.934
  139SOL    HW1 1316   0.507   1.118   0.862
  139SOL    HW2 1317   0.637   1.049   0.934
  140SOL     OW 1318   3.945   0.282   1.920
  140SOL    HW1 1319   3.933   0.348   1.994
  140SOL    HW2 1320   4.041   0.256   1.913
  141SOL     OW 1321   1.140   1.584   6.885
  141SOL    HW1 1322   1.149   1.684   6.883
  141SOL    HW2 1323   1.060   1.558   6.938
  142SOL     OW 1324   2.241   3.941   6.880
  142SOL    HW1 1325   2.268   3.892   6.797
  142SOL    HW2 1326   2.246   4.039   6.865
  143SOL     OW 1327   5.240   5.828   1.931
  143SOL    HW1 1328   5.336   5.848   1.949
  143SOL    HW2 1329   5.209   5.754   1.990
  144SOL     OW 1330   3.292   5.345   3.120
  144SOL    HW1 1331   3.227   5.269   3.130
  144SOL    HW2 1332   3.352   5.327   3.043
  145SOL     OW 1333   0.120   5.747   3.373
  145SOL    HW1 1334   0.176   5.674   3.413
  145SOL    HW2 1335   0.157   5.836   3.398
  146SOL     OW 1336   0.385   0.882   5.761
  146SOL    HW1 1337   0.447   0.863   5.838
  146SOL    HW2 1338   0.415   0.832   5.681
  147SOL     OW 1339   5.659   0.863   4.847
  147SOL    HW1 1340   5.736   0.924   4.868
  147SOL    HW2 1341   5.631   0.815   4.930
  148SOL     OW 1342   2.043   6.636   1.869
  148SOL    HW1 1343   2.086   6.677   1.949
  148SOL    HW2 1344   1.944   6.632   1.882
  149SOL     OW 1345   1.761   2.727   4.923
  149SOL    HW1 1346   1.789   2.675   4.842
  149SOL    HW2 1347   1.716   2.811   4.895
  150SOL     OW 1348   5.080   3.139   5.517
  150SOL    HW1 1349   5.138   3.077   5.464
  150SOL    HW2 1350   5.014   3.086   5.570
  151SOL     OW 1351   6.313   2.822   1.639
  151SOL    HW1 1352   6.218   2.789   1.641
  151SOL    HW2 1353   6.337   2.851   1.547
  152SOL     OW 1354   0.061   2.896   0.187
  152SOL    HW1 1355   6.998   2.924   0.131
  152SOL    HW2 1356   0.133   2.965   0.181
  153SOL     OW 1357   1.698   1.904   3.845
  153SOL    HW1 1358   1.734   1.903   3.938
  153SOL    HW2 1359   1.754   1.844   3.788
  154SOL     OW 1360   0.263   1.280   4.077
  154SOL    HW1 1361   0.248   1.360   4.018
  154SOL    HW2 1362   0.296   1.310   4.166
  155SOL     OW 1363   5.480   4.445   3.430
  155SOL    HW1 1364   5.457   4.352   3.401
  155SOL    HW2 1365   5.536   4.441   3.513
  156SOL     OW 1366   4.455   0.433   1.432
  156SOL    HW1 1367   4.396   0.352   1.425
  156SOL    HW2 1368   4.534   0.411   1.489
  157SOL     OW 1369   5.246   6.884   1.284
  157SOL    HW1 1370   5.240   6.849   1.190
  157SOL    HW2 1371   5.213   6.814   1.347
  158SOL     OW 1372   0.949   3.347   4.185
  158SOL    HW1 1373   0.922   3.356   4.089
  158SOL    HW2 1374   0.888   3.283   4.231
  159SOL     OW 1375   6.809   5.152   6.870
  159SOL    HW1 1376   6.821   5.182   6.775
  159SOL    HW2 1377   6.889   5.100   6.899
  160SOL     OW 1378   4.201   0.466   0.973
  160SOL    HW1 1379   4.135   0.439   0.903
  160SOL    HW2 1380   4.261   0.388   0.994
  161SOL     OW 1381   0.084   0.365   0.439
  161SOL    HW1 1382   0.048   0.400   0.525
  161SOL    HW2 1383   0.181   0.343   0.449
  162SOL     OW 1384   4.309   0.013   5.418
  162SOL    HW1 1385   4.307   0.004   5.319
  162SOL    HW2 1386   4.401   7.011   5.452
  163SOL     OW 1387   0.861   3.622   2.516
  163SOL    HW1 1388   0.943   3.678   2.529
  163SOL    HW2 1389   0.792   3.649   2.583
  164SOL     OW 1390   1.949   1.953   2.592
  164SOL    HW1 1391   2.021   1.927   2.656
  164SOL    HW2 1392   1.889   2.021   2.636
  165SOL     OW 1393   0.069   6.332   4.095
  165SOL    HW1 1394   6.999   6.292   4.129
  165SOL    HW2 1395   0.070   6.328   3.995
  166SOL     OW 1396   0.613   4.514   3.461
  166SOL    HW1 1397   0.594   4.514   3.559
  166SOL    HW2 1398   0.711   4.505   3.446
  167SOL     OW 1399   1.027   1.059   2.906
  167SOL    HW1 1400   1.097   1.099   2.966
  167SOL    HW2 1401   0.955   1.019   2.962
  168SOL     OW 1402   3.228   3.470   3.428
  168SOL    HW1 1403   3.155   3.525   3.467
  168SOL    HW2 1404   3.298   3.530   3.389
  169SOL     OW 1405   5.345   2.577   6.916
  169SOL    HW1 1406   5.303   2.490   6.891
  169SOL    HW2 1407   5.303   2.651   6.863
  170SOL     OW 1408   6.947   5.024   2.115
  170SOL    HW1 1409   6.888   4.946   2.095
  170SOL    HW2 1410   6.977   5.066   2.030
  171SOL     OW 1411   3.071   2.234   0.792
  171SOL    HW1 1412   2.993   2.197   0.843
  171SOL    HW2 1413   3.135   2.160   0.771
  172SOL     OW 1414   1.482   1.267   0.117
  172SOL    HW1 1415   1.571   1.278   0.072
  172SOL    HW2 1416   1.440   1.182   0.086
  173SOL     OW 1417   5.822   0.483   5.206
  173SOL    HW1 1418   5.901   0.450   5.257
  173SOL    HW2 1419   5.781   0.562   5.253
  174SOL     OW 1420   6.371   3.806   5.299
  174SOL    HW1 1421   6.467   3.820   5.272
  174SOL    HW2 1422   6.357   3.709   5.320
  175SOL     OW 1423   0.762   6.070   2.983
  175SOL    HW1 1424   0.667   6.098   2.973
  175SOL    HW2 1425   0.821   6.132   2.930
  176SOL     OW 1426   6.556   3.924   0.800
  176SOL    HW1 1427   6.460   3.952   0.799
  176SOL    HW2 1428   6.613   4.002   0.774
  177SOL     OW 1429   6.440   2.546   3.575
  177SOL    HW1 1430   6.522   2.556   3.520
  177SOL    HW2 1431   6.418   2.634   3.618
  178SOL     OW 1432   1.739   5.698   5.084
  178SOL    HW1 1433   1.798   5.657   5.015
  178SOL    HW2 1434   1.795   5.737   5.157
  179SOL     OW 1435   3.531   4.144   2.161
  179SOL    HW1 1436   3.541   4.215   2.230
  179SOL    HW2 1437   3.547   4.055   2.202
  180SOL     OW 1438   5.041   1.386   6.429
  180SOL    HW1 1439   4.990   1.330   6.363
  180SOL    HW2 1440   4.983   1.461   6.460
  181SOL     OW 1441   3.642   0.250   5.680
  181SOL    HW1 1442   3.598   0.277   5.594
  181SOL    HW2 1443   3.581   0.189   5.731
  182SOL     OW 1444   3.044   3.117   5.540
  182SOL    HW1 1445   3.015   3.138   5.633
  182SOL    HW2 1446   3.044   3.201   5.485
  183SOL     OW 1447   3.271   1.409   3.567
  183SOL    HW1 1448   3.255   1.487   3.506
  183SOL    HW2 1449   3.200   1.341   3.553
  184SOL     OW 1450   4.482   5.885   3.251
  184SOL    HW1 1451   4.537   5.940   3.189
  184SOL    HW2 1452   4.542   5.824   3.303
  185SOL     OW 1453   0.272   6.733   4.934
  185SOL    HW1 1454   0.355   6.719   4.989
  185SOL    HW2 1455   0.232   6.644   4.911
  186SOL     OW 1456   2.547   5.997   5.908
  186SOL    HW1 1457   2.600   5.987   5.992
  186SOL    HW2 1458   2.455   5.959   5.922
  187SOL     OW 1459   3.686   5.438   0.872
  187SOL    HW1 1460   3.650   5.510   0.814
  187SOL    HW2 1461   3.778   5.463   0.903
  188SOL     OW 1462   1.628   3.793   3.679
  188SOL    HW1 1463   1.695   3.866   3.666
  188SOL    HW2 1464   1.662   3.709   3.636
  189SOL     OW 1465   5.540   4.817   5.960
  189SOL    HW1 1466   5.487   4.901   5.952
  189SOL    HW2 1467   5.478   4.739   5.969
  190SOL     OW 1468   5.828   6.668   0.740
  190SOL    HW1 1469   5.786   6.757   0.759
  190SOL    HW2 1470   5.906   6.679   0.679
  191SOL     OW 1471   2.319   2.927   5.728
  191SOL    HW1 1472   2.412   2.907   5.697
  191SOL    HW2 1473   2.276   2.991   5.665
  192SOL     OW 1474   7.006   6.619   1.363
  192SOL    HW1 1475   0.085   6.596   1.386
  192SOL    HW2 1476   6.972   6.686   1.428
  193SOL     OW 1477   3.277   0.359   1.410
  193SOL    HW1 1478   3.254   0.437   1.352
  193SOL    HW2 1479   3.281   0.276   1.354
  194SOL     OW 1480   3.936   5.972   2.953
  194SOL    HW1 1481   3.916   6.068   2.972
  194SOL    HW2 1482   4.009   5.941   3.012
  195SOL     OW 1483   2.872   0.976   0.875
  195SOL    HW1 1484   2.847   0.998   0.781
  195SOL    HW2 1485   2.962   1.014   0.896
  196SOL     OW 1486   4.315   2.490   1.503
  196SOL    HW1 1487   4.306   2.439   1.588
  196SOL    HW2 1488   4.391   2.453   1.449
  197SOL     OW 1489   1.450   6.197   0.948
  197SOL    HW1 1490   1.448   6.184   0.849
  197SOL    HW2 1491   1.437   6.108   0.993
  198SOL     OW 1492   5.477   6.564   6.416
  198SOL    HW1 1493   5.384   6.595   6.433
  198SOL    HW2 1494   5.490   6.546   6.319
  199SOL     OW 1495   2.086   0.691   3.094
  199SOL    HW1 1496   2.077   0.709   2.996
  199SOL    HW2 1497   2.117   0.597   3.108
  200SOL     OW 1498   1.440   3.572   4.187
  200SOL    HW1 1499   1.445   3.636   4.110
  200SOL    HW2 1500   1.351   3.527   4.187
  201SOL     OW 1501   4.758   1.491   7.008
  201SOL    HW1 1502   4.796   1.428   6.941
  201SOL    HW2 1503   4.660   1.501   6.992
  202SOL     OW 1504   4.413   0.131   3.293
  202SOL    HW1 1505   4.409   0.160   3.388
  202SOL    HW2 1506   4.404   0.211   3.233
  203SOL     OW 1507   5.834   2.585   0.136
  203SOL    HW1 1508   5.874   2.512   0.191
  203SOL    HW2 1509   5.736   2.568   0.124
  204SOL     OW 1510   1.924   6.079   1.194
  204SOL    HW1 1511   1.855   6.110   1.129
  204SOL    HW2 1512   1.904   5.986   1.222
  205SOL     OW 1513   4.970   0.703   1.416
  205SOL    HW1 1514   4.963   0.725   1.513
  205SOL    HW2 1515   4.980   0.787   1.363
  206SOL     OW 1516   6.893   6.345   1.239
  206SOL    HW1 1517   6.861   6.429   1.283
  206SOL    HW2 1518   6.939   6.288   1.307
  207SOL     OW 1519   6.336   2.011   5.607
  207SOL    HW1 1520   6.314   1.984   5.513
  207SOL    HW2 1521   6.416   1.961   5.638
  208SOL     OW 1522   4.069   4.252   6.928
  208SOL    HW1 1523   4.109   4.187   6.863
  208SOL    HW2 1524   4.058   4.341   6.884
  209SOL     OW 1525   0.057   6.058   4.001
  209SOL    HW1 1526   0.104   6.007   3.929
  209SOL    HW2 1527   0.120   6.077   4.075
  210SOL     OW 1528   4.239   1.968   0.936
  210SOL    HW1 1529   4.263   2.020   0.854
  210SOL    HW2 1530   4.150   1.924   0.923
  211SOL     OW 1531   1.140   3.024   1.849
  211SOL    HW1 1532   1.216   2.968   1.816
  211SOL    HW2 1533   1.055   2.973   1.842
  212SOL     OW 1534   1.077   5.376   5.319
  212SOL    HW1 1535   0.988   5.349   5.355
  212SOL    HW2 1536   1.128   5.426   5.389
  213SOL     OW 1537   3.771   2.374   0.860
  213SOL    HW1 1538   3.719   2.363   0.945
  213SOL    HW2 1539   3.722   2.437   0.799
  214SOL     OW 1540   1.554   6.153   3.578
  214SOL    HW1 1541   1.493   6.162   3.656
  214SOL    HW2 1542   1.500   6.140   3.495
  215SOL     OW 1543   3.086   3.969   3.105
  215SOL    HW1 1544   3.014   4.029   3.071
  215SOL    HW2 1545   3.137   3.930   3.028
  216SOL     OW 1546   3.156   0.752   5.558
  216SOL    HW1 1547   3.174   0.839   5.512
  216SOL    HW2 1548   3.057   0.737   5.561
  217SOL     OW 1549   0.009   2.181   5.125
  217SOL    HW1 1550   6.937   2.133   5.115
  217SOL    HW2 1551   0.074   2.123   5.174
  218SOL     OW 1552   2.637   4.028   5.539
  218SOL    HW1 1553   2.595   3.944   5.506
  218SOL    HW2 1554   2.625   4.101   5.471
  219SOL     OW 1555   2.687   5.381   6.720
  219SOL    HW1 1556   2.724   5.467   6.687
  219SOL    HW2 1557   2.693   5.378   6.820
  220SOL     OW 1558   1.379   4.956   0.269
  220SOL    HW1 1559   1.330   4.891   0.211
  220SOL    HW2 1560   1.333   4.963   0.358
  221SOL     OW 1561   5.781   2.549   4.733
  221SOL    HW1 1562   5.747   2.476   4.674
  221SOL    HW2 1563   5.706   2.611   4.756
  222SOL     OW 1564   2.065   6.759   4.334
  222SOL    HW1 1565   2.130   6.827   4.300
  222SOL    HW2 1566   2.065   6.759   4.434
  223SOL     OW 1567   5.412   4.582   2.559
  223SOL    HW1 1568   5.468   4.657   2.524
  223SOL    HW2 1569   5.391   4.519   2.485
  224SOL     OW 1570   4.903   2.463   2.446
  224SOL    HW1 1571   4.852   2.537   2.489
  224SOL    HW2 1572   4.894   2.470   2.347
  225SOL     OW 1573   4.930   6.339   1.158
  225SOL    HW1 1574   4.979   6.426   1.165
  225SOL    HW2 1575   4.948   6.284   1.239
  226SOL     OW 1576   0.533   6.006   2.362
  226SOL    HW1 1577   0.445   6.051   2.378
  226SOL    HW2 1578   0.538   5.977   2.267
  227SOL     OW 1579   1.397   3.619   3.421
  227SOL    HW1 1580   1.364   3.628   3.327
  227SOL    HW2 1581   1.460   3.542   3.427
  228SOL     OW 1582   3.987   6.664   2.807
  228SOL    HW1 1583   3.922   6.687   2.735
  228SOL    HW2 1584   4.060   6.607   2.770
  229SOL     OW 1585   6.483   5.458   3.141
  229SOL    HW1 1586   6.384   5.450   3.124
  229SOL    HW2 1587   6.516   5.375   3.185
  230SOL     OW 1588   0.728   4.593   6.202
  230SOL    HW1 1589   0.675   4.595   6.287
  230SOL    HW2 1590   0.749   4.499   6.177
  231SOL     OW 1591   0.421   2.331   6.397
  231SOL    HW1 1592   0.388   2.346   6.491
  231SOL    HW2 1593   0.513   2.292   6.400
  232SOL     OW 1594   1.079   4.203   6.095
  232SOL    HW1 1595   1.071   4.266   6.019
  232SOL    HW2 1596   1.125   4.247   6.172
  233SOL     OW 1597   3.348   0.261   6.720
  233SOL    HW1 1598   3.367   0.336   6.658
  233SOL    HW2 1599   3.267   0.211   6.689
  234SOL     OW 1600   1.889   4.821   6.753
  234SOL    HW1 1601   1.901   4.785   6.660
  234SOL    HW2 1602   1.845   4.751   6.810
  235SOL     OW 1603   3.538   3.237   5.893
  235SOL    HW1 1604   3.596   3.158   5.873
  235SOL    HW2 1605   3.446   3.206   5.918
  236SOL     OW 1606   0.277   1.743   5.930
  236SOL    HW1 1607   0.344   1.670   5.944
  236SOL    HW2 1608   0.273   1.766   5.833
  237SOL     OW 1609   6.747   6.570   2.018
  237SOL    HW1 1610   6.844   6.546   2.023
  237SOL    HW2 1611   6.704   6.521   1.942
  238SOL     OW 1612   6.973   1.834   2.499
  238SOL    HW1 1613   0.011   1.910   2.537
  238SOL    HW2 1614   6.962   1.763   2.568
  239SOL     OW 1615   6.396   5.067   0.533
  239SOL    HW1 1616   6.436   5.156   0.510
  239SOL    HW2 1617   6.349   5.030   0.453
  240SOL     OW 1618   0.037   2.454   5.069
  240SOL    HW1 1619   0.136   2.467   5.072
  240SOL    HW2 1620   0.013   2.371   5.120
  241SOL     OW 1621   5.412   1.984   4.945
  241SOL    HW1 1622   5.369   2.050   4.885
  241SOL    HW2 1623   5.511   1.996   4.943
  242SOL     OW 1624   2.791   2.199   4.110
  242SOL    HW1 1625   2.856   2.123   4.101
  242SOL    HW2 1626   2.788   2.250   4.025
  243SOL     OW 1627   5.020   1.093   6.796
  243SOL    HW1 1628   4.966   1.010   6.788
  243SOL    HW2 1629   5.090   1.094   6.724
  244SOL     OW 1630   0.520   1.954   5.698
  244SOL    HW1 1631   0.578   2.027   5.662
  244SOL    HW2 1632   0.576   1.875   5.719
  245SOL     OW 1633   4.569   2.623   3.476
  245SOL    HW1 1634   4.605   2.684   3.546
  245SOL    HW2 1635   4.494   2.568   3.514
  246SOL     OW 1636   5.032   3.099   3.960
  246SOL    HW1 1637   4.984   3.185   3.976
  246SOL    HW2 1638   5.001   3.030   4.025
  247SOL     OW 1639   3.099   0.473   2.902
  247SOL    HW1 1640   3.163   0.411   2.856
  247SOL    HW2 1641   3.085   0.444   2.996
  248SOL     OW 1642   0.212   2.339   2.394
  248SOL    HW1 1643   0.272   2.362   2.471
  248SOL    HW2 1644   0.128   2.393   2.400
  249SOL     OW 1645   2.009   5.519   5.232
  249SOL    HW1 1646   1.963   5.450   5.287
  249SOL    HW2 1647   1.977   5.610   5.257
  250SOL     OW 1648   5.295   2.554   0.211
  250SOL    HW1 1649   5.299   2.623   0.140
  250SOL    HW2 1650   5.298   2.598   0.301
  251SOL     OW 1651   1.883   1.178   1.107
  251SOL    HW1 1652   1.906   1.206   1.014
  251SOL    HW2 1653   1.930   1.093   1.129
  252SOL     OW 1654   0.387   2.010   6.820
  252SOL    HW1 1655   0.394   1.978   6.725
  252SOL    HW2 1656   0.441   1.951   6.879
  253SOL     OW 1657   1.831   4.539   6.433
  253SOL    HW1 1658   1.827   4.531   6.334
  253SOL    HW2 1659   1.749   4.497   6.473
  254SOL     OW 1660   4.974   3.810   6.525
  254SOL    HW1 1661   4.958   3.891   6.582
  254SOL    HW2 1662   5.041   3.751   6.569
  255SOL     OW 1663   4.296   2.313   2.130
  255SOL    HW1 1664   4.366   2.245   2.153
  255SOL    HW2 1665   4.206   2.276   2.153
  256SOL     OW 1666   6.450   5.900   1.416
  256SOL    HW1 1667   6.490   5.990   1.402
  256SOL    HW2 1668   6.385   5.904   1.492
  257SOL     OW 1669   2.935   5.665   5.516
  257SOL    HW1 1670   2.923   5.566   5.529
  257SOL    HW2 1671   2.858   5.702   5.464
  258SOL     OW 1672   4.322   5.200   3.895
  258SOL    HW1 1673   4.293   5.114   3.851
  258SOL    HW2 1674   4.312   5.275   3.829
  259SOL     OW 1675   0.686   1.461   2.746
  259SOL    HW1 1676   0.636   1.524   2.806
  259SOL    HW2 1677   0.674   1.490   2.651
  260SOL     OW 1678   6.439   6.878   5.105
  260SOL    HW1 1679   6.378   6.800   5.118
  260SOL    HW2 1680   6.418   6.948   5.173
  261SOL     OW 1681   0.500   0.723   4.071
  261SOL    HW1 1682   0.596   0.703   4.091
  261SOL    HW2 1683   0.468   0.796   4.131
  262SOL     OW 1684   1.216   5.239   1.748
  262SOL    HW1 1685   1.262   5.153   1.766
  262SOL    HW2 1686   1.262   5.286   1.673
  263SOL     OW 1687   0.716   4.447   3.997
  263SOL    HW1 1688   0.754   4.355   3.990
  263SOL    HW2 1689   0.616   4.442   3.994
  264SOL     OW 1690   3.249   4.207   0.384
  264SOL    HW1 1691   3.271   4.305   0.377
  264SOL    HW2 1692   3.262   4.164   0.295
  265SOL     OW 1693   3.944   5.587   3.537
  265SOL    HW1 1694   4.021   5.524   3.545
  265SOL    HW2 1695   3.964   5.658   3.470
  266SOL     OW 1696   4.186   3.625   6.874
  266SOL    HW1 1697   4.142   3.660   6.791
  266SOL    HW2 1698   4.281   3.656   6.876
  267SOL     OW 1699   2.500   2.592   5.782
  267SOL    HW1 1700   2.424   2.541   5.742
  267SOL    HW2 1701   2.480   2.690   5.780
  268SOL     OW 1702   2.223   4.522   3.572
  268SOL    HW1 1703   2.280   4.446   3.605
  268SOL    HW2 1704   2.142   4.530   3.629
  269SOL     OW 1705   2.906   1.989   5.882
  269SOL    HW1 1706   2.881   2.007   5.978
  269SOL    HW2 1707   2.997   2.026   5.864
  270SOL     OW 1708   5.247   6.196   4.859
  270SOL    HW1 1709   5.205   6.216   4.770
  270SOL    HW2 1710   5.292   6.107   4.855
  271SOL     OW 1711   2.048   1.901   0.318
  271SOL    HW1 1712   2.093   1.979   0.274
  271SOL    HW2 1713   1.955   1.926   0.342
  272SOL     OW 1714   4.371   5.467   0.088
  272SOL    HW1 1715   4.466   5.470   0.057
  272SOL    HW2 1716   4.361   5.393   0.155
  273SOL     OW 1717   1.715   6.072   4.000
  273SOL    HW1 1718   1.649   6.047   4.070
  273SOL    HW2 1719   1.686   6.035   3.911
  274SOL     OW 1720   5.976   2.340   2.295
  274SOL    HW1 1721   5.958   2.390   2.380
  274SOL    HW2 1722   6.066   2.365   2.260
  275SOL     OW 1723   6.024   5.607   5.800
  275SOL    HW1 1724   6.117   5.642   5.785
  275SOL    HW2 1725   5.984   5.652   5.880
  276SOL     OW 1726   1.042   6.866   4.062
  276SOL    HW1 1727   1.107   6.922   4.010
  276SOL    HW2 1728   0.965   6.922   4.091
  277SOL     OW 1729   3.747   3.049   5.061
  277SOL    HW1 1730   3.730   3.026   4.965
  277SOL    HW2 1731   3.748   3.149   5.072
  278SOL     OW 1732   5.937   4.541   2.926
  278SOL    HW1 1733   5.885   4.626   2.927
  278SOL    HW2 1734   5.936   4.500   3.016
  279SOL     OW 1735   0.073   4.043   3.654
  279SOL    HW1 1736   7.010   4.089   3.696
  279SOL    HW2 1737   0.131   4.003   3.726
  280SOL     OW 1738   4.140   2.139   3.870
  280SOL    HW1 1739   4.116   2.056   3.819
  280SOL    HW2 1740   4.056   2.192   3.886
  281SOL     OW 1741   5.158   5.521   5.106
  281SOL    HW1 1742   5.150   5.471   5.020
  281SOL    HW2 1743   5.069   5.522   5.152
  282SOL     OW 1744   0.725   2.499   0.151
  282SOL    HW1 1745   0.646   2.438   0.153
  282SOL    HW2 1746   0.807   2.447   0.126
  283SOL     OW 1747   6.024   3.795   3.422
  283SOL    HW1 1748   6.068   3.712   3.456
  283SOL    HW2 1749   5.992   3.850   3.499
  284SOL     OW 1750   5.232   6.395   2.765
  284SOL    HW1 1751   5.145   6.429   2.798
  284SOL    HW2 1752   5.258   6.313   2.817
  285SOL     OW 1753   4.093   6.197   6.283
  285SOL    HW1 1754   4.164   6.189   6.213
  285SOL    HW2 1755   4.064   6.292   6.290
  286SOL     OW 1756   2.574   5.094   5.717
  286SOL    HW1 1757   2.666   5.054   5.723
  286SOL    HW2 1758   2.577   5.173   5.655
  287SOL     OW 1759   3.321   6.003   0.518
  287SOL    HW1 1760   3.246   6.070   0.525
  287SOL    HW2 1761   3.304   5.943   0.440
  288SOL     OW 1762   4.506   1.553   0.010
  288SOL    HW1 1763   4.428   1.530   0.068
  288SOL    HW2 1764   4.562   1.623   0.055
  289SOL     OW 1765   5.321   5.172   4.580
  289SOL    HW1 1766   5.354   5.260   4.614
  289SOL    HW2 1767   5.283   5.183   4.488
  290SOL     OW 1768   3.787   0.558   5.339
  290SOL    HW1 1769   3.713   0.603   5.288
  290SOL    HW2 1770   3.816   0.617   5.415
  291SOL     OW 1771   5.540   0.727   5.078
  291SOL    HW1 1772   5.466   0.795   5.071
  291SOL    HW2 1773   5.505   0.637   5.051
  292SOL     OW 1774   3.542   0.524   3.743
  292SOL    HW1 1775   3.449   0.508   3.775
  292SOL    HW2 1776   3.597   0.562   3.817
  293SOL     OW 1777   5.508   0.496   2.413
  293SOL    HW1 1778   5.562   0.580   2.420
  293SOL    HW2 1779   5.472   0.487   2.320
  294SOL     OW 1780   6.853   1.763   5.893
  294SOL    HW1 1781   6.801   1.710   5.960
  294SOL    HW2 1782   6.880   1.705   5.817
  295SOL     OW 1783   0.492   0.319   4.865
  295SOL    HW1 1784   0.420   0.255   4.892
  295SOL    HW2 1785   0.554   0.335   4.942
  296SOL     OW 1786   0.952   1.651   1.554
  296SOL    HW1 1787   0.904   1.724   1.506
  296SOL    HW2 1788   1.051   1.670   1.554
  297SOL     OW 1789   5.039   3.224   3.505
  297SOL    HW1 1790   5.096   3.300   3.474
  297SOL    HW2 1791   5.017   3.165   3.427
  298SOL     OW 1792   4.450   0.839   5.600
  298SOL    HW1 1793   4.511   0.761   5.609
  298SOL    HW2 1794   4.502   0.918   5.568
  299SOL     OW 1795   0.524   1.289   6.020
  299SOL    HW1 1796   0.573   1.209   6.055
  299SOL    HW2 1797   0.446   1.259   5.965
  300SOL     OW 1798   4.678   6.007   4.204
  300SOL    HW1 1799   4.770   6.012   4.243
  300SOL    HW2 1800   4.681   6.038   4.109
  301SOL     OW 1801   0.193   6.059   5.529
  301SOL    HW1 1802   0.256   6.110   5.587
  301SOL    HW2 1803   0.102   6.101   5.533
  302SOL     OW 1804   6.893   6.810   2.046
  302SOL    HW1 1805   6.943   6.806   1.959
  302SOL    HW2 1806   6.834   6.729   2.053
  303SOL     OW 1807   5.780   5.619   2.359
  303SOL    HW1 1808   5.757   5.707   2.399
  303SOL    HW2 1809   5.714   5.550   2.389
  304SOL     OW 1810   1.995   6.957   3.939
  304SOL    HW1 1811   1.902   6.924   3.956
  304SOL    HW2 1812   1.992   0.017   3.873
  305SOL     OW 1813   1.801   1.974   1.218
  305SOL    HW1 1814   1.865   1.980   1.141
  305SOL    HW2 1815   1.852   1.959   1.302
  306SOL     OW 1816   0.269   0.342   2.063
  306SOL    HW1 1817   0.325   0.424   2.064
  306SOL    HW2 1818   0.288   0.288   2.145
  307SOL     OW 1819   3.560   3.607   4.087
  307SOL    HW1 1820   3.578   3.590   3.991
  307SOL    HW2 1821   3.646   3.614   4.137
  308SOL     OW 1822   6.124   1.389   2.076
  308SOL    HW1 1823   6.061   1.344   2.139
  308SOL    HW2 1824   6.215   1.394   2.118
  309SOL     OW 1825   1.614   4.806   0.312
  309SOL    HW1 1826   1.609   4.706   0.316
  309SOL    HW2 1827   1.534   4.841   0.264
  310SOL     OW 1828   4.780   6.775   5.270
  310SOL    HW1 1829   4.781   6.678   5.295
  310SOL    HW2 1830   4.830   6.828   5.338
  311SOL     OW 1831   1.480   6.773   2.076
  311SOL    HW1 1832   1.506   6.810   1.986
  311SOL    HW2 1833   1.563   6.758   2.130
  312SOL     OW 1834   3.560   0.593   4.563
  312SOL    HW1 1835   3.644   0.609   4.511
  312SOL    HW2 1836   3.551   0.663   4.634
  313SOL     OW 1837   3.198   3.178   2.998
  313SOL    HW1 1838   3.248   3.264   3.006
  313SOL    HW2 1839   3.186   3.138   3.089
  314SOL     OW 1840   2.896   5.191   6.423
  314SOL    HW1 1841   2.802   5.223   6.423
  314SOL    HW2 1842   2.955   5.259   6.378
  315SOL     OW 1843   6.122   0.568   4.342
  315SOL    HW1 1844   6.028   0.571   4.310
  315SOL    HW2 1845   6.127   0.608   4.434
  316SOL     OW 1846   3.728   1.607   5.902
  316SOL    HW1 1847   3.819   1.564   5.907
  316SOL    HW2 1848   3.734   1.689   5.846
  317SOL     OW 1849   0.604   2.193   1.120
  317SOL    HW1 1850   0.698   2.206   1.152
  317SOL    HW2 1851   0.596   2.102   1.080
  318SOL     OW 1852   1.081   0.441   3.187
  318SOL    HW1 1853   1.102   0.345   3.172
  318SOL    HW2 1854   1.093   0.492   3.102
  319SOL     OW 1855   0.998   0.572   2.600
  319SOL    HW1 1856   0.922   0.631   2.571
  319SOL    HW2 1857   0.977   0.477   2.577
  320SOL     OW 1858   4.852   1.324   0.192
  320SOL    HW1 1859   4.816   1.387   0.122
  320SOL    HW2 1860   4.896   1.246   0.147
  321SOL     OW 1861   4.504   3.156   0.937
  321SOL    HW1 1862   4.415   3.199   0.952
  321SOL    HW2 1863   4.537   3.117   1.023
  322SOL     OW 1864   3.268   2.684   0.054
  322SOL    HW1 1865   3.193   2.627   0.088
  322SOL    HW2 1866   3.351   2.628   0.044
  323SOL     OW 1867   1.405   3.596   2.159
  323SOL    HW1 1868   1.346   3.635   2.088
  323SOL    HW2 1869   1.476   3.540   2.116
  324SOL     OW 1870   0.109   0.664   3.361
  324SOL    HW1 1871   0.178   0.593   3.375
  324SOL    HW2 1872   0.026   0.641   3.412
  325SOL     OW 1873   6.125   3.505   1.048
  325SOL    HW1 1874   6.213   3.475   1.085
  325SOL    HW2 1875   6.052   3.484   1.113
  326SOL     OW 1876   6.881   5.699   0.009
  326SOL    HW1 1877   6.798   5.747   0.039
  326SOL    HW2 1878   6.890   5.613   0.059
  327SOL     OW 1879   3.775   6.321   6.422
  327SOL    HW1 1880   3.867   6.354   6.401
  327SOL    HW2 1881   3.780   6.226   6.452
  328SOL     OW 1882   1.194   4.977   3.479
  328SOL    HW1 1883   1.262   5.051   3.477
  328SOL    HW2 1884   1.105   5.015   3.504
  329SOL     OW 1885   3.538   2.864   1.985
  329SOL    HW1 1886   3.445   2.895   1.963
  329SOL    HW2 1887   3.549   2.769   1.954
  330SOL     OW 1888   2.665   3.344   6.656
  330SOL    HW1 1889   2.649   3.394   6.741
  330SOL    HW2 1890   2.639   3.248   6.669
  331SOL     OW 1891   5.269   4.908   4.463
  331SOL    HW1 1892   5.307   4.984   4.515
  331SOL    HW2 1893   5.278   4.823   4.516
  332SOL     OW 1894   5.526   1.736   2.897
  332SOL    HW1 1895   5.532   1.836   2.898
  332SOL    HW2 1896   5.525   1.702   2.991
  333SOL     OW 1897   4.207   6.524   3.976
  333SOL    HW1 1898   4.256   6.610   3.961
  333SOL    HW2 1899   4.109   6.544   3.987
  334SOL     OW 1900   3.567   3.630   4.558
  334SOL    HW1 1901   3.520   3.717   4.575
  334SOL    HW2 1902   3.547   3.600   4.465
  335SOL     OW 1903   3.677   1.034   0.893
  335SOL    HW1 1904   3.610   1.099   0.857
  335SOL    HW2 1905   3.638   0.988   0.973
  336SOL     OW 1906   4.088   2.206   4.991
  336SOL    HW1 1907   3.995   2.196   5.026
  336SOL    HW2 1908   4.125   2.295   5.018
  337SOL     OW 1909   6.938   0.966   5.199
  337SOL    HW1 1910   6.949   0.919   5.287
  337SOL    HW2 1911   6.980   1.057   5.205
  338SOL     OW 1912   4.671   1.160   1.797
  338SOL    HW1 1913   4.771   1.164   1.798
  338SOL    HW2 1914   4.634   1.253   1.797
  339SOL     OW 1915   4.329   5.472   5.922
  339SOL    HW1 1916   4.371   5.499   5.836
  339SOL    HW2 1917   4.355   5.378   5.944
  340SOL     OW 1918   4.844   3.190   5.084
  340SOL    HW1 1919   4.818   3.156   4.994
  340SOL    HW2 1920   4.927   3.143   5.115
  341SOL     OW 1921   6.957   0.438   1.966
  341SOL    HW1 1922   6.862   0.416   1.943
  341SOL    HW2 1923   0.004   0.390   1.904
  342SOL     OW 1924   4.589   1.444   1.780
  342SOL    HW1 1925   4.515   1.403   1.833
  342SOL    HW2 1926   4.632   1.517   1.833
  343SOL     OW 1927   5.286   0.194   0.991
  343SOL    HW1 1928   5.254   0.245   0.911
  343SOL    HW2 1929   5.307   0.259   1.064
  344SOL     OW 1930   6.377   3.206   1.519
  344SOL    HW1 1931   6.382   3.303   1.493
  344SOL    HW2 1932   6.457   3.182   1.574
  345SOL     OW 1933   0.123   2.049   4.209
  345SOL    HW1 1934   0.122   2.144   4.241
  345SOL    HW2 1935   0.194   2.038   4.140
  346SOL     OW 1936   2.283   5.819   2.903
  346SOL    HW1 1937   2.234   5.870   2.833
  346SOL    HW2 1938   2.272   5.721   2.887
  347SOL     OW 1939   2.520   4.716   1.118
  347SOL    HW1 1940   2.542   4.659   1.039
  347SOL    HW2 1941   2.596   4.715   1.182
  348SOL     OW 1942   5.199   4.839   1.858
  348SOL    HW1 1943   5.143   4.762   1.888
  348SOL    HW2 1944   5.165   4.874   1.771
  349SOL     OW 1945   5.674   4.821   0.907
  349SOL    HW1 1946   5.696   4.762   0.829
  349SOL    HW2 1947   5.609   4.774   0.967
  350SOL     OW 1948   2.362   1.886   0.560
  350SOL    HW1 1949   2.303   1.805   0.563
  350SOL    HW2 1950   2.312   1.963   0.520
  351SOL     OW 1951   3.620   4.221   1.417
  351SOL    HW1 1952   3.636   4.306   1.366
  351SOL    HW2 1953   3.528   4.222   1.455
  352SOL     OW 1954   4.018   6.508   2.420
  352SOL    HW1 1955   3.960   6.427   2.431
  352SOL    HW2 1956   3.991   6.557   2.337
  353SOL     OW 1957   2.043   6.999   0.657
  353SOL    HW1 1958   1.997   6.954   0.581
  353SOL    HW2 1959   2.141   6.980   0.653
  354SOL     OW 1960   1.815   2.304   0.794
  354SOL    HW1 1961   1.819   2.223   0.736
  354SOL    HW2 1962   1.770   2.281   0.880
  355SOL     OW 1963   0.354   2.889   3.467
  355SOL    HW1 1964   0.272   2.838   3.442
  355SOL    HW2 1965   0.425   2.873   3.398
  356SOL     OW 1966   2.794   1.045   5.517
  356SOL    HW1 1967   2.804   0.998   5.429
  356SOL    HW2 1968   2.775   1.142   5.500
  357SOL     OW 1969   5.664   6.027   4.147
  357SOL    HW1 1970   5.598   6.020   4.221
  357SOL    HW2 1971   5.753   5.992   4.177
  358SOL     OW 1972   3.228   5.998   6.873
  358SOL    HW1 1973   3.143   6.046   6.852
  358SOL    HW2 1974   3.212   5.931   6.946
  359SOL     OW 1975   1.613   2.007   1.990
  359SOL    HW1 1976   1.608   2.031   2.087
  359SOL    HW2 1977   1.533   2.044   1.942
  360SOL     OW 1978   1.929   3.666   3.420
  360SOL    HW1 1979   1.842   3.647   3.465
  360SOL    HW2 1980   1.995   3.700   3.487
  361SOL     OW 1981   0.167   1.728   2.324
  361SOL    HW1 1982   0.118   1.739   2.411
  361SOL    HW2 1983   0.265   1.724   2.341
  362SOL     OW 1984   3.939   3.909   2.617
  362SOL    HW1 1985   3.940   3.929   2.715
  362SOL    HW2 1986   3.875   3.971   2.571
  363SOL     OW 1987   4.441   5.477   0.448
  363SOL    HW1 1988   4.359   5.514   0.406
  363SOL    HW2 1989   4.522   5.522   0.409
  364SOL     OW 1990   1.064   0.593   0.308
  364SOL    HW1 1991   1.085   0.502   0.271
  364SOL    HW2 1992   1.090   0.596   0.404
  365SOL     OW 1993   6.056   0.746   4.047
  365SOL    HW1 1994   6.107   0.797   4.116
  365SOL    HW2 1995   6.116   0.728   3.968
  366SOL     OW 1996   4.948   1.698   0.005
  366SOL    HW1 1997   4.897   1.613   7.007
  366SOL    HW2 1998   4.885   1.775   0.001
  367SOL     OW 1999   5.405   0.853   0.170
  367SOL    HW1 2000   5.449   0.811   0.091
  367SOL    HW2 2001   5.386   0.949   0.151
  368SOL     OW 2002   2.347   1.958   6.111
  368SOL    HW1 2003   2.290   1.991   6.186
  368SOL    HW2 2004   2.295   1.965   6.025
  369SOL     OW 2005   5.724   4.612   0.064
  369SOL    HW1 2006   5.779   4.689   0.095
  369SOL    HW2 2007   5.676   4.637   6.995
  370SOL     OW 2008   2.332   2.370   3.313
  370SOL    HW1 2009   2.356   2.433   3.386
  370SOL    HW2 2010   2.248   2.321   3.338
  371SOL     OW 2011   2.119   5.573   0.266
  371SOL    HW1 2012   2.118   5.661   0.313
  371SOL    HW2 2013   2.046   5.571   0.197
  372SOL     OW 2014   2.295   5.842   5.958
  372SOL    HW1 2015   2.332   5.751   5.978
  372SOL    HW2 2016   2.211   5.833   5.905
  373SOL     OW 2017   6.392   4.609   2.992
  373SOL    HW1 2018   6.490   4.620   2.971
  373SOL    HW2 2019   6.370   4.663   3.073
  374SOL     OW 2020   2.836   2.258   2.393
  374SOL    HW1 2021   2.800   2.165   2.385
  374SOL    HW2 2022   2.854   2.294   2.302
  375SOL     OW 2023   0.843   5.970   4.423
  375SOL    HW1 2024   0.795   5.929   4.500
  375SOL    HW2 2025   0.785   6.041   4.383
  376SOL     OW 2026   4.370   0.261   3.535
  376SOL    HW1 2027   4.296   0.285   3.597
  376SOL    HW2 2028   4.454   0.308   3.563
  377SOL     OW 2029   2.768   2.518   6.631
  377SOL    HW1 2030   2.753   2.482   6.539
  377SOL    HW2 2031   2.825   2.600   6.627
  378SOL     OW 2032   4.043   1.254   2.209
  378SOL    HW1 2033   3.990   1.312   2.148
  378SOL    HW2 2034   4.063   1.167   2.163
  379SOL     OW 2035   3.871   2.944   6.532
  379SOL    HW1 2036   3.882   3.042   6.549
  379SOL    HW2 2037   3.958   2.906   6.501
  380SOL     OW 2038   4.745   2.133   0.671
  380SOL    HW1 2039   4.805   2.212   0.661
  380SOL    HW2 2040   4.720   2.122   0.767
  381SOL     OW 2041   2.002   4.327   2.964
  381SOL    HW1 2042   2.011   4.339   2.865
  381SOL    HW2 2043   1.970   4.234   2.983
  382SOL     OW 2044   6.248   6.799   0.470
  382SOL    HW1 2045   6.341   6.827   0.494
  382SOL    HW2 2046   6.221   6.844   0.385
  383SOL     OW 2047   4.357   3.724   0.108
  383SOL    HW1 2048   4.402   3.671   0.180
  383SOL    HW2 2049   4.272   3.763   0.143
  384SOL     OW 2050   0.498   3.252   5.256
  384SOL    HW1 2051   0.506   3.163   5.210
  384SOL    HW2 2052   0.586   3.300   5.251
  385SOL     OW 2053   4.723   2.339   0.100
  385SOL    HW1 2054   4.655   2.335   0.173
  385SOL    HW2 2055   4.802   2.391   0.130
  386SOL     OW 2056   3.979   6.393   5.122
  386SOL    HW1 2057   4.074   6.405   5.093
  386SOL    HW2 2058   3.955   6.464   5.189
  387SOL     OW 2059   3.034   5.986   4.690
  387SOL    HW1 2060   3.032   5.895   4.732
  387SOL    HW2 2061   3.051   5.976   4.592
  388SOL     OW 2062   1.284   5.134   5.881
  388SOL    HW1 2063   1.270   5.232   5.863
  388SOL    HW2 2064   1.268   5.116   5.978
  389SOL     OW 2065   2.943   3.575   1.447
  389SOL    HW1 2066   3.009   3.596   1.375
  389SOL    HW2 2067   2.878   3.650   1.456
  390SOL     OW 2068   2.685   0.956   4.805
  390SOL    HW1 2069   2.602   0.940   4.858
  390SOL    HW2 2070   2.678   0.911   4.716
  391SOL     OW 2071   1.549   2.255   6.879
  391SOL    HW1 2072   1.586   2.286   6.791
  391SOL    HW2 2073   1.574   2.322   6.949
  392SOL     OW 2074   3.343   5.482   4.871
  392SOL    HW1 2075   3.273   5.513   4.936
  392SOL    HW2 2076   3.369   5.388   4.893
  393SOL     OW 2077   5.884   4.368   5.602
  393SOL    HW1 2078   5.913   4.431   5.674
  393SOL    HW2 2079   5.797   4.398   5.563
  394SOL     OW 2080   2.164   1.195   6.485
  394SOL    HW1 2081   2.102   1.129   6.441
  394SOL    HW2 2082   2.255   1.186   6.444
  395SOL     OW 2083   6.990   3.250   0.733
  395SOL    HW1 2084   0.028   3.168   0.717
  395SOL    HW2 2085   0.016   3.303   0.807
  396SOL     OW 2086   3.547   3.225   5.310
  396SOL    HW1 2087   3.450   3.218   5.287
  396SOL    HW2 2088   3.557   3.251   5.406
  397SOL     OW 2089   4.315   1.665   6.809
  397SOL    HW1 2090   4.221   1.642   6.834
  397SOL    HW2 2091   4.376   1.642   6.884
  398SOL     OW 2092   0.605   4.434   2.265
  398SOL    HW1 2093   0.603   4.335   2.251
  398SOL    HW2 2094   0.560   4.457   2.351
  399SOL     OW 2095   4.881   4.821   2.153
  399SOL    HW1 2096   4.787   4.787   2.144
  399SOL    HW2 2097   4.892   4.862   2.244
  400SOL     OW 2098   2.290   4.624   4.364
  400SOL    HW1 2099   2.386   4.650   4.372
  400SOL    HW2 2100   2.253   4.606   4.456
  401SOL     OW 2101   5.946   1.486   0.506
  401SOL    HW1 2102   6.045   1.472   0.499
  401SOL    HW2 2103   5.913   1.444   0.591
  402SOL     OW 2104   6.942   4.436   0.872
  402SOL    HW1 2105   6.927   4.534   0.863
  402SOL    HW2 2106   6.883   4.386   0.809
  403SOL     OW 2107   4.649   4.752   0.618
  403SOL    HW1 2108   4.721   4.699   0.573
  403SOL    HW2 2109   4.644   4.726   0.715
  404SOL     OW 2110   0.310   6.199   4.683
  404SOL    HW1 2111   0.309   6.104   4.654
  404SOL    HW2 2112   0.284   6.258   4.607
  405SOL     OW 2113   1.016   2.568   1.246
  405SOL    HW1 2114   0.958   2.647   1.228
  405SOL    HW2 2115   1.075   2.550   1.167
  406SOL     OW 2116   1.193   2.515   3.388
  406SOL    HW1 2117   1.202   2.419   3.414
  406SOL    HW2 2118   1.262   2.539   3.320
  407SOL     OW 2119   3.329   1.978   4.300
  407SOL    HW1 2120   3.408   2.012   4.351
  407SOL    HW2 2121   3.245   2.010   4.344
  408SOL     OW 2122   2.658   0.600   4.142
  408SOL    HW1 2123   2.725   0.556   4.082
  408SOL    HW2 2124   2.584   0.536   4.162
  409SOL     OW 2125   6.764   3.555   4.187
  409SOL    HW1 2126   6.809   3.644   4.186
  409SOL    HW2 2127   6.664   3.568   4.186
  410SOL     OW 2128   3.090   6.834   6.267
  410SOL    HW1 2129   3.158   6.859   6.336
  410SOL    HW2 2130   3.017   6.902   6.266
  411SOL     OW 2131   0.484   3.325   4.906
  411SOL    HW1 2132   0.543   3.405   4.901
  411SOL    HW2 2133   0.480   3.292   5.000
  412SOL     OW 2134   4.495   0.249   2.374
  412SOL    HW1 2135   4.571   0.289   2.322
  412SOL    HW2 2136   4.472   0.308   2.451
  413SOL     OW 2137   2.229   0.478   2.545
  413SOL    HW1 2138   2.134   0.464   2.573
  413SOL    HW2 2139   2.270   0.390   2.520
  414SOL     OW 2140   4.554   4.540   0.945
  414SOL    HW1 2141   4.624   4.611   0.938
  414SOL    HW2 2142   4.484   4.568   1.010
  415SOL     OW 2143   3.963   6.842   2.419
  415SOL    HW1 2144   4.056   6.805   2.418
  415SOL    HW2 2145   3.935   6.864   2.326
  416SOL     OW 2146   3.228   5.327   0.340
  416SOL    HW1 2147   3.305   5.264   0.349
  416SOL    HW2 2148   3.219   5.381   0.423
  417SOL     OW 2149   5.093   5.034   1.668
  417SOL    HW1 2150   4.995   5.038   1.686
  417SOL    HW2 2151   5.132   5.126   1.674
  418SOL     OW 2152   6.545   5.196   6.626
  418SOL    HW1 2153   6.635   5.216   6.587
  418SOL    HW2 2154   6.545   5.220   6.723
  419SOL     OW 2155   5.489   5.911   0.749
  419SOL    HW1 2156   5.440   5.860   0.820
  419SOL    HW2 2157   5.423   5.944   0.681
  420SOL     OW 2158   5.158   4.062   7.011
  420SOL    HW1 2159   5.183   3.987   6.950
  420SOL    HW2 2160   5.209   4.144   6.987
  421SOL     OW 2161   1.416   6.659   6.462
  421SOL    HW1 2162   1.384   6.739   6.513
  421SOL    HW2 2163   1.388   6.576   6.509
  422SOL     OW 2164   5.697   4.483   6.666
  422SOL    HW1 2165   5.732   4.575   6.654
  422SOL    HW2 2166   5.613   4.486   6.720
  423SOL     OW 2167   1.183   3.086   5.746
  423SOL    HW1 2168   1.112   3.042   5.801
  423SOL    HW2 2169   1.184   3.046   5.655
  424SOL     OW 2170   2.027   3.806   7.000
  424SOL    HW1 2171   1.954   3.795   6.933
  424SOL    HW2 2172   2.087   3.881   6.971
  425SOL     OW 2173   2.959   6.942   0.199
  425SOL    HW1 2174   3.037   6.882   0.220
  425SOL    HW2 2175   2.878   6.886   0.181
  426SOL     OW 2176   6.563   3.908   6.041
  426SOL    HW1 2177   6.652   3.870   6.066
  426SOL    HW2 2178   6.529   3.865   5.958
  427SOL     OW 2179   4.645   3.123   0.697
  427SOL    HW1 2180   4.744   3.113   0.700
  427SOL    HW2 2181   4.611   3.150   0.787
  428SOL     OW 2182   3.420   1.793   5.898
  428SOL    HW1 2183   3.476   1.807   5.979
  428SOL    HW2 2184   3.468   1.733   5.834
  429SOL     OW 2185   3.118   6.179   0.529
  429SOL    HW1 2186   3.106   6.236   0.610
  429SOL    HW2 2187   3.068   6.220   0.452
  430SOL     OW 2188   2.622   7.006   4.413
  430SOL    HW1 2189   2.719   0.007   4.399
  430SOL    HW2 2190   2.606   6.907   4.421
  431SOL     OW 2191   3.337   1.677   6.695
  431SOL    HW1 2192   3.425   1.698   6.738
  431SOL    HW2 2193   3.353   1.641   6.603
  432SOL     OW 2194   6.817   1.565   1.014
  432SOL    HW1 2195   6.850   1.514   1.094
  432SOL    HW2 2196   6.718   1.579   1.022
  433SOL     OW 2197   2.723   5.886   4.880
  433SOL    HW1 2198   2.743   5.968   4.933
  433SOL    HW2 2199   2.805   5.829   4.873
  434SOL     OW 2200   6.278   3.126   1.064
  434SOL    HW1 2201   6.287   3.085   1.154
  434SOL    HW2 2202   6.368   3.154   1.030
  435SOL     OW 2203   3.737   3.103   0.939
  435SOL    HW1 2204   3.773   3.179   0.993
  435SOL    HW2 2205   3.780   3.018   0.969
  436SOL     OW 2206   2.680   0.590   0.363
  436SOL    HW1 2207   2.745   0.655   0.324
  436SOL    HW2 2208   2.601   0.580   0.302
  437SOL     OW 2209   6.530   0.500   5.423
  437SOL    HW1 2210   6.444   0.551   5.414
  437SOL    HW2 2211   6.577   0.529   5.507
  438SOL     OW 2212   1.861   3.324   1.309
  438SOL    HW1 2213   1.912   3.239   1.295
  438SOL    HW2 2214   1.851   3.372   1.222
  439SOL     OW 2215   5.999   4.218   2.001
  439SOL    HW1 2216   6.087   4.252   1.970
  439SOL    HW2 2217   6.006   4.190   2.097
  440SOL     OW 2218   1.621   3.304   2.979
  440SOL    HW1 2219   1.570   3.390   2.976
  440SOL    HW2 2220   1.717   3.323   2.997
  441SOL     OW 2221   0.807   0.790   3.310
  441SOL    HW1 2222   0.889   0.734   3.299
  441SOL    HW2 2223   0.823   0.859   3.381
  442SOL     OW 2224   6.968   4.582   6.593
  442SOL    HW1 2225   6.873   4.562   6.569
  442SOL    HW2 2226   6.972   4.670   6.640
  443SOL     OW 2227   0.692   4.149   5.079
  443SOL    HW1 2228   0.780   4.136   5.125
  443SOL    HW2 2229   0.636   4.212   5.132
  444SOL     OW 2230   4.954   3.013   6.709
  444SOL    HW1 2231   4.958   3.089   6.644
  444SOL    HW2 2232   5.043   2.968   6.713
  445SOL     OW 2233   1.706   4.622   3.122
  445SOL    HW1 2234   1.777   4.570   3.169
  445SOL    HW2 2235   1.662   4.685   3.186
  446SOL     OW 2236   3.141   4.913   4.168
  446SOL    HW1 2237   3.172   4.904   4.263
  446SOL    HW2 2238   3.220   4.911   4.107
  447SOL     OW 2239   0.356   5.737   0.278
  447SOL    HW1 2240   0.349   5.803   0.203
  447SOL    HW2 2241   0.265   5.710   0.308
  448SOL     OW 2242   4.487   0.893   6.240
  448SOL    HW1 2243   4.437   0.977   6.262
  448SOL    HW2 2244   4.485   0.878   6.141
  449SOL     OW 2245   5.446   6.935   4.236
  449SOL    HW1 2246   5.445   6.843   4.197
  449SOL    HW2 2247   5.461   6.930   4.334
  450SOL     OW 2248   6.639   5.992   3.443
  450SOL    HW1 2249   6.703   6.057   3.484
  450SOL    HW2 2250   6.604   5.930   3.514
  451SOL     OW 2251   6.081   2.429   3.598
  451SOL    HW1 2252   6.095   2.507   3.659
  451SOL    HW2 2253   5.997   2.381   3.625
  452SOL     OW 2254   6.860   5.174   6.302
  452SOL    HW1 2255   6.822   5.088   6.270
  452SOL    HW2 2256   6.807   5.250   6.263
  453SOL     OW 2257   3.128   1.307   5.566
  453SOL    HW1 2258   3.166   1.239   5.628
  453SOL    HW2 2259   3.074   1.373   5.617
  454SOL     OW 2260   0.926   6.381   0.637
  454SOL    HW1 2261   0.836   6.394   0.681
  454SOL    HW2 2262   0.936   6.286   0.610
  455SOL     OW 2263   4.847   0.563   5.088
  455SOL    HW1 2264   4.884   0.642   5.039
  455SOL    HW2 2265   4.753   0.582   5.115
  456SOL     OW 2266   4.552   5.370   6.904
  456SOL    HW1 2267   4.488   5.293   6.893
  456SOL    HW2 2268   4.555   5.423   6.819
  457SOL     OW 2269   0.748   4.387   1.862
  457SOL    HW1 2270   0.794   4.299   1.853
  457SOL    HW2 2271   0.712   4.416   1.773
  458SOL     OW 2272   6.818   6.409   5.603
  458SOL    HW1 2273   6.721   6.384   5.612
  458SOL    HW2 2274   6.826   6.507   5.586
  459SOL     OW 2275   1.689   0.633   3.859
  459SOL    HW1 2276   1.596   0.667   3.842
  459SOL    HW2 2277   1.753   0.683   3.802
  460SOL     OW 2278   6.591   1.672   4.014
  460SOL    HW1 2279   6.604   1.764   3.976
  460SOL    HW2 2280   6.558   1.611   3.941
  461SOL     OW 2281   5.044   5.730   5.417
  461SOL    HW1 2282   5.024   5.800   5.486
  461SOL    HW2 2283   5.139   5.700   5.427
  462SOL     OW 2284   3.000   2.538   6.933
  462SOL    HW1 2285   2.956   2.463   6.982
  462SOL    HW2 2286   3.051   2.502   6.855
  463SOL     OW 2287   0.103   6.235   1.874
  463SOL    HW1 2288   0.088   6.146   1.919
  463SOL    HW2 2289   0.054   6.237   1.787
  464SOL     OW 2290   2.401   1.668   5.755
  464SOL    HW1 2291   2.389   1.701   5.849
  464SOL    HW2 2292   2.390   1.568   5.754
  465SOL     OW 2293   7.004   3.198   5.408
  465SOL    HW1 2294   0.018   3.293   5.425
  465SOL    HW2 2295   0.019   3.169   5.318
  466SOL     OW 2296   2.860   0.523   3.326
  466SOL    HW1 2297   2.788   0.541   3.393
  466SOL    HW2 2298   2.822   0.533   3.234
  467SOL     OW 2299   1.814   1.572   5.220
  467SOL    HW1 2300   1.736   1.572   5.282
  467SOL    HW2 2301   1.803   1.499   5.152
  468SOL     OW 2302   3.286   4.062   2.050
  468SOL    HW1 2303   3.374   4.090   2.090
  468SOL    HW2 2304   3.214   4.069   2.120
  469SOL     OW 2305   2.803   5.135   0.220
  469SOL    HW1 2306   2.868   5.194   0.266
  469SOL    HW2 2307   2.846   5.047   0.198
  470SOL     OW 2308   4.006   0.263   2.789
  470SOL    HW1 2309   3.997   0.232   2.883
  470SOL    HW2 2310   4.097   0.304   2.775
  471SOL     OW 2311   2.917   1.907   4.674
  471SOL    HW1 2312   2.819   1.904   4.654
  471SOL    HW2 2313   2.942   1.999   4.703
  472SOL     OW 2314   4.310   4.311   5.381
  472SOL    HW1 2315   4.335   4.365   5.462
  472SOL    HW2 2316   4.310   4.370   5.300
  473SOL     OW 2317   1.199   3.731   4.094
  473SOL    HW1 2318   1.108   3.707   4.128
  473SOL    HW2 2319   1.257   3.759   4.171
  474SOL     OW 2320   4.691   4.737   4.944
  474SOL    HW1 2321   4.665   4.779   4.857
  474SOL    HW2 2322   4.765   4.790   4.985
  475SOL     OW 2323   0.947   6.702   6.464
  475SOL    HW1 2324   0.862   6.741   6.499
  475SOL    HW2 2325   0.958   6.727   6.368
  476SOL     OW 2326   0.510   5.293   1.855
  476SOL    HW1 2327   0.443   5.366   1.871
  476SOL    HW2 2328   0.520   5.239   1.939
  477SOL     OW 2329   1.808   5.242   3.808
  477SOL    HW1 2330   1.874   5.191   3.863
  477SOL    HW2 2331   1.853   5.322   3.768
  478SOL     OW 2332   1.578   5.191   3.071
  478SOL    HW1 2333   1.669   5.196   3.113
  478SOL    HW2 2334   1.520   5.129   3.125
  479SOL     OW 2335   3.358   1.336   1.431
  479SOL    HW1 2336   3.349   1.284   1.516
  479SOL    HW2 2337   3.342   1.276   1.353
  480SOL     OW 2338   1.421   6.213   2.463
  480SOL    HW1 2339   1.425   6.265   2.548
  480SOL    HW2 2340   1.453   6.120   2.480
  481SOL     OW 2341   2.807   6.521   1.481
  481SOL    HW1 2342   2.732   6.584   1.503
  481SOL    HW2 2343   2.781   6.428   1.505
  482SOL     OW 2344   5.453   5.324   1.077
  482SOL    HW1 2345   5.530   5.295   1.020
  482SOL    HW2 2346   5.462   5.421   1.100
  483SOL     OW 2347   5.554   1.813   1.032
  483SOL    HW1 2348   5.604   1.862   1.104
  483SOL    HW2 2349   5.609   1.735   1.002
  484SOL     OW 2350   6.798   2.780   4.877
  484SOL    HW1 2351   6.710   2.776   4.829
  484SOL    HW2 2352   6.845   2.692   4.867
  485SOL     OW 2353   4.058   5.880   2.110
  485SOL    HW1 2354   4.152   5.871   2.142
  485SOL    HW2 2355   3.995   5.840   2.176
  486SOL     OW 2356   0.366   0.047   6.323
  486SOL    HW1 2357   0.351   6.964   6.307
  486SOL    HW2 2358   0.329   0.072   6.413
  487SOL     OW 2359   6.581   3.133   6.528
  487SOL    HW1 2360   6.534   3.215   6.493
  487SOL    HW2 2361   6.618   3.152   6.619
  488SOL     OW 2362   0.626   3.325   2.232
  488SOL    HW1 2363   0.593   3.419   2.222
  488SOL    HW2 2364   0.724   3.326   2.252
  489SOL     OW 2365   3.258   6.095   5.997
  489SOL    HW1 2366   3.260   6.044   5.911
  489SOL    HW2 2367   3.171   6.144   6.004
  490SOL     OW 2368   5.425   6.002   4.302
  490SOL    HW1 2369   5.352   5.947   4.340
  490SOL    HW2 2370   5.394   6.097   4.292
  491SOL     OW 2371   0.098   2.200   3.352
  491SOL    HW1 2372   0.131   2.174   3.261
  491SOL    HW2 2373   0.032   2.275   3.343
  492SOL     OW 2374   2.154   1.023   4.793
  492SOL    HW1 2375   2.182   1.119   4.786
  492SOL    HW2 2376   2.060   1.013   4.761
  493SOL     OW 2377   5.921   3.990   4.116
  493SOL    HW1 2378   6.005   4.010   4.066
  493SOL    HW2 2379   5.881   4.075   4.150
  494SOL     OW 2380   6.105   1.797   0.130
  494SOL    HW1 2381   6.075   1.713   0.084
  494SOL    HW2 2382   6.086   1.876   0.073
  495SOL     OW 2383   4.283   4.608   1.068
  495SOL    HW1 2384   4.275   4.703   1.098
  495SOL    HW2 2385   4.250   4.599   0.974
  496SOL     OW 2386   6.139   2.725   2.901
  496SOL    HW1 2387   6.193   2.714   2.816
  496SOL    HW2 2388   6.076   2.649   2.910
  497SOL     OW 2389   4.115   0.076   4.460
  497SOL    HW1 2390   4.100   0.028   4.374
  497SOL    HW2 2391   4.213   0.078   4.480
  498SOL     OW 2392   1.042   3.333   2.590
  498SOL    HW1 2393   1.031   3.417   2.643
  498SOL    HW2 2394   1.140   3.314   2.577
  499SOL     OW 2395   3.554   1.346   5.364
  499SOL    HW1 2396   3.649   1.376   5.366
  499SOL    HW2 2397   3.495   1.420   5.397
  500SOL     OW 2398   1.345   4.206   2.202
  500SOL    HW1 2399   1.380   4.145   2.130
  500SOL    HW2 2400   1.323   4.152   2.283
  501SOL     OW 2401   1.312   5.393   0.099
  501SOL    HW1 2402   1.344   5.330   0.028
  501SOL    HW2 2403   1.302   5.343   0.186
  502SOL     OW 2404   3.416   5.462   6.330
  502SOL    HW1 2405   3.434   5.374   6.375
  502SOL    HW2 2406   3.498   5.491   6.280
  503SOL     OW 2407   5.799   5.990   5.289
  503SOL    HW1 2408   5.827   5.902   5.327
  503SOL    HW2 2409   5.747   6.041   5.357
  504SOL     OW 2410   2.190   5.358   4.383
  504SOL    HW1 2411   2.201   5.303   4.466
  504SOL    HW2 2412   2.094   5.383   4.373
  505SOL     OW 2413   4.238   6.945   5.169
  505SOL    HW1 2414   4.333   6.938   5.137
  505SOL    HW2 2415   4.196   6.854   5.170
  506SOL     OW 2416   2.463   3.804   0.029
  506SOL    HW1 2417   2.379   3.797   6.991
  506SOL    HW2 2418   2.531   3.739   7.009
  507SOL     OW 2419   3.633   1.766   4.122
  507SOL    HW1 2420   3.561   1.698   4.107
  507SOL    HW2 2421   3.645   1.781   4.221
  508SOL     OW 2422   6.142   3.981   3.940
  508SOL    HW1 2423   6.221   3.997   4.000
  508SOL    HW2 2424   6.172   3.935   3.857
  509SOL     OW 2425   4.587   2.656   1.389
  509SOL    HW1 2426   4.617   2.652   1.293
  509SOL    HW2 2427   4.572   2.564   1.423
  510SOL     OW 2428   0.612   3.390   4.191
  510SOL    HW1 2429   0.649   3.330   4.261
  510SOL    HW2 2430   0.646   3.361   4.101
  511SOL     OW 2431   0.473   6.367   1.320
  511SOL    HW1 2432   0.460   6.368   1.221
  511SOL    HW2 2433   0.571   6.373   1.340
  512SOL     OW 2434   0.986   3.710   6.549
  512SOL    HW1 2435   0.998   3.611   6.560
  512SOL    HW2 2436   0.976   3.732   6.452
  513SOL     OW 2437   0.348   5.190   4.400
  513SOL    HW1 2438   0.439   5.205   4.439
  513SOL    HW2 2439   0.355   5.129   4.322
  514SOL     OW 2440   6.110   1.505   3.162
  514SOL    HW1 2441   6.140   1.443   3.090
  514SOL    HW2 2442   6.077   1.590   3.121
  515SOL     OW 2443   2.084   5.910   0.120
  515SOL    HW1 2444   2.164   5.874   0.071
  515SOL    HW2 2445   2.011   5.842   0.118
  516SOL     OW 2446   1.302   5.545   2.562
  516SOL    HW1 2447   1.318   5.476   2.491
  516SOL    HW2 2448   1.327   5.635   2.527
  517SOL     OW 2449   4.862   0.401   6.687
  517SOL    HW1 2450   4.805   0.480   6.663
  517SOL    HW2 2451   4.917   0.375   6.607
  518SOL     OW 2452   2.731   1.827   0.695
  518SOL    HW1 2453   2.812   1.797   0.745
  518SOL    HW2 2454   2.658   1.760   0.706
  519SOL     OW 2455   0.694   6.922   0.918
  519SOL    HW1 2456   0.739   6.987   0.980
  519SOL    HW2 2457   0.714   6.947   0.823
  520SOL     OW 2458   6.752   4.354   4.635
  520SOL    HW1 2459   6.819   4.356   4.561
  520SOL    HW2 2460   6.705   4.266   4.634
  521SOL     OW 2461   6.199   0.552   1.199
  521SOL    HW1 2462   6.152   0.476   1.155
  521SOL    HW2 2463   6.237   0.523   1.286
  522SOL     OW 2464   3.388   3.815   5.626
  522SOL    HW1 2465   3.474   3.864   5.636
  522SOL    HW2 2466   3.391   3.730   5.680
  523SOL     OW 2467   6.696   6.662   4.998
  523SOL    HW1 2468   6.728   6.743   4.949
  523SOL    HW2 2469   6.629   6.689   5.068
  524SOL     OW 2470   4.320   1.911   6.181
  524SOL    HW1 2471   4.345   1.881   6.089
  524SOL    HW2 2472   4.227   1.879   6.203
  525SOL     OW 2473   2.812   2.933   6.868
  525SOL    HW1 2474   2.893   2.991   6.871
  525SOL    HW2 2475   2.824   2.857   6.932
  526SOL     OW 2476   4.203   5.540   4.616
  526SOL    HW1 2477   4.185   5.582   4.526
  526SOL    HW2 2478   4.219   5.613   4.683
  527SOL     OW 2479   0.981   1.860   0.203
  527SOL    HW1 2480   0.882   1.871   0.196
  527SOL    HW2 2481   1.021   1.862   0.111
  528SOL     OW 2482   2.208   0.764   5.809
  528SOL    HW1 2483   2.185   0.668   5.827
  528SOL    HW2 2484   2.307   0.773   5.798
  529SOL     OW 2485   6.750   4.208   4.177
  529SOL    HW1 2486   6.682   4.206   4.104
  529SOL    HW2 2487   6.803   4.293   4.171
  530SOL     OW 2488   1.057   2.141   5.406
  530SOL    HW1 2489   1.157   2.144   5.406
  530SOL    HW2 2490   1.026   2.046   5.400
  531SOL     OW 2491   0.127   0.755   0.399
  531SOL    HW1 2492   0.200   0.697   0.363
  531SOL    HW2 2493   0.039   0.709   0.389
  532SOL     OW 2494   1.781   0.197   5.797
  532SOL    HW1 2495   1.768   0.296   5.806
  532SOL    HW2 2496   1.873   0.173   5.829
  533SOL     OW 2497   5.467   0.283   4.809
  533SOL    HW1 2498   5.445   0.262   4.904
  533SOL    HW2 2499   5.519   0.369   4.804
  534SOL     OW 2500   3.369   5.359   2.631
  534SOL    HW1 2501   3.281   5.312   2.630
  534SOL    HW2 2502   3.354   5.457   2.618
  535SOL     OW 2503   6.177   4.286   2.617
  535SOL    HW1 2504   6.195   4.349   2.693
  535SOL    HW2 2505   6.231   4.312   2.537
  536SOL     OW 2506   0.909   6.329   0.970
  536SOL    HW1 2507   0.871   6.262   0.907
  536SOL    HW2 2508   0.994   6.365   0.932
  537SOL     OW 2509   1.927   0.503   3.441
  537SOL    HW1 2510   1.917   0.407   3.415
  537SOL    HW2 2511   2.024   0.527   3.446
  538SOL     OW 2512   1.224   4.665   4.177
  538SOL    HW1 2513   1.211   4.726   4.255
  538SOL    HW2 2514   1.194   4.710   4.093
  539SOL     OW 2515   1.080   5.440   1.415
  539SOL    HW1 2516   1.095   5.489   1.329
  539SOL    HW2 2517   0.983   5.418   1.425
  540SOL     OW 2518   1.253   2.792   1.467
  540SOL    HW1 2519   1.282   2.746   1.383
  540SOL    HW2 2520   1.157   2.771   1.484
  541SOL     OW 2521   3.671   4.880   5.242
  541SOL    HW1 2522   3.576   4.856   5.221
  541SOL    HW2 2523   3.695   4.966   5.197
  542SOL     OW 2524   5.879   6.360   6.756
  542SOL    HW1 2525   5.866   6.274   6.806
  542SOL    HW2 2526   5.916   6.429   6.818
  543SOL     OW 2527   6.696   6.006   0.650
  543SOL    HW1 2528   6.622   5.983   0.587
  543SOL    HW2 2529   6.675   5.970   0.741
  544SOL     OW 2530   1.017   6.234   0.299
  544SOL    HW1 2531   0.921   6.264   0.297
  544SOL    HW2 2532   1.063   6.266   0.216
  545SOL     OW 2533   3.274   1.814   3.783
  545SOL    HW1 2534   3.208   1.864   3.727
  545SOL    HW2 2535   3.314   1.875   3.851
  546SOL     OW 2536   1.726   3.259   0.137
  546SOL    HW1 2537   1.633   3.295   0.146
  546SOL    HW2 2538   1.728   3.191   0.064
  547SOL     OW 2539   2.601   2.693   7.004
  547SOL    HW1 2540   2.603   2.638   6.920
  547SOL    HW2 2541   2.544   2.648   0.057
  548SOL     OW 2542   3.282   3.180   5.280
  548SOL    HW1 2543   3.259   3.149   5.372
  548SOL    HW2 2544   3.248   3.113   5.213
  549SOL     OW 2545   0.937   3.944   1.381
  549SOL    HW1 2546   0.980   3.938   1.291
  549SOL    HW2 2547   0.951   3.859   1.431
  550SOL     OW 2548   6.918   3.273   1.411
  550SOL    HW1 2549   6.952   3.182   1.385
  550SOL    HW2 2550   6.965   3.343   1.357
  551SOL     OW 2551   0.378   1.431   6.760
  551SOL    HW1 2552   0.407   1.522   6.730
  551SOL    HW2 2553   0.291   1.407   6.716
  552SOL     OW 2554   4.651   4.806   0.241
  552SOL    HW1 2555   4.656   4.707   0.229
  552SOL    HW2 2556   4.601   4.827   0.325
  553SOL     OW 2557   1.402   2.214   1.112
  553SOL    HW1 2558   1.384   2.274   1.190
  553SOL    HW2 2559   1.338   2.137   1.115
  554SOL     OW 2560   4.988   5.294   4.768
  554SOL    HW1 2561   5.071   5.341   4.799
  554SOL    HW2 2562   4.922   5.362   4.734
  555SOL     OW 2563   1.692   4.241   5.036
  555SOL    HW1 2564   1.755   4.295   4.980
  555SOL    HW2 2565   1.692   4.146   5.003
  556SOL     OW 2566   5.982   3.334   2.439
  556SOL    HW1 2567   5.953   3.247   2.479
  556SOL    HW2 2568   5.904   3.397   2.435
  557SOL     OW 2569   0.147   5.747   6.707
  557SOL    HW1 2570   0.182   5.731   6.615
  557SOL    HW2 2571   0.047   5.738   6.706
  558SOL     OW 2572   4.437   3.557   5.676
  558SOL    HW1 2573   4.348   3.515   5.656
  558SOL    HW2 2574   4.507   3.515   5.619
  559SOL     OW 2575   6.246   5.805   6.140
  559SOL    HW1 2576   6.163   5.775   6.185
  559SOL    HW2 2577   6.317   5.736   6.150
  560SOL     OW 2578   3.968   6.810   6.901
  560SOL    HW1 2579   3.994   6.867   6.979
  560SOL    HW2 2580   4.050   6.787   6.848
  561SOL     OW 2581   5.515   6.625   1.804
  561SOL    HW1 2582   5.485   6.621   1.709
  561SOL    HW2 2583   5.444   6.584   1.863
  562SOL     OW 2584   6.766   0.514   0.210
  562SOL    HW1 2585   6.672   0.510   0.242
  562SOL    HW2 2586   6.785   0.437   0.149
  563SOL     OW 2587   3.176   0.569   4.854
  563SOL    HW1 2588   3.146   0.644   4.796
  563SOL    HW2 2589   3.203   0.605   4.944
  564SOL     OW 2590   0.521   1.779   6.233
  564SOL    HW1 2591   0.510   1.817   6.141
  564SOL    HW2 2592   0.521   1.679   6.227
  565SOL     OW 2593   4.555   4.412   5.204
  565SOL    HW1 2594   4.591   4.320   5.187
  565SOL    HW2 2595   4.464   4.419   5.163
  566SOL     OW 2596   5.520   5.000   2.063
  566SOL    HW1 2597   5.523   5.014   1.964
  566SOL    HW2 2598   5.499   4.904   2.083
  567SOL     OW 2599   3.735   4.108   4.607
  567SOL    HW1 2600   3.758   4.021   4.650
  567SOL    HW2 2601   3.813   4.170   4.613
  568SOL     OW 2602   2.160   1.125   6.072
  568SOL    HW1 2603   2.166   1.213   6.118
  568SOL    HW2 2604   2.229   1.063   6.110
  569SOL     OW 2605   2.289   3.601   6.524
  569SOL    HW1 2606   2.239   3.541   6.588
  569SOL    HW2 2607   2.382   3.567   6.512
  570SOL     OW 2608   0.409   5.899   1.010
  570SOL    HW1 2609   0.388   5.916   0.913
  570SOL    HW2 2610   0.455   5.979   1.049
  571SOL     OW 2611   4.028   5.529   3.034
  571SOL    HW1 2612   3.973   5.543   2.951
  571SOL    HW2 2613   3.980   5.568   3.113
  572SOL     OW 2614   1.866   4.031   4.638
  572SOL    HW1 2615   1.891   4.068   4.728
  572SOL    HW2 2616   1.785   4.079   4.604
  573SOL     OW 2617   3.514   2.497   7.009
  573SOL    HW1 2618   3.537   2.541   6.922
  573SOL    HW2 2619   3.558   2.547   0.068
  574SOL     OW 2620   2.268   1.497   4.311
  574SOL    HW1 2621   2.171   1.523   4.305
  574SOL    HW2 2622   2.318   1.566   4.363
  575SOL     OW 2623   5.540   2.311   6.490
  575SOL    HW1 2624   5.452   2.264   6.477
  575SOL    HW2 2625   5.567   2.306   6.586
  576SOL     OW 2626   0.911   2.650   2.663
  576SOL    HW1 2627   0.997   2.599   2.674
  576SOL    HW2 2628   0.925   2.723   2.596
  577SOL     OW 2629   3.533   2.083   4.468
  577SOL    HW1 2630   3.622   2.103   4.426
  577SOL    HW2 2631   3.545   2.063   4.565
  578SOL     OW 2632   0.231   3.519   4.390
  578SOL    HW1 2633   0.135   3.510   4.365
  578SOL    HW2 2634   0.289   3.482   4.318
  579SOL     OW 2635   3.713   3.413   0.624
  579SOL    HW1 2636   3.798   3.461   0.646
  579SOL    HW2 2637   3.638   3.451   0.679
  580SOL     OW 2638   0.865   6.283   0.007
  580SOL    HW1 2639   0.848   6.185   0.016
  580SOL    HW2 2640   0.963   6.299   0.002
  581SOL     OW 2641   4.125   3.395   2.581
  581SOL    HW1 2642   4.115   3.493   2.564
  581SOL    HW2 2643   4.119   3.346   2.494
  582SOL     OW 2644   6.589   4.473   1.431
  582SOL    HW1 2645   6.581   4.450   1.528
  582SOL    HW2 2646   6.678   4.442   1.396
  583SOL     OW 2647   2.602   6.060   6.843
  583SOL    HW1 2648   2.618   6.090   6.937
  583SOL    HW2 2649   2.686   6.020   6.805
  584SOL     OW 2650   0.856   5.441   4.971
  584SOL    HW1 2651   0.790   5.387   5.023
  584SOL    HW2 2652   0.940   5.388   4.959
  585SOL     OW 2653   6.243   0.935   5.873
  585SOL    HW1 2654   6.177   1.010   5.881
  585SOL    HW2 2655   6.321   0.953   5.932
  586SOL     OW 2656   2.642   5.628   1.488
  586SOL    HW1 2657   2.581   5.560   1.528
  586SOL    HW2 2658   2.675   5.596   1.399
  587SOL     OW 2659   1.250   3.755   5.757
  587SOL    HW1 2660   1.329   3.695   5.770
  587SOL    HW2 2661   1.181   3.734   5.825
  588SOL     OW 2662   2.138   0.213   1.730
  588SOL    HW1 2663   2.232   0.248   1.720
  588SOL    HW2 2664   2.074   0.286   1.705
  589SOL     OW 2665   4.463   5.321   2.253
  589SOL    HW1 2666   4.382   5.310   2.310
  589SOL    HW2 2667   4.480   5.236   2.203
  590SOL     OW 2668   6.279   2.598   2.225
  590SOL    HW1 2669   6.204   2.665   2.229
  590SOL    HW2 2670   6.337   2.618   2.146
  591SOL     OW 2671   3.025   6.806   3.128
  591SOL    HW1 2672   3.067   6.721   3.096
  591SOL    HW2 2673   2.929   6.789   3.149
  592SOL     OW 2674   5.315   6.854   6.591
  592SOL    HW1 2675   5.236   6.837   6.533
  592SOL    HW2 2676   5.373   6.923   6.548
  593SOL     OW 2677   6.279   1.213   4.760
  593SOL    HW1 2678   6.374   1.244   4.756
  593SOL    HW2 2679   6.235   1.229   4.671
  594SOL     OW 2680   5.383   2.476   1.439
  594SOL    HW1 2681   5.399   2.420   1.520
  594SOL    HW2 2682   5.303   2.442   1.390
  595SOL     OW 2683   4.681   6.559   3.939
  595SOL    HW1 2684   4.656   6.491   4.008
  595SOL    HW2 2685   4.763   6.529   3.891
  596SOL     OW 2686   0.847   3.742   1.908
  596SOL    HW1 2687   0.866   3.646   1.929
  596SOL    HW2 2688   0.920   3.778   1.849
  597SOL     OW 2689   4.400   2.689   5.963
  597SOL    HW1 2690   4.304   2.686   5.936
  597SOL    HW2 2691   4.454   2.634   5.900
  598SOL     OW 2692   3.136   4.130   1.272
  598SOL    HW1 2693   3.136   4.068   1.351
  598SOL    HW2 2694   3.059   4.192   1.279
  599SOL     OW 2695   6.720   6.685   3.662
  599SOL    HW1 2696   6.712   6.782   3.685
  599SOL    HW2 2697   6.801   6.670   3.606
  600SOL     OW 2698   2.706   1.586   1.231
  600SOL    HW1 2699   2.633   1.637   1.186
  600SOL    HW2 2700   2.739   1.637   1.310
  601SOL     OW 2701   2.237   4.970   3.116
  601SOL    HW1 2702   2.306   4.958   3.188
  601SOL    HW2 2703   2.272   5.034   3.047
  602SOL     OW 2704   6.491   0.644   2.034
  602SOL    HW1 2705   6.479   0.606   2.126
  602SOL    HW2 2706   6.579   0.692   2.029
  603SOL     OW 2707   3.787   1.802   3.291
  603SOL    HW1 2708   3.772   1.719   3.345
  603SOL    HW2 2709   3.757   1.882   3.344
  604SOL     OW 2710   0.793   3.703   5.833
  604SOL    HW1 2711   0.724   3.645   5.876
  604SOL    HW2 2712   0.758   3.739   5.746
  605SOL     OW 2713   6.150   0.003   4.864
  605SOL    HW1 2714   6.135   0.077   4.930
  605SOL    HW2 2715   6.118   6.932   4.903
  606SOL     OW 2716   3.659   6.958   2.710
  606SOL    HW1 2717   3.641   6.982   2.806
  606SOL    HW2 2718   3.582   6.988   2.653
  607SOL     OW 2719   4.316   0.709   4.267
  607SOL    HW1 2720   4.333   0.802   4.299
  607SOL    HW2 2721   4.301   0.648   4.345
  608SOL     OW 2722   5.475   2.782   1.718
  608SOL    HW1 2723   5.556   2.736   1.753
  608SOL    HW2 2724   5.440   2.847   1.786
  609SOL     OW 2725   3.060   3.815   4.847
  609SOL    HW1 2726   2.988   3.749   4.824
  609SOL    HW2 2727   3.023   3.884   4.909
  610SOL     OW 2728   5.962   1.677   4.487
  610SOL    HW1 2729   5.918   1.724   4.411
  610SOL    HW2 2730   6.052   1.716   4.503
  611SOL     OW 2731   5.906   6.700   0.323
  611SOL    HW1 2732   5.935   6.689   0.418
  611SOL    HW2 2733   5.837   6.631   0.301
  612SOL     OW 2734   2.179   5.463   5.650
  612SOL    HW1 2735   2.253   5.502   5.704
  612SOL    HW2 2736   2.217   5.408   5.576
  613SOL     OW 2737   3.842   1.582   6.720
  613SOL    HW1 2738   3.756   1.569   6.769
  613SOL    HW2 2739   3.832   1.655   6.653
  614SOL     OW 2740   5.294   3.260   1.281
  614SOL    HW1 2741   5.273   3.220   1.192
  614SOL    HW2 2742   5.220   3.242   1.345
  615SOL     OW 2743   5.063   6.560   0.594
  615SOL    HW1 2744   5.044   6.652   0.630
  615SOL    HW2 2745   5.153   6.559   0.551
  616SOL     OW 2746   5.122   0.662   4.701
  616SOL    HW1 2747   5.190   0.695   4.766
  616SOL    HW2 2748   5.032   0.699   4.725
  617SOL     OW 2749   0.033   6.041   5.143
  617SOL    HW1 2750   6.986   5.970   5.176
  617SOL    HW2 2751   0.108   5.999   5.093
  618SOL     OW 2752   5.493   4.849   0.427
  618SOL    HW1 2753   5.474   4.937   0.384
  618SOL    HW2 2754   5.459   4.775   0.368
  619SOL     OW 2755   2.347   6.380   5.864
  619SOL    HW1 2756   2.338   6.289   5.906
  619SOL    HW2 2757   2.417   6.432   5.912
  620SOL     OW 2758   4.316   1.934   2.041
  620SOL    HW1 2759   4.316   1.839   2.009
  620SOL    HW2 2760   4.251   1.944   2.117
  621SOL     OW 2761   3.207   0.622   6.747
  621SOL    HW1 2762   3.159   0.534   6.747
  621SOL    HW2 2763   3.279   0.620   6.816
  622SOL     OW 2764   0.170   3.471   5.778
  622SOL    HW1 2765   0.161   3.471   5.678
  622SOL    HW2 2766   0.162   3.564   5.812
  623SOL     OW 2767   6.738   0.432   3.057
  623SOL    HW1 2768   6.721   0.492   2.979
  623SOL    HW2 2769   6.654   0.383   3.081
  624SOL     OW 2770   6.307   1.601   6.085
  624SOL    HW1 2771   6.319   1.502   6.087
  624SOL    HW2 2772   6.211   1.623   6.098
  625SOL     OW 2773   3.691   1.041   1.281
  625SOL    HW1 2774   3.685   1.126   1.228
  625SOL    HW2 2775   3.787   1.024   1.304
  626SOL     OW 2776   0.792   5.812   3.327
  626SOL    HW1 2777   0.799   5.771   3.236
  626SOL    HW2 2778   0.778   5.911   3.319
  627SOL     OW 2779   6.514   5.345   6.875
  627SOL    HW1 2780   6.541   5.287   6.952
  627SOL    HW2 2781   6.501   5.439   6.906
  628SOL     OW 2782   3.668   5.047   6.340
  628SOL    HW1 2783   3.672   4.995   6.426
  628SOL    HW2 2784   3.730   5.126   6.346
  629SOL     OW 2785   0.894   6.782   0.018
  629SOL    HW1 2786   0.841   6.843   0.076
  629SOL    HW2 2787   0.870   6.687   0.038
  630SOL     OW 2788   6.645   1.854   1.227
  630SOL    HW1 2789   6.685   1.770   1.266
  630SOL    HW2 2790   6.635   1.843   1.129
  631SOL     OW 2791   1.978   2.602   3.138
  631SOL    HW1 2792   1.945   2.570   3.227
  631SOL    HW2 2793   1.927   2.684   3.111
  632SOL     OW 2794   2.871   3.999   1.111
  632SOL    HW1 2795   2.903   3.995   1.205
  632SOL    HW2 2796   2.884   3.910   1.067
  633SOL     OW 2797   1.608   5.945   0.719
  633SOL    HW1 2798   1.689   5.932   0.777
  633SOL    HW2 2799   1.532   5.891   0.754
  634SOL     OW 2800   3.118   3.469   4.781
  634SOL    HW1 2801   3.118   3.370   4.767
  634SOL    HW2 2802   3.211   3.503   4.778
  635SOL     OW 2803   5.759   6.580   6.354
  635SOL    HW1 2804   5.822   6.518   6.399
  635SOL    HW2 2805   5.678   6.593   6.411
  636SOL     OW 2806   2.649   1.260   4.880
  636SOL    HW1 2807   2.595   1.280   4.961
  636SOL    HW2 2808   2.703   1.177   4.896
  637SOL     OW 2809   0.136   1.415   2.581
  637SOL    HW1 2810   0.207   1.485   2.580
  637SOL    HW2 2811   0.144   1.361   2.665
  638SOL     OW 2812   6.957   3.567   4.946
  638SOL    HW1 2813   6.881   3.602   4.893
  638SOL    HW2 2814   6.940   3.471   4.971
  639SOL     OW 2815   5.752   3.402   1.698
  639SOL    HW1 2816   5.847   3.433   1.698
  639SOL    HW2 2817   5.728   3.368   1.607
  640SOL     OW 2818   0.068   3.350   2.676
  640SOL    HW1 2819   0.162   3.316   2.675
  640SOL    HW2 2820   0.068   3.449   2.687
  641SOL     OW 2821   2.418   5.115   4.424
  641SOL    HW1 2822   2.360   5.170   4.485
  641SOL    HW2 2823   2.441   5.029   4.470
  642SOL     OW 2824   0.627   5.243   4.475
  642SOL    HW1 2825   0.691   5.314   4.445
  642SOL    HW2 2826   0.677   5.159   4.495
  643SOL     OW 2827   4.186   5.570   0.390
  643SOL    HW1 2828   4.136   5.592   0.474
  643SOL    HW2 2829   4.146   5.488   0.348
  644SOL     OW 2830   6.901   6.526   5.101
  644SOL    HW1 2831   6.963   6.600   5.128
  644SOL    HW2 2832   6.828   6.563   5.044
  645SOL     OW 2833   4.340   5.988   2.200
  645SOL    HW1 2834   4.390   6.018   2.119
  645SOL    HW2 2835   4.321   6.067   2.258
  646SOL     OW 2836   3.349   1.815   4.897
  646SOL    HW1 2837   3.332   1.910   4.870
  646SOL    HW2 2838   3.265   1.762   4.887
  647SOL     OW 2839   3.056   2.629   0.275
  647SOL    HW1 2840   2.987   2.557   0.260
  647SOL    HW2 2841   3.016   2.702   0.329
  648SOL     OW 2842   6.052   1.379   3.967
  648SOL    HW1 2843   6.080   1.284   3.979
  648SOL    HW2 2844   6.064   1.429   4.053
  649SOL     OW 2845   2.915   5.556   0.866
  649SOL    HW1 2846   2.826   5.512   0.876
  649SOL    HW2 2847   2.931   5.579   0.770
  650SOL     OW 2848   1.251   2.964   0.632
  650SOL    HW1 2849   1.231   2.877   0.677
  650SOL    HW2 2850   1.280   3.031   0.700
  651SOL     OW 2851   0.325   0.828   3.843
  651SOL    HW1 2852   0.320   0.927   3.857
  651SOL    HW2 2853   0.370   0.785   3.921
  652SOL     OW 2854   3.995   5.589   0.610
  652SOL    HW1 2855   3.934   5.621   0.538
  652SOL    HW2 2856   3.950   5.602   0.699
  653SOL     OW 2857   1.532   6.672   2.480
  653SOL    HW1 2858   1.582   6.676   2.393
  653SOL    HW2 2859   1.455   6.608   2.471
  654SOL     OW 2860   0.893   6.735   5.451
  654SOL    HW1 2861   0.952   6.749   5.372
  654SOL    HW2 2862   0.825   6.665   5.430
  655SOL     OW 2863   0.862   3.188   0.847
  655SOL    HW1 2864   0.844   3.257   0.918
  655SOL    HW2 2865   0.949   3.143   0.866
  656SOL     OW 2866   2.617   6.408   6.584
  656SOL    HW1 2867   2.639   6.458   6.500
  656SOL    HW2 2868   2.519   6.411   6.600
  657SOL     OW 2869   3.840   3.537   3.925
  657SOL    HW1 2870   3.802   3.627   3.947
  657SOL    HW2 2871   3.845   3.527   3.825
  658SOL     OW 2872   1.509   0.922   4.493
  658SOL    HW1 2873   1.489   0.859   4.418
  658SOL    HW2 2874   1.425   0.946   4.541
  659SOL     OW 2875   1.607   5.671   6.424
  659SOL    HW1 2876   1.548   5.751   6.426
  659SOL    HW2 2877   1.698   5.697   6.392
  660SOL     OW 2878   5.903   4.220   2.616
  660SOL    HW1 2879   5.842   4.298   2.600
  660SOL    HW2 2880   5.998   4.250   2.607
  661SOL     OW 2881   4.267   4.968   3.774
  661SOL    HW1 2882   4.359   4.935   3.795
  661SOL    HW2 2883   4.200   4.900   3.805
  662SOL     OW 2884   5.028   4.081   0.492
  662SOL    HW1 2885   5.018   4.062   0.394
  662SOL    HW2 2886   4.989   4.006   0.545
  663SOL     OW 2887   0.302   4.643   6.572
  663SOL    HW1 2888   0.243   4.564   6.592
  663SOL    HW2 2889   0.253   4.706   6.512
  664SOL     OW 2890   1.454   6.786   6.223
  664SOL    HW1 2891   1.458   6.719   6.297
  664SOL    HW2 2892   1.444   6.878   6.261
  665SOL     OW 2893   2.444   4.444   2.946
  665SOL    HW1 2894   2.380   4.517   2.970
  665SOL    HW2 2895   2.523   4.483   2.899
  666SOL     OW 2896   3.134   1.389   6.892
  666SOL    HW1 2897   3.063   1.455   6.868
  666SOL    HW2 2898   3.119   1.304   6.841
  667SOL     OW 2899   1.541   3.285   2.301
  667SOL    HW1 2900   1.489   3.343   2.364
  667SOL    HW2 2901   1.507   3.192   2.304
  668SOL     OW 2902   4.995   0.208   0.934
  668SOL    HW1 2903   5.088   0.241   0.913
  668SOL    HW2 2904   4.937   0.286   0.956
  669SOL     OW 2905   0.696   5.400   2.981
  669SOL    HW1 2906   0.768   5.340   2.947
  669SOL    HW2 2907   0.730   5.494   2.985
  670SOL     OW 2908   3.997   3.728   3.164
  670SOL    HW1 2909   4.041   3.711   3.252
  670SOL    HW2 2910   3.945   3.814   3.169
  671SOL     OW 2911   1.868   0.641   6.515
  671SOL    HW1 2912   1.896   0.731   6.481
  671SOL    HW2 2913   1.903   0.570   6.453
  672SOL     OW 2914   1.412   2.256   2.900
  672SOL    HW1 2915   1.373   2.344   2.926
  672SOL    HW2 2916   1.473   2.267   2.822
  673SOL     OW 2917   4.619   0.350   0.383
  673SOL    HW1 2918   4.599   0.278   0.317
  673SOL    HW2 2919   4.621   0.311   0.475
  674SOL     OW 2920   0.270   2.537   4.566
  674SOL    HW1 2921   0.221   2.464   4.614
  674SOL    HW2 2922   0.272   2.517   4.468
  675SOL     OW 2923   6.242   6.451   3.717
  675SOL    HW1 2924   6.189   6.492   3.643
  675SOL    HW2 2925   6.325   6.504   3.732
  676SOL     OW 2926   3.098   5.670   4.624
  676SOL    HW1 2927   3.047   5.678   4.539
  676SOL    HW2 2928   3.192   5.641   4.605
  677SOL     OW 2929   4.212   6.684   0.489
  677SOL    HW1 2930   4.137   6.720   0.545
  677SOL    HW2 2931   4.196   6.587   0.470
  678SOL     OW 2932   2.294   1.244   5.493
  678SOL    HW1 2933   2.210   1.190   5.501
  678SOL    HW2 2934   2.372   1.182   5.481
  679SOL     OW 2935   6.153   0.936   2.257
  679SOL    HW1 2936   6.192   0.914   2.346
  679SOL    HW2 2937   6.147   0.853   2.201
  680SOL     OW 2938   5.422   4.030   4.421
  680SOL    HW1 2939   5.474   3.968   4.478
  680SOL    HW2 2940   5.413   3.993   4.328
  681SOL     OW 2941   0.876   6.705   1.936
  681SOL    HW1 2942   0.898   6.770   1.864
  681SOL    HW2 2943   0.955   6.690   1.995
  682SOL     OW 2944   0.250   0.178   6.040
  682SOL    HW1 2945   0.274   0.112   6.111
  682SOL    HW2 2946   0.209   0.259   6.082
  683SOL     OW 2947   4.935   1.360   1.237
  683SOL    HW1 2948   5.035   1.359   1.229
  683SOL    HW2 2949   4.910   1.405   1.323
  684SOL     OW 2950   0.147   6.106   6.490
  684SOL    HW1 2951   0.236   6.061   6.485
  684SOL    HW2 2952   0.160   6.205   6.494
  685SOL     OW 2953   6.432   0.708   6.746
  685SOL    HW1 2954   6.513   0.755   6.709
  685SOL    HW2 2955   6.397   0.644   6.678
  686SOL     OW 2956   5.677   4.815   2.857
  686SOL    HW1 2957   5.674   4.716   2.865
  686SOL    HW2 2958   5.695   4.841   2.762
  687SOL     OW 2959   5.642   1.955   5.553
  687SOL    HW1 2960   5.712   1.928   5.619
  687SOL    HW2 2961   5.653   2.051   5.529
  688SOL     OW 2962   6.362   3.835   4.691
  688SOL    HW1 2963   6.345   3.815   4.787
  688SOL    HW2 2964   6.284   3.804   4.636
  689SOL     OW 2965   5.862   4.263   4.330
  689SOL    HW1 2966   5.777   4.245   4.378
  689SOL    HW2 2967   5.939   4.234   4.386
  690SOL     OW 2968   0.194   3.403   3.907
  690SOL    HW1 2969   0.208   3.492   3.865
  690SOL    HW2 2970   0.220   3.331   3.842
  691SOL     OW 2971   0.234   3.193   6.540
  691SOL    HW1 2972   0.178   3.119   6.503
  691SOL    HW2 2973   0.192   3.227   6.624
  692SOL     OW 2974   2.606   0.299   3.337
  692SOL    HW1 2975   2.527   0.251   3.374
  692SOL    HW2 2976   2.634   0.372   3.400
  693SOL     OW 2977   6.413   1.455   2.864
  693SOL    HW1 2978   6.398   1.430   2.959
  693SOL    HW2 2979   6.324   1.460   2.817
  694SOL     OW 2980   1.750   0.468   2.207
  694SOL    HW1 2981   1.652   0.446   2.205
  694SOL    HW2 2982   1.763   0.565   2.191
  695SOL     OW 2983   4.709   5.540   6.742
  695SOL    HW1 2984   4.759   5.509   6.661
  695SOL    HW2 2985   4.731   5.636   6.759
  696SOL     OW 2986   5.235   6.554   2.377
  696SOL    HW1 2987   5.177   6.483   2.416
  696SOL    HW2 2988   5.240   6.631   2.440
  697SOL     OW 2989   1.564   3.735   3.936
  697SOL    HW1 2990   1.641   3.757   3.996
  697SOL    HW2 2991   1.577   3.781   3.848
  698SOL     OW 2992   5.263   5.875   4.049
  698SOL    HW1 2993   5.203   5.796   4.061
  698SOL    HW2 2994   5.357   5.848   4.070
  699SOL     OW 2995   0.992   4.468   6.313
  699SOL    HW1 2996   0.971   4.545   6.374
  699SOL    HW2 2997   0.908   4.420   6.289
  700SOL     OW 2998   1.788   1.950   4.608
  700SOL    HW1 2999   1.827   1.875   4.553
  700SOL    HW2 3000   1.706   1.985   4.562
  701SOL     OW 3001   0.883   4.714   5.588
  701SOL    HW1 3002   0.852   4.633   5.638
  701SOL    HW2 3003   0.983   4.717   5.588
  702SOL     OW 3004   5.469   5.858   5.168
  702SOL    HW1 3005   5.515   5.771   5.151
  702SOL    HW2 3006   5.375   5.853   5.132
  703SOL     OW 3007   4.886   4.044   6.673
  703SOL    HW1 3008   4.844   4.095   6.598
  703SOL    HW2 3009   4.978   4.079   6.690
  704SOL     OW 3010   2.404   6.891   1.703
  704SOL    HW1 3011   2.316   6.861   1.667
  704SOL    HW2 3012   2.459   6.928   1.628
  705SOL     OW 3013   0.345   2.045   3.663
  705SOL    HW1 3014   0.400   2.121   3.699
  705SOL    HW2 3015   0.269   2.027   3.724
  706SOL     OW 3016   4.798   2.966   3.792
  706SOL    HW1 3017   4.801   3.042   3.857
  706SOL    HW2 3018   4.869   2.978   3.723
  707SOL     OW 3019   4.763   2.220   2.580
  707SOL    HW1 3020   4.693   2.244   2.513
  707SOL    HW2 3021   4.833   2.291   2.582
  708SOL     OW 3022   4.175   0.606   2.344
  708SOL    HW1 3023   4.134   0.561   2.423
  708SOL    HW2 3024   4.142   0.700   2.338
  709SOL     OW 3025   0.755   5.485   0.008
  709SOL    HW1 3026   0.658   5.495   0.030
  709SOL    HW2 3027   0.797   5.417   0.068
  710SOL     OW 3028   3.355   3.390   2.992
  710SOL    HW1 3029   3.310   3.462   3.045
  710SOL    HW2 3030   3.410   3.432   2.920
  711SOL     OW 3031   0.688   0.922   5.049
  711SOL    HW1 3032   0.622   0.997   5.052
  711SOL    HW2 3033   0.778   0.955   5.078
  712SOL     OW 3034   1.095   3.614   2.221
  712SOL    HW1 3035   1.120   3.570   2.307
  712SOL    HW2 3036   1.001   3.646   2.226
  713SOL     OW 3037   3.044   3.985   4.137
  713SOL    HW1 3038   2.945   3.969   4.143
  713SOL    HW2 3039   3.080   4.003   4.228
  714SOL     OW 3040   5.071   4.878   5.281
  714SOL    HW1 3041   5.042   4.866   5.186
  714SOL    HW2 3042   4.994   4.856   5.341
  715SOL     OW 3043   5.682   6.997   6.255
  715SOL    HW1 3044   5.641   0.035   6.180
  715SOL    HW2 3045   5.780   6.988   6.239
  716SOL     OW 3046   6.642   5.139   1.611
  716SOL    HW1 3047   6.556   5.092   1.631
  716SOL    HW2 3048   6.683   5.098   1.529
  717SOL     OW 3049   6.304   2.790   6.424
  717SOL    HW1 3050   6.362   2.867   6.398
  717SOL    HW2 3051   6.271   2.803   6.517
  718SOL     OW 3052   2.632   3.016   6.646
  718SOL    HW1 3053   2.607   2.928   6.604
  718SOL    HW2 3054   2.686   2.999   6.728
  719SOL     OW 3055   4.790   5.121   0.580
  719SOL    HW1 3056   4.887   5.100   0.566
  719SOL    HW2 3057   4.777   5.161   0.670
  720SOL     OW 3058   3.228   0.999   6.188
  720SOL    HW1 3059   3.210   0.923   6.250
  720SOL    HW2 3060   3.303   1.054   6.225
  721SOL     OW 3061   1.237   6.788   5.423
  721SOL    HW1 3062   1.162   6.798   5.358
  721SOL    HW2 3063   1.229   6.857   5.495
  722SOL     OW 3064   4.368   6.561   5.340
  722SOL    HW1 3065   4.404   6.635   5.396
  722SOL    HW2 3066   4.345   6.483   5.398
  723SOL     OW 3067   1.578   3.388   1.785
  723SOL    HW1 3068   1.639   3.361   1.711
  723SOL    HW2 3069   1.497   3.434   1.747
  724SOL     OW 3070   6.945   0.786   4.778
  724SOL    HW1 3071   6.968   0.785   4.876
  724SOL    HW2 3072   6.916   0.878   4.751
  725SOL     OW 3073   2.374   4.905   1.552
  725SOL    HW1 3074   2.313   4.837   1.593
  725SOL    HW2 3075   2.353   4.914   1.455
  726SOL     OW 3076   4.948   6.605   5.726
  726SOL    HW1 3077   5.002   6.543   5.669
  726SOL    HW2 3078   4.857   6.616   5.685
  727SOL     OW 3079   1.926   4.288   4.002
  727SOL    HW1 3080   1.901   4.384   3.997
  727SOL    HW2 3081   1.843   4.232   3.993
  728SOL     OW 3082   6.926   3.629   5.505
  728SOL    HW1 3083   0.009   3.611   5.503
  728SOL    HW2 3084   6.900   3.681   5.424
  729SOL     OW 3085   3.398   1.045   0.506
  729SOL    HW1 3086   3.384   0.946   0.503
  729SOL    HW2 3087   3.345   1.084   0.581
  730SOL     OW 3088   5.302   1.280   4.960
  730SOL    HW1 3089   5.293   1.375   4.929
  730SOL    HW2 3090   5.376   1.275   5.028
  731SOL     OW 3091   6.687   2.434   4.016
  731SOL    HW1 3092   6.667   2.512   3.956
  731SOL    HW2 3093   6.735   2.363   3.964
  732SOL     OW 3094   0.144   3.397   3.562
  732SOL    HW1 3095   0.191   3.481   3.536
  732SOL    HW2 3096   0.207   3.339   3.614
  733SOL     OW 3097   4.787   5.162   4.563
  733SOL    HW1 3098   4.773   5.221   4.643
  733SOL    HW2 3099   4.769   5.214   4.480
  734SOL     OW 3100   0.749   5.810   6.658
  734SOL    HW1 3101   0.696   5.729   6.634
  734SOL    HW2 3102   0.817   5.786   6.728
  735SOL     OW 3103   3.000   4.471   0.128
  735SOL    HW1 3104   2.997   4.523   0.213
  735SOL    HW2 3105   2.922   4.498   0.070
  736SOL     OW 3106   5.568   0.708   2.563
  736SOL    HW1 3107   5.543   0.788   2.507
  736SOL    HW2 3108   5.613   0.739   2.647
  737SOL     OW 3109   5.311   4.150   0.498
  737SOL    HW1 3110   5.232   4.106   0.541
  737SOL    HW2 3111   5.394   4.120   0.544
  738SOL     OW 3112   0.638   4.565   2.868
  738SOL    HW1 3113   0.550   4.520   2.851
  738SOL    HW2 3114   0.688   4.573   2.782
  739SOL     OW 3115   4.670   6.389   6.253
  739SOL    HW1 3116   4.616   6.472   6.264
  739SOL    HW2 3117   4.751   6.393   6.312
  740SOL     OW 3118   5.175   0.198   0.357
  740SOL    HW1 3119   5.245   0.224   0.290
  740SOL    HW2 3120   5.219   0.150   0.433
  741SOL     OW 3121   3.136   0.348   4.007
  741SOL    HW1 3122   3.076   0.277   4.044
  741SOL    HW2 3123   3.196   0.382   4.080
  742SOL     OW 3124   1.087   6.707   2.121
  742SOL    HW1 3125   1.101   6.802   2.148
  742SOL    HW2 3126   1.006   6.671   2.168
  743SOL     OW 3127   1.731   2.850   4.214
  743SOL    HW1 3128   1.746   2.756   4.245
  743SOL    HW2 3129   1.812   2.882   4.164
  744SOL     OW 3130   7.002   4.986   0.773
  744SOL    HW1 3131   0.062   5.033   0.728
  744SOL    HW2 3132   7.014   4.990   0.872
  745SOL     OW 3133   2.065   6.130   3.461
  745SOL    HW1 3134   2.035   6.065   3.391
  745SOL    HW2 3135   2.019   6.218   3.447
  746SOL     OW 3136   3.270   0.435   3.776
  746SOL    HW1 3137   3.228   0.518   3.739
  746SOL    HW2 3138   3.224   0.409   3.860
  747SOL     OW 3139   6.525   3.621   1.092
  747SOL    HW1 3140   6.582   3.570   1.027
  747SOL    HW2 3141   6.463   3.559   1.139
  748SOL     OW 3142   3.796   2.977   2.628
  748SOL    HW1 3143   3.703   2.988   2.592
  748SOL    HW2 3144   3.859   3.034   2.576
  749SOL     OW 3145   6.202   2.407   5.259
  749SOL    HW1 3146   6.151   2.409   5.173
  749SOL    HW2 3147   6.300   2.412   5.241
  750SOL     OW 3148   3.251   3.327   2.034
  750SOL    HW1 3149   3.267   3.342   1.936
  750SOL    HW2 3150   3.338   3.335   2.083
  751SOL     OW 3151   5.373   1.271   0.562
  751SOL    HW1 3152   5.369   1.365   0.527
  751SOL    HW2 3153   5.468   1.244   0.574
  752SOL     OW 3154   4.410   1.019   1.774
  752SOL    HW1 3155   4.505   1.050   1.774
  752SOL    HW2 3156   4.388   0.978   1.685
  753SOL     OW 3157   2.617   1.197   2.996
  753SOL    HW1 3158   2.693   1.251   2.960
  753SOL    HW2 3159   2.588   1.235   3.084
  754SOL     OW 3160   5.013   5.558   0.219
  754SOL    HW1 3161   4.970   5.506   0.293
  754SOL    HW2 3162   5.106   5.523   0.204
  755SOL     OW 3163   6.539   5.855   2.991
  755SOL    HW1 3164   6.535   5.776   2.931
  755SOL    HW2 3165   6.586   5.830   3.076
  756SOL     OW 3166   3.506   6.189   3.996
  756SOL    HW1 3167   3.474   6.266   4.052
  756SOL    HW2 3168   3.560   6.224   3.920
  757SOL     OW 3169   6.546   1.280   4.255
  757SOL    HW1 3170   6.591   1.194   4.228
  757SOL    HW2 3171   6.448   1.265   4.261
  758SOL     OW 3172   4.402   2.147   1.314
  758SOL    HW1 3173   4.428   2.244   1.311
  758SOL    HW2 3174   4.461   2.099   1.379
  759SOL     OW 3175   1.805   0.695   1.079
  759SOL    HW1 3176   1.884   0.637   1.099
  759SOL    HW2 3177   1.733   0.676   1.146
  760SOL     OW 3178   4.406   2.350   5.884
  760SOL    HW1 3179   4.420   2.291   5.964
  760SOL    HW2 3180   4.309   2.347   5.859
  761SOL     OW 3181   5.139   1.608   6.655
  761SOL    HW1 3182   5.139   1.508   6.656
  761SOL    HW2 3183   5.183   1.643   6.738
  762SOL     OW 3184   2.139   4.837   4.317
  762SOL    HW1 3185   2.193   4.752   4.312
  762SOL    HW2 3186   2.140   4.871   4.411
  763SOL     OW 3187   6.122   5.240   6.860
  763SOL    HW1 3188   6.150   5.323   6.811
  763SOL    HW2 3189   6.087   5.265   6.951
  764SOL     OW 3190   4.871   0.952   2.757
  764SOL    HW1 3191   4.905   1.018   2.823
  764SOL    HW2 3192   4.946   0.894   2.724
  765SOL     OW 3193   6.939   6.625   3.421
  765SOL    HW1 3194   6.952   6.674   3.334
  765SOL    HW2 3195   6.991   6.672   3.493
  766SOL     OW 3196   0.200   6.531   0.357
  766SOL    HW1 3197   0.263   6.609   0.353
  766SOL    HW2 3198   0.109   6.562   0.384
  767SOL     OW 3199   6.175   6.782   1.129
  767SOL    HW1 3200   6.179   6.703   1.190
  767SOL    HW2 3201   6.214   6.757   1.040
  768SOL     OW 3202   3.385   6.811   3.945
  768SOL    HW1 3203   3.366   6.765   4.032
  768SOL    HW2 3204   3.332   6.896   3.941
  769SOL     OW 3205   3.273   0.669   0.204
  769SOL    HW1 3206   3.273   0.611   0.123
  769SOL    HW2 3207   3.340   0.743   0.192
  770SOL     OW 3208   3.005   4.953   3.763
  770SOL    HW1 3209   3.103   4.931   3.762
  770SOL    HW2 3210   2.975   4.965   3.857
  771SOL     OW 3211   0.865   5.446   4.514
  771SOL    HW1 3212   0.832   5.495   4.433
  771SOL    HW2 3213   0.858   5.505   4.594
  772SOL     OW 3214   6.949   4.693   5.311
  772SOL    HW1 3215   6.967   4.625   5.382
  772SOL    HW2 3216   6.965   4.652   5.221
  773SOL     OW 3217   0.239   3.265   1.886
  773SOL    HW1 3218   0.209   3.190   1.945
  773SOL    HW2 3219   0.175   3.273   1.809
  774SOL     OW 3220   1.197   1.380   1.582
  774SOL    HW1 3221   1.279   1.333   1.614
  774SOL    HW2 3222   1.213   1.479   1.580
  775SOL     OW 3223   1.175   2.665   4.429
  775SOL    HW1 3224   1.240   2.634   4.360
  775SOL    HW2 3225   1.193   2.618   4.515
  776SOL     OW 3226   2.367   6.851   5.507
  776SOL    HW1 3227   2.436   6.867   5.577
  776SOL    HW2 3228   2.300   6.784   5.540
  777SOL     OW 3229   4.425   0.266   0.623
  777SOL    HW1 3230   4.358   0.195   0.647
  777SOL    HW2 3231   4.505   0.257   0.682
  778SOL     OW 3232   4.022   5.678   4.814
  778SOL    HW1 3233   4.107   5.658   4.862
  778SOL    HW2 3234   3.947   5.684   4.880
  779SOL     OW 3235   1.181   0.182   3.092
  779SOL    HW1 3236   1.255   0.246   3.071
  779SOL    HW2 3237   1.220   0.091   3.106
  780SOL     OW 3238   5.126   3.355   5.060
  780SOL    HW1 3239   5.212   3.399   5.086
  780SOL    HW2 3240   5.101   3.286   5.128
  781SOL     OW 3241   0.901   2.266   6.595
  781SOL    HW1 3242   0.860   2.355   6.576
  781SOL    HW2 3243   0.959   2.239   6.518
  782SOL     OW 3244   0.467   4.130   0.298
  782SOL    HW1 3245   0.550   4.178   0.272
  782SOL    HW2 3246   0.476   4.097   0.392
  783SOL     OW 3247   2.612   4.367   0.203
  783SOL    HW1 3248   2.633   4.397   0.295
  783SOL    HW2 3249   2.637   4.438   0.137
  784SOL     OW 3250   4.918   5.442   3.643
  784SOL    HW1 3251   4.962   5.496   3.571
  784SOL    HW2 3252   4.827   5.478   3.661
  785SOL     OW 3253   6.144   1.977   4.036
  785SOL    HW1 3254   6.164   1.952   4.131
  785SOL    HW2 3255   6.053   1.945   4.011
  786SOL     OW 3256   6.366   6.555   0.515
  786SOL    HW1 3257   6.316   6.640   0.502
  786SOL    HW2 3258   6.353   6.495   0.436
  787SOL     OW 3259   4.718   1.203   6.660
  787SOL    HW1 3260   4.666   1.262   6.598
  787SOL    HW2 3261   4.658   1.169   6.732
  788SOL     OW 3262   0.670   4.266   3.112
  788SOL    HW1 3263   0.758   4.279   3.067
  788SOL    HW2 3264   0.618   4.351   3.108
  789SOL     OW 3265   5.562   3.265   1.216
  789SOL    HW1 3266   5.581   3.256   1.118
  789SOL    HW2 3267   5.467   3.292   1.229
  790SOL     OW 3268   3.803   0.559   3.867
  790SOL    HW1 3269   3.802   0.659   3.869
  790SOL    HW2 3270   3.833   0.524   3.955
  791SOL     OW 3271   3.786   1.549   4.794
  791SOL    HW1 3272   3.700   1.589   4.827
  791SOL    HW2 3273   3.859   1.617   4.801
  792SOL     OW 3274   5.027   0.331   3.976
  792SOL    HW1 3275   5.059   0.297   4.065
  792SOL    HW2 3276   4.929   0.313   3.967
  793SOL     OW 3277   0.148   6.994   6.558
  793SOL    HW1 3278   0.193   6.922   6.504
  793SOL    HW2 3279   0.077   6.953   6.616
  794SOL     OW 3280   3.720   4.929   4.884
  794SOL    HW1 3281   3.758   4.966   4.969
  794SOL    HW2 3282   3.756   4.837   4.869
  795SOL     OW 3283   4.890   5.115   6.577
  795SOL    HW1 3284   4.962   5.156   6.521
  795SOL    HW2 3285   4.881   5.166   6.663
  796SOL     OW 3286   0.298   1.823   5.652
  796SOL    HW1 3287   0.358   1.897   5.684
  796SOL    HW2 3288   0.354   1.751   5.610
  797SOL     OW 3289   6.081   2.643   5.279
  797SOL    HW1 3290   6.152   2.572   5.268
  797SOL    HW2 3291   6.124   2.733   5.282
  798SOL     OW 3292   6.605   0.653   5.174
  798SOL    HW1 3293   6.590   0.616   5.266
  798SOL    HW2 3294   6.611   0.753   5.179
  799SOL     OW 3295   6.699   3.460   3.715
  799SOL    HW1 3296   6.774   3.397   3.738
  799SOL    HW2 3297   6.689   3.465   3.616
  800SOL     OW 3298   6.644   1.682   1.846
  800SOL    HW1 3299   6.710   1.616   1.811
  800SOL    HW2 3300   6.633   1.756   1.780
  801SOL     OW 3301   0.645   2.206   3.542
  801SOL    HW1 3302   0.710   2.276   3.572
  801SOL    HW2 3303   0.650   2.197   3.443
  802SOL     OW 3304   5.861   1.358   0.996
  802SOL    HW1 3305   5.887   1.264   1.017
  802SOL    HW2 3306   5.827   1.403   1.079
  803SOL     OW 3307   1.558   0.175   4.788
  803SOL    HW1 3308   1.474   0.171   4.841
  803SOL    HW2 3309   1.554   0.109   4.713
  804SOL     OW 3310   6.987   6.483   1.007
  804SOL    HW1 3311   6.919   6.553   0.985
  804SOL    HW2 3312   6.949   6.420   1.075
  805SOL     OW 3313   1.236   2.979   5.447
  805SOL    HW1 3314   1.295   2.901   5.426
  805SOL    HW2 3315   1.287   3.064   5.429
  806SOL     OW 3316   5.022   0.478   0.693
  806SOL    HW1 3317   4.970   0.529   0.761
  806SOL    HW2 3318   4.988   0.500   0.601
  807SOL     OW 3319   1.128   6.662   2.754
  807SOL    HW1 3320   1.110   6.759   2.741
  807SOL    HW2 3321   1.225   6.649   2.777
  808SOL     OW 3322   5.996   3.605   5.078
  808SOL    HW1 3323   5.918   3.542   5.086
  808SOL    HW2 3324   5.967   3.696   5.108
  809SOL     OW 3325   0.735   5.600   6.076
  809SOL    HW1 3326   0.737   5.518   6.019
  809SOL    HW2 3327   0.681   5.581   6.159
  810SOL     OW 3328   6.621   4.854   6.569
  810SOL    HW1 3329   6.632   4.929   6.635
  810SOL    HW2 3330   6.545   4.875   6.508
  811SOL     OW 3331   4.280   5.496   3.243
  811SOL    HW1 3332   4.276   5.564   3.317
  811SOL    HW2 3333   4.202   5.434   3.251
  812SOL     OW 3334   0.175   0.317   2.393
  812SOL    HW1 3335   0.250   0.376   2.364
  812SOL    HW2 3336   0.210   0.248   2.457
  813SOL     OW 3337   5.724   5.653   2.109
  813SOL    HW1 3338   5.729   5.658   2.209
  813SOL    HW2 3339   5.650   5.712   2.076
  814SOL     OW 3340   5.459   5.569   1.483
  814SOL    HW1 3341   5.393   5.616   1.540
  814SOL    HW2 3342   5.505   5.497   1.536
  815SOL     OW 3343   0.481   1.114   0.328
  815SOL    HW1 3344   0.513   1.208   0.319
  815SOL    HW2 3345   0.396   1.112   0.380
  816SOL     OW 3346   5.630   0.295   0.858
  816SOL    HW1 3347   5.617   0.283   0.759
  816SOL    HW2 3348   5.726   0.317   0.876
  817SOL     OW 3349   0.543   2.022   1.415
  817SOL    HW1 3350   0.445   2.034   1.429
  817SOL    HW2 3351   0.563   2.021   1.317
  818SOL     OW 3352   5.730   1.231   2.598
  818SOL    HW1 3353   5.704   1.322   2.564
  818SOL    HW2 3354   5.827   1.230   2.620
  819SOL     OW 3355   0.170   5.277   2.332
  819SOL    HW1 3356   0.222   5.193   2.351
  819SOL    HW2 3357   0.156   5.285   2.233
  820SOL     OW 3358   1.457   2.883   4.487
  820SOL    HW1 3359   1.511   2.965   4.470
  820SOL    HW2 3360   1.385   2.903   4.554
  821SOL     OW 3361   1.232   3.889   0.209
  821SOL    HW1 3362   1.223   3.797   0.245
  821SOL    HW2 3363   1.141   3.926   0.188
  822SOL     OW 3364   1.304   3.592   4.942
  822SOL    HW1 3365   1.276   3.571   4.848
  822SOL    HW2 3366   1.388   3.543   4.963
  823SOL     OW 3367   3.683   3.417   1.520
  823SOL    HW1 3368   3.724   3.483   1.583
  823SOL    HW2 3369   3.733   3.330   1.526
  824SOL     OW 3370   6.056   2.466   5.825
  824SOL    HW1 3371   6.000   2.424   5.896
  824SOL    HW2 3372   5.998   2.521   5.765
  825SOL     OW 3373   1.093   3.812   1.805
  825SOL    HW1 3374   1.116   3.803   1.708
  825SOL    HW2 3375   1.145   3.887   1.845
  826SOL     OW 3376   1.157   4.420   5.773
  826SOL    HW1 3377   1.098   4.351   5.732
  826SOL    HW2 3378   1.115   4.454   5.858
  827SOL     OW 3379   3.669   5.182   0.809
  827SOL    HW1 3380   3.672   5.278   0.837
  827SOL    HW2 3381   3.574   5.151   0.803
  828SOL     OW 3382   6.395   0.412   5.744
  828SOL    HW1 3383   6.386   0.332   5.685
  828SOL    HW2 3384   6.429   0.489   5.692
  829SOL     OW 3385   3.381   3.050   4.684
  829SOL    HW1 3386   3.393   3.011   4.592
  829SOL    HW2 3387   3.438   2.999   4.749
  830SOL     OW 3388   4.399   3.678   6.051
  830SOL    HW1 3389   4.309   3.680   6.006
  830SOL    HW2 3390   4.458   3.747   6.010
  831SOL     OW 3391   6.051   6.904   4.616
  831SOL    HW1 3392   6.092   6.931   4.704
  831SOL    HW2 3393   5.967   6.956   4.602
  832SOL     OW 3394   2.643   1.786   5.568
  832SOL    HW1 3395   2.674   1.872   5.609
  832SOL    HW2 3396   2.586   1.737   5.634
  833SOL     OW 3397   0.905   0.285   5.772
  833SOL    HW1 3398   0.825   0.294   5.831
  833SOL    HW2 3399   0.920   0.371   5.723
  834SOL     OW 3400   3.295   4.659   5.671
  834SOL    HW1 3401   3.207   4.622   5.702
  834SOL    HW2 3402   3.354   4.675   5.750
  835SOL     OW 3403   4.629   1.012   3.238
  835SOL    HW1 3404   4.560   0.972   3.298
  835SOL    HW2 3405   4.626   0.967   3.149
  836SOL     OW 3406   2.512   0.527   6.907
  836SOL    HW1 3407   2.515   0.558   7.002
  836SOL    HW2 3408   2.528   0.604   6.846
  837SOL     OW 3409   4.258   1.438   4.868
  837SOL    HW1 3410   4.177   1.428   4.810
  837SOL    HW2 3411   4.264   1.359   4.929
  838SOL     OW 3412   0.780   5.574   2.663
  838SOL    HW1 3413   0.762   5.625   2.578
  838SOL    HW2 3414   0.805   5.480   2.641
  839SOL     OW 3415   3.294   1.261   1.710
  839SOL    HW1 3416   3.294   1.168   1.749
  839SOL    HW2 3417   3.325   1.326   1.779
  840SOL     OW 3418   0.643   1.388   5.788
  840SOL    HW1 3419   0.725   1.433   5.823
  840SOL    HW2 3420   0.581   1.369   5.864
  841SOL     OW 3421   0.619   3.573   0.640
  841SOL    HW1 3422   0.592   3.582   0.545
  841SOL    HW2 3423   0.639   3.477   0.660
  842SOL     OW 3424   3.440   5.144   3.733
  842SOL    HW1 3425   3.385   5.223   3.761
  842SOL    HW2 3426   3.502   5.118   3.807
  843SOL     OW 3427   0.081   4.113   2.419
  843SOL    HW1 3428   0.175   4.122   2.453
  843SOL    HW2 3429   0.035   4.201   2.424
  844SOL     OW 3430   5.647   5.335   6.837
  844SOL    HW1 3431   5.706   5.285   6.773
  844SOL    HW2 3432   5.574   5.274   6.868
  845SOL     OW 3433   1.773   5.309   5.127
  845SOL    HW1 3434   1.691   5.333   5.076
  845SOL    HW2 3435   1.763   5.335   5.223
  846SOL     OW 3436   4.612   3.424   6.766
  846SOL    HW1 3437   4.655   3.394   6.851
  846SOL    HW2 3438   4.678   3.475   6.711
  847SOL     OW 3439   5.020   4.040   2.083
  847SOL    HW1 3440   5.008   4.121   2.025
  847SOL    HW2 3441   5.106   3.994   2.060
  848SOL     OW 3442   6.240   0.404   5.162
  848SOL    HW1 3443   6.333   0.380   5.131
  848SOL    HW2 3444   6.222   0.500   5.140
  849SOL     OW 3445   0.940   5.874   3.986
  849SOL    HW1 3446   0.957   5.886   4.084
  849SOL    HW2 3447   0.999   5.801   3.951
  850SOL     OW 3448   4.136   0.370   3.635
  850SOL    HW1 3449   4.143   0.466   3.664
  850SOL    HW2 3450   4.041   0.349   3.611
  851SOL     OW 3451   0.174   0.686   5.558
  851SOL    HW1 3452   0.089   0.737   5.540
  851SOL    HW2 3453   0.151   0.593   5.587
  852SOL     OW 3454   2.590   4.606   5.720
  852SOL    HW1 3455   2.652   4.600   5.798
  852SOL    HW2 3456   2.552   4.699   5.715
  853SOL     OW 3457   1.061   3.697   0.687
  853SOL    HW1 3458   1.126   3.756   0.638
  853SOL    HW2 3459   1.011   3.641   0.621
  854SOL     OW 3460   6.342   4.906   1.502
  854SOL    HW1 3461   6.428   4.865   1.473
  854SOL    HW2 3462   6.266   4.847   1.476
  855SOL     OW 3463   5.170   0.826   0.666
  855SOL    HW1 3464   5.152   0.748   0.607
  855SOL    HW2 3465   5.215   0.898   0.614
  856SOL     OW 3466   1.276   0.773   4.785
  856SOL    HW1 3467   1.238   0.830   4.858
  856SOL    HW2 3468   1.331   0.700   4.826
  857SOL     OW 3469   5.894   3.727   1.572
  857SOL    HW1 3470   5.907   3.673   1.489
  857SOL    HW2 3471   5.932   3.678   1.650
  858SOL     OW 3472   3.733   3.432   1.905
  858SOL    HW1 3473   3.700   3.338   1.906
  858SOL    HW2 3474   3.828   3.435   1.937
  859SOL     OW 3475   6.616   4.555   0.970
  859SOL    HW1 3476   6.619   4.469   0.919
  859SOL    HW2 3477   6.697   4.610   0.949
  860SOL     OW 3478   1.604   4.505   7.013
  860SOL    HW1 3479   1.694   4.510   6.969
  860SOL    HW2 3480   1.545   4.443   6.961
  861SOL     OW 3481   3.313   4.152   5.954
  861SOL    HW1 3482   3.393   4.209   5.975
  861SOL    HW2 3483   3.326   4.061   5.993
  862SOL     OW 3484   4.836   4.205   3.332
  862SOL    HW1 3485   4.777   4.258   3.393
  862SOL    HW2 3486   4.916   4.259   3.308
  863SOL     OW 3487   6.101   2.037   0.780
  863SOL    HW1 3488   6.019   1.982   0.796
  863SOL    HW2 3489   6.167   2.021   0.853
  864SOL     OW 3490   6.653   4.880   2.682
  864SOL    HW1 3491   6.644   4.785   2.653
  864SOL    HW2 3492   6.605   4.894   2.769
  865SOL     OW 3493   2.078   0.658   4.078
  865SOL    HW1 3494   2.114   0.747   4.052
  865SOL    HW2 3495   2.061   0.604   3.995
  866SOL     OW 3496   4.429   1.293   0.839
  866SOL    HW1 3497   4.446   1.215   0.899
  866SOL    HW2 3498   4.465   1.275   0.748
  867SOL     OW 3499   2.430   1.780   6.358
  867SOL    HW1 3500   2.476   1.835   6.428
  867SOL    HW2 3501   2.424   1.832   6.273
  868SOL     OW 3502   5.497   2.197   3.346
  868SOL    HW1 3503   5.555   2.212   3.266
  868SOL    HW2 3504   5.513   2.270   3.413
  869SOL     OW 3505   6.844   3.933   1.437
  869SOL    HW1 3506   6.805   3.898   1.352
  869SOL    HW2 3507   6.930   3.884   1.457
  870SOL     OW 3508   6.407   2.302   0.109
  870SOL    HW1 3509   6.383   2.348   0.024
  870SOL    HW2 3510   6.334   2.238   0.134
  871SOL     OW 3511   5.642   3.952   0.908
  871SOL    HW1 3512   5.717   3.946   0.973
  871SOL    HW2 3513   5.632   3.865   0.860
  872SOL     OW 3514   6.569   2.183   2.106
  872SOL    HW1 3515   6.635   2.163   2.033
  872SOL    HW2 3516   6.544   2.098   2.152
  873SOL     OW 3517   3.651   6.356   5.200
  873SOL    HW1 3518   3.575   6.355   5.135
  873SOL    HW2 3519   3.724   6.295   5.168
  874SOL     OW 3520   0.240   4.206   6.711
  874SOL    HW1 3521   0.200   4.263   6.639
  874SOL    HW2 3522   0.323   4.250   6.746
  875SOL     OW 3523   6.186   5.439   6.224
  875SOL    HW1 3524   6.152   5.354   6.185
  875SOL    HW2 3525   6.155   5.516   6.168
  876SOL     OW 3526   1.516   1.964   0.703
  876SOL    HW1 3527   1.573   1.902   0.649
  876SOL    HW2 3528   1.427   1.923   0.718
  877SOL     OW 3529   4.997   5.840   0.260
  877SOL    HW1 3530   5.046   5.883   0.184
  877SOL    HW2 3531   4.994   5.741   0.246
  878SOL     OW 3532   3.609   2.654   1.005
  878SOL    HW1 3533   3.627   2.703   0.920
  878SOL    HW2 3534   3.512   2.632   1.011
  879SOL     OW 3535   4.680   2.273   2.850
  879SOL    HW1 3536   4.649   2.183   2.881
  879SOL    HW2 3537   4.709   2.267   2.755
  880SOL     OW 3538   4.613   5.297   1.749
  880SOL    HW1 3539   4.697   5.254   1.784
  880SOL    HW2 3540   4.619   5.396   1.761
  881SOL     OW 3541   5.017   4.905   3.403
  881SOL    HW1 3542   4.991   4.829   3.343
  881SOL    HW2 3543   5.003   4.991   3.356
  882SOL     OW 3544   0.765   1.881   4.380
  882SOL    HW1 3545   0.727   1.858   4.290
  882SOL    HW2 3546   0.815   1.967   4.374
  883SOL     OW 3547   2.998   4.874   0.351
  883SOL    HW1 3548   2.999   4.865   0.251
  883SOL    HW2 3549   3.078   4.924   0.381
  884SOL     OW 3550   3.904   4.072   1.802
  884SOL    HW1 3551   3.841   4.074   1.880
  884SOL    HW2 3552   3.877   3.999   1.740
  885SOL     OW 3553   4.592   6.504   5.630
  885SOL    HW1 3554   4.544   6.450   5.700
  885SOL    HW2 3555   4.621   6.443   5.556
  886SOL     OW 3556   3.955   2.257   6.328
  886SOL    HW1 3557   3.969   2.303   6.240
  886SOL    HW2 3558   3.865   2.215   6.330
  887SOL     OW 3559   5.715   6.298   5.211
  887SOL    HW1 3560   5.670   6.311   5.299
  887SOL    HW2 3561   5.667   6.228   5.159
  888SOL     OW 3562   6.248   0.011   3.138
  888SOL    HW1 3563   6.187   0.048   3.209
  888SOL    HW2 3564   6.321   6.973   3.181
  889SOL     OW 3565   0.882   0.062   4.170
  889SOL    HW1 3566   0.939   0.144   4.174
  889SOL    HW2 3567   0.819   0.062   4.248
  890SOL     OW 3568   1.743   4.407   1.895
  890SOL    HW1 3569   1.699   4.486   1.853
  890SOL    HW2 3570   1.841   4.423   1.902
  891SOL     OW 3571   5.741   3.738   6.391
  891SOL    HW1 3572   5.798   3.786   6.323
  891SOL    HW2 3573   5.678   3.677   6.344
  892SOL     OW 3574   1.953   5.085   1.951
  892SOL    HW1 3575   1.954   5.031   2.035
  892SOL    HW2 3576   2.033   5.144   1.948
  893SOL     OW 3577   1.984   6.959   2.149
  893SOL    HW1 3578   2.005   0.013   2.080
  893SOL    HW2 3579   2.011   6.869   2.114
  894SOL     OW 3580   1.685   5.472   4.113
  894SOL    HW1 3581   1.771   5.422   4.126
  894SOL    HW2 3582   1.614   5.408   4.083
  895SOL     OW 3583   2.433   0.878   4.548
  895SOL    HW1 3584   2.342   0.892   4.510
  895SOL    HW2 3585   2.439   0.787   4.588
  896SOL     OW 3586   5.356   6.954   3.798
  896SOL    HW1 3587   5.327   0.002   3.726
  896SOL    HW2 3588   5.314   6.981   3.885
  897SOL     OW 3589   5.252   1.238   6.038
  897SOL    HW1 3590   5.253   1.323   6.089
  897SOL    HW2 3591   5.200   1.169   6.089
  898SOL     OW 3592   5.614   6.911   3.899
  898SOL    HW1 3593   5.539   6.950   3.845
  898SOL    HW2 3594   5.580   6.836   3.954
  899SOL     OW 3595   1.480   4.298   6.894
  899SOL    HW1 3596   1.482   4.230   6.968
  899SOL    HW2 3597   1.554   4.278   6.829
  900SOL     OW 3598   0.277   5.571   3.524
  900SOL    HW1 3599   0.340   5.544   3.451
  900SOL    HW2 3600   0.283   5.505   3.599
  901SOL     OW 3601   5.585   2.120   3.666
  901SOL    HW1 3602   5.682   2.117   3.640
  901SOL    HW2 3603   5.557   2.030   3.698
  902SOL     OW 3604   1.297   6.504   0.324
  902SOL    HW1 3605   1.248   6.509   0.411
  902SOL    HW2 3606   1.334   6.412   0.310
  903SOL     OW 3607   0.742   4.947   6.633
  903SOL    HW1 3608   0.811   4.890   6.587
  903SOL    HW2 3609   0.658   4.948   6.579
  904SOL     OW 3610   1.812   1.127   4.103
  904SOL    HW1 3611   1.756   1.119   4.185
  904SOL    HW2 3612   1.758   1.097   4.023
  905SOL     OW 3613   6.118   2.045   4.376
  905SOL    HW1 3614   6.170   1.960   4.383
  905SOL    HW2 3615   6.046   2.045   4.446
  906SOL     OW 3616   6.366   4.116   5.517
  906SOL    HW1 3617   6.450   4.075   5.480
  906SOL    HW2 3618   6.376   4.215   5.523
  907SOL     OW 3619   0.227   3.405   2.132
  907SOL    HW1 3620   0.223   3.372   2.037
  907SOL    HW2 3621   0.171   3.347   2.190
  908SOL     OW 3622   2.844   0.964   3.516
  908SOL    HW1 3623   2.841   1.029   3.592
  908SOL    HW2 3624   2.776   0.892   3.531
  909SOL     OW 3625   3.987   6.669   1.350
  909SOL    HW1 3626   4.032   6.648   1.436
  909SOL    HW2 3627   3.963   6.584   1.303
  910SOL     OW 3628   1.591   1.230   1.890
  910SOL    HW1 3629   1.627   1.141   1.861
  910SOL    HW2 3630   1.648   1.266   1.964
  911SOL     OW 3631   0.488   3.330   0.910
  911SOL    HW1 3632   0.580   3.355   0.881
  911SOL    HW2 3633   0.460   3.245   0.866
  912SOL     OW 3634   0.977   0.508   6.478
  912SOL    HW1 3635   0.919   0.466   6.548
  912SOL    HW2 3636   0.979   0.607   6.491
  913SOL     OW 3637   2.050   1.094   2.401
  913SOL    HW1 3638   2.121   1.164   2.390
  913SOL    HW2 3639   1.982   1.103   2.328
  914SOL     OW 3640   3.045   5.843   1.774
  914SOL    HW1 3641   3.060   5.761   1.831
  914SOL    HW2 3642   2.961   5.832   1.722
  915SOL     OW 3643   1.810   2.320   0.397
  915SOL    HW1 3644   1.721   2.366   0.394
  915SOL    HW2 3645   1.796   2.221   0.384
  916SOL     OW 3646   1.432   3.039   2.260
  916SOL    HW1 3647   1.337   3.056   2.235
  916SOL    HW2 3648   1.435   3.002   2.353
  917SOL     OW 3649   4.042   1.196   6.105
  917SOL    HW1 3650   4.073   1.271   6.163
  917SOL    HW2 3651   3.987   1.133   6.160
  918SOL     OW 3652   0.305   1.998   4.779
  918SOL    HW1 3653   0.322   1.900   4.795
  918SOL    HW2 3654   0.296   2.045   4.866
  919SOL     OW 3655   1.854   0.331   0.918
  919SOL    HW1 3656   1.853   0.246   0.971
  919SOL    HW2 3657   1.767   0.378   0.929
  920SOL     OW 3658   1.912   0.799   2.586
  920SOL    HW1 3659   1.973   0.775   2.511
  920SOL    HW2 3660   1.862   0.882   2.564
  921SOL     OW 3661   3.905   3.834   0.564
  921SOL    HW1 3662   3.989   3.882   0.591
  921SOL    HW2 3663   3.923   3.779   0.482
  922SOL     OW 3664   2.401   5.554   6.970
  922SOL    HW1 3665   2.392   5.464   6.928
  922SOL    HW2 3666   2.380   5.548   0.052
  923SOL     OW 3667   4.060   1.558   6.872
  923SOL    HW1 3668   3.978   1.569   6.816
  923SOL    HW2 3669   4.058   1.468   6.916
  924SOL     OW 3670   6.304   5.147   2.677
  924SOL    HW1 3671   6.322   5.104   2.588
  924SOL    HW2 3672   6.209   5.133   2.703
  925SOL     OW 3673   6.887   1.410   2.843
  925SOL    HW1 3674   6.795   1.380   2.817
  925SOL    HW2 3675   6.955   1.344   2.811
  926SOL     OW 3676   3.848   6.019   1.268
  926SOL    HW1 3677   3.781   5.965   1.320
  926SOL    HW2 3678   3.920   6.051   1.330
  927SOL     OW 3679   4.469   5.499   4.903
  927SOL    HW1 3680   4.403   5.564   4.942
  927SOL    HW2 3681   4.441   5.406   4.924
  928SOL     OW 3682   6.948   1.520   1.262
  928SOL    HW1 3683   6.989   1.555   1.346
  928SOL    HW2 3684   7.007   1.450   1.223
  929SOL     OW 3685   6.872   2.034   2.166
  929SOL    HW1 3686   6.936   2.103   2.132
  929SOL    HW2 3687   6.791   2.033   2.108
  930SOL     OW 3688   6.106   5.273   2.279
  930SOL    HW1 3689   6.204   5.262   2.296
  930SOL    HW2 3690   6.085   5.370   2.267
  931SOL     OW 3691   1.340   2.694   2.009
  931SOL    HW1 3692   1.410   2.762   1.990
  931SOL    HW2 3693   1.275   2.731   2.076
  932SOL     OW 3694   4.442   6.093   1.402
  932SOL    HW1 3695   4.370   6.090   1.471
  932SOL    HW2 3696   4.408   6.139   1.320
  933SOL     OW 3697   1.328   6.779   3.723
  933SOL    HW1 3698   1.323   6.745   3.629
  933SOL    HW2 3699   1.386   6.719   3.777
  934SOL     OW 3700   3.202   0.987   5.461
  934SOL    HW1 3701   3.261   1.046   5.516
  934SOL    HW2 3702   3.161   1.040   5.387
  935SOL     OW 3703   1.553   3.463   4.855
  935SOL    HW1 3704   1.509   3.394   4.799
  935SOL    HW2 3705   1.628   3.422   4.906
  936SOL     OW 3706   0.763   1.988   1.572
  936SOL    HW1 3707   0.835   2.056   1.561
  936SOL    HW2 3708   0.685   2.012   1.514
  937SOL     OW 3709   5.287   2.154   3.521
  937SOL    HW1 3710   5.369   2.177   3.469
  937SOL    HW2 3711   5.218   2.225   3.508
  938SOL     OW 3712   0.377   0.898   6.461
  938SOL    HW1 3713   0.380   0.928   6.365
  938SOL    HW2 3714   0.365   0.799   6.464
  939SOL     OW 3715   6.215   1.137   5.432
  939SOL    HW1 3716   6.213   1.049   5.480
  939SOL    HW2 3717   6.310   1.169   5.427
  940SOL     OW 3718   0.135   0.388   4.267
  940SOL    HW1 3719   0.212   0.452   4.271
  940SOL    HW2 3720   0.136   0.330   4.348
  941SOL     OW 3721   5.835   2.565   5.219
  941SOL    HW1 3722   5.921   2.615   5.233
  941SOL    HW2 3723   5.852   2.487   5.160
  942SOL     OW 3724   4.560   0.548   5.009
  942SOL    HW1 3725   4.613   0.545   4.925
  942SOL    HW2 3726   4.516   0.459   5.024
  943SOL     OW 3727   5.210   2.319   0.350
  943SOL    HW1 3728   5.166   2.403   0.320
  943SOL    HW2 3729   5.291   2.302   0.293
  944SOL     OW 3730   4.890   4.246   4.609
  944SOL    HW1 3731   4.797   4.250   4.645
  944SOL    HW2 3732   4.956   4.253   4.684
  945SOL     OW 3733   5.678   3.293   6.363
  945SOL    HW1 3734   5.583   3.264   6.356
  945SOL    HW2 3735   5.703   3.346   6.282
  946SOL     OW 3736   5.664   3.828   6.663
  946SOL    HW1 3737   5.695   3.799   6.572
  946SOL    HW2 3738   5.723   3.902   6.696
  947SOL     OW 3739   0.499   2.596   5.758
  947SOL    HW1 3740   0.560   2.631   5.829
  947SOL    HW2 3741   0.553   2.548   5.688
  948SOL     OW 3742   3.908   1.700   0.445
  948SOL    HW1 3743   3.813   1.670   0.447
  948SOL    HW2 3744   3.960   1.642   0.381
  949SOL     OW 3745   5.521   6.148   6.762
  949SOL    HW1 3746   5.468   6.069   6.731
  949SOL    HW2 3747   5.602   6.159   6.703
  950SOL     OW 3748   3.639   5.526   1.477
  950SOL    HW1 3749   3.542   5.519   1.500
  950SOL    HW2 3750   3.652   5.499   1.382
  951SOL     OW 3751   1.127   2.847   3.596
  951SOL    HW1 3752   1.127   2.757   3.640
  951SOL    HW2 3753   1.071   2.910   3.651
  952SOL     OW 3754   4.805   1.537   1.445
  952SOL    HW1 3755   4.716   1.578   1.462
  952SOL    HW2 3756   4.851   1.588   1.372
  953SOL     OW 3757   3.952   6.479   5.927
  953SOL    HW1 3758   3.946   6.416   6.004
  953SOL    HW2 3759   3.915   6.434   5.845
  954SOL     OW 3760   6.397   1.088   1.717
  954SOL    HW1 3761   6.474   1.035   1.754
  954SOL    HW2 3762   6.333   1.110   1.791
  955SOL     OW 3763   0.788   6.294   2.639
  955SOL    HW1 3764   0.852   6.303   2.715
  955SOL    HW2 3765   0.816   6.219   2.580
  956SOL     OW 3766   1.505   2.687   0.700
  956SOL    HW1 3767   1.532   2.591   0.688
  956SOL    HW2 3768   1.530   2.717   0.792
  957SOL     OW 3769   1.929   6.423   5.000
  957SOL    HW1 3770   1.961   6.347   5.057
  957SOL    HW2 3771   1.913   6.503   5.058
  958SOL     OW 3772   4.882   3.016   6.991
  958SOL    HW1 3773   4.884   3.031   6.892
  958SOL    HW2 3774   4.917   2.924   7.011
  959SOL     OW 3775   1.380   3.534   1.251
  959SOL    HW1 3776   1.323   3.452   1.252
  959SOL    HW2 3777   1.466   3.515   1.298
  960SOL     OW 3778   1.652   5.062   5.640
  960SOL    HW1 3779   1.633   4.997   5.567
  960SOL    HW2 3780   1.656   5.014   5.728
  961SOL     OW 3781   3.544   6.976   6.645
  961SOL    HW1 3782   3.628   6.965   6.698
  961SOL    HW2 3783   3.465   6.972   6.706
  962SOL     OW 3784   1.324   6.597   3.485
  962SOL    HW1 3785   1.263   6.519   3.498
  962SOL    HW2 3786   1.416   6.564   3.464
  963SOL     OW 3787   5.801   0.171   1.782
  963SOL    HW1 3788   5.834   0.262   1.808
  963SOL    HW2 3789   5.703   0.175   1.766
  964SOL     OW 3790   5.425   3.397   1.555
  964SOL    HW1 3791   5.407   3.305   1.591
  964SOL    HW2 3792   5.513   3.398   1.508
  965SOL     OW 3793   1.716   1.625   0.103
  965SOL    HW1 3794   1.724   1.601   0.006
  965SOL    HW2 3795   1.788   1.579   0.155
  966SOL     OW 3796   6.778   2.415   2.141
  966SOL    HW1 3797   6.865   2.369   2.127
  966SOL    HW2 3798   6.707   2.371   2.085
  967SOL     OW 3799   1.134   5.966   2.108
  967SOL    HW1 3800   1.056   5.938   2.163
  967SOL    HW2 3801   1.204   6.007   2.166
  968SOL     OW 3802   6.831   4.325   0.653
  968SOL    HW1 3803   6.810   4.227   0.643
  968SOL    HW2 3804   6.920   4.344   0.611
  969SOL     OW 3805   4.158   6.893   6.589
  969SOL    HW1 3806   4.241   6.868   6.540
  969SOL    HW2 3807   4.177   6.903   6.686
  970SOL     OW 3808   4.932   3.000   5.672
  970SOL    HW1 3809   4.907   2.923   5.731
  970SOL    HW2 3810   4.850   3.050   5.645
  971SOL     OW 3811   0.520   3.083   0.066
  971SOL    HW1 3812   0.525   3.178   0.035
  971SOL    HW2 3813   0.440   3.071   0.125
  972SOL     OW 3814   5.031   6.794   0.729
  972SOL    HW1 3815   4.987   6.847   0.803
  972SOL    HW2 3816   5.125   6.825   0.718
  973SOL     OW 3817   5.995   2.865   5.614
  973SOL    HW1 3818   5.900   2.896   5.618
  973SOL    HW2 3819   5.998   2.765   5.625
  974SOL     OW 3820   2.323   0.275   4.672
  974SOL    HW1 3821   2.263   0.198   4.694
  974SOL    HW2 3822   2.412   0.240   4.642
  975SOL     OW 3823   2.973   0.197   5.237
  975SOL    HW1 3824   2.959   0.143   5.154
  975SOL    HW2 3825   2.987   0.137   5.315
  976SOL     OW 3826   0.316   4.893   3.441
  976SOL    HW1 3827   0.251   4.945   3.496
  976SOL    HW2 3828   0.395   4.869   3.498
  977SOL     OW 3829   0.736   2.317   1.986
  977SOL    HW1 3830   0.678   2.338   2.065
  977SOL    HW2 3831   0.702   2.235   1.941
  978SOL     OW 3832   5.651   3.485   4.780
  978SOL    HW1 3833   5.654   3.549   4.857
  978SOL    HW2 3834   5.722   3.509   4.714
  979SOL     OW 3835   5.559   1.481   3.273
  979SOL    HW1 3836   5.573   1.574   3.240
  979SOL    HW2 3837   5.613   1.417   3.218
  980SOL     OW 3838   0.452   0.508   5.373
  980SOL    HW1 3839   0.407   0.570   5.308
  980SOL    HW2 3840   0.448   0.548   5.464
  981SOL     OW 3841   6.397   2.908   5.870
  981SOL    HW1 3842   6.351   2.993   5.846
  981SOL    HW2 3843   6.440   2.917   5.960
  982SOL     OW 3844   1.390   3.696   1.013
  982SOL    HW1 3845   1.391   3.795   1.023
  982SOL    HW2 3846   1.415   3.653   1.099
  983SOL     OW 3847   5.024   1.958   3.348
  983SOL    HW1 3848   5.111   1.918   3.317
  983SOL    HW2 3849   4.987   1.903   3.423
  984SOL     OW 3850   4.951   2.713   5.311
  984SOL    HW1 3851   4.975   2.777   5.239
  984SOL    HW2 3852   4.865   2.741   5.353
  985SOL     OW 3853   1.847   4.932   0.768
  985SOL    HW1 3854   1.914   4.859   0.757
  985SOL    HW2 3855   1.823   4.969   0.677
  986SOL     OW 3856   4.480   4.245   6.959
  986SOL    HW1 3857   4.400   4.278   7.008
  986SOL    HW2 3858   4.475   4.275   6.863
  987SOL     OW 3859   3.796   6.707   2.621
  987SOL    HW1 3860   3.835   6.717   2.529
  987SOL    HW2 3861   3.741   6.788   2.643
  988SOL     OW 3862   3.383   2.834   1.707
  988SOL    HW1 3863   3.449   2.891   1.657
  988SOL    HW2 3864   3.335   2.890   1.774
  989SOL     OW 3865   0.559   0.339   4.476
  989SOL    HW1 3866   0.469   0.381   4.461
  989SOL    HW2 3867   0.614   0.351   4.393
  990SOL     OW 3868   4.959   6.237   1.948
  990SOL    HW1 3869   5.032   6.281   1.896
  990SOL    HW2 3870   4.992   6.214   2.039
  991SOL     OW 3871   5.840   1.788   5.193
  991SOL    HW1 3872   5.931   1.756   5.218
  991SOL    HW2 3873   5.772   1.748   5.256
  992SOL     OW 3874   6.958   3.218   1.688
  992SOL    HW1 3875   6.934   3.186   1.596
  992SOL    HW2 3876   6.901   3.297   1.711
  993SOL     OW 3877   3.743   6.189   4.983
  993SOL    HW1 3878   3.746   6.134   5.066
  993SOL    HW2 3879   3.818   6.161   4.922
  994SOL     OW 3880   3.307   3.038   2.541
  994SOL    HW1 3881   3.329   3.096   2.620
  994SOL    HW2 3882   3.218   2.996   2.554
  995SOL     OW 3883   0.332   1.470   4.716
  995SOL    HW1 3884   0.380   1.384   4.700
  995SOL    HW2 3885   0.272   1.461   4.795
  996SOL     OW 3886   0.914   3.525   0.555
  996SOL    HW1 3887   0.899   3.427   0.542
  996SOL    HW2 3888   0.850   3.560   0.624
  997SOL     OW 3889   0.254   1.564   0.849
  997SOL    HW1 3890   0.247   1.654   0.806
  997SOL    HW2 3891   0.222   1.570   0.944
  998SOL     OW 3892   4.903   6.764   3.284
  998SOL    HW1 3893   4.992   6.762   3.330
  998SOL    HW2 3894   4.833   6.733   3.347
  999SOL     OW 3895   6.081   5.587   1.636
  999SOL    HW1 3896   6.096   5.647   1.557
  999SOL    HW2 3897   6.160   5.593   1.698
 1000SOL     OW 3898   4.486   2.445   4.270
 1000SOL    HW1 3899   4.525   2.467   4.360
 1000SOL    HW2 3900   4.501   2.521   4.208
 1001SOL     OW 3901   4.690   1.394   5.692
 1001SOL    HW1 3902   4.606   1.429   5.650
 1001SOL    HW2 3903   4.722   1.460   5.760
 1002SOL     OW 3904   0.240   1.442   0.051
 1002SOL    HW1 3905   0.301   1.396   7.001
 1002SOL    HW2 3906   0.211   1.376   0.121
 1003SOL     OW 3907   4.464   5.023   2.718
 1003SOL    HW1 3908   4.520   4.945   2.745
 1003SOL    HW2 3909   4.483   5.046   2.622
 1004SOL     OW 3910   5.847   5.572   0.632
 1004SOL    HW1 3911   5.889   5.560   0.722
 1004SOL    HW2 3912   5.859   5.489   0.578
 1005SOL     OW 3913   6.948   5.750   3.939
 1005SOL    HW1 3914   6.974   5.776   4.033
 1005SOL    HW2 3915   6.855   5.783   3.921
 1006SOL     OW 3916   2.290   4.210   6.873
 1006SOL    HW1 3917   2.306   4.236   6.778
 1006SOL    HW2 3918   2.357   4.256   6.932
 1007SOL     OW 3919   1.019   1.025   3.227
 1007SOL    HW1 3920   0.969   1.012   3.312
 1007SOL    HW2 3921   1.097   0.963   3.224
 1008SOL     OW 3922   2.559   2.266   4.556
 1008SOL    HW1 3923   2.563   2.195   4.626
 1008SOL    HW2 3924   2.634   2.254   4.491
 1009SOL     OW 3925   2.575   6.070   5.640
 1009SOL    HW1 3926   2.491   6.030   5.602
 1009SOL    HW2 3927   2.586   6.039   5.735
 1010SOL     OW 3928   5.534   0.164   5.834
 1010SOL    HW1 3929   5.459   0.229   5.837
 1010SOL    HW2 3930   5.611   0.204   5.784
 1011SOL     OW 3931   3.323   5.932   4.033
 1011SOL    HW1 3932   3.341   5.981   4.118
 1011SOL    HW2 3933   3.286   5.995   3.965
 1012SOL     OW 3934   3.628   5.608   0.667
 1012SOL    HW1 3935   3.694   5.573   0.600
 1012SOL    HW2 3936   3.631   5.708   0.667
 1013SOL     OW 3937   0.494   0.780   0.163
 1013SOL    HW1 3938   0.442   0.718   0.222
 1013SOL    HW2 3939   0.434   0.817   0.092
 1014SOL     OW 3940   5.669   6.740   6.142
 1014SOL    HW1 3941   5.633   6.831   6.163
 1014SOL    HW2 3942   5.701   6.697   6.226
 1015SOL     OW 3943   3.239   0.241   4.796
 1015SOL    HW1 3944   3.211   0.300   4.721
 1015SOL    HW2 3945   3.259   0.149   4.761
 1016SOL     OW 3946   4.724   2.724   2.097
 1016SOL    HW1 3947   4.728   2.815   2.058
 1016SOL    HW2 3948   4.630   2.690   2.094
 1017SOL     OW 3949   4.904   0.967   6.252
 1017SOL    HW1 3950   4.891   0.957   6.350
 1017SOL    HW2 3951   4.914   1.064   6.229
 1018SOL     OW 3952   1.416   2.345   1.339
 1018SOL    HW1 3953   1.405   2.440   1.310
 1018SOL    HW2 3954   1.507   2.332   1.377
 1019SOL     OW 3955   6.163   1.324   0.661
 1019SOL    HW1 3956   6.218   1.251   0.621
 1019SOL    HW2 3957   6.224   1.396   0.696
 1020SOL     OW 3958   3.161   2.190   1.552
 1020SOL    HW1 3959   3.241   2.222   1.602
 1020SOL    HW2 3960   3.087   2.171   1.617
 1021SOL     OW 3961   6.519   1.724   0.719
 1021SOL    HW1 3962   6.495   1.816   0.690
 1021SOL    HW2 3963   6.451   1.659   0.683
 1022SOL     OW 3964   3.482   2.942   0.014
 1022SOL    HW1 3965   3.391   2.904   0.027
 1022SOL    HW2 3966   3.535   2.935   0.098
 1023SOL     OW 3967   6.560   0.462   4.537
 1023SOL    HW1 3968   6.474   0.497   4.573
 1023SOL    HW2 3969   6.636   0.505   4.586
 1024SOL     OW 3970   6.367   2.116   3.937
 1024SOL    HW1 3971   6.280   2.090   3.979
 1024SOL    HW2 3972   6.368   2.215   3.922
 1025SOL     OW 3973   3.453   4.531   1.410
 1025SOL    HW1 3974   3.421   4.509   1.503
 1025SOL    HW2 3975   3.450   4.631   1.398
 1026SOL     OW 3976   0.832   2.797   6.251
 1026SOL    HW1 3977   0.911   2.765   6.303
 1026SOL    HW2 3978   0.749   2.786   6.307
 1027SOL     OW 3979   2.100   4.830   1.161
 1027SOL    HW1 3980   2.006   4.858   1.143
 1027SOL    HW2 3981   2.128   4.762   1.094
 1028SOL     OW 3982   0.159   5.142   0.619
 1028SOL    HW1 3983   0.122   5.230   0.591
 1028SOL    HW2 3984   0.231   5.155   0.687
 1029SOL     OW 3985   3.700   0.842   5.788
 1029SOL    HW1 3986   3.629   0.850   5.719
 1029SOL    HW2 3987   3.774   0.784   5.754
 1030SOL     OW 3988   4.153   4.626   5.300
 1030SOL    HW1 3989   4.069   4.662   5.260
 1030SOL    HW2 3990   4.196   4.563   5.236
 1031SOL     OW 3991   2.181   5.329   0.819
 1031SOL    HW1 3992   2.192   5.289   0.728
 1031SOL    HW2 3993   2.098   5.385   0.820
 1032SOL     OW 3994   1.282   1.342   4.948
 1032SOL    HW1 3995   1.314   1.386   5.032
 1032SOL    HW2 3996   1.201   1.288   4.967
 1033SOL     OW 3997   2.293   6.458   2.651
 1033SOL    HW1 3998   2.216   6.515   2.678
 1033SOL    HW2 3999   2.378   6.497   2.687
 1034SOL     OW 4000   1.211   0.177   1.712
 1034SOL    HW1 4001   1.263   0.194   1.628
 1034SOL    HW2 4002   1.221   0.081   1.739
 1035SOL     OW 4003   3.443   0.839   2.875
 1035SOL    HW1 4004   3.365   0.799   2.924
 1035SOL    HW2 4005   3.479   0.773   2.810
 1036SOL     OW 4006   4.835   6.933   6.834
 1036SOL    HW1 4007   4.929   6.924   6.801
 1036SOL    HW2 4008   4.827   0.000   6.890
 1037SOL     OW 4009   3.316   1.733   6.304
 1037SOL    HW1 4010   3.351   1.640   6.305
 1037SOL    HW2 4011   3.356   1.783   6.227
 1038SOL     OW 4012   2.291   1.491   4.943
 1038SOL    HW1 4013   2.211   1.516   4.997
 1038SOL    HW2 4014   2.344   1.574   4.922
 1039SOL     OW 4015   4.332   2.011   3.476
 1039SOL    HW1 4016   4.342   2.106   3.505
 1039SOL    HW2 4017   4.236   1.984   3.485
 1040SOL     OW 4018   5.513   3.595   4.246
 1040SOL    HW1 4019   5.451   3.672   4.239
 1040SOL    HW2 4020   5.515   3.546   4.158
 1041SOL     OW 4021   1.828   6.708   4.245
 1041SOL    HW1 4022   1.764   6.730   4.319
 1041SOL    HW2 4023   1.922   6.715   4.278
 1042SOL     OW 4024   4.533   3.926   0.822
 1042SOL    HW1 4025   4.473   3.862   0.868
 1042SOL    HW2 4026   4.607   3.876   0.776
 1043SOL     OW 4027   3.769   0.547   6.693
 1043SOL    HW1 4028   3.767   0.551   6.593
 1043SOL    HW2 4029   3.722   0.465   6.724
 1044SOL     OW 4030   4.087   3.690   2.611
 1044SOL    HW1 4031   4.165   3.746   2.582
 1044SOL    HW2 4032   4.003   3.741   2.598
 1045SOL     OW 4033   4.114   0.908   3.483
 1045SOL    HW1 4034   4.049   0.939   3.414
 1045SOL    HW2 4035   4.107   0.967   3.564
 1046SOL     OW 4036   3.640   0.792   1.893
 1046SOL    HW1 4037   3.601   0.798   1.984
 1046SOL    HW2 4038   3.568   0.805   1.825
 1047SOL     OW 4039   0.526   5.654   1.870
 1047SOL    HW1 4040   0.457   5.627   1.803
 1047SOL    HW2 4041   0.512   5.601   1.954
 1048SOL     OW 4042   6.432   4.497   5.135
 1048SOL    HW1 4043   6.496   4.564   5.171
 1048SOL    HW2 4044   6.462   4.466   5.045
 1049SOL     OW 4045   0.628   3.395   5.535
 1049SOL    HW1 4046   0.605   3.298   5.541
 1049SOL    HW2 4047   0.726   3.407   5.546
 1050SOL     OW 4048   2.567   0.736   0.558
 1050SOL    HW1 4049   2.467   0.731   0.557
 1050SOL    HW2 4050   2.605   0.661   0.504
 1051SOL     OW 4051   4.976   4.403   2.486
 1051SOL    HW1 4052   4.980   4.314   2.531
 1051SOL    HW2 4053   5.042   4.465   2.529
 1052SOL     OW 4054   3.946   0.240   4.588
 1052SOL    HW1 4055   4.010   0.173   4.551
 1052SOL    HW2 4056   3.853   0.205   4.581
 1053SOL     OW 4057   3.659   4.945   3.843
 1053SOL    HW1 4058   3.744   4.938   3.895
 1053SOL    HW2 4059   3.676   4.921   3.748
 1054SOL     OW 4060   4.197   5.913   4.964
 1054SOL    HW1 4061   4.177   5.893   4.868
 1054SOL    HW2 4062   4.186   6.011   4.981
 1055SOL     OW 4063   3.624   4.992   4.286
 1055SOL    HW1 4064   3.569   4.977   4.367
 1055SOL    HW2 4065   3.565   5.015   4.208
 1056SOL     OW 4066   2.308   5.601   6.169
 1056SOL    HW1 4067   2.278   5.687   6.210
 1056SOL    HW2 4068   2.338   5.538   6.240
 1057SOL     OW 4069   3.814   3.932   1.199
 1057SOL    HW1 4070   3.795   3.834   1.187
 1057SOL    HW2 4071   3.908   3.951   1.173
 1058SOL     OW 4072   2.778   6.282   2.307
 1058SOL    HW1 4073   2.786   6.356   2.239
 1058SOL    HW2 4074   2.782   6.194   2.260
 1059SOL     OW 4075   3.521   0.550   0.328
 1059SOL    HW1 4076   3.575   0.628   0.361
 1059SOL    HW2 4077   3.437   0.584   0.287
 1060SOL     OW 4078   2.749   1.303   4.336
 1060SOL    HW1 4079   2.670   1.253   4.372
 1060SOL    HW2 4080   2.749   1.396   4.372
 1061SOL     OW 4081   2.864   5.804   1.172
 1061SOL    HW1 4082   2.862   5.825   1.074
 1061SOL    HW2 4083   2.771   5.805   1.208
 1062SOL     OW 4084   5.065   4.542   4.888
 1062SOL    HW1 4085   4.976   4.496   4.887
 1062SOL    HW2 4086   5.062   4.624   4.831
 1063SOL     OW 4087   2.828   2.490   6.216
 1063SOL    HW1 4088   2.794   2.510   6.124
 1063SOL    HW2 4089   2.885   2.408   6.213
 1064SOL     OW 4090   0.449   3.236   1.731
 1064SOL    HW1 4091   0.411   3.247   1.639
 1064SOL    HW2 4092   0.379   3.254   1.799
 1065SOL     OW 4093   4.321   5.106   5.722
 1065SOL    HW1 4094   4.261   5.046   5.670
 1065SOL    HW2 4095   4.331   5.070   5.815
 1066SOL     OW 4096   4.278   6.858   3.636
 1066SOL    HW1 4097   4.276   6.870   3.537
 1066SOL    HW2 4098   4.356   6.800   3.661
 1067SOL     OW 4099   2.850   3.295   1.037
 1067SOL    HW1 4100   2.815   3.201   1.037
 1067SOL    HW2 4101   2.775   3.358   1.020
 1068SOL     OW 4102   0.255   4.511   0.665
 1068SOL    HW1 4103   0.202   4.464   0.595
 1068SOL    HW2 4104   0.340   4.546   0.626
 1069SOL     OW 4105   4.006   3.071   2.489
 1069SOL    HW1 4106   4.053   3.158   2.475
 1069SOL    HW2 4107   3.969   3.039   2.402
 1070SOL     OW 4108   2.623   6.928   0.800
 1070SOL    HW1 4109   2.613   6.856   0.868
 1070SOL    HW2 4110   2.720   6.949   0.786
 1071SOL     OW 4111   4.987   5.281   3.919
 1071SOL    HW1 4112   4.899   5.236   3.903
 1071SOL    HW2 4113   5.014   5.331   3.836
 1072SOL     OW 4114   3.765   5.348   3.127
 1072SOL    HW1 4115   3.833   5.418   3.149
 1072SOL    HW2 4116   3.719   5.372   3.041
 1073SOL     OW 4117   2.917   5.893   3.435
 1073SOL    HW1 4118   2.962   5.982   3.422
 1073SOL    HW2 4119   2.986   5.821   3.439
 1074SOL     OW 4120   1.678   5.110   2.560
 1074SOL    HW1 4121   1.687   5.209   2.569
 1074SOL    HW2 4122   1.763   5.067   2.589
 1075SOL     OW 4123   1.217   4.381   3.010
 1075SOL    HW1 4124   1.270   4.328   3.076
 1075SOL    HW2 4125   1.240   4.478   3.019
 1076SOL     OW 4126   6.783   4.078   2.916
 1076SOL    HW1 4127   6.707   4.035   2.867
 1076SOL    HW2 4128   6.821   4.152   2.861
 1077SOL     OW 4129   5.218   0.315   1.560
 1077SOL    HW1 4130   5.243   0.234   1.507
 1077SOL    HW2 4131   5.128   0.347   1.531
 1078SOL     OW 4132   0.221   3.292   1.533
 1078SOL    HW1 4133   0.232   3.390   1.514
 1078SOL    HW2 4134   0.129   3.276   1.569
 1079SOL     OW 4135   2.154   5.297   3.383
 1079SOL    HW1 4136   2.076   5.351   3.417
 1079SOL    HW2 4137   2.123   5.241   3.305
 1080SOL     OW 4138   1.882   5.475   3.687
 1080SOL    HW1 4139   1.788   5.509   3.691
 1080SOL    HW2 4140   1.944   5.547   3.717
 1081SOL     OW 4141   1.459   0.679   0.292
 1081SOL    HW1 4142   1.402   0.657   0.213
 1081SOL    HW2 4143   1.456   0.604   0.358
 1082SOL     OW 4144   1.985   6.928   0.908
 1082SOL    HW1 4145   2.001   6.829   0.912
 1082SOL    HW2 4146   1.979   6.957   0.813
 1083SOL     OW 4147   3.366   2.309   1.699
 1083SOL    HW1 4148   3.337   2.403   1.718
 1083SOL    HW2 4149   3.417   2.274   1.777
 1084SOL     OW 4150   6.872   3.623   0.757
 1084SOL    HW1 4151   6.967   3.613   0.785
 1084SOL    HW2 4152   6.837   3.711   0.789
 1085SOL     OW 4153   1.632   5.298   3.432
 1085SOL    HW1 4154   1.730   5.296   3.411
 1085SOL    HW2 4155   1.596   5.391   3.418
 1086SOL     OW 4156   3.118   5.549   2.656
 1086SOL    HW1 4157   3.117   5.635   2.606
 1086SOL    HW2 4158   3.143   5.565   2.751
 1087SOL     OW 4159   4.136   3.357   4.927
 1087SOL    HW1 4160   4.078   3.296   4.981
 1087SOL    HW2 4161   4.221   3.309   4.904
 1088SOL     OW 4162   6.701   4.353   2.219
 1088SOL    HW1 4163   6.789   4.365   2.266
 1088SOL    HW2 4164   6.643   4.291   2.271
 1089SOL     OW 4165   6.455   6.825   3.211
 1089SOL    HW1 4166   6.494   6.795   3.298
 1089SOL    HW2 4167   6.437   6.745   3.154
 1090SOL     OW 4168   2.028   1.826   6.335
 1090SOL    HW1 4169   1.931   1.849   6.335
 1090SOL    HW2 4170   2.077   1.889   6.395
 1091SOL     OW 4171   1.084   2.645   5.788
 1091SOL    HW1 4172   1.030   2.631   5.705
 1091SOL    HW2 4173   1.171   2.597   5.780
 1092SOL     OW 4174   2.258   4.622   1.027
 1092SOL    HW1 4175   2.348   4.653   1.058
 1092SOL    HW2 4176   2.261   4.524   1.009
 1093SOL     OW 4177   6.734   2.697   1.750
 1093SOL    HW1 4178   6.743   2.608   1.706
 1093SOL    HW2 4179   6.787   2.698   1.835
 1094SOL     OW 4180   0.613   6.698   2.309
 1094SOL    HW1 4181   0.584   6.626   2.372
 1094SOL    HW2 4182   0.550   6.703   2.232
 1095SOL     OW 4183   0.114   3.762   5.848
 1095SOL    HW1 4184   0.033   3.794   5.799
 1095SOL    HW2 4185   0.179   3.836   5.856
 1096SOL     OW 4186   3.639   3.124   1.948
 1096SOL    HW1 4187   3.614   3.027   1.948
 1096SOL    HW2 4188   3.593   3.170   2.025
 1097SOL     OW 4189   2.415   4.402   5.971
 1097SOL    HW1 4190   2.375   4.423   5.882
 1097SOL    HW2 4191   2.403   4.479   6.032
 1098SOL     OW 4192   4.028   0.431   2.529
 1098SOL    HW1 4193   3.942   0.411   2.575
 1098SOL    HW2 4194   4.105   0.406   2.588
 1099SOL     OW 4195   3.402   0.268   2.413
 1099SOL    HW1 4196   3.412   0.246   2.316
 1099SOL    HW2 4197   3.486   0.244   2.462
 1100SOL     OW 4198   6.371   1.036   6.707
 1100SOL    HW1 4199   6.310   1.005   6.635
 1100SOL    HW2 4200   6.437   0.964   6.728
 1101SOL     OW 4201   5.133   3.300   1.501
 1101SOL    HW1 4202   5.199   3.303   1.576
 1101SOL    HW2 4203   5.042   3.325   1.535
 1102SOL     OW 4204   0.234   3.953   3.851
 1102SOL    HW1 4205   0.208   4.013   3.927
 1102SOL    HW2 4206   0.328   3.972   3.824
 1103SOL     OW 4207   0.149   3.306   6.773
 1103SOL    HW1 4208   0.224   3.322   6.838
 1103SOL    HW2 4209   0.108   3.393   6.747
 1104SOL     OW 4210   2.475   5.267   6.098
 1104SOL    HW1 4211   2.380   5.246   6.120
 1104SOL    HW2 4212   2.513   5.326   6.169
 1105SOL     OW 4213   3.589   5.577   1.123
 1105SOL    HW1 4214   3.493   5.592   1.145
 1105SOL    HW2 4215   3.596   5.516   1.044
 1106SOL     OW 4216   1.414   0.776   6.272
 1106SOL    HW1 4217   1.502   0.822   6.281
 1106SOL    HW2 4218   1.397   0.755   6.175
 1107SOL     OW 4219   6.603   0.490   1.437
 1107SOL    HW1 4220   6.647   0.565   1.486
 1107SOL    HW2 4221   6.593   0.515   1.340
 1108SOL     OW 4222   1.241   1.056   6.904
 1108SOL    HW1 4223   1.303   1.010   6.967
 1108SOL    HW2 4224   1.176   1.112   6.957
 1109SOL     OW 4225   4.661   0.901   4.018
 1109SOL    HW1 4226   4.748   0.950   4.012
 1109SOL    HW2 4227   4.660   0.844   4.099
 1110SOL     OW 4228   3.652   2.866   2.854
 1110SOL    HW1 4229   3.613   2.784   2.814
 1110SOL    HW2 4230   3.725   2.901   2.794
 1111SOL     OW 4231   4.495   0.044   0.303
 1111SOL    HW1 4232   4.476   6.986   0.369
 1111SOL    HW2 4233   4.409   0.086   0.274
 1112SOL     OW 4234   0.920   1.335   2.512
 1112SOL    HW1 4235   0.870   1.421   2.526
 1112SOL    HW2 4236   0.927   1.316   2.414
 1113SOL     OW 4237   6.124   3.828   1.272
 1113SOL    HW1 4238   6.201   3.845   1.334
 1113SOL    HW2 4239   6.128   3.894   1.197
 1114SOL     OW 4240   5.672   0.960   5.743
 1114SOL    HW1 4241   5.715   0.911   5.667
 1114SOL    HW2 4242   5.667   1.058   5.722
 1115SOL     OW 4243   2.604   4.543   0.877
 1115SOL    HW1 4244   2.513   4.556   0.837
 1115SOL    HW2 4245   2.619   4.445   0.891
 1116SOL     OW 4246   3.521   6.309   6.347
 1116SOL    HW1 4247   3.444   6.365   6.375
 1116SOL    HW2 4248   3.606   6.352   6.374
 1117SOL     OW 4249   2.484   3.255   0.837
 1117SOL    HW1 4250   2.546   3.180   0.811
 1117SOL    HW2 4251   2.390   3.221   0.838
 1118SOL     OW 4252   1.907   3.134   1.744
 1118SOL    HW1 4253   1.921   3.062   1.676
 1118SOL    HW2 4254   1.816   3.173   1.734
 1119SOL     OW 4255   2.885   3.407   3.070
 1119SOL    HW1 4256   2.958   3.390   3.136
 1119SOL    HW2 4257   2.802   3.437   3.117
 1120SOL     OW 4258   4.291   0.971   4.058
 1120SOL    HW1 4259   4.298   0.872   4.069
 1120SOL    HW2 4260   4.344   1.016   4.130
 1121SOL     OW 4261   5.456   3.230   2.952
 1121SOL    HW1 4262   5.529   3.223   3.021
 1121SOL    HW2 4263   5.373   3.186   2.987
 1122SOL     OW 4264   4.677   5.272   6.438
 1122SOL    HW1 4265   4.750   5.340   6.446
 1122SOL    HW2 4266   4.715   5.185   6.406
 1123SOL     OW 4267   4.046   1.448   1.896
 1123SOL    HW1 4268   4.092   1.473   1.810
 1123SOL    HW2 4269   3.971   1.384   1.876
 1124SOL     OW 4270   1.573   5.036   4.361
 1124SOL    HW1 4271   1.591   5.118   4.414
 1124SOL    HW2 4272   1.658   5.003   4.320
 1125SOL     OW 4273   2.885   3.593   4.807
 1125SOL    HW1 4274   2.807   3.540   4.775
 1125SOL    HW2 4275   2.967   3.535   4.806
 1126SOL     OW 4276   6.247   0.330   2.465
 1126SOL    HW1 4277   6.310   0.389   2.414
 1126SOL    HW2 4278   6.250   0.353   2.562
 1127SOL     OW 4279   2.155   5.754   6.419
 1127SOL    HW1 4280   2.161   5.808   6.503
 1127SOL    HW2 4281   2.170   5.813   6.340
 1128SOL     OW 4282   1.971   2.280   4.312
 1128SOL    HW1 4283   1.939   2.186   4.309
 1128SOL    HW2 4284   1.975   2.312   4.406
 1129SOL     OW 4285   4.583   6.643   6.283
 1129SOL    HW1 4286   4.629   6.700   6.215
 1129SOL    HW2 4287   4.621   6.661   6.373
 1130SOL     OW 4288   0.053   5.496   5.617
 1130SOL    HW1 4289   0.136   5.442   5.604
 1130SOL    HW2 4290   0.070   5.591   5.589
 1131SOL     OW 4291   0.305   5.339   5.613
 1131SOL    HW1 4292   0.290   5.354   5.710
 1131SOL    HW2 4293   0.358   5.255   5.600
 1132SOL     OW 4294   5.421   6.416   4.955
 1132SOL    HW1 4295   5.362   6.348   4.911
 1132SOL    HW2 4296   5.381   6.444   5.041
 1133SOL     OW 4297   6.837   2.780   6.537
 1133SOL    HW1 4298   6.751   2.790   6.587
 1133SOL    HW2 4299   6.882   2.695   6.564
 1134SOL     OW 4300   6.951   2.376   5.845
 1134SOL    HW1 4301   0.019   2.431   5.849
 1134SOL    HW2 4302   6.930   2.341   5.936
 1135SOL     OW 4303   6.261   1.607   4.753
 1135SOL    HW1 4304   6.215   1.582   4.839
 1135SOL    HW2 4305   6.326   1.535   4.728
 1136SOL     OW 4306   3.735   5.239   4.298
 1136SOL    HW1 4307   3.696   5.245   4.206
 1136SOL    HW2 4308   3.710   5.151   4.340
 1137SOL     OW 4309   1.638   0.915   6.284
 1137SOL    HW1 4310   1.681   0.967   6.357
 1137SOL    HW2 4311   1.697   0.913   6.204
 1138SOL     OW 4312   1.013   4.208   5.675
 1138SOL    HW1 4313   0.942   4.220   5.745
 1138SOL    HW2 4314   1.079   4.140   5.706
 1139SOL     OW 4315   0.734   6.985   2.313
 1139SOL    HW1 4316   0.832   7.002   2.312
 1139SOL    HW2 4317   0.717   6.887   2.308
 1140SOL     OW 4318   3.711   2.036   3.139
 1140SOL    HW1 4319   3.706   1.943   3.103
 1140SOL    HW2 4320   3.712   2.034   3.239
 1141SOL     OW 4321   6.856   5.935   6.173
 1141SOL    HW1 4322   6.772   5.979   6.141
 1141SOL    HW2 4323   6.915   6.005   6.213
 1142SOL     OW 4324   6.336   0.594   4.645
 1142SOL    HW1 4325   6.349   0.677   4.699
 1142SOL    HW2 4326   6.253   0.547   4.675
 1143SOL     OW 4327   4.553   1.729   1.491
 1143SOL    HW1 4328   4.538   1.769   1.581
 1143SOL    HW2 4329   4.465   1.704   1.451
 1144SOL     OW 4330   1.030   6.784   5.228
 1144SOL    HW1 4331   1.050   6.862   5.168
 1144SOL    HW2 4332   1.032   6.700   5.175
 1145SOL     OW 4333   2.067   4.792   4.831
 1145SOL    HW1 4334   1.992   4.745   4.878
 1145SOL    HW2 4335   2.153   4.746   4.852
 1146SOL     OW 4336   5.852   1.700   0.822
 1146SOL    HW1 4337   5.869   1.731   0.728
 1146SOL    HW2 4338   5.935   1.713   0.877
 1147SOL     OW 4339   6.613   3.406   2.104
 1147SOL    HW1 4340   6.541   3.425   2.037
 1147SOL    HW2 4341   6.629   3.487   2.160
 1148SOL     OW 4342   5.454   1.097   6.572
 1148SOL    HW1 4343   5.511   1.179   6.572
 1148SOL    HW2 4344   5.485   1.035   6.643
 1149SOL     OW 4345   5.634   2.243   3.079
 1149SOL    HW1 4346   5.635   2.242   2.979
 1149SOL    HW2 4347   5.645   2.337   3.111
 1150SOL     OW 4348   1.199   5.399   5.861
 1150SOL    HW1 4349   1.190   5.445   5.949
 1150SOL    HW2 4350   1.260   5.452   5.802
 1151SOL     OW 4351   2.554   5.058   0.343
 1151SOL    HW1 4352   2.549   5.081   0.440
 1151SOL    HW2 4353   2.646   5.076   0.309
 1152SOL     OW 4354   0.819   0.815   4.065
 1152SOL    HW1 4355   0.794   0.912   4.062
 1152SOL    HW2 4356   0.809   0.781   4.158
 1153SOL     OW 4357   2.384   4.532   2.571
 1153SOL    HW1 4358   2.419   4.519   2.478
 1153SOL    HW2 4359   2.454   4.578   2.626
 1154SOL     OW 4360   1.898   4.191   2.127
 1154SOL    HW1 4361   1.904   4.094   2.105
 1154SOL    HW2 4362   1.877   4.243   2.043
 1155SOL     OW 4363   4.258   6.782   2.663
 1155SOL    HW1 4364   4.227   6.770   2.568
 1155SOL    HW2 4365   4.222   6.867   2.700
 1156SOL     OW 4366   1.683   1.493   4.042
 1156SOL    HW1 4367   1.633   1.474   3.958
 1156SOL    HW2 4368   1.641   1.571   4.089
 1157SOL     OW 4369   1.456   2.938   4.213
 1157SOL    HW1 4370   1.401   2.906   4.291
 1157SOL    HW2 4371   1.553   2.923   4.233
 1158SOL     OW 4372   4.298   5.965   6.523
 1158SOL    HW1 4373   4.297   5.876   6.477
 1158SOL    HW2 4374   4.336   6.033   6.461
 1159SOL     OW 4375   6.082   4.688   2.344
 1159SOL    HW1 4376   6.034   4.734   2.419
 1159SOL    HW2 4377   6.015   4.659   2.275
 1160SOL     OW 4378   3.059   3.097   1.458
 1160SOL    HW1 4379   3.058   3.181   1.404
 1160SOL    HW2 4380   3.034   3.020   1.400
 1161SOL     OW 4381   4.214   0.539   4.043
 1161SOL    HW1 4382   4.305   0.520   4.005
 1161SOL    HW2 4383   4.224   0.579   4.134
 1162SOL     OW 4384   3.825   5.312   1.399
 1162SOL    HW1 4385   3.846   5.390   1.458
 1162SOL    HW2 4386   3.778   5.242   1.452
 1163SOL     OW 4387   5.246   0.236   2.414
 1163SOL    HW1 4388   5.321   0.283   2.367
 1163SOL    HW2 4389   5.247   0.260   2.511
 1164SOL     OW 4390   6.255   3.712   3.956
 1164SOL    HW1 4391   6.219   3.703   3.863
 1164SOL    HW2 4392   6.341   3.763   3.954
 1165SOL     OW 4393   0.962   4.752   2.307
 1165SOL    HW1 4394   0.998   4.659   2.306
 1165SOL    HW2 4395   0.919   4.773   2.220
 1166SOL     OW 4396   3.314   1.936   6.938
 1166SOL    HW1 4397   3.240   1.986   6.894
 1166SOL    HW2 4398   3.276   1.868   7.001
 1167SOL     OW 4399   3.909   1.620   5.174
 1167SOL    HW1 4400   3.835   1.677   5.139
 1167SOL    HW2 4401   3.907   1.530   5.129
 1168SOL     OW 4402   6.047   0.043   3.339
 1168SOL    HW1 4403   6.084   0.081   3.424
 1168SOL    HW2 4404   5.966   7.003   3.359
 1169SOL     OW 4405   1.016   3.047   1.187
 1169SOL    HW1 4406   0.998   3.015   1.094
 1169SOL    HW2 4407   1.042   3.143   1.184
 1170SOL     OW 4408   3.056   0.373   1.109
 1170SOL    HW1 4409   3.109   0.439   1.163
 1170SOL    HW2 4410   3.089   0.374   1.014
 1171SOL     OW 4411   2.841   0.803   0.297
 1171SOL    HW1 4412   2.786   0.882   0.323
 1171SOL    HW2 4413   2.889   0.822   0.212
 1172SOL     OW 4414   3.446   3.561   5.319
 1172SOL    HW1 4415   3.385   3.635   5.347
 1172SOL    HW2 4416   3.434   3.483   5.381
 1173SOL     OW 4417   5.292   0.182   6.484
 1173SOL    HW1 4418   5.383   0.143   6.469
 1173SOL    HW2 4419   5.269   0.243   6.408
 1174SOL     OW 4420   3.475   5.845   6.837
 1174SOL    HW1 4421   3.392   5.901   6.840
 1174SOL    HW2 4422   3.552   5.902   6.808
 1175SOL     OW 4423   0.175   4.966   4.631
 1175SOL    HW1 4424   0.236   5.044   4.648
 1175SOL    HW2 4425   0.209   4.915   4.552
 1176SOL     OW 4426   6.613   2.648   1.269
 1176SOL    HW1 4427   6.540   2.629   1.204
 1176SOL    HW2 4428   6.673   2.568   1.277
 1177SOL     OW 4429   5.917   3.556   6.763
 1177SOL    HW1 4430   5.823   3.578   6.791
 1177SOL    HW2 4431   5.926   3.571   6.665
 1178SOL     OW 4432   5.409   4.159   2.586
 1178SOL    HW1 4433   5.357   4.073   2.577
 1178SOL    HW2 4434   5.499   4.148   2.545
 1179SOL     OW 4435   1.885   5.709   6.064
 1179SOL    HW1 4436   1.949   5.707   5.987
 1179SOL    HW2 4437   1.795   5.676   6.034
 1180SOL     OW 4438   1.755   0.841   3.699
 1180SOL    HW1 4439   1.712   0.907   3.761
 1180SOL    HW2 4440   1.842   0.877   3.667
 1181SOL     OW 4441   1.665   4.178   2.264
 1181SOL    HW1 4442   1.755   4.201   2.227
 1181SOL    HW2 4443   1.625   4.258   2.308
 1182SOL     OW 4444   1.033   3.947   4.402
 1182SOL    HW1 4445   0.971   4.023   4.423
 1182SOL    HW2 4446   0.984   3.878   4.348
 1183SOL     OW 4447   4.516   6.049   1.027
 1183SOL    HW1 4448   4.607   6.073   1.060
 1183SOL    HW2 4449   4.449   6.070   1.098
 1184SOL     OW 4450   3.423   2.927   6.200
 1184SOL    HW1 4451   3.494   2.937   6.269
 1184SOL    HW2 4452   3.459   2.954   6.110
 1185SOL     OW 4453   2.783   1.266   6.600
 1185SOL    HW1 4454   2.874   1.306   6.591
 1185SOL    HW2 4455   2.715   1.329   6.564
 1186SOL     OW 4456   3.584   0.776   5.241
 1186SOL    HW1 4457   3.496   0.728   5.236
 1186SOL    HW2 4458   3.567   0.874   5.256
 1187SOL     OW 4459   0.831   2.065   4.921
 1187SOL    HW1 4460   0.900   2.096   4.986
 1187SOL    HW2 4461   0.813   2.136   4.854
 1188SOL     OW 4462   1.588   0.782   4.926
 1188SOL    HW1 4463   1.608   0.715   4.854
 1188SOL    HW2 4464   1.650   0.767   5.003
 1189SOL     OW 4465   0.084   1.257   1.495
 1189SOL    HW1 4466   0.106   1.320   1.570
 1189SOL    HW2 4467   0.048   1.172   1.533
 1190SOL     OW 4468   4.215   5.495   1.844
 1190SOL    HW1 4469   4.281   5.420   1.855
 1190SOL    HW2 4470   4.214   5.550   1.927
 1191SOL     OW 4471   2.577   4.474   1.529
 1191SOL    HW1 4472   2.638   4.407   1.573
 1191SOL    HW2 4473   2.490   4.477   1.578
 1192SOL     OW 4474   4.144   5.105   2.611
 1192SOL    HW1 4475   4.233   5.060   2.614
 1192SOL    HW2 4476   4.109   5.116   2.705
 1193SOL     OW 4477   3.886   6.868   4.545
 1193SOL    HW1 4478   3.973   6.910   4.572
 1193SOL    HW2 4479   3.868   6.887   4.449
 1194SOL     OW 4480   5.835   1.464   1.278
 1194SOL    HW1 4481   5.815   1.410   1.360
 1194SOL    HW2 4482   5.794   1.555   1.286
 1195SOL     OW 4483   3.153   6.613   0.062
 1195SOL    HW1 4484   3.125   6.595   0.156
 1195SOL    HW2 4485   3.251   6.598   0.052
 1196SOL     OW 4486   1.359   5.222   3.451
 1196SOL    HW1 4487   1.449   5.264   3.439
 1196SOL    HW2 4488   1.292   5.266   3.391
 1197SOL     OW 4489   3.262   4.806   6.861
 1197SOL    HW1 4490   3.312   4.891   6.875
 1197SOL    HW2 4491   3.317   4.729   6.893
 1198SOL     OW 4492   3.242   0.832   2.503
 1198SOL    HW1 4493   3.264   0.903   2.571
 1198SOL    HW2 4494   3.322   0.775   2.488
 1199SOL     OW 4495   3.285   3.611   4.053
 1199SOL    HW1 4496   3.257   3.692   4.002
 1199SOL    HW2 4497   3.384   3.598   4.044
 1200SOL     OW 4498   4.596   3.345   1.350
 1200SOL    HW1 4499   4.527   3.353   1.278
 1200SOL    HW2 4500   4.584   3.419   1.416
 1201SOL     OW 4501   1.654   1.775   5.040
 1201SOL    HW1 4502   1.698   1.864   5.024
 1201SOL    HW2 4503   1.704   1.725   5.111
 1202SOL     OW 4504   6.436   0.197   4.868
 1202SOL    HW1 4505   6.346   0.186   4.825
 1202SOL    HW2 4506   6.439   0.284   4.917
 1203SOL     OW 4507   6.262   6.330   2.142
 1203SOL    HW1 4508   6.348   6.306   2.096
 1203SOL    HW2 4509   6.235   6.423   2.115
 1204SOL     OW 4510   1.512   6.938   0.142
 1204SOL    HW1 4511   1.480   7.011   0.202
 1204SOL    HW2 4512   1.470   6.851   0.169
 1205SOL     OW 4513   0.620   3.112   5.542
 1205SOL    HW1 4514   0.688   3.125   5.470
 1205SOL    HW2 4515   0.549   3.049   5.510
 1206SOL     OW 4516   6.979   1.978   4.412
 1206SOL    HW1 4517   6.952   1.883   4.401
 1206SOL    HW2 4518   0.029   2.004   4.340
 1207SOL     OW 4519   6.075   6.435   6.960
 1207SOL    HW1 4520   6.107   6.464   6.869
 1207SOL    HW2 4521   6.094   6.508   0.010
 1208SOL     OW 4522   3.796   3.607   2.831
 1208SOL    HW1 4523   3.821   3.547   2.756
 1208SOL    HW2 4524   3.704   3.643   2.816
 1209SOL     OW 4525   6.802   4.500   4.840
 1209SOL    HW1 4526   6.795   4.434   4.766
 1209SOL    HW2 4527   6.772   4.590   4.808
 1210SOL     OW 4528   2.487   6.819   2.878
 1210SOL    HW1 4529   2.411   6.822   2.812
 1210SOL    HW2 4530   2.526   6.727   2.878
 1211SOL     OW 4531   1.125   2.973   2.823
 1211SOL    HW1 4532   1.143   3.056   2.875
 1211SOL    HW2 4533   1.061   2.993   2.748
 1212SOL     OW 4534   0.842   4.740   3.568
 1212SOL    HW1 4535   0.827   4.839   3.563
 1212SOL    HW2 4536   0.835   4.710   3.664
 1213SOL     OW 4537   5.758   3.460   5.091
 1213SOL    HW1 4538   5.692   3.534   5.079
 1213SOL    HW2 4539   5.723   3.393   5.156
 1214SOL     OW 4540   1.646   1.688   1.467
 1214SOL    HW1 4541   1.603   1.746   1.399
 1214SOL    HW2 4542   1.687   1.608   1.422
 1215SOL     OW 4543   0.308   5.470   1.977
 1215SOL    HW1 4544   0.241   5.405   2.013
 1215SOL    HW2 4545   0.328   5.539   2.046
 1216SOL     OW 4546   2.581   6.999   1.525
 1216SOL    HW1 4547   2.654   0.029   1.576
 1216SOL    HW2 4548   2.538   0.050   1.463
 1217SOL     OW 4549   2.093   2.309   3.076
 1217SOL    HW1 4550   2.124   2.404   3.082
 1217SOL    HW2 4551   2.079   2.285   2.980
 1218SOL     OW 4552   0.598   3.178   3.439
 1218SOL    HW1 4553   0.552   3.127   3.366
 1218SOL    HW2 4554   0.693   3.195   3.413
 1219SOL     OW 4555   2.852   5.381   3.432
 1219SOL    HW1 4556   2.762   5.423   3.434
 1219SOL    HW2 4557   2.900   5.409   3.349
 1220SOL     OW 4558   6.468   4.456   2.079
 1220SOL    HW1 4559   6.386   4.454   2.137
 1220SOL    HW2 4560   6.501   4.363   2.064
 1221SOL     OW 4561   4.893   4.622   5.920
 1221SOL    HW1 4562   4.965   4.572   5.870
 1221SOL    HW2 4563   4.920   4.718   5.930
 1222SOL     OW 4564   6.150   4.711   1.380
 1222SOL    HW1 4565   6.227   4.671   1.329
 1222SOL    HW2 4566   6.095   4.767   1.318
 1223SOL     OW 4567   0.133   4.870   5.034
 1223SOL    HW1 4568   0.057   4.847   5.095
 1223SOL    HW2 4569   0.119   4.828   4.945
 1224SOL     OW 4570   4.241   4.872   1.117
 1224SOL    HW1 4571   4.150   4.886   1.154
 1224SOL    HW2 4572   4.255   4.933   1.039
 1225SOL     OW 4573   4.307   1.982   6.913
 1225SOL    HW1 4574   4.223   1.990   6.967
 1225SOL    HW2 4575   4.326   1.886   6.896
 1226SOL     OW 4576   5.613   5.610   0.945
 1226SOL    HW1 4577   5.652   5.683   1.001
 1226SOL    HW2 4578   5.583   5.648   0.857
 1227SOL     OW 4579   4.948   4.671   6.743
 1227SOL    HW1 4580   4.996   4.678   6.830
 1227SOL    HW2 4581   4.857   4.632   6.759
 1228SOL     OW 4582   3.553   4.175   4.365
 1228SOL    HW1 4583   3.627   4.110   4.384
 1228SOL    HW2 4584   3.514   4.207   4.451
 1229SOL     OW 4585   2.601   5.414   3.154
 1229SOL    HW1 4586   2.559   5.367   3.232
 1229SOL    HW2 4587   2.551   5.498   3.134
 1230SOL     OW 4588   4.442   5.454   0.983
 1230SOL    HW1 4589   4.428   5.398   0.902
 1230SOL    HW2 4590   4.375   5.430   1.053
 1231SOL     OW 4591   2.146   1.324   0.134
 1231SOL    HW1 4592   2.137   1.392   0.061
 1231SOL    HW2 4593   2.200   1.247   0.101
 1232SOL     OW 4594   2.876   1.351   5.184
 1232SOL    HW1 4595   2.900   1.404   5.103
 1232SOL    HW2 4596   2.846   1.413   5.257
 1233SOL     OW 4597   0.284   5.223   4.754
 1233SOL    HW1 4598   0.261   5.297   4.691
 1233SOL    HW2 4599   0.215   5.218   4.826
 1234SOL     OW 4600   6.240   4.616   6.908
 1234SOL    HW1 4601   6.267   4.528   6.945
 1234SOL    HW2 4602   6.320   4.675   6.899
 1235SOL     OW 4603   5.974   4.829   1.196
 1235SOL    HW1 4604   5.946   4.924   1.214
 1235SOL    HW2 4605   6.014   4.824   1.104
 1236SOL     OW 4606   1.075   1.166   2.643
 1236SOL    HW1 4607   1.053   1.126   2.731
 1236SOL    HW2 4608   1.013   1.242   2.625
 1237SOL     OW 4609   1.255   0.277   4.129
 1237SOL    HW1 4610   1.245   0.248   4.224
 1237SOL    HW2 4611   1.327   0.347   4.123
 1238SOL     OW 4612   0.683   0.369   4.225
 1238SOL    HW1 4613   0.607   0.345   4.164
 1238SOL    HW2 4614   0.769   0.356   4.177
 1239SOL     OW 4615   4.864   4.429   3.868
 1239SOL    HW1 4616   4.825   4.504   3.815
 1239SOL    HW2 4617   4.869   4.455   3.964
 1240SOL     OW 4618   0.403   3.730   0.694
 1240SOL    HW1 4619   0.486   3.675   0.693
 1240SOL    HW2 4620   0.397   3.780   0.781
 1241SOL     OW 4621   3.794   5.520   5.966
 1241SOL    HW1 4622   3.863   5.543   5.898
 1241SOL    HW2 4623   3.796   5.421   5.983
 1242SOL     OW 4624   1.766   5.128   0.548
 1242SOL    HW1 4625   1.806   5.091   0.464
 1242SOL    HW2 4626   1.765   5.228   0.543
 1243SOL     OW 4627   1.412   3.866   3.523
 1243SOL    HW1 4628   1.493   3.887   3.578
 1243SOL    HW2 4629   1.420   3.774   3.484
 1244SOL     OW 4630   6.524   6.947   4.831
 1244SOL    HW1 4631   6.504   0.028   4.849
 1244SOL    HW2 4632   6.515   6.894   4.916
 1245SOL     OW 4633   4.575   6.735   1.068
 1245SOL    HW1 4634   4.593   6.680   0.987
 1245SOL    HW2 4635   4.488   6.783   1.057
 1246SOL     OW 4636   5.706   1.706   1.281
 1246SOL    HW1 4637   5.631   1.725   1.345
 1246SOL    HW2 4638   5.778   1.774   1.294
 1247SOL     OW 4639   5.427   6.902   2.806
 1247SOL    HW1 4640   5.365   6.974   2.837
 1247SOL    HW2 4641   5.383   6.813   2.819
 1248SOL     OW 4642   0.757   6.756   4.414
 1248SOL    HW1 4643   0.663   6.723   4.408
 1248SOL    HW2 4644   0.816   6.683   4.448
 1249SOL     OW 4645   5.844   6.210   6.997
 1249SOL    HW1 4646   5.895   6.125   7.012
 1249SOL    HW2 4647   5.906   6.288   7.004
 1250SOL     OW 4648   0.506   4.752   4.684
 1250SOL    HW1 4649   0.426   4.704   4.722
 1250SOL    HW2 4650   0.495   4.850   4.696
 1251SOL     OW 4651   3.194   0.125   2.590
 1251SOL    HW1 4652   3.097   0.134   2.567
 1251SOL    HW2 4653   3.249   0.165   2.517
 1252SOL     OW 4654   2.561   5.453   6.323
 1252SOL    HW1 4655   2.644   5.507   6.314
 1252SOL    HW2 4656   2.580   5.369   6.374
 1253SOL     OW 4657   2.614   6.256   0.106
 1253SOL    HW1 4658   2.671   6.185   0.147
 1253SOL    HW2 4659   2.584   6.321   0.176
 1254SOL     OW 4660   6.177   1.454   3.715
 1254SOL    HW1 4661   6.118   1.380   3.749
 1254SOL    HW2 4662   6.174   1.456   3.615
 1255SOL     OW 4663   6.045   1.931   5.657
 1255SOL    HW1 4664   6.137   1.919   5.695
 1255SOL    HW2 4665   6.017   2.026   5.665
 1256SOL     OW 4666   0.388   5.666   5.060
 1256SOL    HW1 4667   0.475   5.700   5.095
 1256SOL    HW2 4668   0.318   5.678   5.131
 1257SOL     OW 4669   6.902   6.194   3.295
 1257SOL    HW1 4670   6.839   6.251   3.242
 1257SOL    HW2 4671   6.948   6.130   3.233
 1258SOL     OW 4672   4.561   5.889   6.597
 1258SOL    HW1 4673   4.549   5.858   6.692
 1258SOL    HW2 4674   4.472   5.899   6.553
 1259SOL     OW 4675   5.645   6.652   5.440
 1259SOL    HW1 4676   5.726   6.711   5.436
 1259SOL    HW2 4677   5.593   6.672   5.523
 1260SOL     OW 4678   3.028   1.619   0.488
 1260SOL    HW1 4679   3.003   1.555   0.561
 1260SOL    HW2 4680   3.105   1.581   0.436
 1261SOL     OW 4681   6.977   4.350   4.297
 1261SOL    HW1 4682   6.996   4.267   4.348
 1261SOL    HW2 4683   0.007   4.428   4.341
 1262SOL     OW 4684   4.018   5.880   1.700
 1262SOL    HW1 4685   4.064   5.946   1.759
 1262SOL    HW2 4686   4.084   5.811   1.669
 1263SOL     OW 4687   6.923   1.769   0.829
 1263SOL    HW1 4688   6.883   1.709   0.899
 1263SOL    HW2 4689   6.934   1.861   0.867
 1264SOL     OW 4690   6.464   2.780   4.929
 1264SOL    HW1 4691   6.461   2.792   4.829
 1264SOL    HW2 4692   6.497   2.864   4.972
 1265SOL     OW 4693   6.362   5.848   4.482
 1265SOL    HW1 4694   6.355   5.752   4.454
 1265SOL    HW2 4695   6.328   5.858   4.576
 1266SOL     OW 4696   3.241   0.795   4.042
 1266SOL    HW1 4697   3.209   0.888   4.054
 1266SOL    HW2 4698   3.264   0.756   4.132
 1267SOL     OW 4699   0.155   4.338   2.687
 1267SOL    HW1 4700   0.113   4.409   2.631
 1267SOL    HW2 4701   0.096   4.320   2.766
 1268SOL     OW 4702   6.053   4.545   6.727
 1268SOL    HW1 4703   5.968   4.515   6.771
 1268SOL    HW2 4704   6.121   4.568   6.797
 1269SOL     OW 4705   6.868   5.217   6.600
 1269SOL    HW1 4706   6.866   5.179   6.507
 1269SOL    HW2 4707   6.933   5.293   6.603
 1270SOL     OW 4708   1.313   2.092   3.972
 1270SOL    HW1 4709   1.334   2.138   4.058
 1270SOL    HW2 4710   1.217   2.109   3.948
 1271SOL     OW 4711   5.059   2.298   3.726
 1271SOL    HW1 4712   5.038   2.375   3.665
 1271SOL    HW2 4713   5.096   2.333   3.812
 1272SOL     OW 4714   6.142   6.415   0.648
 1272SOL    HW1 4715   6.229   6.425   0.696
 1272SOL    HW2 4716   6.069   6.393   0.713
 1273SOL     OW 4717   2.458   6.683   5.777
 1273SOL    HW1 4718   2.557   6.685   5.787
 1273SOL    HW2 4719   2.415   6.722   5.859
 1274SOL     OW 4720   5.909   2.089   2.513
 1274SOL    HW1 4721   5.880   2.081   2.417
 1274SOL    HW2 4722   6.007   2.073   2.519
 1275SOL     OW 4723   4.051   1.848   3.797
 1275SOL    HW1 4724   4.073   1.751   3.783
 1275SOL    HW2 4725   3.981   1.856   3.867
 1276SOL     OW 4726   6.550   6.892   2.294
 1276SOL    HW1 4727   6.547   6.796   2.320
 1276SOL    HW2 4728   6.497   6.947   2.359
 1277SOL     OW 4729   1.021   1.800   4.515
 1277SOL    HW1 4730   1.042   1.705   4.539
 1277SOL    HW2 4731   0.948   1.802   4.446
 1278SOL     OW 4732   3.273   1.154   5.763
 1278SOL    HW1 4733   3.313   1.072   5.804
 1278SOL    HW2 4734   3.309   1.235   5.809
 1279SOL     OW 4735   2.072   4.738   0.420
 1279SOL    HW1 4736   2.006   4.710   0.349
 1279SOL    HW2 4737   2.114   4.824   0.393
 1280SOL     OW 4738   1.770   5.383   2.912
 1280SOL    HW1 4739   1.852   5.335   2.880
 1280SOL    HW2 4740   1.790   5.426   3.000
 1281SOL     OW 4741   0.798   6.730   3.894
 1281SOL    HW1 4742   0.791   6.658   3.963
 1281SOL    HW2 4743   0.894   6.738   3.865
 1282SOL     OW 4744   1.200   6.771   2.417
 1282SOL    HW1 4745   1.269   6.830   2.459
 1282SOL    HW2 4746   1.230   6.676   2.423
 1283SOL     OW 4747   4.700   4.165   5.158
 1283SOL    HW1 4748   4.755   4.138   5.079
 1283SOL    HW2 4749   4.756   4.221   5.219
 1284SOL     OW 4750   2.669   1.949   3.103
 1284SOL    HW1 4751   2.705   2.033   3.142
 1284SOL    HW2 4752   2.679   1.874   3.168
 1285SOL     OW 4753   5.728   2.904   5.604
 1285SOL    HW1 4754   5.696   2.834   5.539
 1285SOL    HW2 4755   5.649   2.951   5.644
 1286SOL     OW 4756   6.101   6.169   1.812
 1286SOL    HW1 4757   6.015   6.162   1.761
 1286SOL    HW2 4758   6.112   6.089   1.870
 1287SOL     OW 4759   6.278   4.229   5.956
 1287SOL    HW1 4760   6.309   4.148   5.905
 1287SOL    HW2 4761   6.342   4.304   5.944
 1288SOL     OW 4762   6.260   2.892   3.893
 1288SOL    HW1 4763   6.278   2.989   3.910
 1288SOL    HW2 4764   6.164   2.872   3.912
 1289SOL     OW 4765   6.882   5.019   2.807
 1289SOL    HW1 4766   6.856   5.074   2.887
 1289SOL    HW2 4767   6.799   4.990   2.759
 1290SOL     OW 4768   0.620   0.337   0.962
 1290SOL    HW1 4769   0.664   0.248   0.950
 1290SOL    HW2 4770   0.689   0.407   0.978
 1291SOL     OW 4771   1.693   0.037   0.797
 1291SOL    HW1 4772   1.722   0.052   0.892
 1291SOL    HW2 4773   1.620   0.103   0.775
 1292SOL     OW 4774   0.860   6.026   6.544
 1292SOL    HW1 4775   0.821   5.940   6.576
 1292SOL    HW2 4776   0.825   6.101   6.600
 1293SOL     OW 4777   6.187   2.719   5.903
 1293SOL    HW1 4778   6.098   2.732   5.947
 1293SOL    HW2 4779   6.226   2.808   5.881
 1294SOL     OW 4780   0.404   1.857   3.451
 1294SOL    HW1 4781   0.370   1.917   3.523
 1294SOL    HW2 4782   0.503   1.850   3.457
 1295SOL     OW 4783   4.848   3.358   1.622
 1295SOL    HW1 4784   4.811   3.268   1.601
 1295SOL    HW2 4785   4.868   3.364   1.720
 1296SOL     OW 4786   3.776   2.306   0.367
 1296SOL    HW1 4787   3.679   2.313   0.392
 1296SOL    HW2 4788   3.825   2.386   0.401
 1297SOL     OW 4789   6.721   0.821   6.077
 1297SOL    HW1 4790   6.718   0.770   6.163
 1297SOL    HW2 4791   6.796   0.886   6.079
 1298SOL     OW 4792   6.650   2.597   3.375
 1298SOL    HW1 4793   6.738   2.549   3.368
 1298SOL    HW2 4794   6.585   2.558   3.310
 1299SOL     OW 4795   1.259   3.021   4.054
 1299SOL    HW1 4796   1.200   3.032   4.134
 1299SOL    HW2 4797   1.350   2.992   4.082
 1300SOL     OW 4798   3.960   3.421   2.038
 1300SOL    HW1 4799   3.974   3.512   2.079
 1300SOL    HW2 4800   4.044   3.367   2.048
 1301SOL     OW 4801   0.729   0.595   2.502
 1301SOL    HW1 4802   0.660   0.532   2.535
 1301SOL    HW2 4803   0.727   0.597   2.402
 1302SOL     OW 4804   3.128   5.888   5.409
 1302SOL    HW1 4805   3.096   5.920   5.320
 1302SOL    HW2 4806   3.098   5.793   5.422
 1303SOL     OW 4807   2.851   0.179   1.236
 1303SOL    HW1 4808   2.925   0.236   1.201
 1303SOL    HW2 4809   2.778   0.238   1.271
 1304SOL     OW 4810   3.299   1.207   6.521
 1304SOL    HW1 4811   3.220   1.146   6.513
 1304SOL    HW2 4812   3.269   1.301   6.507
 1305SOL     OW 4813   5.836   6.177   3.899
 1305SOL    HW1 4814   5.923   6.134   3.923
 1305SOL    HW2 4815   5.764   6.144   3.960
 1306SOL     OW 4816   1.483   4.955   4.897
 1306SOL    HW1 4817   1.429   5.023   4.947
 1306SOL    HW2 4818   1.467   4.966   4.799
 1307SOL     OW 4819   1.443   1.858   3.960
 1307SOL    HW1 4820   1.530   1.875   3.913
 1307SOL    HW2 4821   1.386   1.940   3.955
 1308SOL     OW 4822   4.214   6.174   3.129
 1308SOL    HW1 4823   4.238   6.206   3.221
 1308SOL    HW2 4824   4.183   6.251   3.074
 1309SOL     OW 4825   5.381   3.059   4.800
 1309SOL    HW1 4826   5.479   3.055   4.819
 1309SOL    HW2 4827   5.348   3.152   4.813
 1310SOL     OW 4828   5.665   3.622   5.394
 1310SOL    HW1 4829   5.578   3.671   5.391
 1310SOL    HW2 4830   5.708   3.637   5.483
 1311SOL     OW 4831   5.264   5.105   5.406
 1311SOL    HW1 4832   5.245   5.133   5.312
 1311SOL    HW2 4833   5.284   5.186   5.461
 1312SOL     OW 4834   6.104   0.187   1.951
 1312SOL    HW1 4835   6.111   0.122   2.027
 1312SOL    HW2 4836   6.107   0.137   1.865
 1313SOL     OW 4837   2.964   4.932   4.730
 1313SOL    HW1 4838   2.949   5.021   4.773
 1313SOL    HW2 4839   3.042   4.887   4.773
 1314SOL     OW 4840   6.152   1.601   5.630
 1314SOL    HW1 4841   6.082   1.663   5.664
 1314SOL    HW2 4842   6.227   1.595   5.696
 1315SOL     OW 4843   2.305   7.011   3.307
 1315SOL    HW1 4844   2.308   6.918   3.342
 1315SOL    HW2 4845   2.211   0.019   3.281
 1316SOL     OW 4846   3.653   6.449   2.963
 1316SOL    HW1 4847   3.582   6.435   3.032
 1316SOL    HW2 4848   3.722   6.511   2.999
 1317SOL     OW 4849   0.362   3.485   4.141
 1317SOL    HW1 4850   0.457   3.468   4.165
 1317SOL    HW2 4851   0.315   3.398   4.126
 1318SOL     OW 4852   1.218   6.321   1.421
 1318SOL    HW1 4853   1.153   6.276   1.360
 1318SOL    HW2 4854   1.171   6.388   1.477
 1319SOL     OW 4855   6.640   0.569   0.542
 1319SOL    HW1 4856   6.575   0.531   0.476
 1319SOL    HW2 4857   6.613   0.662   0.567
 1320SOL     OW 4858   5.136   6.007   5.175
 1320SOL    HW1 4859   5.119   5.910   5.192
 1320SOL    HW2 4860   5.062   6.044   5.118
 1321SOL     OW 4861   3.035   1.639   6.754
 1321SOL    HW1 4862   3.135   1.644   6.749
 1321SOL    HW2 4863   3.005   1.657   6.848
 1322SOL     OW 4864   5.097   1.920   5.989
 1322SOL    HW1 4865   5.114   1.968   5.903
 1322SOL    HW2 4866   5.059   1.984   6.056
 1323SOL     OW 4867   6.205   1.280   4.498
 1323SOL    HW1 4868   6.117   1.305   4.456
 1323SOL    HW2 4869   6.262   1.362   4.507
 1324SOL     OW 4870   1.487   3.384   0.091
 1324SOL    HW1 4871   1.435   3.410   0.010
 1324SOL    HW2 4872   1.511   3.465   0.144
 1325SOL     OW 4873   4.309   5.290   3.520
 1325SOL    HW1 4874   4.299   5.364   3.453
 1325SOL    HW2 4875   4.406   5.273   3.537
 1326SOL     OW 4876   5.101   4.095   4.324
 1326SOL    HW1 4877   5.023   4.065   4.379
 1326SOL    HW2 4878   5.073   4.106   4.229
 1327SOL     OW 4879   3.035   6.175   4.215
 1327SOL    HW1 4880   2.981   6.106   4.168
 1327SOL    HW2 4881   2.991   6.264   4.206
 1328SOL     OW 4882   2.232   1.626   0.757
 1328SOL    HW1 4883   2.325   1.660   0.742
 1328SOL    HW2 4884   2.181   1.632   0.671
 1329SOL     OW 4885   0.648   6.852   1.989
 1329SOL    HW1 4886   0.577   6.826   2.054
 1329SOL    HW2 4887   0.724   6.787   1.995
 1330SOL     OW 4888   4.637   6.570   0.856
 1330SOL    HW1 4889   4.628   6.486   0.803
 1330SOL    HW2 4890   4.729   6.607   0.844
 1331SOL     OW 4891   0.137   1.681   1.861
 1331SOL    HW1 4892   0.149   1.733   1.945
 1331SOL    HW2 4893   0.157   1.584   1.878
 1332SOL     OW 4894   4.052   1.686   1.276
 1332SOL    HW1 4895   3.975   1.638   1.317
 1332SOL    HW2 4896   4.025   1.779   1.253
 1333SOL     OW 4897   4.018   3.861   4.645
 1333SOL    HW1 4898   4.017   3.946   4.697
 1333SOL    HW2 4899   4.027   3.784   4.708
 1334SOL     OW 4900   0.645   3.538   3.836
 1334SOL    HW1 4901   0.695   3.623   3.853
 1334SOL    HW2 4902   0.549   3.558   3.817
 1335SOL     OW 4903   2.832   5.562   2.348
 1335SOL    HW1 4904   2.910   5.508   2.379
 1335SOL    HW2 4905   2.775   5.586   2.426
 1336SOL     OW 4906   0.508   0.720   4.986
 1336SOL    HW1 4907   0.566   0.794   5.021
 1336SOL    HW2 4908   0.456   0.680   5.061
 1337SOL     OW 4909   3.535   0.704   6.806
 1337SOL    HW1 4910   3.588   0.638   6.860
 1337SOL    HW2 4911   3.592   0.785   6.788
 1338SOL     OW 4912   3.323   5.518   1.421
 1338SOL    HW1 4913   3.236   5.531   1.469
 1338SOL    HW2 4914   3.319   5.435   1.367
 1339SOL     OW 4915   0.151   4.411   6.540
 1339SOL    HW1 4916   0.145   4.368   6.450
 1339SOL    HW2 4917   0.069   4.468   6.555
 1340SOL     OW 4918   1.995   0.987   6.419
 1340SOL    HW1 4919   1.897   1.001   6.405
 1340SOL    HW2 4920   2.028   0.917   6.356
 1341SOL     OW 4921   5.612   2.637   4.239
 1341SOL    HW1 4922   5.520   2.609   4.213
 1341SOL    HW2 4923   5.672   2.634   4.159
 1342SOL     OW 4924   0.550   6.599   1.641
 1342SOL    HW1 4925   0.634   6.554   1.671
 1342SOL    HW2 4926   0.570   6.656   1.561
 1343SOL     OW 4927   3.295   5.652   3.981
 1343SOL    HW1 4928   3.286   5.617   4.074
 1343SOL    HW2 4929   3.320   5.749   3.984
 1344SOL     OW 4930   5.195   1.172   2.676
 1344SOL    HW1 4931   5.121   1.205   2.618
 1344SOL    HW2 4932   5.226   1.245   2.736
 1345SOL     OW 4933   0.916   5.842   2.992
 1345SOL    HW1 4934   0.977   5.827   3.069
 1345SOL    HW2 4935   0.876   5.933   2.997
 1346SOL     OW 4936   0.533   1.141   3.683
 1346SOL    HW1 4937   0.549   1.056   3.734
 1346SOL    HW2 4938   0.435   1.159   3.679
 1347SOL     OW 4939   4.802   0.355   3.665
 1347SOL    HW1 4940   4.815   0.355   3.764
 1347SOL    HW2 4941   4.704   0.366   3.644
 1348SOL     OW 4942   4.596   5.927   4.547
 1348SOL    HW1 4943   4.690   5.956   4.562
 1348SOL    HW2 4944   4.592   5.858   4.474
 1349SOL     OW 4945   4.426   2.392   6.909
 1349SOL    HW1 4946   4.462   2.477   6.947
 1349SOL    HW2 4947   4.361   2.352   6.973
 1350SOL     OW 4948   3.237   0.697   5.086
 1350SOL    HW1 4949   3.264   0.793   5.083
 1350SOL    HW2 4950   3.279   0.653   5.165
 1351SOL     OW 4951   1.318   1.676   4.422
 1351SOL    HW1 4952   1.267   1.760   4.442
 1351SOL    HW2 4953   1.305   1.610   4.496
 1352SOL     OW 4954   0.690   6.318   4.119
 1352SOL    HW1 4955   0.697   6.417   4.134
 1352SOL    HW2 4956   0.760   6.271   4.172
 1353SOL     OW 4957   2.134   2.854   5.394
 1353SOL    HW1 4958   2.087   2.766   5.387
 1353SOL    HW2 4959   2.106   2.912   5.317
 1354SOL     OW 4960   0.337   0.326   0.449
 1354SOL    HW1 4961   0.360   0.230   0.429
 1354SOL    HW2 4962   0.415   0.370   0.492
 1355SOL     OW 4963   3.894   3.083   6.863
 1355SOL    HW1 4964   3.900   3.173   6.820
 1355SOL    HW2 4965   3.807   3.040   6.838
 1356SOL     OW 4966   3.284   2.953   1.978
 1356SOL    HW1 4967   3.275   2.935   2.076
 1356SOL    HW2 4968   3.202   2.999   1.945
 1357SOL     OW 4969   3.050   2.837   5.570
 1357SOL    HW1 4970   3.033   2.935   5.560
 1357SOL    HW2 4971   3.058   2.813   5.667
 1358SOL     OW 4972   1.892   3.758   5.961
 1358SOL    HW1 4973   1.898   3.786   6.057
 1358SOL    HW2 4974   1.796   3.743   5.938
 1359SOL     OW 4975   6.968   1.506   0.173
 1359SOL    HW1 4976   6.981   1.551   0.085
 1359SOL    HW2 4977   0.010   1.425   0.178
 1360SOL     OW 4978   3.318   3.049   3.987
 1360SOL    HW1 4979   3.328   3.148   3.997
 1360SOL    HW2 4980   3.288   3.009   4.074
 1361SOL     OW 4981   0.755   6.120   1.259
 1361SOL    HW1 4982   0.851   6.125   1.231
 1361SOL    HW2 4983   0.748   6.070   1.346
 1362SOL     OW 4984   3.116   2.066   6.750
 1362SOL    HW1 4985   3.169   2.020   6.679
 1362SOL    HW2 4986   3.047   2.125   6.707
 1363SOL     OW 4987   6.589   6.832   1.199
 1363SOL    HW1 4988   6.577   6.927   1.225
 1363SOL    HW2 4989   6.680   6.820   1.160
 1364SOL     OW 4990   1.039   3.567   0.953
 1364SOL    HW1 4991   1.028   3.632   0.878
 1364SOL    HW2 4992   1.124   3.516   0.941
 1365SOL     OW 4993   0.876   3.576   5.511
 1365SOL    HW1 4994   0.788   3.609   5.544
 1365SOL    HW2 4995   0.948   3.638   5.542
 1366SOL     OW 4996   3.741   0.745   1.377
 1366SOL    HW1 4997   3.760   0.836   1.413
 1366SOL    HW2 4998   3.765   0.741   1.280
 1367SOL     OW 4999   1.531   6.953   4.612
 1367SOL    HW1 5000   1.588   6.952   4.530
 1367SOL    HW2 5001   1.457   6.887   4.602
 1368SOL     OW 5002   1.673   6.383   4.878
 1368SOL    HW1 5003   1.763   6.346   4.900
 1368SOL    HW2 5004   1.654   6.461   4.937
 1369SOL     OW 5005   2.638   5.711   3.701
 1369SOL    HW1 5006   2.567   5.662   3.750
 1369SOL    HW2 5007   2.728   5.682   3.734
 1370SOL     OW 5008   6.897   2.675   3.100
 1370SOL    HW1 5009   6.861   2.657   3.008
 1370SOL    HW2 5010   6.941   2.592   3.135
 1371SOL     OW 5011   5.949   2.372   5.385
 1371SOL    HW1 5012   5.897   2.452   5.356
 1371SOL    HW2 5013   6.045   2.384   5.361
 1372SOL     OW 5014   5.943   2.739   1.215
 1372SOL    HW1 5015   5.848   2.769   1.217
 1372SOL    HW2 5016   5.959   2.672   1.288
 1373SOL     OW 5017   5.763   3.356   2.017
 1373SOL    HW1 5018   5.779   3.346   1.918
 1373SOL    HW2 5019   5.850   3.373   2.063
 1374SOL     OW 5020   3.871   3.023   2.252
 1374SOL    HW1 5021   3.781   2.982   2.265
 1374SOL    HW2 5022   3.910   2.991   2.166
 1375SOL     OW 5023   5.276   4.684   4.614
 1375SOL    HW1 5024   5.197   4.709   4.671
 1375SOL    HW2 5025   5.307   4.593   4.639
 1376SOL     OW 5026   3.144   4.365   5.532
 1376SOL    HW1 5027   3.094   4.303   5.592
 1376SOL    HW2 5028   3.238   4.376   5.566
 1377SOL     OW 5029   1.984   1.598   2.624
 1377SOL    HW1 5030   1.892   1.628   2.598
 1377SOL    HW2 5031   2.046   1.676   2.624
 1378SOL     OW 5032   5.230   2.412   4.408
 1378SOL    HW1 5033   5.165   2.470   4.458
 1378SOL    HW2 5034   5.183   2.366   4.333
 1379SOL     OW 5035   4.289   5.560   6.852
 1379SOL    HW1 5036   4.274   5.542   6.949
 1379SOL    HW2 5037   4.281   5.475   6.800
 1380SOL     OW 5038   0.198   6.010   3.443
 1380SOL    HW1 5039   0.214   6.040   3.536
 1380SOL    HW2 5040   0.263   6.054   3.381
 1381SOL     OW 5041   6.323   2.495   6.062
 1381SOL    HW1 5042   6.358   2.589   6.066
 1381SOL    HW2 5043   6.295   2.466   6.154
 1382SOL     OW 5044   4.782   2.515   6.694
 1382SOL    HW1 5045   4.783   2.614   6.705
 1382SOL    HW2 5046   4.713   2.489   6.627
 1383SOL     OW 5047   6.800   0.409   0.717
 1383SOL    HW1 5048   6.881   0.464   0.699
 1383SOL    HW2 5049   6.720   0.449   0.671
 1384SOL     OW 5050   5.960   2.006   1.981
 1384SOL    HW1 5051   6.055   2.003   1.949
 1384SOL    HW2 5052   5.928   1.913   1.997
 1385SOL     OW 5053   0.342   6.150   1.433
 1385SOL    HW1 5054   0.387   6.200   1.507
 1385SOL    HW2 5055   0.397   6.159   1.350
 1386SOL     OW 5056   2.193   5.663   4.431
 1386SOL    HW1 5057   2.261   5.589   4.427
 1386SOL    HW2 5058   2.149   5.673   4.342
 1387SOL     OW 5059   2.313   5.644   1.804
 1387SOL    HW1 5060   2.387   5.579   1.783
 1387SOL    HW2 5061   2.226   5.603   1.779
 1388SOL     OW 5062   6.274   0.413   2.012
 1388SOL    HW1 5063   6.219   0.329   2.010
 1388SOL    HW2 5064   6.356   0.398   2.067
 1389SOL     OW 5065   5.856   0.972   2.445
 1389SOL    HW1 5066   5.764   0.976   2.406
 1389SOL    HW2 5067   5.867   0.887   2.497
 1390SOL     OW 5068   1.408   1.803   4.883
 1390SOL    HW1 5069   1.491   1.818   4.938
 1390SOL    HW2 5070   1.409   1.709   4.847
 1391SOL     OW 5071   0.381   3.148   3.193
 1391SOL    HW1 5072   0.412   3.077   3.129
 1391SOL    HW2 5073   0.290   3.125   3.226
 1392SOL     OW 5074   5.306   4.325   4.245
 1392SOL    HW1 5075   5.299   4.395   4.316
 1392SOL    HW2 5076   5.256   4.243   4.274
 1393SOL     OW 5077   3.472   5.294   6.548
 1393SOL    HW1 5078   3.530   5.296   6.629
 1393SOL    HW2 5079   3.488   5.211   6.496
 1394SOL     OW 5080   1.669   6.183   0.019
 1394SOL    HW1 5081   1.701   6.118   6.965
 1394SOL    HW2 5082   1.662   6.274   6.994
 1395SOL     OW 5083   3.979   4.947   5.726
 1395SOL    HW1 5084   3.899   4.888   5.738
 1395SOL    HW2 5085   4.030   4.951   5.811
 1396SOL     OW 5086   5.978   6.444   3.889
 1396SOL    HW1 5087   5.965   6.345   3.893
 1396SOL    HW2 5088   6.065   6.465   3.845
 1397SOL     OW 5089   4.675   6.057   5.543
 1397SOL    HW1 5090   4.614   6.010   5.480
 1397SOL    HW2 5091   4.710   6.140   5.499
 1398SOL     OW 5092   2.114   0.953   4.454
 1398SOL    HW1 5093   2.072   0.956   4.364
 1398SOL    HW2 5094   2.099   1.040   4.501
 1399SOL     OW 5095   3.030   5.935   2.228
 1399SOL    HW1 5096   2.942   5.982   2.216
 1399SOL    HW2 5097   3.026   5.846   2.183
 1400SOL     OW 5098   2.125   6.708   2.414
 1400SOL    HW1 5099   2.185   6.696   2.494
 1400SOL    HW2 5100   2.069   6.626   2.402
 1401SOL     OW 5101   6.591   1.554   4.259
 1401SOL    HW1 5102   6.565   1.461   4.234
 1401SOL    HW2 5103   6.589   1.612   4.178
 1402SOL     OW 5104   6.547   3.214   0.446
 1402SOL    HW1 5105   6.547   3.118   0.475
 1402SOL    HW2 5106   6.608   3.267   0.506
 1403SOL     OW 5107   3.584   0.498   2.023
 1403SOL    HW1 5108   3.618   0.466   2.111
 1403SOL    HW2 5109   3.661   0.515   1.961
 1404SOL     OW 5110   5.349   1.525   0.494
 1404SOL    HW1 5111   5.328   1.591   0.422
 1404SOL    HW2 5112   5.406   1.568   0.564
 1405SOL     OW 5113   3.565   2.993   1.324
 1405SOL    HW1 5114   3.528   3.082   1.351
 1405SOL    HW2 5115   3.500   2.921   1.346
 1406SOL     OW 5116   1.508   4.293   1.270
 1406SOL    HW1 5117   1.538   4.205   1.308
 1406SOL    HW2 5118   1.542   4.367   1.328
 1407SOL     OW 5119   6.349   2.189   2.722
 1407SOL    HW1 5120   6.394   2.100   2.716
 1407SOL    HW2 5121   6.315   2.203   2.815
 1408SOL     OW 5122   6.265   6.933   6.329
 1408SOL    HW1 5123   6.255   6.842   6.370
 1408SOL    HW2 5124   6.236   7.003   6.394
 1409SOL     OW 5125   0.628   1.523   3.828
 1409SOL    HW1 5126   0.695   1.458   3.793
 1409SOL    HW2 5127   0.644   1.539   3.925
 1410SOL     OW 5128   6.823   2.900   0.092
 1410SOL    HW1 5129   6.745   2.846   0.058
 1410SOL    HW2 5130   6.792   2.994   0.110
 1411SOL     OW 5131   1.936   0.410   1.655
 1411SOL    HW1 5132   1.847   0.449   1.679
 1411SOL    HW2 5133   1.970   0.453   1.572
 1412SOL     OW 5134   1.353   2.726   6.819
 1412SOL    HW1 5135   1.371   2.687   6.728
 1412SOL    HW2 5136   1.339   2.824   6.811
 1413SOL     OW 5137   3.227   0.014   3.889
 1413SOL    HW1 5138   3.251   0.089   3.950
 1413SOL    HW2 5139   3.191   0.050   3.803
 1414SOL     OW 5140   3.120   0.504   1.793
 1414SOL    HW1 5141   3.071   0.448   1.861
 1414SOL    HW2 5142   3.095   0.600   1.805
 1415SOL     OW 5143   4.476   6.241   5.691
 1415SOL    HW1 5144   4.468   6.248   5.790
 1415SOL    HW2 5145   4.515   6.152   5.667
 1416SOL     OW 5146   4.527   5.782   2.908
 1416SOL    HW1 5147   4.439   5.737   2.922
 1416SOL    HW2 5148   4.544   5.844   2.985
 1417SOL     OW 5149   3.352   2.745   6.415
 1417SOL    HW1 5150   3.416   2.669   6.417
 1417SOL    HW2 5151   3.345   2.781   6.322
 1418SOL     OW 5152   3.265   4.125   2.748
 1418SOL    HW1 5153   3.286   4.114   2.651
 1418SOL    HW2 5154   3.203   4.202   2.760
 1419SOL     OW 5155   4.432   6.230   4.788
 1419SOL    HW1 5156   4.375   6.312   4.795
 1419SOL    HW2 5157   4.454   6.213   4.692
 1420SOL     OW 5158   0.192   5.744   1.878
 1420SOL    HW1 5159   0.241   5.713   1.960
 1420SOL    HW2 5160   0.239   5.710   1.797
 1421SOL     OW 5161   3.883   0.907   2.976
 1421SOL    HW1 5162   3.885   0.826   2.917
 1421SOL    HW2 5163   3.964   0.908   3.034
 1422SOL     OW 5164   2.431   6.811   0.309
 1422SOL    HW1 5165   2.466   6.814   0.215
 1422SOL    HW2 5166   2.491   6.754   0.365
 1423SOL     OW 5167   5.017   0.324   2.287
 1423SOL    HW1 5168   5.097   0.301   2.344
 1423SOL    HW2 5169   4.983   0.414   2.313
 1424SOL     OW 5170   6.541   4.647   2.572
 1424SOL    HW1 5171   6.458   4.701   2.588
 1424SOL    HW2 5172   6.564   4.648   2.475
 1425SOL     OW 5173   1.872   6.732   4.756
 1425SOL    HW1 5174   1.871   6.718   4.657
 1425SOL    HW2 5175   1.950   6.685   4.796
 1426SOL     OW 5176   2.129   1.345   5.869
 1426SOL    HW1 5177   2.053   1.410   5.872
 1426SOL    HW2 5178   2.094   1.252   5.881
 1427SOL     OW 5179   6.071   0.695   4.814
 1427SOL    HW1 5180   6.092   0.604   4.778
 1427SOL    HW2 5181   6.142   0.759   4.785
 1428SOL     OW 5182   5.490   1.501   0.011
 1428SOL    HW1 5183   5.511   1.558   0.090
 1428SOL    HW2 5184   5.553   1.521   6.952
 1429SOL     OW 5185   5.608   6.887   0.053
 1429SOL    HW1 5186   5.560   6.817   0.106
 1429SOL    HW2 5187   5.591   6.873   6.971
 1430SOL     OW 5188   1.866   4.578   3.435
 1430SOL    HW1 5189   1.880   4.540   3.344
 1430SOL    HW2 5190   1.773   4.616   3.441
 1431SOL     OW 5191   1.331   0.894   1.403
 1431SOL    HW1 5192   1.258   0.861   1.464
 1431SOL    HW2 5193   1.343   0.830   1.327
 1432SOL     OW 5194   2.856   0.055   1.624
 1432SOL    HW1 5195   2.934   0.114   1.644
 1432SOL    HW2 5196   2.889   6.986   1.580
 1433SOL     OW 5197   4.745   0.564   4.485
 1433SOL    HW1 5198   4.741   0.534   4.390
 1433SOL    HW2 5199   4.664   0.619   4.506
 1434SOL     OW 5200   1.025   0.799   5.254
 1434SOL    HW1 5201   0.975   0.873   5.207
 1434SOL    HW2 5202   1.013   0.809   5.353
 1435SOL     OW 5203   0.205   1.702   3.523
 1435SOL    HW1 5204   0.280   1.761   3.493
 1435SOL    HW2 5205   0.202   1.701   3.623
 1436SOL     OW 5206   4.353   4.094   0.686
 1436SOL    HW1 5207   4.429   4.064   0.743
 1436SOL    HW2 5208   4.334   4.191   0.703
 1437SOL     OW 5209   3.797   0.968   2.484
 1437SOL    HW1 5210   3.706   1.007   2.470
 1437SOL    HW2 5211   3.821   0.974   2.581
 1438SOL     OW 5212   2.189   0.666   1.200
 1438SOL    HW1 5213   2.181   0.634   1.294
 1438SOL    HW2 5214   2.126   0.614   1.141
 1439SOL     OW 5215   0.668   5.836   2.510
 1439SOL    HW1 5216   0.660   5.753   2.455
 1439SOL    HW2 5217   0.625   5.912   2.460
 1440SOL     OW 5218   2.333   3.015   1.758
 1440SOL    HW1 5219   2.267   3.085   1.785
 1440SOL    HW2 5220   2.313   2.929   1.805
 1441SOL     OW 5221   5.209   6.011   0.833
 1441SOL    HW1 5222   5.223   6.106   0.863
 1441SOL    HW2 5223   5.260   5.949   0.892
 1442SOL     OW 5224   5.023   5.307   0.642
 1442SOL    HW1 5225   5.099   5.361   0.607
 1442SOL    HW2 5226   5.056   5.244   0.712
 1443SOL     OW 5227   0.041   2.709   2.692
 1443SOL    HW1 5228   0.008   2.626   2.737
 1443SOL    HW2 5229   0.003   2.789   2.738
 1444SOL     OW 5230   0.544   4.983   6.446
 1444SOL    HW1 5231   0.470   5.040   6.481
 1444SOL    HW2 5232   0.506   4.910   6.389
 1445SOL     OW 5233   1.064   3.660   1.368
 1445SOL    HW1 5234   1.068   3.715   1.285
 1445SOL    HW2 5235   0.977   3.610   1.371
 1446SOL     OW 5236   6.654   5.929   0.895
 1446SOL    HW1 5237   6.606   5.844   0.914
 1446SOL    HW2 5238   6.669   5.979   0.980
 1447SOL     OW 5239   5.748   5.538   4.321
 1447SOL    HW1 5240   5.784   5.572   4.234
 1447SOL    HW2 5241   5.813   5.559   4.394
 1448SOL     OW 5242   0.907   2.639   5.598
 1448SOL    HW1 5243   0.934   2.646   5.502
 1448SOL    HW2 5244   0.823   2.585   5.606
 1449SOL     OW 5245   2.144   3.106   2.967
 1449SOL    HW1 5246   2.131   3.123   2.869
 1449SOL    HW2 5247   2.169   3.191   3.013
 1450SOL     OW 5248   2.989   1.936   3.990
 1450SOL    HW1 5249   2.890   1.925   3.985
 1450SOL    HW2 5250   3.026   1.955   3.899
 1451SOL     OW 5251   2.935   1.270   2.940
 1451SOL    HW1 5252   2.991   1.351   2.927
 1451SOL    HW2 5253   2.947   1.208   2.862
 1452SOL     OW 5254   4.558   3.183   6.647
 1452SOL    HW1 5255   4.567   3.262   6.707
 1452SOL    HW2 5256   4.579   3.099   6.697
 1453SOL     OW 5257   6.948   4.254   5.414
 1453SOL    HW1 5258   0.015   4.242   5.359
 1453SOL    HW2 5259   6.871   4.275   5.354
 1454SOL     OW 5260   3.428   1.980   3.105
 1454SOL    HW1 5261   3.464   1.888   3.091
 1454SOL    HW2 5262   3.503   2.043   3.124
 1455SOL     OW 5263   0.347   5.718   2.115
 1455SOL    HW1 5264   0.363   5.721   2.214
 1455SOL    HW2 5265   0.390   5.798   2.072
 1456SOL     OW 5266   6.647   5.039   4.315
 1456SOL    HW1 5267   6.566   5.058   4.371
 1456SOL    HW2 5268   6.682   5.124   4.277
 1457SOL     OW 5269   1.152   5.104   6.120
 1457SOL    HW1 5270   1.116   5.190   6.158
 1457SOL    HW2 5271   1.223   5.069   6.180
 1458SOL     OW 5272   5.597   5.021   5.398
 1458SOL    HW1 5273   5.581   4.923   5.406
 1458SOL    HW2 5274   5.636   5.042   5.309
 1459SOL     OW 5275   6.052   6.733   5.403
 1459SOL    HW1 5276   6.089   6.704   5.315
 1459SOL    HW2 5277   5.976   6.796   5.389
 1460SOL     OW 5278   1.592   6.501   5.128
 1460SOL    HW1 5279   1.523   6.571   5.110
 1460SOL    HW2 5280   1.561   6.441   5.201
 1461SOL     OW 5281   5.979   2.827   3.915
 1461SOL    HW1 5282   5.925   2.801   3.835
 1461SOL    HW2 5283   5.987   2.749   3.977
 1462SOL     OW 5284   0.133   1.421   1.724
 1462SOL    HW1 5285   0.086   1.354   1.782
 1462SOL    HW2 5286   0.230   1.399   1.720
 1463SOL     OW 5287   2.151   5.944   6.612
 1463SOL    HW1 5288   2.062   5.974   6.646
 1463SOL    HW2 5289   2.219   5.948   6.685
 1464SOL     OW 5290   1.199   4.424   4.022
 1464SOL    HW1 5291   1.221   4.513   4.060
 1464SOL    HW2 5292   1.120   4.432   3.961
 1465SOL     OW 5293   1.232   3.407   4.198
 1465SOL    HW1 5294   1.136   3.399   4.172
 1465SOL    HW2 5295   1.251   3.342   4.272
 1466SOL     OW 5296   5.364   1.466   2.500
 1466SOL    HW1 5297   5.311   1.393   2.544
 1466SOL    HW2 5298   5.302   1.537   2.468
 1467SOL     OW 5299   0.234   0.337   3.818
 1467SOL    HW1 5300   0.194   0.376   3.735
 1467SOL    HW2 5301   0.268   0.410   3.877
 1468SOL     OW 5302   3.191   5.865   2.614
 1468SOL    HW1 5303   3.166   5.937   2.549
 1468SOL    HW2 5304   3.176   5.897   2.707
 1469SOL     OW 5305   5.901   4.041   3.632
 1469SOL    HW1 5306   5.824   4.100   3.611
 1469SOL    HW2 5307   5.986   4.093   3.626
 1470SOL     OW 5308   5.860   1.603   2.298
 1470SOL    HW1 5309   5.783   1.636   2.243
 1470SOL    HW2 5310   5.922   1.678   2.318
 1471SOL     OW 5311   4.680   0.135   0.690
 1471SOL    HW1 5312   4.623   0.061   0.726
 1471SOL    HW2 5313   4.775   0.105   0.686
 1472SOL     OW 5314   1.633   0.385   6.174
 1472SOL    HW1 5315   1.624   0.290   6.145
 1472SOL    HW2 5316   1.542   0.424   6.187
 1473SOL     OW 5317   1.843   5.907   3.617
 1473SOL    HW1 5318   1.910   5.974   3.650
 1473SOL    HW2 5319   1.757   5.918   3.667
 1474SOL     OW 5320   2.852   4.585   1.505
 1474SOL    HW1 5321   2.898   4.594   1.594
 1474SOL    HW2 5322   2.764   4.539   1.517
 1475SOL     OW 5323   5.663   0.342   6.609
 1475SOL    HW1 5324   5.670   0.243   6.613
 1475SOL    HW2 5325   5.584   0.368   6.553
 1476SOL     OW 5326   4.915   0.295   0.122
 1476SOL    HW1 5327   4.927   0.379   0.070
 1476SOL    HW2 5328   4.989   0.286   0.188
 1477SOL     OW 5329   3.382   3.962   1.698
 1477SOL    HW1 5330   3.388   3.905   1.779
 1477SOL    HW2 5331   3.346   4.052   1.723
 1478SOL     OW 5332   4.430   5.122   6.882
 1478SOL    HW1 5333   4.467   5.073   6.960
 1478SOL    HW2 5334   4.505   5.149   6.821
 1479SOL     OW 5335   4.585   3.514   1.544
 1479SOL    HW1 5336   4.568   3.611   1.564
 1479SOL    HW2 5337   4.679   3.491   1.569
 1480SOL     OW 5338   2.932   0.487   4.598
 1480SOL    HW1 5339   2.914   0.529   4.687
 1480SOL    HW2 5340   2.850   0.494   4.541
 1481SOL     OW 5341   4.902   2.714   5.816
 1481SOL    HW1 5342   4.803   2.729   5.827
 1481SOL    HW2 5343   4.918   2.658   5.734
 1482SOL     OW 5344   5.634   1.164   1.208
 1482SOL    HW1 5345   5.579   1.123   1.281
 1482SOL    HW2 5346   5.731   1.141   1.222
 1483SOL     OW 5347   6.322   1.204   0.267
 1483SOL    HW1 5348   6.273   1.117   0.257
 1483SOL    HW2 5349   6.403   1.202   0.208
 1484SOL     OW 5350   3.425   5.079   5.241
 1484SOL    HW1 5351   3.376   5.061   5.327
 1484SOL    HW2 5352   3.405   5.172   5.210
 1485SOL     OW 5353   5.051   3.028   3.302
 1485SOL    HW1 5354   4.970   2.971   3.298
 1485SOL    HW2 5355   5.128   2.975   3.336
 1486SOL     OW 5356   4.628   5.834   3.606
 1486SOL    HW1 5357   4.698   5.793   3.547
 1486SOL    HW2 5358   4.672   5.893   3.674
 1487SOL     OW 5359   6.806   1.018   0.666
 1487SOL    HW1 5360   6.782   1.066   0.750
 1487SOL    HW2 5361   6.904   1.027   0.649
 1488SOL     OW 5362   6.192   1.874   2.775
 1488SOL    HW1 5363   6.147   1.963   2.782
 1488SOL    HW2 5364   6.289   1.887   2.755
 1489SOL     OW 5365   2.932   4.900   0.091
 1489SOL    HW1 5366   2.838   4.874   0.113
 1489SOL    HW2 5367   2.945   4.894   7.007
 1490SOL     OW 5368   5.957   2.627   2.404
 1490SOL    HW1 5369   5.867   2.638   2.362
 1490SOL    HW2 5370   6.028   2.658   2.341
 1491SOL     OW 5371   5.834   2.311   3.631
 1491SOL    HW1 5372   5.745   2.339   3.667
 1491SOL    HW2 5373   5.830   2.303   3.531
 1492SOL     OW 5374   6.662   1.509   3.258
 1492SOL    HW1 5375   6.587   1.462   3.212
 1492SOL    HW2 5376   6.748   1.486   3.212
 1493SOL     OW 5377   5.807   1.859   6.182
 1493SOL    HW1 5378   5.838   1.949   6.151
 1493SOL    HW2 5379   5.781   1.864   6.278
 1494SOL     OW 5380   0.179   4.893   6.445
 1494SOL    HW1 5381   0.249   4.963   6.462
 1494SOL    HW2 5382   0.118   4.889   6.524
 1495SOL     OW 5383   6.501   3.665   4.198
 1495SOL    HW1 5384   6.419   3.677   4.254
 1495SOL    HW2 5385   6.522   3.750   4.151
 1496SOL     OW 5386   6.113   6.620   5.877
 1496SOL    HW1 5387   6.140   6.714   5.854
 1496SOL    HW2 5388   6.098   6.613   5.975
 1497SOL     OW 5389   6.195   2.113   2.216
 1497SOL    HW1 5390   6.178   2.207   2.185
 1497SOL    HW2 5391   6.249   2.116   2.300
 1498SOL     OW 5392   3.135   4.145   0.871
 1498SOL    HW1 5393   3.135   4.218   0.939
 1498SOL    HW2 5394   3.228   4.108   0.862
 1499SOL     OW 5395   0.250   4.485   4.180
 1499SOL    HW1 5396   0.190   4.565   4.177
 1499SOL    HW2 5397   0.195   4.403   4.191
 1500SOL     OW 5398   0.795   6.240   2.196
 1500SOL    HW1 5399   0.715   6.290   2.161
 1500SOL    HW2 5400   0.801   6.152   2.148
 1501SOL     OW 5401   6.509   1.680   0.435
 1501SOL    HW1 5402   6.550   1.676   0.344
 1501SOL    HW2 5403   6.416   1.714   0.429
 1502SOL     OW 5404   6.563   0.088   6.305
 1502SOL    HW1 5405   6.552   0.173   6.253
 1502SOL    HW2 5406   6.478   0.066   6.352
 1503SOL     OW 5407   0.543   4.787   1.567
 1503SOL    HW1 5408   0.450   4.757   1.590
 1503SOL    HW2 5409   0.605   4.763   1.641
 1504SOL     OW 5410   2.050   6.634   2.725
 1504SOL    HW1 5411   2.041   6.619   2.823
 1504SOL    HW2 5412   1.959   6.630   2.683
 1505SOL     OW 5413   6.189   5.305   4.893
 1505SOL    HW1 5414   6.269   5.248   4.914
 1505SOL    HW2 5415   6.204   5.351   4.805
 1506SOL     OW 5416   0.855   1.058   0.698
 1506SOL    HW1 5417   0.798   1.064   0.616
 1506SOL    HW2 5418   0.859   0.963   0.728
 1507SOL     OW 5419   2.464   2.559   3.485
 1507SOL    HW1 5420   2.511   2.525   3.566
 1507SOL    HW2 5421   2.400   2.631   3.510
 1508SOL     OW 5422   2.054   1.052   1.406
 1508SOL    HW1 5423   2.114   1.081   1.481
 1508SOL    HW2 5424   1.962   1.087   1.423
 1509SOL     OW 5425   5.505   1.309   4.300
 1509SOL    HW1 5426   5.585   1.257   4.328
 1509SOL    HW2 5427   5.422   1.259   4.323
 1510SOL     OW 5428   3.546   6.147   5.440
 1510SOL    HW1 5429   3.459   6.106   5.466
 1510SOL    HW2 5430   3.577   6.208   5.513
 1511SOL     OW 5431   2.889   3.703   5.154
 1511SOL    HW1 5432   2.827   3.745   5.220
 1511SOL    HW2 5433   2.838   3.640   5.096
 1512SOL     OW 5434   5.723   6.405   0.922
 1512SOL    HW1 5435   5.790   6.338   0.955
 1512SOL    HW2 5436   5.636   6.358   0.903
 1513SOL     OW 5437   2.457   6.986   6.045
 1513SOL    HW1 5438   2.466   0.070   6.042
 1513SOL    HW2 5439   2.543   6.944   6.018
 1514SOL     OW 5440   3.123   2.708   6.550
 1514SOL    HW1 5441   3.213   2.738   6.518
 1514SOL    HW2 5442   3.081   2.650   6.481
 1515SOL     OW 5443   4.433   0.699   2.339
 1515SOL    HW1 5444   4.449   0.778   2.279
 1515SOL    HW2 5445   4.343   0.660   2.320
 1516SOL     OW 5446   6.283   6.954   5.625
 1516SOL    HW1 5447   6.331   6.928   5.708
 1516SOL    HW2 5448   6.191   6.987   5.647
 1517SOL     OW 5449   3.051   6.526   4.020
 1517SOL    HW1 5450   3.127   6.463   4.032
 1517SOL    HW2 5451   3.083   6.610   3.976
 1518SOL     OW 5452   0.658   3.056   6.419
 1518SOL    HW1 5453   0.585   3.055   6.487
 1518SOL    HW2 5454   0.618   3.050   6.327
 1519SOL     OW 5455   6.863   5.106   0.301
 1519SOL    HW1 5456   6.808   5.096   0.384
 1519SOL    HW2 5457   6.959   5.089   0.323
 1520SOL     OW 5458   0.528   5.991   3.290
 1520SOL    HW1 5459   0.524   5.926   3.214
 1520SOL    HW2 5460   0.609   6.050   3.279
 1521SOL     OW 5461   2.068   5.016   6.305
 1521SOL    HW1 5462   2.079   5.111   6.335
 1521SOL    HW2 5463   1.970   4.994   6.301
 1522SOL     OW 5464   6.078   6.092   3.967
 1522SOL    HW1 5465   6.085   5.999   3.933
 1522SOL    HW2 5466   6.146   6.107   4.039
 1523SOL     OW 5467   3.417   6.249   0.812
 1523SOL    HW1 5468   3.366   6.175   0.854
 1523SOL    HW2 5469   3.415   6.239   0.712
 1524SOL     OW 5470   2.000   1.532   3.740
 1524SOL    HW1 5471   1.972   1.439   3.716
 1524SOL    HW2 5472   2.081   1.558   3.687
 1525SOL     OW 5473   5.572   4.679   6.848
 1525SOL    HW1 5474   5.635   4.725   6.785
 1525SOL    HW2 5475   5.483   4.725   6.846
 1526SOL     OW 5476   1.238   1.853   0.815
 1526SOL    HW1 5477   1.173   1.781   0.794
 1526SOL    HW2 5478   1.273   1.840   0.908
 1527SOL     OW 5479   4.420   1.879   4.076
 1527SOL    HW1 5480   4.384   1.929   4.155
 1527SOL    HW2 5481   4.517   1.857   4.092
 1528SOL     OW 5482   3.261   3.770   2.377
 1528SOL    HW1 5483   3.324   3.730   2.311
 1528SOL    HW2 5484   3.265   3.718   2.463
 1529SOL     OW 5485   4.634   1.932   6.044
 1529SOL    HW1 5486   4.697   2.009   6.030
 1529SOL    HW2 5487   4.659   1.858   5.982
 1530SOL     OW 5488   2.199   7.008   1.083
 1530SOL    HW1 5489   2.128   7.007   1.013
 1530SOL    HW2 5490   2.265   0.064   1.061
 1531SOL     OW 5491   4.899   5.708   4.340
 1531SOL    HW1 5492   4.926   5.631   4.398
 1531SOL    HW2 5493   4.803   5.729   4.355
 1532SOL     OW 5494   2.912   5.587   0.550
 1532SOL    HW1 5495   2.939   5.491   0.538
 1532SOL    HW2 5496   2.913   5.632   0.461
 1533SOL     OW 5497   5.519   6.012   1.162
 1533SOL    HW1 5498   5.420   6.026   1.167
 1533SOL    HW2 5499   5.542   5.921   1.197
 1534SOL     OW 5500   2.613   4.714   6.625
 1534SOL    HW1 5501   2.677   4.783   6.592
 1534SOL    HW2 5502   2.519   4.745   6.611
 1535SOL     OW 5503   5.495   4.466   3.756
 1535SOL    HW1 5504   5.450   4.552   3.780
 1535SOL    HW2 5505   5.427   4.394   3.745
 1536SOL     OW 5506   4.878   3.853   6.940
 1536SOL    HW1 5507   4.957   3.912   6.925
 1536SOL    HW2 5508   4.824   3.889   0.001
 1537SOL     OW 5509   2.790   5.121   2.631
 1537SOL    HW1 5510   2.781   5.221   2.639
 1537SOL    HW2 5511   2.875   5.098   2.585
 1538SOL     OW 5512   2.542   1.611   0.629
 1538SOL    HW1 5513   2.544   1.584   0.725
 1538SOL    HW2 5514   2.566   1.533   0.571
 1539SOL     OW 5515   6.024   3.226   0.643
 1539SOL    HW1 5516   6.010   3.140   0.594
 1539SOL    HW2 5517   6.040   3.207   0.740
 1540SOL     OW 5518   3.486   6.762   3.442
 1540SOL    HW1 5519   3.529   6.725   3.359
 1540SOL    HW2 5520   3.431   6.842   3.418
 1541SOL     OW 5521   3.818   3.097   6.060
 1541SOL    HW1 5522   3.866   3.185   6.061
 1541SOL    HW2 5523   3.851   3.040   6.135
 1542SOL     OW 5524   0.231   5.930   2.643
 1542SOL    HW1 5525   0.208   6.024   2.668
 1542SOL    HW2 5526   0.324   5.909   2.674
 1543SOL     OW 5527   2.964   5.273   0.367
 1543SOL    HW1 5528   3.056   5.302   0.340
 1543SOL    HW2 5529   2.967   5.235   0.459
 1544SOL     OW 5530   3.888   3.404   4.140
 1544SOL    HW1 5531   3.906   3.306   4.142
 1544SOL    HW2 5532   3.865   3.432   4.046
 1545SOL     OW 5533   5.308   5.672   1.707
 1545SOL    HW1 5534   5.287   5.579   1.739
 1545SOL    HW2 5535   5.291   5.737   1.780
 1546SOL     OW 5536   5.746   6.166   6.071
 1546SOL    HW1 5537   5.736   6.066   6.065
 1546SOL    HW2 5538   5.825   6.194   6.015
 1547SOL     OW 5539   2.093   2.750   6.532
 1547SOL    HW1 5540   2.094   2.774   6.629
 1547SOL    HW2 5541   2.156   2.810   6.482
 1548SOL     OW 5542   6.899   2.554   0.439
 1548SOL    HW1 5543   6.874   2.572   0.344
 1548SOL    HW2 5544   6.957   2.627   0.474
 1549SOL     OW 5545   5.079   1.203   4.568
 1549SOL    HW1 5546   5.148   1.149   4.615
 1549SOL    HW2 5547   5.051   1.279   4.627
 1550SOL     OW 5548   3.963   3.128   4.242
 1550SOL    HW1 5549   4.046   3.095   4.287
 1550SOL    HW2 5550   3.911   3.049   4.208
 1551SOL     OW 5551   6.896   4.929   5.184
 1551SOL    HW1 5552   6.909   4.843   5.233
 1551SOL    HW2 5553   6.799   4.943   5.167
 1552SOL     OW 5554   2.159   4.091   1.110
 1552SOL    HW1 5555   2.203   4.065   1.024
 1552SOL    HW2 5556   2.094   4.165   1.094
 1553SOL     OW 5557   2.101   1.695   6.116
 1553SOL    HW1 5558   2.050   1.612   6.136
 1553SOL    HW2 5559   2.060   1.772   6.165
 1554SOL     OW 5560   3.737   1.763   3.728
 1554SOL    HW1 5561   3.678   1.843   3.711
 1554SOL    HW2 5562   3.767   1.763   3.823
 1555SOL     OW 5563   6.169   4.965   5.632
 1555SOL    HW1 5564   6.179   5.057   5.670
 1555SOL    HW2 5565   6.076   4.932   5.648
 1556SOL     OW 5566   2.086   1.026   5.847
 1556SOL    HW1 5567   2.111   1.072   5.931
 1556SOL    HW2 5568   2.132   0.937   5.842
 1557SOL     OW 5569   0.307   2.537   4.955
 1557SOL    HW1 5570   0.389   2.481   4.943
 1557SOL    HW2 5571   0.251   2.532   4.872
 1558SOL     OW 5572   0.343   6.938   4.760
 1558SOL    HW1 5573   0.299   6.917   4.672
 1558SOL    HW2 5574   0.335   6.858   4.820
 1559SOL     OW 5575   1.315   1.485   5.965
 1559SOL    HW1 5576   1.263   1.511   5.883
 1559SOL    HW2 5577   1.348   1.391   5.954
 1560SOL     OW 5578   0.251   0.245   7.000
 1560SOL    HW1 5579   0.328   0.287   6.953
 1560SOL    HW2 5580   0.249   0.147   6.979
 1561SOL     OW 5581   5.793   5.981   2.194
 1561SOL    HW1 5582   5.785   5.985   2.095
 1561SOL    HW2 5583   5.859   5.910   2.220
 1562SOL     OW 5584   6.350   0.612   3.842
 1562SOL    HW1 5585   6.376   0.647   3.751
 1562SOL    HW2 5586   6.378   0.677   3.912
 1563SOL     OW 5587   3.625   6.917   5.520
 1563SOL    HW1 5588   3.705   6.951   5.570
 1563SOL    HW2 5589   3.562   6.873   5.583
 1564SOL     OW 5590   0.735   2.127   3.045
 1564SOL    HW1 5591   0.660   2.142   2.980
 1564SOL    HW2 5592   0.816   2.176   3.014
 1565SOL     OW 5593   6.336   4.350   1.437
 1565SOL    HW1 5594   6.419   4.405   1.433
 1565SOL    HW2 5595   6.301   4.350   1.531
 1566SOL     OW 5596   5.927   4.492   3.214
 1566SOL    HW1 5597   5.904   4.416   3.275
 1566SOL    HW2 5598   5.853   4.560   3.217
 1567SOL     OW 5599   6.209   5.630   5.067
 1567SOL    HW1 5600   6.164   5.715   5.040
 1567SOL    HW2 5601   6.225   5.631   5.166
 1568SOL     OW 5602   0.341   6.712   6.978
 1568SOL    HW1 5603   0.260   6.653   6.988
 1568SOL    HW2 5604   0.398   6.677   6.904
 1569SOL     OW 5605   3.250   6.414   5.388
 1569SOL    HW1 5606   3.160   6.436   5.350
 1569SOL    HW2 5607   3.239   6.358   5.470
 1570SOL     OW 5608   3.021   1.961   1.862
 1570SOL    HW1 5609   3.026   1.992   1.957
 1570SOL    HW2 5610   3.012   2.041   1.802
 1571SOL     OW 5611   7.011   3.916   0.732
 1571SOL    HW1 5612   0.035   3.826   0.752
 1571SOL    HW2 5613   0.066   3.975   0.691
 1572SOL     OW 5614   1.780   5.733   2.405
 1572SOL    HW1 5615   1.751   5.640   2.382
 1572SOL    HW2 5616   1.759   5.752   2.501
 1573SOL     OW 5617   4.211   0.451   0.621
 1573SOL    HW1 5618   4.278   0.378   0.604
 1573SOL    HW2 5619   4.260   0.535   0.645
 1574SOL     OW 5620   5.679   2.582   2.284
 1574SOL    HW1 5621   5.677   2.512   2.212
 1574SOL    HW2 5622   5.618   2.657   2.261
 1575SOL     OW 5623   3.009   1.920   0.256
 1575SOL    HW1 5624   2.919   1.877   0.261
 1575SOL    HW2 5625   3.070   1.878   0.323
 1576SOL     OW 5626   6.332   5.765   3.659
 1576SOL    HW1 5627   6.249   5.747   3.607
 1576SOL    HW2 5628   6.340   5.698   3.733
 1577SOL     OW 5629   1.312   0.369   0.080
 1577SOL    HW1 5630   1.351   0.277   0.085
 1577SOL    HW2 5631   1.346   0.416   7.014
 1578SOL     OW 5632   5.967   5.597   4.895
 1578SOL    HW1 5633   5.996   5.530   4.963
 1578SOL    HW2 5634   6.034   5.670   4.889
 1579SOL     OW 5635   0.393   0.128   3.509
 1579SOL    HW1 5636   0.409   0.138   3.607
 1579SOL    HW2 5637   0.370   0.033   3.488
 1580SOL     OW 5638   3.149   3.730   5.828
 1580SOL    HW1 5639   3.128   3.815   5.781
 1580SOL    HW2 5640   3.121   3.653   5.771
 1581SOL     OW 5641   6.223   3.742   4.259
 1581SOL    HW1 5642   6.203   3.732   4.161
 1581SOL    HW2 5643   6.138   3.747   4.310
 1582SOL     OW 5644   6.306   6.475   5.009
 1582SOL    HW1 5645   6.330   6.543   5.079
 1582SOL    HW2 5646   6.216   6.437   5.030
 1583SOL     OW 5647   2.111   1.972   2.375
 1583SOL    HW1 5648   2.060   1.984   2.460
 1583SOL    HW2 5649   2.051   1.992   2.297
 1584SOL     OW 5650   2.334   0.597   6.237
 1584SOL    HW1 5651   2.388   0.629   6.314
 1584SOL    HW2 5652   2.255   0.658   6.224
 1585SOL     OW 5653   5.859   1.184   5.655
 1585SOL    HW1 5654   5.785   1.250   5.669
 1585SOL    HW2 5655   5.941   1.231   5.623
 1586SOL     OW 5656   3.635   4.162   3.110
 1586SOL    HW1 5657   3.602   4.137   3.201
 1586SOL    HW2 5658   3.723   4.209   3.118
 1587SOL     OW 5659   2.356   6.492   6.680
 1587SOL    HW1 5660   2.347   6.400   6.718
 1587SOL    HW2 5661   2.266   6.535   6.674
 1588SOL     OW 5662   5.778   3.956   1.612
 1588SOL    HW1 5663   5.833   3.875   1.593
 1588SOL    HW2 5664   5.808   3.997   1.698
 1589SOL     OW 5665   5.238   4.409   3.160
 1589SOL    HW1 5666   5.171   4.455   3.102
 1589SOL    HW2 5667   5.197   4.391   3.249
 1590SOL     OW 5668   2.046   6.839   5.454
 1590SOL    HW1 5669   1.956   6.882   5.457
 1590SOL    HW2 5670   2.089   6.845   5.544
 1591SOL     OW 5671   0.865   3.833   1.098
 1591SOL    HW1 5672   0.914   3.910   1.058
 1591SOL    HW2 5673   0.913   3.748   1.077
 1592SOL     OW 5674   3.222   4.048   3.797
 1592SOL    HW1 5675   3.285   4.109   3.846
 1592SOL    HW2 5676   3.207   3.966   3.853
 1593SOL     OW 5677   1.396   4.975   4.626
 1593SOL    HW1 5678   1.358   4.919   4.553
 1593SOL    HW2 5679   1.452   5.047   4.586
 1594SOL     OW 5680   1.189   4.834   3.248
 1594SOL    HW1 5681   1.105   4.785   3.271
 1594SOL    HW2 5682   1.217   4.890   3.326
 1595SOL     OW 5683   6.957   5.172   5.513
 1595SOL    HW1 5684   6.968   5.256   5.566
 1595SOL    HW2 5685   0.002   5.175   5.433
 1596SOL     OW 5686   2.733   5.250   6.982
 1596SOL    HW1 5687   2.754   5.195   0.047
 1596SOL    HW2 5688   2.667   5.202   6.924
 1597SOL     OW 5689   2.047   6.956   0.004
 1597SOL    HW1 5690   1.957   6.917   0.019
 1597SOL    HW2 5691   2.105   6.889   6.973
 1598SOL     OW 5692   6.733   5.286   1.817
 1598SOL    HW1 5693   6.691   5.226   1.749
 1598SOL    HW2 5694   6.757   5.373   1.774
 1599SOL     OW 5695   3.074   4.937   0.718
 1599SOL    HW1 5696   3.165   4.964   0.686
 1599SOL    HW2 5697   3.053   4.986   0.803
 1600SOL     OW 5698   3.352   0.973   5.121
 1600SOL    HW1 5699   3.351   0.989   5.023
 1600SOL    HW2 5700   3.368   1.059   5.169
 1601SOL     OW 5701   1.103   4.991   5.176
 1601SOL    HW1 5702   1.148   5.028   5.094
 1601SOL    HW2 5703   1.144   5.033   5.257
 1602SOL     OW 5704   0.483   3.930   2.339
 1602SOL    HW1 5705   0.413   3.919   2.409
 1602SOL    HW2 5706   0.483   4.024   2.305
 1603SOL     OW 5707   5.575   6.658   0.902
 1603SOL    HW1 5708   5.620   6.742   0.930
 1603SOL    HW2 5709   5.644   6.585   0.892
 1604SOL     OW 5710   0.236   5.565   4.842
 1604SOL    HW1 5711   0.247   5.635   4.771
 1604SOL    HW2 5712   0.299   5.583   4.917
 1605SOL     OW 5713   5.176   6.615   3.227
 1605SOL    HW1 5714   5.169   6.664   3.140
 1605SOL    HW2 5715   5.193   6.680   3.301
 1606SOL     OW 5716   5.586   6.393   5.483
 1606SOL    HW1 5717   5.620   6.397   5.577
 1606SOL    HW2 5718   5.606   6.480   5.437
 1607SOL     OW 5719   4.623   2.870   1.042
 1607SOL    HW1 5720   4.636   2.959   1.086
 1607SOL    HW2 5721   4.670   2.870   0.954
 1608SOL     OW 5722   2.223   0.640   0.746
 1608SOL    HW1 5723   2.197   0.611   0.654
 1608SOL    HW2 5724   2.247   0.560   0.801
 1609SOL     OW 5725   5.525   0.999   6.041
 1609SOL    HW1 5726   5.520   1.091   6.080
 1609SOL    HW2 5727   5.620   0.967   6.044
 1610SOL     OW 5728   5.424   6.430   3.700
 1610SOL    HW1 5729   5.474   6.492   3.761
 1610SOL    HW2 5730   5.417   6.471   3.609
 1611SOL     OW 5731   4.133   2.730   1.603
 1611SOL    HW1 5732   4.069   2.661   1.640
 1611SOL    HW2 5733   4.215   2.684   1.569
 1612SOL     OW 5734   3.443   1.061   4.585
 1612SOL    HW1 5735   3.401   1.138   4.537
 1612SOL    HW2 5736   3.505   1.013   4.524
 1613SOL     OW 5737   1.798   0.063   1.042
 1613SOL    HW1 5738   1.875   0.014   1.001
 1613SOL    HW2 5739   1.777   0.023   1.132
 1614SOL     OW 5740   0.634   2.707   5.952
 1614SOL    HW1 5741   0.594   2.793   5.920
 1614SOL    HW2 5742   0.581   2.673   6.030
 1615SOL     OW 5743   6.411   4.850   5.733
 1615SOL    HW1 5744   6.467   4.809   5.661
 1615SOL    HW2 5745   6.321   4.873   5.696
 1616SOL     OW 5746   2.815   1.713   5.908
 1616SOL    HW1 5747   2.853   1.806   5.915
 1616SOL    HW2 5748   2.835   1.676   5.818
 1617SOL     OW 5749   4.433   0.125   4.484
 1617SOL    HW1 5750   4.404   0.181   4.407
 1617SOL    HW2 5751   4.530   0.141   4.503
 1618SOL     OW 5752   5.872   2.532   1.750
 1618SOL    HW1 5753   5.972   2.530   1.743
 1618SOL    HW2 5754   5.833   2.472   1.680
 1619SOL     OW 5755   1.990   2.919   4.580
 1619SOL    HW1 5756   2.074   2.957   4.620
 1619SOL    HW2 5757   2.003   2.904   4.482
 1620SOL     OW 5758   3.471   5.869   1.593
 1620SOL    HW1 5759   3.373   5.859   1.578
 1620SOL    HW2 5760   3.491   5.961   1.627
 1621SOL     OW 5761   1.809   1.668   1.996
 1621SOL    HW1 5762   1.875   1.733   1.959
 1621SOL    HW2 5763   1.716   1.699   1.975
 1622SOL     OW 5764   1.942   2.369   4.882
 1622SOL    HW1 5765   1.943   2.469   4.893
 1622SOL    HW2 5766   1.851   2.340   4.855
 1623SOL     OW 5767   2.711   2.147   4.880
 1623SOL    HW1 5768   2.625   2.096   4.875
 1623SOL    HW2 5769   2.697   2.230   4.934
 1624SOL     OW 5770   2.046   0.872   0.657
 1624SOL    HW1 5771   2.002   0.831   0.577
 1624SOL    HW2 5772   2.129   0.821   0.678
 1625SOL     OW 5773   0.296   5.635   1.652
 1625SOL    HW1 5774   0.275   5.708   1.587
 1625SOL    HW2 5775   0.277   5.546   1.609
 1626SOL     OW 5776   2.091   2.802   5.869
 1626SOL    HW1 5777   2.173   2.818   5.814
 1626SOL    HW2 5778   2.118   2.787   5.965
 1627SOL     OW 5779   5.050   3.013   3.701
 1627SOL    HW1 5780   5.085   3.083   3.638
 1627SOL    HW2 5781   5.055   3.047   3.795
 1628SOL     OW 5782   3.011   3.278   0.301
 1628SOL    HW1 5783   3.001   3.331   0.385
 1628SOL    HW2 5784   3.105   3.285   0.268
 1629SOL     OW 5785   3.253   2.100   2.914
 1629SOL    HW1 5786   3.157   2.113   2.939
 1629SOL    HW2 5787   3.305   2.068   2.993
 1630SOL     OW 5788   6.642   4.981   4.620
 1630SOL    HW1 5789   6.556   4.945   4.655
 1630SOL    HW2 5790   6.665   4.936   4.534
 1631SOL     OW 5791   0.397   6.625   5.629
 1631SOL    HW1 5792   0.401   6.550   5.562
 1631SOL    HW2 5793   0.425   6.590   5.718
 1632SOL     OW 5794   4.925   0.206   0.451
 1632SOL    HW1 5795   4.905   0.278   0.518
 1632SOL    HW2 5796   5.021   0.213   0.422
 1633SOL     OW 5797   6.008   3.098   3.538
 1633SOL    HW1 5798   6.063   3.030   3.490
 1633SOL    HW2 5799   6.065   3.176   3.562
 1634SOL     OW 5800   3.924   0.451   0.199
 1634SOL    HW1 5801   4.003   0.407   0.242
 1634SOL    HW2 5802   3.893   0.526   0.258
 1635SOL     OW 5803   0.888   5.023   4.299
 1635SOL    HW1 5804   0.872   4.925   4.312
 1635SOL    HW2 5805   0.926   5.039   4.208
 1636SOL     OW 5806   2.603   6.507   1.184
 1636SOL    HW1 5807   2.568   6.513   1.277
 1636SOL    HW2 5808   2.674   6.576   1.170
 1637SOL     OW 5809   0.494   2.618   2.411
 1637SOL    HW1 5810   0.455   2.551   2.474
 1637SOL    HW2 5811   0.570   2.575   2.361
 1638SOL     OW 5812   1.317   2.692   5.574
 1638SOL    HW1 5813   1.344   2.715   5.668
 1638SOL    HW2 5814   1.377   2.740   5.510
 1639SOL     OW 5815   4.928   4.647   2.645
 1639SOL    HW1 5816   4.890   4.578   2.707
 1639SOL    HW2 5817   4.875   4.649   2.560
 1640SOL     OW 5818   5.398   0.763   1.121
 1640SOL    HW1 5819   5.313   0.712   1.131
 1640SOL    HW2 5820   5.380   0.849   1.074
 1641SOL     OW 5821   6.740   3.114   5.357
 1641SOL    HW1 5822   6.765   3.038   5.297
 1641SOL    HW2 5823   6.823   3.152   5.399
 1642SOL     OW 5824   0.275   2.017   1.198
 1642SOL    HW1 5825   0.352   1.991   1.140
 1642SOL    HW2 5826   0.230   2.098   1.160
 1643SOL     OW 5827   3.944   0.629   6.074
 1643SOL    HW1 5828   3.909   0.571   6.147
 1643SOL    HW2 5829   3.972   0.573   5.996
 1644SOL     OW 5830   3.232   1.260   0.364
 1644SOL    HW1 5831   3.233   1.255   0.264
 1644SOL    HW2 5832   3.301   1.198   0.402
 1645SOL     OW 5833   1.893   6.368   6.152
 1645SOL    HW1 5834   1.794   6.371   6.165
 1645SOL    HW2 5835   1.939   6.408   6.231
 1646SOL     OW 5836   1.382   3.958   6.950
 1646SOL    HW1 5837   1.325   3.937   0.014
 1646SOL    HW2 5838   1.458   4.016   6.978
 1647SOL     OW 5839   5.663   2.509   3.134
 1647SOL    HW1 5840   5.676   2.539   3.039
 1647SOL    HW2 5841   5.735   2.550   3.191
 1648SOL     OW 5842   4.043   0.313   2.291
 1648SOL    HW1 5843   4.100   0.359   2.224
 1648SOL    HW2 5844   4.031   0.371   2.371
 1649SOL     OW 5845   2.737   6.886   2.931
 1649SOL    HW1 5846   2.639   6.873   2.917
 1649SOL    HW2 5847   2.782   6.797   2.930
 1650SOL     OW 5848   3.349   0.032   4.316
 1650SOL    HW1 5849   3.365   0.094   4.239
 1650SOL    HW2 5850   3.306   6.964   4.284
 1651SOL     OW 5851   1.761   0.197   1.420
 1651SOL    HW1 5852   1.714   0.123   1.372
 1651SOL    HW2 5853   1.781   0.169   1.514
 1652SOL     OW 5854   3.008   3.163   1.949
 1652SOL    HW1 5855   2.979   3.152   1.854
 1652SOL    HW2 5856   3.095   3.211   1.952
 1653SOL     OW 5857   1.164   4.823   0.829
 1653SOL    HW1 5858   1.258   4.848   0.849
 1653SOL    HW2 5859   1.110   4.824   0.913
 1654SOL     OW 5860   0.500   1.996   3.210
 1654SOL    HW1 5861   0.589   2.035   3.185
 1654SOL    HW2 5862   0.513   1.930   3.284
 1655SOL     OW 5863   4.668   4.563   5.767
 1655SOL    HW1 5864   4.655   4.649   5.717
 1655SOL    HW2 5865   4.736   4.577   5.839
 1656SOL     OW 5866   0.398   4.402   2.833
 1656SOL    HW1 5867   0.443   4.325   2.788
 1656SOL    HW2 5868   0.299   4.390   2.829
 1657SOL     OW 5869   1.135   0.331   4.851
 1657SOL    HW1 5870   1.049   0.333   4.903
 1657SOL    HW2 5871   1.189   0.412   4.873
 1658SOL     OW 5872   6.680   6.822   2.746
 1658SOL    HW1 5873   6.775   6.832   2.717
 1658SOL    HW2 5874   6.640   6.740   2.704
 1659SOL     OW 5875   4.936   2.113   6.125
 1659SOL    HW1 5876   4.879   2.098   6.044
 1659SOL    HW2 5877   4.948   2.212   6.140
 1660SOL     OW 5878   2.312   6.245   3.388
 1660SOL    HW1 5879   2.271   6.312   3.326
 1660SOL    HW2 5880   2.243   6.177   3.413
 1661SOL     OW 5881   3.139   0.043   3.231
 1661SOL    HW1 5882   3.090   6.979   3.195
 1661SOL    HW2 5883   3.080   0.124   3.225
 1662SOL     OW 5884   0.006   0.483   2.985
 1662SOL    HW1 5885   0.090   0.436   3.013
 1662SOL    HW2 5886   6.945   0.453   3.043
 1663SOL     OW 5887   1.934   0.247   3.348
 1663SOL    HW1 5888   1.859   0.262   3.283
 1663SOL    HW2 5889   1.952   0.149   3.356
 1664SOL     OW 5890   2.410   4.944   4.201
 1664SOL    HW1 5891   2.409   5.005   4.280
 1664SOL    HW2 5892   2.328   4.958   4.147
 1665SOL     OW 5893   1.038   0.584   4.458
 1665SOL    HW1 5894   1.040   0.492   4.498
 1665SOL    HW2 5895   1.013   0.651   4.528
 1666SOL     OW 5896   5.534   3.602   6.249
 1666SOL    HW1 5897   5.463   3.639   6.308
 1666SOL    HW2 5898   5.509   3.509   6.221
 1667SOL     OW 5899   6.683   0.807   6.690
 1667SOL    HW1 5900   6.759   0.854   6.734
 1667SOL    HW2 5901   6.659   0.855   6.606
 1668SOL     OW 5902   2.179   0.419   4.915
 1668SOL    HW1 5903   2.205   0.332   4.957
 1668SOL    HW2 5904   2.220   0.425   4.824
 1669SOL     OW 5905   6.249   6.196   6.533
 1669SOL    HW1 5906   6.222   6.127   6.466
 1669SOL    HW2 5907   6.225   6.165   6.625
 1670SOL     OW 5908   6.153   3.449   6.378
 1670SOL    HW1 5909   6.070   3.483   6.422
 1670SOL    HW2 5910   6.229   3.453   6.442
 1671SOL     OW 5911   6.128   4.731   0.570
 1671SOL    HW1 5912   6.042   4.680   0.560
 1671SOL    HW2 5913   6.110   4.829   0.558
 1672SOL     OW 5914   1.889   5.518   2.142
 1672SOL    HW1 5915   1.831   5.453   2.190
 1672SOL    HW2 5916   1.976   5.528   2.191
 1673SOL     OW 5917   6.557   1.762   3.275
 1673SOL    HW1 5918   6.595   1.670   3.280
 1673SOL    HW2 5919   6.471   1.765   3.326
 1674SOL     OW 5920   2.112   5.314   6.798
 1674SOL    HW1 5921   2.088   5.323   6.895
 1674SOL    HW2 5922   2.033   5.339   6.742
 1675SOL     OW 5923   4.893   2.363   0.654
 1675SOL    HW1 5924   4.902   2.455   0.616
 1675SOL    HW2 5925   4.914   2.365   0.751
 1676SOL     OW 5926   2.346   1.246   4.330
 1676SOL    HW1 5927   2.331   1.340   4.299
 1676SOL    HW2 5928   2.424   1.243   4.393
 1677SOL     OW 5929   6.070   0.725   5.755
 1677SOL    HW1 5930   6.121   0.784   5.818
 1677SOL    HW2 5931   6.093   0.750   5.661
 1678SOL     OW 5932   4.932   0.415   1.462
 1678SOL    HW1 5933   4.943   0.340   1.397
 1678SOL    HW2 5934   4.861   0.478   1.429
 1679SOL     OW 5935   5.625   4.384   0.177
 1679SOL    HW1 5936   5.666   4.471   0.151
 1679SOL    HW2 5937   5.688   4.334   0.237
 1680SOL     OW 5938   1.133   2.343   5.037
 1680SOL    HW1 5939   1.099   2.251   5.056
 1680SOL    HW2 5940   1.213   2.362   5.094
 1681SOL     OW 5941   4.710   5.838   0.534
 1681SOL    HW1 5942   4.620   5.845   0.492
 1681SOL    HW2 5943   4.711   5.890   0.620
 1682SOL     OW 5944   6.683   3.853   5.263
 1682SOL    HW1 5945   6.684   3.762   5.222
 1682SOL    HW2 5946   6.774   3.895   5.253
 1683SOL     OW 5947   5.301   5.866   6.143
 1683SOL    HW1 5948   5.337   5.876   6.050
 1683SOL    HW2 5949   5.341   5.936   6.202
 1684SOL     OW 5950   0.059   6.641   4.626
 1684SOL    HW1 5951   0.132   6.623   4.692
 1684SOL    HW2 5952   6.989   6.601   4.660
 1685SOL     OW 5953   1.256   1.130   0.255
 1685SOL    HW1 5954   1.281   1.033   0.251
 1685SOL    HW2 5955   1.338   1.184   0.273
 1686SOL     OW 5956   2.373   5.917   6.788
 1686SOL    HW1 5957   2.457   5.969   6.804
 1686SOL    HW2 5958   2.326   5.902   6.875
 1687SOL     OW 5959   2.441   6.149   1.942
 1687SOL    HW1 5960   2.348   6.169   1.971
 1687SOL    HW2 5961   2.465   6.205   1.863
 1688SOL     OW 5962   0.740   1.719   3.684
 1688SOL    HW1 5963   0.802   1.670   3.623
 1688SOL    HW2 5964   0.713   1.659   3.760
 1689SOL     OW 5965   3.180   1.792   2.385
 1689SOL    HW1 5966   3.105   1.834   2.435
 1689SOL    HW2 5967   3.189   1.696   2.414
 1690SOL     OW 5968   0.908   2.255   0.762
 1690SOL    HW1 5969   0.918   2.326   0.693
 1690SOL    HW2 5970   0.966   2.177   0.738
 1691SOL     OW 5971   4.311   4.866   2.484
 1691SOL    HW1 5972   4.369   4.946   2.499
 1691SOL    HW2 5973   4.340   4.818   2.401
 1692SOL     OW 5974   1.767   6.893   3.118
 1692SOL    HW1 5975   1.732   6.982   3.148
 1692SOL    HW2 5976   1.708   6.820   3.152
 1693SOL     OW 5977   3.062   1.670   4.074
 1693SOL    HW1 5978   3.043   1.764   4.048
 1693SOL    HW2 5979   3.161   1.657   4.084
 1694SOL     OW 5980   4.831   5.947   5.223
 1694SOL    HW1 5981   4.734   5.938   5.205
 1694SOL    HW2 5982   4.880   5.867   5.186
 1695SOL     OW 5983   3.572   1.448   6.081
 1695SOL    HW1 5984   3.637   1.506   6.031
 1695SOL    HW2 5985   3.620   1.367   6.114
 1696SOL     OW 5986   3.609   5.585   2.073
 1696SOL    HW1 5987   3.626   5.571   1.976
 1696SOL    HW2 5988   3.605   5.497   2.120
 1697SOL     OW 5989   1.006   1.321   2.244
 1697SOL    HW1 5990   0.930   1.290   2.186
 1697SOL    HW2 5991   1.080   1.354   2.185
 1698SOL     OW 5992   5.025   2.122   0.856
 1698SOL    HW1 5993   5.074   2.037   0.874
 1698SOL    HW2 5994   4.929   2.102   0.837
 1699SOL     OW 5995   2.853   4.370   0.779
 1699SOL    HW1 5996   2.949   4.381   0.753
 1699SOL    HW2 5997   2.838   4.279   0.816
 1700SOL     OW 5998   6.472   2.811   4.632
 1700SOL    HW1 5999   6.547   2.749   4.611
 1700SOL    HW2 6000   6.385   2.765   4.618
 1701SOL     OW 6001   5.916   3.324   4.863
 1701SOL    HW1 6002   5.907   3.390   4.789
 1701SOL    HW2 6003   5.900   3.369   4.951
 1702SOL     OW 6004   4.889   2.854   1.827
 1702SOL    HW1 6005   4.848   2.787   1.766
 1702SOL    HW2 6006   4.818   2.914   1.865
 1703SOL     OW 6007   1.522   3.612   0.247
 1703SOL    HW1 6008   1.600   3.671   0.227
 1703SOL    HW2 6009   1.500   3.618   0.345
 1704SOL     OW 6010   0.183   0.783   1.592
 1704SOL    HW1 6011   0.126   0.804   1.672
 1704SOL    HW2 6012   0.238   0.862   1.568
 1705SOL     OW 6013   3.864   3.395   2.680
 1705SOL    HW1 6014   3.823   3.380   2.590
 1705SOL    HW2 6015   3.897   3.308   2.717
 1706SOL     OW 6016   2.327   0.478   6.524
 1706SOL    HW1 6017   2.384   0.400   6.552
 1706SOL    HW2 6018   2.236   0.445   6.499
 1707SOL     OW 6019   5.511   1.527   2.748
 1707SOL    HW1 6020   5.538   1.610   2.797
 1707SOL    HW2 6021   5.464   1.552   2.664
 1708SOL     OW 6022   0.246   4.366   1.539
 1708SOL    HW1 6023   0.248   4.392   1.636
 1708SOL    HW2 6024   0.327   4.313   1.516
 1709SOL     OW 6025   2.666   5.530   4.923
 1709SOL    HW1 6026   2.699   5.532   5.018
 1709SOL    HW2 6027   2.744   5.519   4.861
 1710SOL     OW 6028   0.229   5.287   4.097
 1710SOL    HW1 6029   0.167   5.361   4.123
 1710SOL    HW2 6030   0.239   5.224   4.175
 1711SOL     OW 6031   2.079   4.314   5.363
 1711SOL    HW1 6032   2.116   4.223   5.382
 1711SOL    HW2 6033   1.982   4.306   5.337
 1712SOL     OW 6034   1.892   5.163   1.410
 1712SOL    HW1 6035   1.961   5.091   1.420
 1712SOL    HW2 6036   1.857   5.188   1.500
 1713SOL     OW 6037   1.995   3.256   0.482
 1713SOL    HW1 6038   2.075   3.314   0.468
 1713SOL    HW2 6039   2.020   3.161   0.462
 1714SOL     OW 6040   3.850   1.559   1.416
 1714SOL    HW1 6041   3.881   1.477   1.369
 1714SOL    HW2 6042   3.754   1.576   1.395
 1715SOL     OW 6043   0.514   2.770   3.652
 1715SOL    HW1 6044   0.488   2.806   3.563
 1715SOL    HW2 6045   0.468   2.683   3.668
 1716SOL     OW 6046   6.806   0.165   0.054
 1716SOL    HW1 6047   6.874   0.192   7.002
 1716SOL    HW2 6048   6.850   0.148   0.142
 1717SOL     OW 6049   3.190   6.881   6.845
 1717SOL    HW1 6050   3.108   6.852   6.894
 1717SOL    HW2 6051   3.166   6.907   6.752
 1718SOL     OW 6052   1.516   4.598   5.530
 1718SOL    HW1 6053   1.482   4.546   5.608
 1718SOL    HW2 6054   1.502   4.545   5.446
 1719SOL     OW 6055   2.118   3.367   1.486
 1719SOL    HW1 6056   2.026   3.360   1.448
 1719SOL    HW2 6057   2.185   3.367   1.411
 1720SOL     OW 6058   6.640   1.295   2.773
 1720SOL    HW1 6059   6.555   1.347   2.785
 1720SOL    HW2 6060   6.653   1.234   2.851
 1721SOL     OW 6061   1.874   6.283   3.955
 1721SOL    HW1 6062   1.911   6.297   4.046
 1721SOL    HW2 6063   1.817   6.201   3.954
 1722SOL     OW 6064   5.519   0.269   1.519
 1722SOL    HW1 6065   5.497   0.225   1.606
 1722SOL    HW2 6066   5.472   0.221   1.445
 1723SOL     OW 6067   5.652   0.815   2.805
 1723SOL    HW1 6068   5.730   0.753   2.820
 1723SOL    HW2 6069   5.681   0.909   2.824
 1724SOL     OW 6070   5.023   0.455   6.955
 1724SOL    HW1 6071   4.987   0.450   6.861
 1724SOL    HW2 6072   5.049   0.550   6.975
 1725SOL     OW 6073   3.549   5.365   2.250
 1725SOL    HW1 6074   3.647   5.346   2.240
 1725SOL    HW2 6075   3.518   5.336   2.340
 1726SOL     OW 6076   6.951   3.767   4.146
 1726SOL    HW1 6077   0.034   3.756   4.138
 1726SOL    HW2 6078   6.921   3.843   4.088
 1727SOL     OW 6079   2.753   3.282   5.426
 1727SOL    HW1 6080   2.736   3.380   5.431
 1727SOL    HW2 6081   2.843   3.265   5.385
 1728SOL     OW 6082   4.387   4.774   3.612
 1728SOL    HW1 6083   4.326   4.848   3.641
 1728SOL    HW2 6084   4.356   4.737   3.525
 1729SOL     OW 6085   2.123   3.841   2.564
 1729SOL    HW1 6086   2.037   3.893   2.557
 1729SOL    HW2 6087   2.188   3.876   2.498
 1730SOL     OW 6088   5.900   2.024   4.555
 1730SOL    HW1 6089   5.828   1.957   4.543
 1730SOL    HW2 6090   5.919   2.036   4.653
 1731SOL     OW 6091   0.221   6.575   0.715
 1731SOL    HW1 6092   0.232   6.656   0.657
 1731SOL    HW2 6093   0.254   6.595   0.807
 1732SOL     OW 6094   0.764   4.578   6.819
 1732SOL    HW1 6095   0.702   4.645   6.780
 1732SOL    HW2 6096   0.713   4.512   6.873
 1733SOL     OW 6097   0.869   3.962   0.210
 1733SOL    HW1 6098   0.880   3.892   0.280
 1733SOL    HW2 6099   0.909   3.929   0.124
 1734SOL     OW 6100   4.751   3.682   1.769
 1734SOL    HW1 6101   4.824   3.699   1.703
 1734SOL    HW2 6102   4.789   3.643   1.853
 1735SOL     OW 6103   4.854   6.173   0.592
 1735SOL    HW1 6104   4.756   6.157   0.585
 1735SOL    HW2 6105   4.903   6.086   0.589
 1736SOL     OW 6106   3.231   3.783   0.259
 1736SOL    HW1 6107   3.270   3.816   0.345
 1736SOL    HW2 6108   3.189   3.694   0.275
 1737SOL     OW 6109   1.028   5.773   3.470
 1737SOL    HW1 6110   1.084   5.795   3.390
 1737SOL    HW2 6111   0.931   5.776   3.444
 1738SOL     OW 6112   0.870   1.422   1.666
 1738SOL    HW1 6113   0.884   1.511   1.622
 1738SOL    HW2 6114   0.948   1.363   1.645
 1739SOL     OW 6115   4.630   2.502   5.897
 1739SOL    HW1 6116   4.548   2.446   5.886
 1739SOL    HW2 6117   4.677   2.477   5.982
 1740SOL     OW 6118   0.751   1.305   5.346
 1740SOL    HW1 6119   0.793   1.250   5.419
 1740SOL    HW2 6120   0.820   1.328   5.278
 1741SOL     OW 6121   2.614   0.690   2.333
 1741SOL    HW1 6122   2.649   0.774   2.373
 1741SOL    HW2 6123   2.518   0.679   2.357
 1742SOL     OW 6124   6.131   6.638   4.803
 1742SOL    HW1 6125   6.221   6.679   4.788
 1742SOL    HW2 6126   6.105   6.583   4.724
 1743SOL     OW 6127   4.525   1.215   0.593
 1743SOL    HW1 6128   4.434   1.239   0.560
 1743SOL    HW2 6129   4.537   1.116   0.589
 1744SOL     OW 6130   2.957   6.587   1.260
 1744SOL    HW1 6131   2.910   6.566   1.345
 1744SOL    HW2 6132   2.997   6.679   1.265
 1745SOL     OW 6133   6.580   3.350   5.305
 1745SOL    HW1 6134   6.640   3.335   5.226
 1745SOL    HW2 6135   6.586   3.272   5.367
 1746SOL     OW 6136   2.874   1.062   5.782
 1746SOL    HW1 6137   2.813   1.049   5.703
 1746SOL    HW2 6138   2.964   1.089   5.750
 1747SOL     OW 6139   5.359   6.497   5.772
 1747SOL    HW1 6140   5.392   6.405   5.752
 1747SOL    HW2 6141   5.265   6.491   5.806
 1748SOL     OW 6142   5.886   1.418   1.580
 1748SOL    HW1 6143   5.964   1.398   1.521
 1748SOL    HW2 6144   5.827   1.338   1.585
 1749SOL     OW 6145   4.700   0.279   5.748
 1749SOL    HW1 6146   4.609   0.238   5.747
 1749SOL    HW2 6147   4.723   0.308   5.841
 1750SOL     OW 6148   4.743   0.466   4.227
 1750SOL    HW1 6149   4.828   0.501   4.188
 1750SOL    HW2 6150   4.757   0.373   4.260
 1751SOL     OW 6151   2.249   5.574   3.602
 1751SOL    HW1 6152   2.237   5.486   3.558
 1751SOL    HW2 6153   2.161   5.607   3.635
 1752SOL     OW 6154   0.189   2.004   6.568
 1752SOL    HW1 6155   0.171   2.096   6.603
 1752SOL    HW2 6156   0.249   2.010   6.489
 1753SOL     OW 6157   2.483   6.384   2.359
 1753SOL    HW1 6158   2.512   6.468   2.313
 1753SOL    HW2 6159   2.494   6.394   2.458
 1754SOL     OW 6160   3.738   2.753   1.810
 1754SOL    HW1 6161   3.812   2.749   1.877
 1754SOL    HW2 6162   3.712   2.660   1.784
 1755SOL     OW 6163   5.951   3.826   0.229
 1755SOL    HW1 6164   6.046   3.853   0.217
 1755SOL    HW2 6165   5.891   3.905   0.216
 1756SOL     OW 6166   5.710   5.654   4.888
 1756SOL    HW1 6167   5.692   5.661   4.987
 1756SOL    HW2 6168   5.802   5.617   4.874
 1757SOL     OW 6169   3.555   0.833   5.552
 1757SOL    HW1 6170   3.605   0.819   5.467
 1757SOL    HW2 6171   3.520   0.927   5.555
 1758SOL     OW 6172   2.755   1.629   3.370
 1758SOL    HW1 6173   2.760   1.570   3.289
 1758SOL    HW2 6174   2.778   1.575   3.451
 1759SOL     OW 6175   0.395   5.541   6.095
 1759SOL    HW1 6176   0.487   5.502   6.104
 1759SOL    HW2 6177   0.389   5.592   6.009
 1760SOL     OW 6178   5.070   0.177   2.058
 1760SOL    HW1 6179   5.132   0.102   2.082
 1760SOL    HW2 6180   5.054   0.234   2.139
 1761SOL     OW 6181   5.716   2.749   1.849
 1761SOL    HW1 6182   5.790   2.702   1.800
 1761SOL    HW2 6183   5.723   2.848   1.832
 1762SOL     OW 6184   5.436   2.800   0.737
 1762SOL    HW1 6185   5.433   2.705   0.769
 1762SOL    HW2 6186   5.344   2.839   0.743
 1763SOL     OW 6187   2.143   3.360   3.685
 1763SOL    HW1 6188   2.139   3.376   3.784
 1763SOL    HW2 6189   2.235   3.381   3.652
 1764SOL     OW 6190   6.269   3.068   4.204
 1764SOL    HW1 6191   6.311   3.129   4.271
 1764SOL    HW2 6192   6.302   2.975   4.218
 1765SOL     OW 6193   2.048   3.280   6.114
 1765SOL    HW1 6194   2.106   3.360   6.131
 1765SOL    HW2 6195   2.027   3.274   6.017
 1766SOL     OW 6196   5.895   3.516   5.556
 1766SOL    HW1 6197   5.857   3.461   5.482
 1766SOL    HW2 6198   5.934   3.456   5.626
 1767SOL     OW 6199   6.503   4.344   1.679
 1767SOL    HW1 6200   6.493   4.411   1.752
 1767SOL    HW2 6201   6.551   4.263   1.713
 1768SOL     OW 6202   6.290   6.767   3.595
 1768SOL    HW1 6203   6.249   6.707   3.527
 1768SOL    HW2 6204   6.361   6.717   3.646
 1769SOL     OW 6205   5.387   0.701   3.742
 1769SOL    HW1 6206   5.342   0.729   3.827
 1769SOL    HW2 6207   5.450   0.772   3.713
 1770SOL     OW 6208   3.364   5.331   5.143
 1770SOL    HW1 6209   3.455   5.371   5.149
 1770SOL    HW2 6210   3.310   5.356   5.223
 1771SOL     OW 6211   4.313   6.846   0.071
 1771SOL    HW1 6212   4.306   6.916   0.142
 1771SOL    HW2 6213   4.406   6.810   0.068
 1772SOL     OW 6214   3.594   6.220   3.476
 1772SOL    HW1 6215   3.556   6.302   3.435
 1772SOL    HW2 6216   3.585   6.143   3.412
 1773SOL     OW 6217   0.760   6.544   0.082
 1773SOL    HW1 6218   0.685   6.546   0.148
 1773SOL    HW2 6219   0.786   6.449   0.063
 1774SOL     OW 6220   3.142   4.989   2.249
 1774SOL    HW1 6221   3.091   5.073   2.261
 1774SOL    HW2 6222   3.095   4.914   2.295
 1775SOL     OW 6223   0.753   4.239   1.424
 1775SOL    HW1 6224   0.706   4.158   1.389
 1775SOL    HW2 6225   0.851   4.220   1.432
 1776SOL     OW 6226   3.006   6.244   5.897
 1776SOL    HW1 6227   2.966   6.158   5.927
 1776SOL    HW2 6228   3.034   6.237   5.801
 1777SOL     OW 6229   3.267   5.849   0.280
 1777SOL    HW1 6230   3.200   5.778   0.258
 1777SOL    HW2 6231   3.350   5.833   0.227
 1778SOL     OW 6232   6.752   3.495   5.681
 1778SOL    HW1 6233   6.802   3.438   5.746
 1778SOL    HW2 6234   6.815   3.526   5.610
 1779SOL     OW 6235   3.848   0.486   5.712
 1779SOL    HW1 6236   3.792   0.512   5.791
 1779SOL    HW2 6237   3.791   0.436   5.646
 1780SOL     OW 6238   3.295   3.406   6.693
 1780SOL    HW1 6239   3.222   3.408   6.762
 1780SOL    HW2 6240   3.369   3.346   6.725
 1781SOL     OW 6241   3.683   5.291   4.026
 1781SOL    HW1 6242   3.742   5.269   3.948
 1781SOL    HW2 6243   3.607   5.348   3.995
 1782SOL     OW 6244   2.974   1.641   4.341
 1782SOL    HW1 6245   2.976   1.684   4.250
 1782SOL    HW2 6246   3.016   1.703   4.407
 1783SOL     OW 6247   1.760   5.939   6.836
 1783SOL    HW1 6248   1.842   5.986   6.868
 1783SOL    HW2 6249   1.786   5.854   6.790
 1784SOL     OW 6250   3.191   6.857   5.906
 1784SOL    HW1 6251   3.093   6.873   5.914
 1784SOL    HW2 6252   3.241   6.928   5.955
 1785SOL     OW 6253   6.914   4.868   1.800
 1785SOL    HW1 6254   7.012   4.875   1.780
 1785SOL    HW2 6255   6.869   4.954   1.777
 1786SOL     OW 6256   4.144   2.199   1.090
 1786SOL    HW1 6257   4.183   2.118   1.047
 1786SOL    HW2 6258   4.125   2.179   1.186
 1787SOL     OW 6259   3.935   0.908   6.002
 1787SOL    HW1 6260   3.842   0.942   6.016
 1787SOL    HW2 6261   3.941   0.813   6.034
 1788SOL     OW 6262   1.499   4.723   6.226
 1788SOL    HW1 6263   1.593   4.692   6.209
 1788SOL    HW2 6264   1.475   4.704   6.322
 1789SOL     OW 6265   6.063   0.328   0.364
 1789SOL    HW1 6266   5.995   0.401   0.361
 1789SOL    HW2 6267   6.018   0.239   0.357
 1790SOL     OW 6268   3.234   6.572   2.760
 1790SOL    HW1 6269   3.200   6.539   2.848
 1790SOL    HW2 6270   3.288   6.655   2.773
 1791SOL     OW 6271   0.217   6.676   2.835
 1791SOL    HW1 6272   0.141   6.628   2.879
 1791SOL    HW2 6273   0.198   6.774   2.834
 1792SOL     OW 6274   0.938   4.139   4.690
 1792SOL    HW1 6275   0.988   4.226   4.688
 1792SOL    HW2 6276   0.999   4.067   4.724
 1793SOL     OW 6277   0.175   0.813   3.603
 1793SOL    HW1 6278   0.255   0.809   3.664
 1793SOL    HW2 6279   0.195   0.763   3.519
 1794SOL     OW 6280   4.550   6.315   6.614
 1794SOL    HW1 6281   4.642   6.322   6.577
 1794SOL    HW2 6282   4.552   6.268   6.702
 1795SOL     OW 6283   1.176   3.004   6.888
 1795SOL    HW1 6284   1.272   3.033   6.882
 1795SOL    HW2 6285   1.139   3.030   6.977
 1796SOL     OW 6286   3.632   0.798   6.412
 1796SOL    HW1 6287   3.615   0.867   6.482
 1796SOL    HW2 6288   3.566   0.808   6.338
 1797SOL     OW 6289   1.079   0.695   0.838
 1797SOL    HW1 6290   0.979   0.697   0.832
 1797SOL    HW2 6291   1.109   0.759   0.909
 1798SOL     OW 6292   5.292   2.061   3.035
 1798SOL    HW1 6293   5.239   1.993   2.985
 1798SOL    HW2 6294   5.307   2.029   3.128
 1799SOL     OW 6295   2.286   1.739   6.888
 1799SOL    HW1 6296   2.327   1.826   6.914
 1799SOL    HW2 6297   2.233   1.751   6.804
 1800SOL     OW 6298   3.764   4.954   2.477
 1800SOL    HW1 6299   3.688   4.936   2.414
 1800SOL    HW2 6300   3.825   5.022   2.436
 1801SOL     OW 6301   5.709   6.919   0.866
 1801SOL    HW1 6302   5.649   6.996   0.886
 1801SOL    HW2 6303   5.801   6.938   0.901
 1802SOL     OW 6304   5.372   4.896   3.865
 1802SOL    HW1 6305   5.426   4.923   3.785
 1802SOL    HW2 6306   5.306   4.825   3.838
 1803SOL     OW 6307   5.626   5.680   1.242
 1803SOL    HW1 6308   5.693   5.606   1.249
 1803SOL    HW2 6309   5.558   5.670   1.314
 1804SOL     OW 6310   3.268   3.149   6.002
 1804SOL    HW1 6311   3.214   3.232   5.998
 1804SOL    HW2 6312   3.207   3.070   6.009
 1805SOL     OW 6313   5.837   2.750   6.029
 1805SOL    HW1 6314   5.892   2.670   6.054
 1805SOL    HW2 6315   5.797   2.789   6.112
 1806SOL     OW 6316   0.235   0.694   0.820
 1806SOL    HW1 6317   0.313   0.636   0.841
 1806SOL    HW2 6318   0.263   0.790   0.821
 1807SOL     OW 6319   6.188   2.025   6.023
 1807SOL    HW1 6320   6.260   2.090   6.045
 1807SOL    HW2 6321   6.227   1.948   5.971
 1808SOL     OW 6322   1.953   4.570   3.987
 1808SOL    HW1 6323   1.947   4.603   3.893
 1808SOL    HW2 6324   2.049   4.559   4.012
 1809SOL     OW 6325   3.622   0.196   6.545
 1809SOL    HW1 6326   3.721   0.198   6.532
 1809SOL    HW2 6327   3.593   0.102   6.564
 1810SOL     OW 6328   3.503   6.073   2.748
 1810SOL    HW1 6329   3.421   6.129   2.756
 1810SOL    HW2 6330   3.481   5.989   2.699
 1811SOL     OW 6331   6.239   5.654   2.466
 1811SOL    HW1 6332   6.316   5.708   2.431
 1811SOL    HW2 6333   6.222   5.681   2.561
 1812SOL     OW 6334   4.408   5.357   6.361
 1812SOL    HW1 6335   4.506   5.353   6.383
 1812SOL    HW2 6336   4.382   5.451   6.342
 1813SOL     OW 6337   6.534   5.346   5.296
 1813SOL    HW1 6338   6.578   5.389   5.375
 1813SOL    HW2 6339   6.591   5.359   5.214
 1814SOL     OW 6340   5.121   6.766   2.600
 1814SOL    HW1 6341   5.104   6.846   2.543
 1814SOL    HW2 6342   5.135   6.796   2.695
 1815SOL     OW 6343   0.441   1.122   2.247
 1815SOL    HW1 6344   0.527   1.072   2.234
 1815SOL    HW2 6345   0.432   1.148   2.343
 1816SOL     OW 6346   0.888   4.461   0.205
 1816SOL    HW1 6347   0.845   4.428   0.121
 1816SOL    HW2 6348   0.852   4.411   0.283
 1817SOL     OW 6349   1.025   5.640   1.868
 1817SOL    HW1 6350   1.054   5.610   1.777
 1817SOL    HW2 6351   1.103   5.637   1.931
 1818SOL     OW 6352   1.511   1.170   3.116
 1818SOL    HW1 6353   1.549   1.105   3.182
 1818SOL    HW2 6354   1.507   1.261   3.157
 1819SOL     OW 6355   0.800   4.150   2.317
 1819SOL    HW1 6356   0.869   4.088   2.279
 1819SOL    HW2 6357   0.710   4.128   2.278
 1820SOL     OW 6358   5.852   0.260   2.601
 1820SOL    HW1 6359   5.758   0.294   2.602
 1820SOL    HW2 6360   5.878   0.231   2.694
 1821SOL     OW 6361   1.594   1.440   3.420
 1821SOL    HW1 6362   1.558   1.433   3.327
 1821SOL    HW2 6363   1.595   1.536   3.448
 1822SOL     OW 6364   3.471   3.542   1.912
 1822SOL    HW1 6365   3.563   3.504   1.915
 1822SOL    HW2 6366   3.410   3.476   1.867
 1823SOL     OW 6367   4.091   0.090   2.444
 1823SOL    HW1 6368   4.048   0.162   2.390
 1823SOL    HW2 6369   4.031   0.010   2.447
 1824SOL     OW 6370   4.977   2.261   1.614
 1824SOL    HW1 6371   4.912   2.306   1.676
 1824SOL    HW2 6372   5.062   2.313   1.613
 1825SOL     OW 6373   1.051   1.157   1.485
 1825SOL    HW1 6374   1.140   1.193   1.513
 1825SOL    HW2 6375   1.012   1.217   1.415
 1826SOL     OW 6376   2.969   5.783   6.536
 1826SOL    HW1 6377   2.955   5.684   6.535
 1826SOL    HW2 6378   3.064   5.803   6.512
 1827SOL     OW 6379   6.085   6.856   1.904
 1827SOL    HW1 6380   6.132   6.787   1.849
 1827SOL    HW2 6381   6.095   6.833   2.001
 1828SOL     OW 6382   1.635   2.466   0.045
 1828SOL    HW1 6383   1.730   2.449   0.018
 1828SOL    HW2 6384   1.632   2.492   0.141
 1829SOL     OW 6385   6.104   5.395   1.904
 1829SOL    HW1 6386   6.133   5.487   1.929
 1829SOL    HW2 6387   6.015   5.376   1.946
 1830SOL     OW 6388   5.548   5.942   3.588
 1830SOL    HW1 6389   5.486   5.994   3.647
 1830SOL    HW2 6390   5.637   5.987   3.586
 1831SOL     OW 6391   5.150   0.548   3.365
 1831SOL    HW1 6392   5.094   0.607   3.422
 1831SOL    HW2 6393   5.203   0.603   3.300
 1832SOL     OW 6394   5.121   2.884   0.427
 1832SOL    HW1 6395   5.189   2.811   0.421
 1832SOL    HW2 6396   5.033   2.851   0.393
 1833SOL     OW 6397   5.830   1.784   5.686
 1833SOL    HW1 6398   5.828   1.745   5.778
 1833SOL    HW2 6399   5.918   1.828   5.671
 1834SOL     OW 6400   2.666   3.956   0.720
 1834SOL    HW1 6401   2.731   4.002   0.780
 1834SOL    HW2 6402   2.684   3.858   0.720
 1835SOL     OW 6403   1.159   4.538   0.020
 1835SOL    HW1 6404   1.178   4.457   6.980
 1835SOL    HW2 6405   1.060   4.546   0.034
 1836SOL     OW 6406   0.630   5.850   0.738
 1836SOL    HW1 6407   0.594   5.833   0.646
 1836SOL    HW2 6408   0.581   5.927   0.779
 1837SOL     OW 6409   1.121   2.507   4.816
 1837SOL    HW1 6410   1.209   2.552   4.827
 1837SOL    HW2 6411   1.090   2.472   4.905
 1838SOL     OW 6412   0.705   2.445   4.161
 1838SOL    HW1 6413   0.709   2.544   4.177
 1838SOL    HW2 6414   0.711   2.397   4.249
 1839SOL     OW 6415   6.998   1.517   6.001
 1839SOL    HW1 6416   6.960   1.534   5.910
 1839SOL    HW2 6417   0.015   1.604   6.040
 1840SOL     OW 6418   1.446   5.307   0.557
 1840SOL    HW1 6419   1.525   5.353   0.597
 1840SOL    HW2 6420   1.394   5.260   0.629
 1841SOL     OW 6421   1.427   3.179   2.837
 1841SOL    HW1 6422   1.445   3.094   2.789
 1841SOL    HW2 6423   1.511   3.212   2.881
 1842SOL     OW 6424   0.810   5.199   6.746
 1842SOL    HW1 6425   0.789   5.131   6.675
 1842SOL    HW2 6426   0.775   5.288   6.719
 1843SOL     OW 6427   3.975   1.762   4.832
 1843SOL    HW1 6428   3.896   1.824   4.838
 1843SOL    HW2 6429   4.041   1.786   4.902
 1844SOL     OW 6430   5.573   3.426   3.645
 1844SOL    HW1 6431   5.512   3.347   3.645
 1844SOL    HW2 6432   5.546   3.489   3.717
 1845SOL     OW 6433   4.334   6.830   1.068
 1845SOL    HW1 6434   4.293   6.868   0.985
 1845SOL    HW2 6435   4.275   6.850   1.146
 1846SOL     OW 6436   3.463   1.100   5.526
 1846SOL    HW1 6437   3.470   1.109   5.625
 1846SOL    HW2 6438   3.499   1.183   5.483
 1847SOL     OW 6439   1.936   6.712   0.433
 1847SOL    HW1 6440   1.877   6.674   0.503
 1847SOL    HW2 6441   2.031   6.691   0.454
 1848SOL     OW 6442   2.793   6.596   2.475
 1848SOL    HW1 6443   2.858   6.546   2.533
 1848SOL    HW2 6444   2.729   6.531   2.434
 1849SOL     OW 6445   3.060   1.012   6.518
 1849SOL    HW1 6446   3.013   1.028   6.431
 1849SOL    HW2 6447   3.045   0.917   6.547
 1850SOL     OW 6448   5.570   1.634   1.693
 1850SOL    HW1 6449   5.545   1.682   1.608
 1850SOL    HW2 6450   5.559   1.536   1.680
 1851SOL     OW 6451   6.530   3.534   2.931
 1851SOL    HW1 6452   6.614   3.573   2.971
 1851SOL    HW2 6453   6.486   3.603   2.873
 1852SOL     OW 6454   5.397   2.917   6.399
 1852SOL    HW1 6455   5.345   2.968   6.468
 1852SOL    HW2 6456   5.478   2.876   6.442
 1853SOL     OW 6457   1.389   4.574   0.562
 1853SOL    HW1 6458   1.308   4.564   0.504
 1853SOL    HW2 6459   1.472   4.566   0.506
 1854SOL     OW 6460   2.860   5.619   4.139
 1854SOL    HW1 6461   2.819   5.711   4.139
 1854SOL    HW2 6462   2.790   5.552   4.112
 1855SOL     OW 6463   5.584   4.241   1.650
 1855SOL    HW1 6464   5.649   4.166   1.663
 1855SOL    HW2 6465   5.628   4.328   1.674
 1856SOL     OW 6466   4.993   3.464   6.459
 1856SOL    HW1 6467   4.896   3.484   6.467
 1856SOL    HW2 6468   5.016   3.449   6.362
 1857SOL     OW 6469   4.754   1.347   3.936
 1857SOL    HW1 6470   4.844   1.355   3.894
 1857SOL    HW2 6471   4.723   1.437   3.966
 1858SOL     OW 6472   5.718   3.320   3.453
 1858SOL    HW1 6473   5.666   3.354   3.532
 1858SOL    HW2 6474   5.716   3.220   3.452
 1859SOL     OW 6475   5.297   1.513   3.237
 1859SOL    HW1 6476   5.254   1.430   3.201
 1859SOL    HW2 6477   5.390   1.492   3.268
 1860SOL     OW 6478   4.085   1.946   5.205
 1860SOL    HW1 6479   3.998   1.969   5.249
 1860SOL    HW2 6480   4.129   1.872   5.255
 1861SOL     OW 6481   5.389   6.115   2.479
 1861SOL    HW1 6482   5.425   6.208   2.470
 1861SOL    HW2 6483   5.289   6.118   2.485
 1862SOL     OW 6484   1.840   1.497   0.500
 1862SOL    HW1 6485   1.752   1.536   0.527
 1862SOL    HW2 6486   1.856   1.412   0.550
 1863SOL     OW 6487   2.188   2.612   1.419
 1863SOL    HW1 6488   2.095   2.617   1.381
 1863SOL    HW2 6489   2.253   2.643   1.349
 1864SOL     OW 6490   0.915   6.637   3.190
 1864SOL    HW1 6491   0.922   6.731   3.224
 1864SOL    HW2 6492   0.911   6.573   3.267
 1865SOL     OW 6493   5.094   2.303   6.743
 1865SOL    HW1 6494   5.085   2.319   6.645
 1865SOL    HW2 6495   5.101   2.205   6.761
 1866SOL     OW 6496   5.209   5.521   2.489
 1866SOL    HW1 6497   5.139   5.543   2.422
 1866SOL    HW2 6498   5.268   5.448   2.453
 1867SOL     OW 6499   1.153   4.786   6.739
 1867SOL    HW1 6500   1.123   4.694   6.763
 1867SOL    HW2 6501   1.115   4.811   6.650
 1868SOL     OW 6502   6.239   4.011   5.741
 1868SOL    HW1 6503   6.167   3.952   5.705
 1868SOL    HW2 6504   6.281   4.062   5.666
 1869SOL     OW 6505   5.984   1.273   4.825
 1869SOL    HW1 6506   5.937   1.185   4.817
 1869SOL    HW2 6507   6.075   1.265   4.784
 1870SOL     OW 6508   2.288   4.166   4.208
 1870SOL    HW1 6509   2.327   4.253   4.237
 1870SOL    HW2 6510   2.258   4.114   4.288
 1871SOL     OW 6511   1.497   0.440   0.754
 1871SOL    HW1 6512   1.576   0.456   0.813
 1871SOL    HW2 6513   1.475   0.342   0.754
 1872SOL     OW 6514   2.327   4.756   0.084
 1872SOL    HW1 6515   2.315   4.718   7.008
 1872SOL    HW2 6516   2.365   4.686   0.145
 1873SOL     OW 6517   5.252   1.016   0.454
 1873SOL    HW1 6518   5.303   1.100   0.471
 1873SOL    HW2 6519   5.244   1.001   0.355
 1874SOL     OW 6520   1.352   3.790   2.646
 1874SOL    HW1 6521   1.276   3.729   2.669
 1874SOL    HW2 6522   1.327   3.846   2.567
 1875SOL     OW 6523   1.397   0.048   1.209
 1875SOL    HW1 6524   1.409   0.114   1.135
 1875SOL    HW2 6525   1.369   6.975   1.171
 1876SOL     OW 6526   2.382   6.758   4.383
 1876SOL    HW1 6527   2.330   6.816   4.446
 1876SOL    HW2 6528   2.467   6.729   4.427
 1877SOL     OW 6529   6.930   6.946   3.836
 1877SOL    HW1 6530   6.838   6.953   3.875
 1877SOL    HW2 6531   6.991   7.008   3.884
 1878SOL     OW 6532   5.888   2.593   5.632
 1878SOL    HW1 6533   5.825   2.584   5.709
 1878SOL    HW2 6534   5.836   2.610   5.549
 1879SOL     OW 6535   1.994   4.699   5.712
 1879SOL    HW1 6536   2.055   4.648   5.651
 1879SOL    HW2 6537   1.910   4.646   5.727
 1880SOL     OW 6538   6.145   0.671   5.128
 1880SOL    HW1 6539   6.061   0.705   5.170
 1880SOL    HW2 6540   6.138   0.678   5.028
 1881SOL     OW 6541   0.308   2.646   6.987
 1881SOL    HW1 6542   0.235   2.688   6.933
 1881SOL    HW2 6543   0.395   2.690   6.965
 1882SOL     OW 6544   1.329   6.444   6.607
 1882SOL    HW1 6545   1.254   6.486   6.659
 1882SOL    HW2 6546   1.316   6.345   6.606
 1883SOL     OW 6547   0.319   2.048   4.028
 1883SOL    HW1 6548   0.386   2.096   4.084
 1883SOL    HW2 6549   0.355   2.039   3.935
 1884SOL     OW 6550   0.601   2.776   0.743
 1884SOL    HW1 6551   0.676   2.713   0.765
 1884SOL    HW2 6552   0.517   2.744   0.786
 1885SOL     OW 6553   2.093   1.232   4.507
 1885SOL    HW1 6554   2.149   1.248   4.426
 1885SOL    HW2 6555   2.151   1.237   4.589
 1886SOL     OW 6556   0.818   6.493   3.400
 1886SOL    HW1 6557   0.820   6.550   3.483
 1886SOL    HW2 6558   0.733   6.443   3.396
 1887SOL     OW 6559   3.114   6.090   6.307
 1887SOL    HW1 6560   3.028   6.041   6.306
 1887SOL    HW2 6561   3.121   6.147   6.225
 1888SOL     OW 6562   2.831   0.838   3.165
 1888SOL    HW1 6563   2.899   0.780   3.209
 1888SOL    HW2 6564   2.835   0.930   3.206
 1889SOL     OW 6565   0.357   3.588   2.306
 1889SOL    HW1 6566   0.419   3.644   2.251
 1889SOL    HW2 6567   0.306   3.526   2.246
 1890SOL     OW 6568   0.801   5.852   4.678
 1890SOL    HW1 6569   0.897   5.827   4.668
 1890SOL    HW2 6570   0.744   5.769   4.675
 1891SOL     OW 6571   3.103   3.206   3.695
 1891SOL    HW1 6572   3.034   3.234   3.629
 1891SOL    HW2 6573   3.060   3.189   3.784
 1892SOL     OW 6574   0.970   0.135   2.890
 1892SOL    HW1 6575   1.005   0.187   2.812
 1892SOL    HW2 6576   1.017   0.164   2.974
 1893SOL     OW 6577   4.024   3.794   4.366
 1893SOL    HW1 6578   4.030   3.855   4.446
 1893SOL    HW2 6579   3.931   3.759   4.359
 1894SOL     OW 6580   3.184   3.445   4.478
 1894SOL    HW1 6581   3.126   3.484   4.549
 1894SOL    HW2 6582   3.131   3.379   4.425
 1895SOL     OW 6583   1.896   6.083   0.459
 1895SOL    HW1 6584   1.844   6.000   0.479
 1895SOL    HW2 6585   1.851   6.133   0.386
 1896SOL     OW 6586   6.115   2.287   1.333
 1896SOL    HW1 6587   6.188   2.354   1.339
 1896SOL    HW2 6588   6.119   2.227   1.413
 1897SOL     OW 6589   1.101   4.355   4.754
 1897SOL    HW1 6590   1.076   4.446   4.787
 1897SOL    HW2 6591   1.196   4.356   4.723
 1898SOL     OW 6592   1.592   6.078   2.891
 1898SOL    HW1 6593   1.680   6.030   2.900
 1898SOL    HW2 6594   1.607   6.177   2.893
 1899SOL     OW 6595   0.215   1.087   2.073
 1899SOL    HW1 6596   0.289   1.141   2.113
 1899SOL    HW2 6597   0.225   0.991   2.101
 1900SOL     OW 6598   2.456   6.816   0.037
 1900SOL    HW1 6599   2.476   6.761   6.971
 1900SOL    HW2 6600   2.460   6.913   0.013
 1901SOL     OW 6601   2.562   3.729   1.693
 1901SOL    HW1 6602   2.620   3.807   1.670
 1901SOL    HW2 6603   2.619   3.649   1.710
 1902SOL     OW 6604   1.352   6.981   5.160
 1902SOL    HW1 6605   1.393   6.901   5.115
 1902SOL    HW2 6606   1.257   6.989   5.132
 1903SOL     OW 6607   1.392   2.378   3.879
 1903SOL    HW1 6608   1.483   2.337   3.888
 1903SOL    HW2 6609   1.331   2.340   3.949
 1904SOL     OW 6610   5.500   6.057   1.919
 1904SOL    HW1 6611   5.589   6.029   1.883
 1904SOL    HW2 6612   5.464   6.132   1.864
 1905SOL     OW 6613   0.684   1.887   4.034
 1905SOL    HW1 6614   0.665   1.791   4.054
 1905SOL    HW2 6615   0.779   1.897   4.003
 1906SOL     OW 6616   1.406   6.474   4.831
 1906SOL    HW1 6617   1.438   6.540   4.763
 1906SOL    HW2 6618   1.483   6.424   4.869
 1907SOL     OW 6619   4.808   3.080   0.244
 1907SOL    HW1 6620   4.819   3.066   0.146
 1907SOL    HW2 6621   4.898   3.089   0.286
 1908SOL     OW 6622   3.689   1.292   1.149
 1908SOL    HW1 6623   3.638   1.377   1.161
 1908SOL    HW2 6624   3.779   1.301   1.193
 1909SOL     OW 6625   6.230   5.404   4.624
 1909SOL    HW1 6626   6.282   5.402   4.539
 1909SOL    HW2 6627   6.148   5.347   4.614
 1910SOL     OW 6628   0.392   6.004   5.854
 1910SOL    HW1 6629   0.348   6.010   5.944
 1910SOL    HW2 6630   0.370   6.086   5.801
 1911SOL     OW 6631   6.188   5.839   4.254
 1911SOL    HW1 6632   6.202   5.902   4.330
 1911SOL    HW2 6633   6.243   5.868   4.176
 1912SOL     OW 6634   3.625   5.015   1.949
 1912SOL    HW1 6635   3.566   5.060   1.882
 1912SOL    HW2 6636   3.629   4.917   1.930
 1913SOL     OW 6637   3.538   4.332   6.517
 1913SOL    HW1 6638   3.614   4.311   6.579
 1913SOL    HW2 6639   3.483   4.406   6.554
 1914SOL     OW 6640   3.300   4.486   0.109
 1914SOL    HW1 6641   3.201   4.474   0.110
 1914SOL    HW2 6642   3.344   4.404   0.146
 1915SOL     OW 6643   3.442   2.897   6.647
 1915SOL    HW1 6644   3.372   2.876   6.715
 1915SOL    HW2 6645   3.408   2.873   6.556
 1916SOL     OW 6646   4.251   0.690   2.792
 1916SOL    HW1 6647   4.284   0.728   2.706
 1916SOL    HW2 6648   4.300   0.730   2.869
 1917SOL     OW 6649   2.042   4.387   1.169
 1917SOL    HW1 6650   2.084   4.477   1.165
 1917SOL    HW2 6651   2.062   4.343   1.256
 1918SOL     OW 6652   5.424   1.927   3.289
 1918SOL    HW1 6653   5.369   1.897   3.366
 1918SOL    HW2 6654   5.445   2.024   3.299
 1919SOL     OW 6655   6.709   2.499   6.253
 1919SOL    HW1 6656   6.634   2.500   6.320
 1919SOL    HW2 6657   6.765   2.581   6.264
 1920SOL     OW 6658   4.919   3.183   0.655
 1920SOL    HW1 6659   4.979   3.186   0.575
 1920SOL    HW2 6660   4.961   3.126   0.726
 1921SOL     OW 6661   2.241   2.285   7.003
 1921SOL    HW1 6662   2.262   2.334   6.919
 1921SOL    HW2 6663   2.236   2.349   0.064
 1922SOL     OW 6664   3.319   2.880   3.768
 1922SOL    HW1 6665   3.298   2.947   3.839
 1922SOL    HW2 6666   3.241   2.819   3.755
 1923SOL     OW 6667   3.346   0.784   4.462
 1923SOL    HW1 6668   3.397   0.718   4.408
 1923SOL    HW2 6669   3.382   0.784   4.556
 1924SOL     OW 6670   5.178   1.215   0.750
 1924SOL    HW1 6671   5.206   1.138   0.806
 1924SOL    HW2 6672   5.247   1.231   0.679
 1925SOL     OW 6673   1.194   3.997   1.229
 1925SOL    HW1 6674   1.256   3.944   1.287
 1925SOL    HW2 6675   1.214   4.094   1.239
 1926SOL     OW 6676   3.892   0.796   1.979
 1926SOL    HW1 6677   3.795   0.783   1.961
 1926SOL    HW2 6678   3.942   0.712   1.958
 1927SOL     OW 6679   2.073   5.278   1.246
 1927SOL    HW1 6680   2.009   5.235   1.309
 1927SOL    HW2 6681   2.066   5.235   1.156
 1928SOL     OW 6682   6.666   4.635   2.316
 1928SOL    HW1 6683   6.695   4.540   2.300
 1928SOL    HW2 6684   6.658   4.683   2.229
 1929SOL     OW 6685   3.435   6.639   3.731
 1929SOL    HW1 6686   3.452   6.684   3.644
 1929SOL    HW2 6687   3.407   6.707   3.799
 1930SOL     OW 6688   3.673   3.338   0.364
 1930SOL    HW1 6689   3.770   3.317   0.352
 1930SOL    HW2 6690   3.660   3.387   0.450
 1931SOL     OW 6691   0.032   2.315   4.019
 1931SOL    HW1 6692   0.015   2.406   3.981
 1931SOL    HW2 6693   6.962   2.264   4.023
 1932SOL     OW 6694   4.577   1.828   2.277
 1932SOL    HW1 6695   4.609   1.755   2.216
 1932SOL    HW2 6696   4.639   1.906   2.271
 1933SOL     OW 6697   1.435   1.131   1.344
 1933SOL    HW1 6698   1.410   1.040   1.377
 1933SOL    HW2 6699   1.355   1.175   1.303
 1934SOL     OW 6700   6.792   1.176   6.829
 1934SOL    HW1 6701   6.814   1.098   6.888
 1934SOL    HW2 6702   6.867   1.191   6.765
 1935SOL     OW 6703   5.823   5.013   3.454
 1935SOL    HW1 6704   5.788   4.924   3.422
 1935SOL    HW2 6705   5.760   5.085   3.426
 1936SOL     OW 6706   4.733   3.231   5.914
 1936SOL    HW1 6707   4.685   3.316   5.931
 1936SOL    HW2 6708   4.827   3.238   5.947
 1937SOL     OW 6709   6.443   4.945   6.351
 1937SOL    HW1 6710   6.451   5.008   6.274
 1937SOL    HW2 6711   6.391   4.988   6.425
 1938SOL     OW 6712   6.663   2.850   0.342
 1938SOL    HW1 6713   6.628   2.941   0.325
 1938SOL    HW2 6714   6.589   2.783   0.336
 1939SOL     OW 6715   0.401   0.507   4.308
 1939SOL    HW1 6716   0.381   0.596   4.348
 1939SOL    HW2 6717   0.469   0.518   4.235
 1940SOL     OW 6718   0.485   4.837   0.722
 1940SOL    HW1 6719   0.510   4.898   0.647
 1940SOL    HW2 6720   0.430   4.888   0.789
 1941SOL     OW 6721   5.106   1.711   4.802
 1941SOL    HW1 6722   5.105   1.762   4.888
 1941SOL    HW2 6723   5.193   1.726   4.756
 1942SOL     OW 6724   0.268   4.712   1.658
 1942SOL    HW1 6725   0.288   4.805   1.689
 1942SOL    HW2 6726   0.173   4.689   1.679
 1943SOL     OW 6727   0.585   2.862   3.293
 1943SOL    HW1 6728   0.604   2.905   3.205
 1943SOL    HW2 6729   0.658   2.886   3.358
 1944SOL     OW 6730   0.785   3.410   3.640
 1944SOL    HW1 6731   0.878   3.441   3.624
 1944SOL    HW2 6732   0.740   3.472   3.705
 1945SOL     OW 6733   5.552   1.383   1.658
 1945SOL    HW1 6734   5.541   1.309   1.724
 1945SOL    HW2 6735   5.495   1.365   1.578
 1946SOL     OW 6736   6.294   5.549   0.660
 1946SOL    HW1 6737   6.357   5.499   0.719
 1946SOL    HW2 6738   6.248   5.620   0.713
 1947SOL     OW 6739   6.052   4.889   2.652
 1947SOL    HW1 6740   6.139   4.843   2.669
 1947SOL    HW2 6741   6.049   4.975   2.702
 1948SOL     OW 6742   5.357   3.229   3.622
 1948SOL    HW1 6743   5.285   3.252   3.688
 1948SOL    HW2 6744   5.316   3.212   3.533
 1949SOL     OW 6745   3.324   4.249   6.370
 1949SOL    HW1 6746   3.405   4.279   6.421
 1949SOL    HW2 6747   3.266   4.327   6.350
 1950SOL     OW 6748   3.790   3.842   3.390
 1950SOL    HW1 6749   3.788   3.744   3.410
 1950SOL    HW2 6750   3.765   3.893   3.473
 1951SOL     OW 6751   6.459   5.241   5.576
 1951SOL    HW1 6752   6.468   5.173   5.649
 1951SOL    HW2 6753   6.549   5.266   5.542
 1952SOL     OW 6754   5.934   4.831   6.902
 1952SOL    HW1 6755   5.886   4.885   6.972
 1952SOL    HW2 6756   6.016   4.791   6.942
 1953SOL     OW 6757   1.084   1.244   0.065
 1953SOL    HW1 6758   1.129   1.201   0.144
 1953SOL    HW2 6759   1.011   1.304   0.097
 1954SOL     OW 6760   3.614   6.585   2.046
 1954SOL    HW1 6761   3.632   6.506   1.987
 1954SOL    HW2 6762   3.592   6.664   1.989
 1955SOL     OW 6763   6.678   2.516   3.723
 1955SOL    HW1 6764   6.689   2.419   3.699
 1955SOL    HW2 6765   6.597   2.552   3.678
 1956SOL     OW 6766   4.859   0.975   1.580
 1956SOL    HW1 6767   4.891   1.046   1.642
 1956SOL    HW2 6768   4.864   0.886   1.625
 1957SOL     OW 6769   6.659   2.611   4.630
 1957SOL    HW1 6770   6.649   2.526   4.577
 1957SOL    HW2 6771   6.754   2.642   4.625
 1958SOL     OW 6772   4.229   1.573   0.453
 1958SOL    HW1 6773   4.249   1.523   0.538
 1958SOL    HW2 6774   4.289   1.653   0.447
 1959SOL     OW 6775   1.253   1.896   5.618
 1959SOL    HW1 6776   1.215   1.946   5.696
 1959SOL    HW2 6777   1.284   1.961   5.549
 1960SOL     OW 6778   5.521   3.975   3.366
 1960SOL    HW1 6779   5.552   3.894   3.416
 1960SOL    HW2 6780   5.527   3.957   3.268
 1961SOL     OW 6781   0.836   3.726   3.956
 1961SOL    HW1 6782   0.907   3.697   4.021
 1961SOL    HW2 6783   0.864   3.812   3.913
 1962SOL     OW 6784   0.666   0.469   1.825
 1962SOL    HW1 6785   0.577   0.490   1.865
 1962SOL    HW2 6786   0.733   0.457   1.898
 1963SOL     OW 6787   0.811   2.911   6.730
 1963SOL    HW1 6788   0.832   2.851   6.807
 1963SOL    HW2 6789   0.763   2.992   6.764
 1964SOL     OW 6790   5.615   3.473   0.640
 1964SOL    HW1 6791   5.568   3.510   0.560
 1964SOL    HW2 6792   5.566   3.391   0.671
 1965SOL     OW 6793   6.246   4.707   3.561
 1965SOL    HW1 6794   6.179   4.780   3.556
 1965SOL    HW2 6795   6.282   4.688   3.470
 1966SOL     OW 6796   0.907   4.636   6.502
 1966SOL    HW1 6797   0.917   4.736   6.506
 1966SOL    HW2 6798   0.958   4.594   6.577
 1967SOL     OW 6799   6.446   3.387   4.769
 1967SOL    HW1 6800   6.402   3.434   4.692
 1967SOL    HW2 6801   6.378   3.369   4.840
 1968SOL     OW 6802   2.697   1.018   5.985
 1968SOL    HW1 6803   2.774   1.045   5.927
 1968SOL    HW2 6804   2.614   1.063   5.954
 1969SOL     OW 6805   1.191   6.061   1.087
 1969SOL    HW1 6806   1.286   6.091   1.098
 1969SOL    HW2 6807   1.174   5.985   1.150
 1970SOL     OW 6808   5.501   4.536   4.092
 1970SOL    HW1 6809   5.419   4.534   4.149
 1970SOL    HW2 6810   5.525   4.444   4.063
 1971SOL     OW 6811   1.882   4.348   4.875
 1971SOL    HW1 6812   1.977   4.315   4.874
 1971SOL    HW2 6813   1.860   4.388   4.786
 1972SOL     OW 6814   6.172   2.049   2.507
 1972SOL    HW1 6815   6.230   1.969   2.494
 1972SOL    HW2 6816   6.222   2.131   2.480
 1973SOL     OW 6817   3.385   2.211   0.988
 1973SOL    HW1 6818   3.353   2.117   1.002
 1973SOL    HW2 6819   3.473   2.223   1.036
 1974SOL     OW 6820   2.270   6.951   5.004
 1974SOL    HW1 6821   2.290   6.937   4.907
 1974SOL    HW2 6822   2.171   6.944   5.019
 1975SOL     OW 6823   2.064   2.720   2.795
 1975SOL    HW1 6824   2.044   2.631   2.836
 1975SOL    HW2 6825   2.136   2.766   2.846
 1976SOL     OW 6826   1.393   0.949   5.040
 1976SOL    HW1 6827   1.466   0.895   5.000
 1976SOL    HW2 6828   1.363   1.020   4.976
 1977SOL     OW 6829   1.843   3.819   6.550
 1977SOL    HW1 6830   1.785   3.894   6.519
 1977SOL    HW2 6831   1.939   3.841   6.533
 1978SOL     OW 6832   2.957   0.258   2.039
 1978SOL    HW1 6833   3.037   0.210   2.005
 1978SOL    HW2 6834   2.932   0.223   2.129
 1979SOL     OW 6835   5.897   4.885   6.359
 1979SOL    HW1 6836   5.958   4.811   6.388
 1979SOL    HW2 6837   5.851   4.859   6.274
 1980SOL     OW 6838   3.858   0.202   0.739
 1980SOL    HW1 6839   3.794   0.192   0.815
 1980SOL    HW2 6840   3.896   0.112   0.716
 1981SOL     OW 6841   3.873   1.839   2.114
 1981SOL    HW1 6842   3.890   1.746   2.147
 1981SOL    HW2 6843   3.784   1.843   2.069
 1982SOL     OW 6844   1.563   2.992   6.138
 1982SOL    HW1 6845   1.550   3.006   6.040
 1982SOL    HW2 6846   1.476   2.967   6.180
 1983SOL     OW 6847   6.122   1.593   1.848
 1983SOL    HW1 6848   6.098   1.525   1.918
 1983SOL    HW2 6849   6.173   1.549   1.774
 1984SOL     OW 6850   4.766   4.035   6.195
 1984SOL    HW1 6851   4.851   3.999   6.232
 1984SOL    HW2 6852   4.696   4.038   6.267
 1985SOL     OW 6853   6.112   4.632   3.960
 1985SOL    HW1 6854   6.052   4.691   4.014
 1985SOL    HW2 6855   6.096   4.537   3.984
 1986SOL     OW 6856   2.962   3.702   2.381
 1986SOL    HW1 6857   2.888   3.742   2.326
 1986SOL    HW2 6858   3.044   3.692   2.325
 1987SOL     OW 6859   2.629   0.771   2.085
 1987SOL    HW1 6860   2.725   0.777   2.060
 1987SOL    HW2 6861   2.620   0.778   2.184
 1988SOL     OW 6862   0.382   1.899   1.924
 1988SOL    HW1 6863   0.451   1.838   1.961
 1988SOL    HW2 6864   0.344   1.860   1.840
 1989SOL     OW 6865   3.115   5.890   5.088
 1989SOL    HW1 6866   3.033   5.868   5.036
 1989SOL    HW2 6867   3.195   5.882   5.029
 1990SOL     OW 6868   3.941   7.006   0.119
 1990SOL    HW1 6869   3.848   6.998   0.155
 1990SOL    HW2 6870   3.942   0.055   0.043
 1991SOL     OW 6871   2.156   5.275   1.900
 1991SOL    HW1 6872   2.211   5.228   1.830
 1991SOL    HW2 6873   2.112   5.355   1.859
 1992SOL     OW 6874   0.940   6.302   2.853
 1992SOL    HW1 6875   0.897   6.376   2.904
 1992SOL    HW2 6876   1.037   6.298   2.876
 1993SOL     OW 6877   1.888   1.460   3.045
 1993SOL    HW1 6878   1.848   1.526   3.109
 1993SOL    HW2 6879   1.983   1.483   3.028
 1994SOL     OW 6880   4.005   2.994   1.335
 1994SOL    HW1 6881   3.952   2.921   1.290
 1994SOL    HW2 6882   3.943   3.054   1.386
 1995SOL     OW 6883   5.517   1.703   4.229
 1995SOL    HW1 6884   5.605   1.698   4.276
 1995SOL    HW2 6885   5.520   1.645   4.148
 1996SOL     OW 6886   4.654   0.727   0.662
 1996SOL    HW1 6887   4.721   0.764   0.726
 1996SOL    HW2 6888   4.699   0.669   0.595
 1997SOL     OW 6889   3.807   1.171   3.708
 1997SOL    HW1 6890   3.803   1.090   3.649
 1997SOL    HW2 6891   3.741   1.239   3.676
 1998SOL     OW 6892   2.805   3.835   1.432
 1998SOL    HW1 6893   2.887   3.881   1.465
 1998SOL    HW2 6894   2.747   3.901   1.384
 1999SOL     OW 6895   0.507   6.599   6.798
 1999SOL    HW1 6896   0.450   6.518   6.811
 1999SOL    HW2 6897   0.601   6.571   6.776
 2000SOL     OW 6898   4.133   4.313   6.179
 2000SOL    HW1 6899   4.112   4.290   6.274
 2000SOL    HW2 6900   4.178   4.235   6.136
 2001SOL     OW 6901   1.603   2.439   0.673
 2001SOL    HW1 6902   1.573   2.351   0.637
 2001SOL    HW2 6903   1.698   2.432   0.704
 2002SOL     OW 6904   6.467   5.406   0.847
 2002SOL    HW1 6905   6.429   5.318   0.875
 2002SOL    HW2 6906   6.536   5.436   0.913
 2003SOL     OW 6907   5.855   5.514   1.763
 2003SOL    HW1 6908   5.842   5.416   1.777
 2003SOL    HW2 6909   5.921   5.529   1.689
 2004SOL     OW 6910   3.947   0.161   3.029
 2004SOL    HW1 6911   3.851   0.177   3.053
 2004SOL    HW2 6912   3.994   0.121   3.107
 2005SOL     OW 6913   1.393   6.763   0.467
 2005SOL    HW1 6914   1.302   6.722   0.455
 2005SOL    HW2 6915   1.463   6.695   0.446
 2006SOL     OW 6916   5.853   6.606   2.481
 2006SOL    HW1 6917   5.827   6.596   2.577
 2006SOL    HW2 6918   5.808   6.687   2.443
 2007SOL     OW 6919   5.619   5.158   5.857
 2007SOL    HW1 6920   5.604   5.079   5.798
 2007SOL    HW2 6921   5.562   5.151   5.939
 2008SOL     OW 6922   1.850   3.387   2.588
 2008SOL    HW1 6923   1.929   3.368   2.530
 2008SOL    HW2 6924   1.815   3.300   2.625
 2009SOL     OW 6925   6.440   0.078   2.434
 2009SOL    HW1 6926   6.441   0.064   2.533
 2009SOL    HW2 6927   6.365   0.140   2.410
 2010SOL     OW 6928   6.722   2.064   1.906
 2010SOL    HW1 6929   6.794   2.049   1.838
 2010SOL    HW2 6930   6.637   2.025   1.873
 2011SOL     OW 6931   1.283   0.111   4.861
 2011SOL    HW1 6932   1.219   0.034   4.857
 2011SOL    HW2 6933   1.232   0.197   4.860
 2012SOL     OW 6934   0.616   3.016   0.845
 2012SOL    HW1 6935   0.705   3.062   0.848
 2012SOL    HW2 6936   0.628   2.922   0.813
 2013SOL     OW 6937   0.309   2.593   2.169
 2013SOL    HW1 6938   0.365   2.652   2.227
 2013SOL    HW2 6939   0.214   2.624   2.173
 2014SOL     OW 6940   3.884   1.430   3.998
 2014SOL    HW1 6941   3.878   1.331   3.987
 2014SOL    HW2 6942   3.853   1.454   4.090
 2015SOL     OW 6943   3.686   6.564   2.317
 2015SOL    HW1 6944   3.671   6.587   2.221
 2015SOL    HW2 6945   3.731   6.475   2.324
 2016SOL     OW 6946   2.021   0.576   4.750
 2016SOL    HW1 6947   2.067   0.539   4.830
 2016SOL    HW2 6948   2.076   0.650   4.711
 2017SOL     OW 6949   3.280   6.411   4.070
 2017SOL    HW1 6950   3.364   6.441   4.023
 2017SOL    HW2 6951   3.305   6.356   4.150
 2018SOL     OW 6952   0.460   0.293   4.095
 2018SOL    HW1 6953   0.381   0.354   4.090
 2018SOL    HW2 6954   0.430   0.200   4.113
 2019SOL     OW 6955   6.568   5.015   6.950
 2019SOL    HW1 6956   6.490   5.026   6.889
 2019SOL    HW2 6957   6.648   5.060   6.912
 2020SOL     OW 6958   2.047   6.659   1.040
 2020SOL    HW1 6959   1.992   6.575   1.036
 2020SOL    HW2 6960   2.038   6.702   1.129
 2021SOL     OW 6961   0.156   5.782   4.475
 2021SOL    HW1 6962   0.063   5.750   4.457
 2021SOL    HW2 6963   0.221   5.709   4.455
 2022SOL     OW 6964   1.696   3.501   4.345
 2022SOL    HW1 6965   1.618   3.560   4.323
 2022SOL    HW2 6966   1.685   3.413   4.299
 2023SOL     OW 6967   6.631   5.953   6.642
 2023SOL    HW1 6968   6.674   6.036   6.606
 2023SOL    HW2 6969   6.697   5.879   6.643
 2024SOL     OW 6970   0.340   5.562   4.143
 2024SOL    HW1 6971   0.272   5.590   4.074
 2024SOL    HW2 6972   0.359   5.465   4.132
 2025SOL     OW 6973   1.966   6.101   4.417
 2025SOL    HW1 6974   1.941   6.009   4.387
 2025SOL    HW2 6975   2.039   6.095   4.485
 2026SOL     OW 6976   0.946   0.068   5.567
 2026SOL    HW1 6977   0.948   0.148   5.627
 2026SOL    HW2 6978   0.953   7.000   5.622
 2027SOL     OW 6979   6.968   6.047   2.480
 2027SOL    HW1 6980   6.920   6.030   2.566
 2027SOL    HW2 6981   7.008   6.139   2.483
 2028SOL     OW 6982   3.021   5.565   5.068
 2028SOL    HW1 6983   2.960   5.487   5.052
 2028SOL    HW2 6984   2.998   5.609   5.155
 2029SOL     OW 6985   6.195   2.932   6.795
 2029SOL    HW1 6986   6.153   3.021   6.778
 2029SOL    HW2 6987   6.294   2.944   6.808
 2030SOL     OW 6988   2.285   6.781   3.077
 2030SOL    HW1 6989   2.350   6.815   3.144
 2030SOL    HW2 6990   2.334   6.752   2.994
 2031SOL     OW 6991   0.355   6.009   5.248
 2031SOL    HW1 6992   0.342   6.043   5.155
 2031SOL    HW2 6993   0.278   6.035   5.305
 2032SOL     OW 6994   2.175   2.783   6.114
 2032SOL    HW1 6995   2.143   2.827   6.198
 2032SOL    HW2 6996   2.272   2.762   6.122
 2033SOL     OW 6997   1.888   1.329   0.746
 2033SOL    HW1 6998   1.873   1.233   0.725
 2033SOL    HW2 6999   1.976   1.340   0.794
 2034SOL     OW 7000   0.739   4.729   4.996
 2034SOL    HW1 7001   0.683   4.754   5.074
 2034SOL    HW2 7002   0.720   4.634   4.970
 2035SOL     OW 7003   5.535   6.112   3.045
 2035SOL    HW1 7004   5.608   6.102   3.112
 2035SOL    HW2 7005   5.545   6.042   2.974
 2036SOL     OW 7006   0.240   4.295   6.259
 2036SOL    HW1 7007   0.281   4.340   6.181
 2036SOL    HW2 7008   0.164   4.237   6.229
 2037SOL     OW 7009   0.836   2.624   6.736
 2037SOL    HW1 7010   0.911   2.665   6.788
 2037SOL    HW2 7011   0.796   2.693   6.676
 2038SOL     OW 7012   1.215   1.264   6.199
 2038SOL    HW1 7013   1.172   1.175   6.216
 2038SOL    HW2 7014   1.273   1.257   6.118
 2039SOL     OW 7015   5.268   6.030   3.512
 2039SOL    HW1 7016   5.247   5.950   3.456
 2039SOL    HW2 7017   5.265   6.004   3.609
 2040SOL     OW 7018   2.572   2.066   0.281
 2040SOL    HW1 7019   2.474   2.057   0.262
 2040SOL    HW2 7020   2.623   2.056   0.195
 2041SOL     OW 7021   2.867   6.554   6.739
 2041SOL    HW1 7022   2.885   6.528   6.644
 2041SOL    HW2 7023   2.768   6.560   6.753
 2042SOL     OW 7024   6.229   0.295   6.129
 2042SOL    HW1 7025   6.204   0.373   6.186
 2042SOL    HW2 7026   6.324   0.270   6.147
 2043SOL     OW 7027   0.739   4.189   0.231
 2043SOL    HW1 7028   0.783   4.099   0.235
 2043SOL    HW2 7029   0.729   4.226   0.323
 2044SOL     OW 7030   4.450   0.474   1.739
 2044SOL    HW1 7031   4.472   0.516   1.651
 2044SOL    HW2 7032   4.366   0.514   1.775
 2045SOL     OW 7033   2.202   5.806   3.946
 2045SOL    HW1 7034   2.297   5.788   3.972
 2045SOL    HW2 7035   2.171   5.892   3.986
 2046SOL     OW 7036   0.565   2.951   5.905
 2046SOL    HW1 7037   0.621   3.033   5.889
 2046SOL    HW2 7038   0.496   2.944   5.832
 2047SOL     OW 7039   6.458   0.049   1.667
 2047SOL    HW1 7040   6.520   0.054   1.588
 2047SOL    HW2 7041   6.423   6.971   1.675
 2048SOL     OW 7042   2.070   0.685   4.387
 2048SOL    HW1 7043   2.070   0.675   4.287
 2048SOL    HW2 7044   2.097   0.778   4.411
 2049SOL     OW 7045   4.484   2.923   5.290
 2049SOL    HW1 7046   4.386   2.924   5.312
 2049SOL    HW2 7047   4.521   3.015   5.302
 2050SOL     OW 7048   0.862   1.044   3.455
 2050SOL    HW1 7049   0.775   1.082   3.424
 2050SOL    HW2 7050   0.867   1.051   3.555
 2051SOL     OW 7051   3.398   6.500   0.012
 2051SOL    HW1 7052   3.457   6.510   0.092
 2051SOL    HW2 7053   3.396   6.405   6.999
 2052SOL     OW 7054   0.560   3.660   0.924
 2052SOL    HW1 7055   0.486   3.603   0.957
 2052SOL    HW2 7056   0.610   3.613   0.851
 2053SOL     OW 7057   5.830   4.750   2.615
 2053SOL    HW1 7058   5.774   4.790   2.542
 2053SOL    HW2 7059   5.898   4.817   2.646
 2054SOL     OW 7060   2.908   3.721   2.924
 2054SOL    HW1 7061   2.848   3.644   2.901
 2054SOL    HW2 7062   2.984   3.724   2.859
 2055SOL     OW 7063   4.180   2.612   5.545
 2055SOL    HW1 7064   4.222   2.681   5.604
 2055SOL    HW2 7065   4.115   2.655   5.483
 2056SOL     OW 7066   3.008   4.667   1.724
 2056SOL    HW1 7067   2.954   4.618   1.792
 2056SOL    HW2 7068   3.091   4.703   1.766
 2057SOL     OW 7069   5.835   3.010   4.093
 2057SOL    HW1 7070   5.866   2.930   4.041
 2057SOL    HW2 7071   5.891   3.089   4.068
 2058SOL     OW 7072   5.863   0.098   3.658
 2058SOL    HW1 7073   5.902   0.006   3.663
 2058SOL    HW2 7074   5.810   0.116   3.741
 2059SOL     OW 7075   2.169   2.217   5.354
 2059SOL    HW1 7076   2.187   2.310   5.323
 2059SOL    HW2 7077   2.188   2.153   5.278
 2060SOL     OW 7078   1.862   2.140   6.362
 2060SOL    HW1 7079   1.816   2.072   6.420
 2060SOL    HW2 7080   1.897   2.095   6.279
 2061SOL     OW 7081   1.850   1.770   3.682
 2061SOL    HW1 7082   1.892   1.827   3.612
 2061SOL    HW2 7083   1.894   1.681   3.683
 2062SOL     OW 7084   6.093   5.090   4.415
 2062SOL    HW1 7085   6.000   5.123   4.401
 2062SOL    HW2 7086   6.138   5.078   4.326
 2063SOL     OW 7087   1.330   2.242   4.226
 2063SOL    HW1 7088   1.356   2.337   4.246
 2063SOL    HW2 7089   1.360   2.183   4.301
 2064SOL     OW 7090   0.636   3.987   4.214
 2064SOL    HW1 7091   0.661   3.894   4.186
 2064SOL    HW2 7092   0.652   3.997   4.312
 2065SOL     OW 7093   3.962   3.625   5.800
 2065SOL    HW1 7094   3.959   3.599   5.703
 2065SOL    HW2 7095   3.965   3.542   5.856
 2066SOL     OW 7096   1.644   2.400   4.939
 2066SOL    HW1 7097   1.583   2.469   4.900
 2066SOL    HW2 7098   1.590   2.327   4.981
 2067SOL     OW 7099   6.204   4.383   2.196
 2067SOL    HW1 7100   6.243   4.362   2.286
 2067SOL    HW2 7101   6.141   4.460   2.205
 2068SOL     OW 7102   4.257   6.421   4.443
 2068SOL    HW1 7103   4.280   6.401   4.348
 2068SOL    HW2 7104   4.179   6.366   4.472
 2069SOL     OW 7105   6.329   1.002   3.826
 2069SOL    HW1 7106   6.391   1.074   3.794
 2069SOL    HW2 7107   6.377   0.942   3.890
 2070SOL     OW 7108   1.178   5.079   1.411
 2070SOL    HW1 7109   1.200   4.982   1.398
 2070SOL    HW2 7110   1.148   5.118   1.323
 2071SOL     OW 7111   6.837   2.523   4.855
 2071SOL    HW1 7112   6.864   2.487   4.766
 2071SOL    HW2 7113   6.902   2.493   4.925
 2072SOL     OW 7114   5.715   4.055   5.350
 2072SOL    HW1 7115   5.765   4.018   5.428
 2072SOL    HW2 7116   5.618   4.032   5.359
 2073SOL     OW 7117   3.436   5.027   6.793
 2073SOL    HW1 7118   3.434   5.024   6.693
 2073SOL    HW2 7119   3.410   5.118   6.824
 2074SOL     OW 7120   2.678   4.848   5.904
 2074SOL    HW1 7121   2.642   4.920   5.963
 2074SOL    HW2 7122   2.700   4.768   5.959
 2075SOL     OW 7123   5.476   2.219   1.612
 2075SOL    HW1 7124   5.394   2.180   1.654
 2075SOL    HW2 7125   5.536   2.145   1.580
 2076SOL     OW 7126   6.867   6.516   4.347
 2076SOL    HW1 7127   6.863   6.488   4.443
 2076SOL    HW2 7128   6.823   6.606   4.337
 2077SOL     OW 7129   6.389   4.501   0.442
 2077SOL    HW1 7130   6.472   4.464   0.484
 2077SOL    HW2 7131   6.345   4.565   0.505
 2078SOL     OW 7132   1.024   2.702   6.417
 2078SOL    HW1 7133   1.123   2.692   6.424
 2078SOL    HW2 7134   0.993   2.773   6.480
 2079SOL     OW 7135   5.315   1.357   2.860
 2079SOL    HW1 7136   5.390   1.401   2.810
 2079SOL    HW2 7137   5.348   1.273   2.903
 2080SOL     OW 7138   2.365   3.261   6.279
 2080SOL    HW1 7139   2.292   3.193   6.279
 2080SOL    HW2 7140   2.433   3.238   6.209
 2081SOL     OW 7141   0.020   6.317   2.480
 2081SOL    HW1 7142   0.070   6.339   2.396
 2081SOL    HW2 7143   6.955   6.376   2.487
 2082SOL     OW 7144   0.174   5.645   3.916
 2082SOL    HW1 7145   0.081   5.679   3.931
 2082SOL    HW2 7146   0.213   5.689   3.835
 2083SOL     OW 7147   0.448   5.879   4.266
 2083SOL    HW1 7148   0.516   5.818   4.306
 2083SOL    HW2 7149   0.437   5.858   4.169
 2084SOL     OW 7150   6.729   2.395   1.365
 2084SOL    HW1 7151   6.820   2.390   1.324
 2084SOL    HW2 7152   6.671   2.324   1.325
 2085SOL     OW 7153   6.450   5.663   0.446
 2085SOL    HW1 7154   6.496   5.578   0.421
 2085SOL    HW2 7155   6.384   5.645   0.519
 2086SOL     OW 7156   5.510   0.009   6.471
 2086SOL    HW1 7157   5.587   0.016   6.535
 2086SOL    HW2 7158   5.544   0.016   6.377
 2087SOL     OW 7159   4.725   1.621   6.342
 2087SOL    HW1 7160   4.775   1.616   6.428
 2087SOL    HW2 7161   4.655   1.692   6.347
 2088SOL     OW 7162   0.049   4.377   6.009
 2088SOL    HW1 7163   0.010   4.427   6.085
 2088SOL    HW2 7164   0.031   4.280   6.019
 2089SOL     OW 7165   2.640   4.237   5.939
 2089SOL    HW1 7166   2.661   4.219   6.035
 2089SOL    HW2 7167   2.566   4.304   5.933
 2090SOL     OW 7168   5.031   2.774   7.013
 2090SOL    HW1 7169   5.125   2.784   0.028
 2090SOL    HW2 7170   5.025   2.698   6.948
 2091SOL     OW 7171   4.957   6.579   0.890
 2091SOL    HW1 7172   4.972   6.488   0.851
 2091SOL    HW2 7173   4.991   6.649   0.827
 2092SOL     OW 7174   3.492   3.313   2.177
 2092SOL    HW1 7175   3.443   3.345   2.258
 2092SOL    HW2 7176   3.588   3.337   2.184
 2093SOL     OW 7177   4.352   0.270   1.064
 2093SOL    HW1 7178   4.450   0.258   1.046
 2093SOL    HW2 7179   4.335   0.263   1.162
 2094SOL     OW 7180   5.156   2.250   1.059
 2094SOL    HW1 7181   5.256   2.247   1.063
 2094SOL    HW2 7182   5.125   2.198   0.979
 2095SOL     OW 7183   5.087   5.252   4.375
 2095SOL    HW1 7184   5.031   5.189   4.321
 2095SOL    HW2 7185   5.054   5.254   4.469
 2096SOL     OW 7186   4.183   0.045   2.717
 2096SOL    HW1 7187   4.181   0.030   2.618
 2096SOL    HW2 7188   4.111   0.109   2.743
 2097SOL     OW 7189   0.834   5.881   5.710
 2097SOL    HW1 7190   0.853   5.785   5.690
 2097SOL    HW2 7191   0.736   5.899   5.700
 2098SOL     OW 7192   2.208   0.192   3.705
 2098SOL    HW1 7193   2.112   0.164   3.713
 2098SOL    HW2 7194   2.265   0.132   3.762
 2099SOL     OW 7195   4.325   1.770   0.130
 2099SOL    HW1 7196   4.252   1.836   0.112
 2099SOL    HW2 7197   4.375   1.798   0.212
 2100SOL     OW 7198   4.708   0.731   6.815
 2100SOL    HW1 7199   4.656   0.663   6.867
 2100SOL    HW2 7200   4.646   0.779   6.753
 2101SOL     OW 7201   1.953   0.191   2.581
 2101SOL    HW1 7202   1.937   0.121   2.650
 2101SOL    HW2 7203   1.992   0.149   2.499
 2102SOL     OW 7204   3.642   2.510   1.737
 2102SOL    HW1 7205   3.592   2.545   1.657
 2102SOL    HW2 7206   3.597   2.427   1.770
 2103SOL     OW 7207   1.435   0.167   0.746
 2103SOL    HW1 7208   1.447   0.082   0.695
 2103SOL    HW2 7209   1.342   0.201   0.733
 2104SOL     OW 7210   2.008   4.404   2.707
 2104SOL    HW1 7211   2.041   4.331   2.647
 2104SOL    HW2 7212   1.958   4.472   2.653
 2105SOL     OW 7213   5.132   6.954   5.269
 2105SOL    HW1 7214   5.079   7.003   5.200
 2105SOL    HW2 7215   5.135   6.857   5.247
 2106SOL     OW 7216   3.552   2.447   1.494
 2106SOL    HW1 7217   3.496   2.385   1.550
 2106SOL    HW2 7218   3.638   2.403   1.471
 2107SOL     OW 7219   4.839   4.382   4.876
 2107SOL    HW1 7220   4.764   4.343   4.823
 2107SOL    HW2 7221   4.921   4.327   4.863
 2108SOL     OW 7222   4.559   0.081   4.991
 2108SOL    HW1 7223   4.635   0.058   4.929
 2108SOL    HW2 7224   4.526   7.014   5.035
 2109SOL     OW 7225   2.544   5.897   1.908
 2109SOL    HW1 7226   2.492   5.981   1.924
 2109SOL    HW2 7227   2.496   5.841   1.841
 2110SOL     OW 7228   3.560   5.582   6.945
 2110SOL    HW1 7229   3.488   5.524   6.906
 2110SOL    HW2 7230   3.556   5.672   6.903
 2111SOL     OW 7231   0.972   2.397   6.814
 2111SOL    HW1 7232   0.910   2.476   6.814
 2111SOL    HW2 7233   0.955   2.342   6.732
 2112SOL     OW 7234   0.765   0.359   6.636
 2112SOL    HW1 7235   0.677   0.407   6.641
 2112SOL    HW2 7236   0.796   0.336   6.728
 2113SOL     OW 7237   6.646   1.797   4.997
 2113SOL    HW1 7238   6.562   1.845   4.970
 2113SOL    HW2 7239   6.625   1.700   5.010
 2114SOL     OW 7240   2.466   1.013   5.427
 2114SOL    HW1 7241   2.472   0.937   5.362
 2114SOL    HW2 7242   2.511   1.094   5.389
 2115SOL     OW 7243   0.070   6.387   3.337
 2115SOL    HW1 7244   0.032   6.476   3.362
 2115SOL    HW2 7245   7.010   6.322   3.322
 2116SOL     OW 7246   2.376   1.259   6.645
 2116SOL    HW1 7247   2.427   1.308   6.574
 2116SOL    HW2 7248   2.286   1.234   6.610
 2117SOL     OW 7249   6.362   2.252   2.453
 2117SOL    HW1 7250   6.339   2.348   2.437
 2117SOL    HW2 7251   6.369   2.235   2.551
 2118SOL     OW 7252   6.943   3.025   2.500
 2118SOL    HW1 7253   6.972   2.994   2.591
 2118SOL    HW2 7254   6.873   3.096   2.510
 2119SOL     OW 7255   1.022   3.096   0.117
 2119SOL    HW1 7256   1.075   3.136   0.192
 2119SOL    HW2 7257   0.941   3.050   0.154
 2120SOL     OW 7258   5.321   1.980   0.373
 2120SOL    HW1 7259   5.250   2.004   0.439
 2120SOL    HW2 7260   5.308   1.885   0.343
 2121SOL     OW 7261   2.277   6.614   1.390
 2121SOL    HW1 7262   2.303   6.518   1.402
 2121SOL    HW2 7263   2.261   6.656   1.480
 2122SOL     OW 7264   6.745   0.974   4.667
 2122SOL    HW1 7265   6.711   1.063   4.637
 2122SOL    HW2 7266   6.687   0.902   4.629
 2123SOL     OW 7267   0.915   4.749   3.306
 2123SOL    HW1 7268   0.869   4.735   3.394
 2123SOL    HW2 7269   0.856   4.719   3.232
 2124SOL     OW 7270   5.032   3.440   6.193
 2124SOL    HW1 7271   4.935   3.416   6.196
 2124SOL    HW2 7272   5.043   3.535   6.164
 2125SOL     OW 7273   1.062   5.788   4.686
 2125SOL    HW1 7274   1.135   5.855   4.703
 2125SOL    HW2 7275   1.102   5.698   4.669
 2126SOL     OW 7276   2.980   3.814   0.574
 2126SOL    HW1 7277   3.062   3.758   0.570
 2126SOL    HW2 7278   3.005   3.911   0.566
 2127SOL     OW 7279   0.985   3.523   4.407
 2127SOL    HW1 7280   0.907   3.544   4.465
 2127SOL    HW2 7281   0.969   3.436   4.360
 2128SOL     OW 7282   5.186   3.332   1.869
 2128SOL    HW1 7283   5.088   3.311   1.875
 2128SOL    HW2 7284   5.197   3.425   1.833
 2129SOL     OW 7285   5.508   3.803   3.704
 2129SOL    HW1 7286   5.530   3.896   3.734
 2129SOL    HW2 7287   5.549   3.787   3.614
 2130SOL     OW 7288   1.887   0.686   1.891
 2130SOL    HW1 7289   1.932   0.732   1.814
 2130SOL    HW2 7290   1.956   0.655   1.956
 2131SOL     OW 7291   5.911   0.452   6.721
 2131SOL    HW1 7292   5.950   0.428   6.810
 2131SOL    HW2 7293   5.820   0.411   6.712
 2132SOL     OW 7294   2.558   2.781   0.463
 2132SOL    HW1 7295   2.526   2.818   0.375
 2132SOL    HW2 7296   2.488   2.797   0.533
 2133SOL     OW 7297   3.864   2.022   1.463
 2133SOL    HW1 7298   3.827   1.940   1.508
 2133SOL    HW2 7299   3.869   2.006   1.364
 2134SOL     OW 7300   2.070   6.849   5.728
 2134SOL    HW1 7301   1.982   6.808   5.753
 2134SOL    HW2 7302   2.135   6.838   5.804
 2135SOL     OW 7303   0.880   6.216   4.270
 2135SOL    HW1 7304   0.915   6.122   4.273
 2135SOL    HW2 7305   0.865   6.249   4.363
 2136SOL     OW 7306   0.819   5.006   3.501
 2136SOL    HW1 7307   0.797   5.005   3.404
 2136SOL    HW2 7308   0.867   5.091   3.524
 2137SOL     OW 7309   0.383   0.107   4.403
 2137SOL    HW1 7310   0.443   0.181   4.434
 2137SOL    HW2 7311   0.288   0.129   4.427
 2138SOL     OW 7312   1.302   2.495   6.048
 2138SOL    HW1 7313   1.213   2.513   6.091
 2138SOL    HW2 7314   1.373   2.495   6.118
 2139SOL     OW 7315   3.142   6.922   4.786
 2139SOL    HW1 7316   3.133   6.824   4.768
 2139SOL    HW2 7317   3.236   6.951   4.768
 2140SOL     OW 7318   1.618   5.896   3.783
 2140SOL    HW1 7319   1.605   5.797   3.779
 2140SOL    HW2 7320   1.539   5.942   3.741
 2141SOL     OW 7321   6.845   1.630   6.434
 2141SOL    HW1 7322   6.767   1.656   6.377
 2141SOL    HW2 7323   6.918   1.698   6.424
 2142SOL     OW 7324   3.763   0.960   3.541
 2142SOL    HW1 7325   3.825   0.994   3.470
 2142SOL    HW2 7326   3.720   0.875   3.510
 2143SOL     OW 7327   2.933   5.730   0.273
 2143SOL    HW1 7328   2.908   5.661   0.205
 2143SOL    HW2 7329   2.970   5.810   0.227
 2144SOL     OW 7330   1.213   1.077   1.809
 2144SOL    HW1 7331   1.227   1.112   1.901
 2144SOL    HW2 7332   1.115   1.079   1.787
 2145SOL     OW 7333   3.035   5.525   3.205
 2145SOL    HW1 7334   2.986   5.510   3.119
 2145SOL    HW2 7335   3.126   5.484   3.198
 2146SOL     OW 7336   2.863   2.463   0.887
 2146SOL    HW1 7337   2.944   2.493   0.838
 2146SOL    HW2 7338   2.783   2.472   0.828
 2147SOL     OW 7339   0.291   0.942   4.590
 2147SOL    HW1 7340   0.352   1.010   4.548
 2147SOL    HW2 7341   0.323   0.850   4.566
 2148SOL     OW 7342   6.123   3.329   4.238
 2148SOL    HW1 7343   6.084   3.415   4.207
 2148SOL    HW2 7344   6.209   3.346   4.285
 2149SOL     OW 7345   3.082   0.372   3.197
 2149SOL    HW1 7346   3.163   0.393   3.252
 2149SOL    HW2 7347   3.001   0.411   3.242
 2150SOL     OW 7348   5.000   0.033   3.189
 2150SOL    HW1 7349   5.001   0.080   3.101
 2150SOL    HW2 7350   4.926   6.982   3.191
 2151SOL     OW 7351   4.526   4.454   6.147
 2151SOL    HW1 7352   4.611   4.498   6.175
 2151SOL    HW2 7353   4.546   4.363   6.111
 2152SOL     OW 7354   6.965   6.737   2.315
 2152SOL    HW1 7355   6.985   6.823   2.361
 2152SOL    HW2 7356   6.923   6.757   2.226
 2153SOL     OW 7357   4.371   1.738   3.521
 2153SOL    HW1 7358   4.377   1.835   3.498
 2153SOL    HW2 7359   4.328   1.728   3.610
 2154SOL     OW 7360   3.524   6.507   5.424
 2154SOL    HW1 7361   3.431   6.469   5.421
 2154SOL    HW2 7362   3.578   6.468   5.350
 2155SOL     OW 7363   6.139   3.408   0.308
 2155SOL    HW1 7364   6.114   3.406   0.405
 2155SOL    HW2 7365   6.124   3.501   0.272
 2156SOL     OW 7366   6.674   0.355   2.243
 2156SOL    HW1 7367   6.766   0.380   2.214
 2156SOL    HW2 7368   6.661   0.256   2.231
 2157SOL     OW 7369   5.750   1.180   4.366
 2157SOL    HW1 7370   5.764   1.129   4.451
 2157SOL    HW2 7371   5.839   1.203   4.326
 2158SOL     OW 7372   4.792   0.204   3.936
 2158SOL    HW1 7373   4.841   0.124   3.901
 2158SOL    HW2 7374   4.695   0.181   3.946
 2159SOL     OW 7375   2.549   0.388   5.520
 2159SOL    HW1 7376   2.481   0.314   5.521
 2159SOL    HW2 7377   2.555   0.429   5.611
 2160SOL     OW 7378   2.935   3.017   0.895
 2160SOL    HW1 7379   2.985   3.017   0.809
 2160SOL    HW2 7380   2.851   3.071   0.885
 2161SOL     OW 7381   5.006   2.719   3.921
 2161SOL    HW1 7382   4.992   2.763   3.833
 2161SOL    HW2 7383   4.964   2.776   3.993
 2162SOL     OW 7384   2.501   1.433   1.689
 2162SOL    HW1 7385   2.488   1.372   1.611
 2162SOL    HW2 7386   2.469   1.388   1.773
 2163SOL     OW 7387   2.866   1.677   0.883
 2163SOL    HW1 7388   2.946   1.618   0.896
 2163SOL    HW2 7389   2.785   1.621   0.869
 2164SOL     OW 7390   6.632   0.742   1.551
 2164SOL    HW1 7391   6.599   0.792   1.471
 2164SOL    HW2 7392   6.711   0.790   1.589
 2165SOL     OW 7393   3.178   0.135   1.936
 2165SOL    HW1 7394   3.190   0.037   1.953
 2165SOL    HW2 7395   3.268   0.179   1.936
 2166SOL     OW 7396   5.504   2.108   5.348
 2166SOL    HW1 7397   5.598   2.141   5.338
 2166SOL    HW2 7398   5.489   2.080   5.443
 2167SOL     OW 7399   3.224   1.060   0.708
 2167SOL    HW1 7400   3.175   1.087   0.791
 2167SOL    HW2 7401   3.181   0.979   0.669
 2168SOL     OW 7402   6.001   6.455   4.626
 2168SOL    HW1 7403   5.945   6.374   4.642
 2168SOL    HW2 7404   5.986   6.488   4.533
 2169SOL     OW 7405   5.580   1.287   6.065
 2169SOL    HW1 7406   5.655   1.329   6.117
 2169SOL    HW2 7407   5.494   1.334   6.086
 2170SOL     OW 7408   5.321   4.578   4.376
 2170SOL    HW1 7409   5.299   4.620   4.464
 2170SOL    HW2 7410   5.276   4.628   4.302
 2171SOL     OW 7411   6.954   3.852   0.327
 2171SOL    HW1 7412   6.893   3.902   0.388
 2171SOL    HW2 7413   0.027   3.898   0.323
 2172SOL     OW 7414   2.623   0.497   2.058
 2172SOL    HW1 7415   2.718   0.502   2.027
 2172SOL    HW2 7416   2.599   0.583   2.104
 2173SOL     OW 7417   4.589   2.492   4.677
 2173SOL    HW1 7418   4.657   2.509   4.747
 2173SOL    HW2 7419   4.507   2.452   4.719
 2174SOL     OW 7420   1.349   5.520   4.351
 2174SOL    HW1 7421   1.307   5.434   4.380
 2174SOL    HW2 7422   1.386   5.568   4.431
 2175SOL     OW 7423   1.626   6.271   5.686
 2175SOL    HW1 7424   1.528   6.253   5.694
 2175SOL    HW2 7425   1.652   6.339   5.755
 2176SOL     OW 7426   2.002   2.253   2.416
 2176SOL    HW1 7427   2.074   2.212   2.472
 2176SOL    HW2 7428   2.029   2.346   2.391
 2177SOL     OW 7429   1.182   2.064   1.066
 2177SOL    HW1 7430   1.142   1.979   1.100
 2177SOL    HW2 7431   1.110   2.131   1.052
 2178SOL     OW 7432   6.018   6.510   0.876
 2178SOL    HW1 7433   5.937   6.539   0.825
 2178SOL    HW2 7434   5.991   6.439   0.942
 2179SOL     OW 7435   1.602   4.363   3.973
 2179SOL    HW1 7436   1.572   4.402   3.886
 2179SOL    HW2 7437   1.596   4.263   3.969
 2180SOL     OW 7438   3.278   2.570   1.760
 2180SOL    HW1 7439   3.300   2.653   1.707
 2180SOL    HW2 7440   3.179   2.560   1.765
 2181SOL     OW 7441   3.607   6.754   1.203
 2181SOL    HW1 7442   3.674   6.785   1.136
 2181SOL    HW2 7443   3.515   6.781   1.173
 2182SOL     OW 7444   4.945   3.006   0.849
 2182SOL    HW1 7445   4.953   3.021   0.948
 2182SOL    HW2 7446   4.882   2.929   0.833
 2183SOL     OW 7447   3.635   2.262   1.158
 2183SOL    HW1 7448   3.571   2.255   1.234
 2183SOL    HW2 7449   3.724   2.294   1.193
 2184SOL     OW 7450   5.350   3.373   6.496
 2184SOL    HW1 7451   5.309   3.300   6.550
 2184SOL    HW2 7452   5.365   3.340   6.402
 2185SOL     OW 7453   6.902   0.015   2.204
 2185SOL    HW1 7454   6.899   6.954   2.140
 2185SOL    HW2 7455   6.816   0.067   2.199
 2186SOL     OW 7456   0.596   4.040   3.453
 2186SOL    HW1 7457   0.660   4.115   3.468
 2186SOL    HW2 7458   0.548   4.020   3.538
 2187SOL     OW 7459   6.384   1.185   0.554
 2187SOL    HW1 7460   6.387   1.108   0.490
 2187SOL    HW2 7461   6.438   1.261   0.518
 2188SOL     OW 7462   4.496   1.320   3.847
 2188SOL    HW1 7463   4.594   1.331   3.858
 2188SOL    HW2 7464   4.448   1.400   3.883
 2189SOL     OW 7465   3.396   0.032   6.866
 2189SOL    HW1 7466   3.361   0.120   6.832
 2189SOL    HW2 7467   3.319   6.984   6.877
 2190SOL     OW 7468   5.296   3.077   1.070
 2190SOL    HW1 7469   5.225   3.014   1.101
 2190SOL    HW2 7470   5.364   3.028   1.016
 2191SOL     OW 7471   2.915   1.342   0.174
 2191SOL    HW1 7472   2.856   1.402   0.229
 2191SOL    HW2 7473   2.995   1.315   0.227
 2192SOL     OW 7474   4.459   5.756   2.453
 2192SOL    HW1 7475   4.372   5.710   2.432
 2192SOL    HW2 7476   4.491   5.804   2.372
 2193SOL     OW 7477   6.667   6.052   4.392
 2193SOL    HW1 7478   6.655   6.148   4.367
 2193SOL    HW2 7479   6.762   6.025   4.376
 2194SOL     OW 7480   2.835   6.904   1.836
 2194SOL    HW1 7481   2.917   6.861   1.799
 2194SOL    HW2 7482   2.816   6.989   1.786
 2195SOL     OW 7483   0.508   4.510   2.006
 2195SOL    HW1 7484   0.592   4.478   1.961
 2195SOL    HW2 7485   0.530   4.541   2.098
 2196SOL     OW 7486   4.239   3.892   0.295
 2196SOL    HW1 7487   4.239   3.806   0.346
 2196SOL    HW2 7488   4.242   3.969   0.358
 2197SOL     OW 7489   4.369   3.929   6.876
 2197SOL    HW1 7490   4.326   3.929   6.967
 2197SOL    HW2 7491   4.389   3.835   6.849
 2198SOL     OW 7492   6.793   4.365   0.281
 2198SOL    HW1 7493   6.767   4.417   0.363
 2198SOL    HW2 7494   6.772   4.419   0.200
 2199SOL     OW 7495   4.103   0.914   3.135
 2199SOL    HW1 7496   4.150   0.837   3.177
 2199SOL    HW2 7497   4.167   0.991   3.126
 2200SOL     OW 7498   3.454   6.914   4.529
 2200SOL    HW1 7499   3.437   6.816   4.525
 2200SOL    HW2 7500   3.425   6.956   4.443
 2201SOL     OW 7501   4.658   4.356   4.245
 2201SOL    HW1 7502   4.613   4.397   4.324
 2201SOL    HW2 7503   4.702   4.428   4.191
 2202SOL     OW 7504   4.581   5.284   3.547
 2202SOL    HW1 7505   4.616   5.196   3.578
 2202SOL    HW2 7506   4.616   5.303   3.455
 2203SOL     OW 7507   3.207   2.140   2.573
 2203SOL    HW1 7508   3.230   2.131   2.476
 2203SOL    HW2 7509   3.288   2.119   2.628
 2204SOL     OW 7510   2.566   2.271   0.592
 2204SOL    HW1 7511   2.641   2.233   0.539
 2204SOL    HW2 7512   2.551   2.216   0.674
 2205SOL     OW 7513   3.115   0.960   2.311
 2205SOL    HW1 7514   3.163   0.905   2.379
 2205SOL    HW2 7515   3.118   1.056   2.338
 2206SOL     OW 7516   1.750   3.353   0.605
 2206SOL    HW1 7517   1.840   3.358   0.562
 2206SOL    HW2 7518   1.691   3.293   0.552
 2207SOL     OW 7519   6.625   4.608   4.564
 2207SOL    HW1 7520   6.539   4.651   4.534
 2207SOL    HW2 7521   6.609   4.510   4.580
 2208SOL     OW 7522   0.059   5.361   2.075
 2208SOL    HW1 7523   7.010   5.431   2.109
 2208SOL    HW2 7524   0.020   5.317   1.994
 2209SOL     OW 7525   0.126   6.333   1.572
 2209SOL    HW1 7526   0.030   6.309   1.581
 2209SOL    HW2 7527   0.134   6.421   1.526
 2210SOL     OW 7528   2.096   4.906   4.045
 2210SOL    HW1 7529   2.141   4.836   3.988
 2210SOL    HW2 7530   2.090   4.872   4.139
 2211SOL     OW 7531   6.895   1.981   4.924
 2211SOL    HW1 7532   6.933   2.056   4.869
 2211SOL    HW2 7533   6.795   1.985   4.922
 2212SOL     OW 7534   2.688   6.811   6.016
 2212SOL    HW1 7535   2.648   6.720   6.021
 2212SOL    HW2 7536   2.715   6.841   6.108
 2213SOL     OW 7537   4.735   0.335   3.195
 2213SOL    HW1 7538   4.788   0.346   3.279
 2213SOL    HW2 7539   4.669   0.410   3.186
 2214SOL     OW 7540   3.904   0.238   5.189
 2214SOL    HW1 7541   3.818   0.244   5.138
 2214SOL    HW2 7542   3.905   0.153   5.243
 2215SOL     OW 7543   5.585   2.273   5.097
 2215SOL    HW1 7544   5.534   2.281   5.012
 2215SOL    HW2 7545   5.523   2.276   5.175
 2216SOL     OW 7546   3.349   1.455   2.302
 2216SOL    HW1 7547   3.391   1.463   2.211
 2216SOL    HW2 7548   3.421   1.445   2.371
 2217SOL     OW 7549   4.041   0.709   1.519
 2217SOL    HW1 7550   3.953   0.739   1.483
 2217SOL    HW2 7551   4.090   0.657   1.449
 2218SOL     OW 7552   0.568   0.333   2.431
 2218SOL    HW1 7553   0.567   0.258   2.498
 2218SOL    HW2 7554   0.550   0.419   2.477
 2219SOL     OW 7555   2.330   1.901   2.928
 2219SOL    HW1 7556   2.383   1.968   2.876
 2219SOL    HW2 7557   2.302   1.940   3.015
 2220SOL     OW 7558   1.442   0.420   2.143
 2220SOL    HW1 7559   1.489   0.493   2.094
 2220SOL    HW2 7560   1.370   0.382   2.085
 2221SOL     OW 7561   0.529   0.233   5.726
 2221SOL    HW1 7562   0.559   0.138   5.717
 2221SOL    HW2 7563   0.581   0.290   5.662
 2222SOL     OW 7564   6.524   4.892   3.874
 2222SOL    HW1 7565   6.446   4.955   3.880
 2222SOL    HW2 7566   6.492   4.802   3.845
 2223SOL     OW 7567   6.701   6.595   1.393
 2223SOL    HW1 7568   6.705   6.566   1.489
 2223SOL    HW2 7569   6.630   6.664   1.382
 2224SOL     OW 7570   0.710   5.133   0.765
 2224SOL    HW1 7571   0.702   5.226   0.730
 2224SOL    HW2 7572   0.800   5.120   0.805
 2225SOL     OW 7573   0.443   3.810   0.325
 2225SOL    HW1 7574   0.347   3.833   0.334
 2225SOL    HW2 7575   0.490   3.882   0.274
 2226SOL     OW 7576   3.782   3.704   2.521
 2226SOL    HW1 7577   3.806   3.793   2.561
 2226SOL    HW2 7578   3.827   3.631   2.573
 2227SOL     OW 7579   1.075   2.107   3.861
 2227SOL    HW1 7580   1.113   2.038   3.798
 2227SOL    HW2 7581   1.059   2.192   3.811
 2228SOL     OW 7582   2.749   4.810   3.718
 2228SOL    HW1 7583   2.746   4.778   3.624
 2228SOL    HW2 7584   2.839   4.850   3.737
 2229SOL     OW 7585   5.732   6.021   3.255
 2229SOL    HW1 7586   5.639   6.029   3.292
 2229SOL    HW2 7587   5.746   5.929   3.219
 2230SOL     OW 7588   2.109   5.526   2.322
 2230SOL    HW1 7589   2.126   5.484   2.411
 2230SOL    HW2 7590   2.176   5.599   2.306
 2231SOL     OW 7591   2.372   5.681   1.382
 2231SOL    HW1 7592   2.346   5.776   1.371
 2231SOL    HW2 7593   2.469   5.670   1.361
 2232SOL     OW 7594   5.582   2.373   3.727
 2232SOL    HW1 7595   5.542   2.432   3.657
 2232SOL    HW2 7596   5.562   2.278   3.705
 2233SOL     OW 7597   3.449   1.149   6.959
 2233SOL    HW1 7598   3.375   1.098   7.003
 2233SOL    HW2 7599   3.410   1.214   6.893
 2234SOL     OW 7600   3.815   2.678   1.478
 2234SOL    HW1 7601   3.759   2.761   1.482
 2234SOL    HW2 7602   3.775   2.614   1.413
 2235SOL     OW 7603   1.895   1.553   2.251
 2235SOL    HW1 7604   1.872   1.582   2.158
 2235SOL    HW2 7605   1.983   1.592   2.277
 2236SOL     OW 7606   1.165   4.632   5.578
 2236SOL    HW1 7607   1.230   4.707   5.590
 2236SOL    HW2 7608   1.172   4.570   5.656
 2237SOL     OW 7609   6.663   3.037   4.613
 2237SOL    HW1 7610   6.694   3.072   4.525
 2237SOL    HW2 7611   6.574   2.992   4.601
 2238SOL     OW 7612   5.745   6.489   0.276
 2238SOL    HW1 7613   5.736   6.447   0.367
 2238SOL    HW2 7614   5.727   6.421   0.206
 2239SOL     OW 7615   6.103   5.917   1.940
 2239SOL    HW1 7616   6.033   5.846   1.931
 2239SOL    HW2 7617   6.089   5.967   2.025
 2240SOL     OW 7618   6.021   3.559   1.739
 2240SOL    HW1 7619   6.077   3.621   1.794
 2240SOL    HW2 7620   6.080   3.497   1.688
 2241SOL     OW 7621   1.339   0.427   3.744
 2241SOL    HW1 7622   1.371   0.401   3.653
 2241SOL    HW2 7623   1.371   0.519   3.766
 2242SOL     OW 7624   3.189   1.835   2.885
 2242SOL    HW1 7625   3.106   1.834   2.830
 2242SOL    HW2 7626   3.222   1.929   2.896
 2243SOL     OW 7627   2.649   0.155   5.034
 2243SOL    HW1 7628   2.620   0.059   5.029
 2243SOL    HW2 7629   2.708   0.176   4.956
 2244SOL     OW 7630   3.867   0.726   5.524
 2244SOL    HW1 7631   3.898   0.793   5.591
 2244SOL    HW2 7632   3.918   0.640   5.537
 2245SOL     OW 7633   0.259   2.022   2.216
 2245SOL    HW1 7634   0.287   2.099   2.158
 2245SOL    HW2 7635   0.234   1.944   2.159
 2246SOL     OW 7636   0.628   4.418   5.263
 2246SOL    HW1 7637   0.645   4.404   5.361
 2246SOL    HW2 7638   0.670   4.504   5.234
 2247SOL     OW 7639   1.804   1.222   4.495
 2247SOL    HW1 7640   1.901   1.242   4.480
 2247SOL    HW2 7641   1.756   1.306   4.522
 2248SOL     OW 7642   4.871   4.003   5.865
 2248SOL    HW1 7643   4.932   3.953   5.804
 2248SOL    HW2 7644   4.924   4.043   5.940
 2249SOL     OW 7645   4.507   5.900   5.381
 2249SOL    HW1 7646   4.536   5.878   5.288
 2249SOL    HW2 7647   4.408   5.905   5.385
 2250SOL     OW 7648   4.838   5.014   1.626
 2250SOL    HW1 7649   4.868   5.057   1.541
 2250SOL    HW2 7650   4.739   5.001   1.623
 2251SOL     OW 7651   0.596   0.794   5.952
 2251SOL    HW1 7652   0.635   0.734   5.883
 2251SOL    HW2 7653   0.641   0.884   5.946
 2252SOL     OW 7654   3.280   0.898   6.663
 2252SOL    HW1 7655   3.279   0.943   6.753
 2252SOL    HW2 7656   3.261   0.800   6.675
 2253SOL     OW 7657   0.872   4.226   6.639
 2253SOL    HW1 7658   0.879   4.129   6.661
 2253SOL    HW2 7659   0.775   4.251   6.627
 2254SOL     OW 7660   1.518   4.926   6.589
 2254SOL    HW1 7661   1.593   4.969   6.639
 2254SOL    HW2 7662   1.485   4.988   6.518
 2255SOL     OW 7663   6.341   3.670   6.532
 2255SOL    HW1 7664   6.385   3.582   6.509
 2255SOL    HW2 7665   6.291   3.660   6.618
 2256SOL     OW 7666   2.616   4.693   1.797
 2256SOL    HW1 7667   2.643   4.734   1.710
 2256SOL    HW2 7668   2.698   4.664   1.847
 2257SOL     OW 7669   1.458   3.950   5.089
 2257SOL    HW1 7670   1.370   3.945   5.042
 2257SOL    HW2 7671   1.518   4.015   5.041
 2258SOL     OW 7672   2.202   5.438   4.818
 2258SOL    HW1 7673   2.182   5.356   4.871
 2258SOL    HW2 7674   2.120   5.468   4.770
 2259SOL     OW 7675   6.225   2.475   6.322
 2259SOL    HW1 7676   6.209   2.392   6.376
 2259SOL    HW2 7677   6.170   2.550   6.360
 2260SOL     OW 7678   4.336   3.203   0.676
 2260SOL    HW1 7679   4.436   3.193   0.679
 2260SOL    HW2 7680   4.304   3.237   0.765
 2261SOL     OW 7681   2.428   6.207   5.167
 2261SOL    HW1 7682   2.434   6.296   5.213
 2261SOL    HW2 7683   2.496   6.146   5.206
 2262SOL     OW 7684   3.074   1.724   3.123
 2262SOL    HW1 7685   3.108   1.765   3.038
 2262SOL    HW2 7686   2.983   1.687   3.108
 2263SOL     OW 7687   0.725   4.335   6.137
 2263SOL    HW1 7688   0.737   4.317   6.039
 2263SOL    HW2 7689   0.684   4.256   6.181
 2264SOL     OW 7690   3.308   3.752   3.592
 2264SOL    HW1 7691   3.340   3.802   3.512
 2264SOL    HW2 7692   3.344   3.795   3.675
 2265SOL     OW 7693   0.813   6.481   3.716
 2265SOL    HW1 7694   0.825   6.568   3.765
 2265SOL    HW2 7695   0.717   6.469   3.693
 2266SOL     OW 7696   6.612   0.336   5.913
 2266SOL    HW1 7697   6.668   0.419   5.914
 2266SOL    HW2 7698   6.543   0.344   5.841
 2267SOL     OW 7699   5.454   1.569   5.274
 2267SOL    HW1 7700   5.479   1.621   5.355
 2267SOL    HW2 7701   5.535   1.555   5.217
 2268SOL     OW 7702   6.946   5.454   0.152
 2268SOL    HW1 7703   6.940   5.436   0.250
 2268SOL    HW2 7704   6.903   5.379   0.102
 2269SOL     OW 7705   0.300   6.642   3.275
 2269SOL    HW1 7706   0.272   6.697   3.196
 2269SOL    HW2 7707   0.255   6.553   3.271
 2270SOL     OW 7708   3.818   3.170   3.356
 2270SOL    HW1 7709   3.754   3.240   3.325
 2270SOL    HW2 7710   3.768   3.091   3.391
 2271SOL     OW 7711   1.303   4.631   3.055
 2271SOL    HW1 7712   1.283   4.706   2.992
 2271SOL    HW2 7713   1.291   4.663   3.149
 2272SOL     OW 7714   5.360   0.809   5.925
 2272SOL    HW1 7715   5.419   0.882   5.959
 2272SOL    HW2 7716   5.265   0.841   5.923
 2273SOL     OW 7717   0.708   1.020   2.360
 2273SOL    HW1 7718   0.788   0.963   2.379
 2273SOL    HW2 7719   0.662   1.043   2.445
 2274SOL     OW 7720   1.034   3.945   3.907
 2274SOL    HW1 7721   1.054   3.891   3.826
 2274SOL    HW2 7722   1.103   3.926   3.978
 2275SOL     OW 7723   5.078   6.166   3.779
 2275SOL    HW1 7724   5.000   6.192   3.836
 2275SOL    HW2 7725   5.050   6.163   3.684
 2276SOL     OW 7726   3.309   5.847   2.288
 2276SOL    HW1 7727   3.305   5.933   2.339
 2276SOL    HW2 7728   3.218   5.806   2.282
 2277SOL     OW 7729   3.266   3.002   2.268
 2277SOL    HW1 7730   3.315   3.079   2.228
 2277SOL    HW2 7731   3.278   3.003   2.368
 2278SOL     OW 7732   4.163   5.822   1.188
 2278SOL    HW1 7733   4.151   5.914   1.224
 2278SOL    HW2 7734   4.079   5.791   1.145
 2279SOL     OW 7735   5.688   3.947   5.769
 2279SOL    HW1 7736   5.655   4.009   5.841
 2279SOL    HW2 7737   5.769   3.987   5.727
 2280SOL     OW 7738   5.523   0.121   6.104
 2280SOL    HW1 7739   5.543   0.148   6.010
 2280SOL    HW2 7740   5.439   0.068   6.107
 2281SOL     OW 7741   1.977   1.045   0.013
 2281SOL    HW1 7742   2.029   1.025   0.096
 2281SOL    HW2 7743   2.034   1.025   6.948
 2282SOL     OW 7744   3.974   5.795   2.347
 2282SOL    HW1 7745   3.989   5.891   2.373
 2282SOL    HW2 7746   3.896   5.759   2.398
 2283SOL     OW 7747   0.880   3.107   1.577
 2283SOL    HW1 7748   0.859   3.091   1.673
 2283SOL    HW2 7749   0.974   3.139   1.568
 2284SOL     OW 7750   2.081   2.280   1.606
 2284SOL    HW1 7751   2.029   2.281   1.521
 2284SOL    HW2 7752   2.165   2.333   1.595
 2285SOL     OW 7753   1.860   3.445   6.330
 2285SOL    HW1 7754   1.779   3.389   6.311
 2285SOL    HW2 7755   1.938   3.385   6.351
 2286SOL     OW 7756   6.444   6.957   4.035
 2286SOL    HW1 7757   6.448   6.993   4.128
 2286SOL    HW2 7758   6.351   6.962   4.000
 2287SOL     OW 7759   2.566   2.048   0.806
 2287SOL    HW1 7760   2.595   2.053   0.901
 2287SOL    HW2 7761   2.626   1.985   0.756
 2288SOL     OW 7762   2.580   5.784   4.640
 2288SOL    HW1 7763   2.656   5.769   4.578
 2288SOL    HW2 7764   2.614   5.820   4.727
 2289SOL     OW 7765   3.931   0.658   6.870
 2289SOL    HW1 7766   3.885   0.668   6.959
 2289SOL    HW2 7767   3.864   0.636   6.800
 2290SOL     OW 7768   3.386   3.481   4.684
 2290SOL    HW1 7769   3.320   3.439   4.622
 2290SOL    HW2 7770   3.447   3.541   4.631
 2291SOL     OW 7771   2.440   2.582   0.165
 2291SOL    HW1 7772   2.352   2.533   0.163
 2291SOL    HW2 7773   2.504   2.531   0.223
 2292SOL     OW 7774   4.813   1.883   3.188
 2292SOL    HW1 7775   4.762   1.822   3.249
 2292SOL    HW2 7776   4.858   1.954   3.242
 2293SOL     OW 7777   0.848   1.163   6.342
 2293SOL    HW1 7778   0.818   1.256   6.318
 2293SOL    HW2 7779   0.772   1.113   6.382
 2294SOL     OW 7780   6.656   2.102   5.007
 2294SOL    HW1 7781   6.563   2.067   4.996
 2294SOL    HW2 7782   6.681   2.155   4.926
 2295SOL     OW 7783   5.248   5.763   0.362
 2295SOL    HW1 7784   5.155   5.796   0.343
 2295SOL    HW2 7785   5.277   5.797   0.451
 2296SOL     OW 7786   3.642   5.520   4.803
 2296SOL    HW1 7787   3.670   5.615   4.791
 2296SOL    HW2 7788   3.548   5.517   4.835
 2297SOL     OW 7789   6.070   2.857   6.289
 2297SOL    HW1 7790   6.133   2.828   6.360
 2297SOL    HW2 7791   6.031   2.946   6.313
 2298SOL     OW 7792   2.699   3.577   5.368
 2298SOL    HW1 7793   2.741   3.595   5.457
 2298SOL    HW2 7794   2.662   3.663   5.331
 2299SOL     OW 7795   5.917   3.487   4.634
 2299SOL    HW1 7796   5.891   3.535   4.550
 2299SOL    HW2 7797   5.957   3.552   4.698
 2300SOL     OW 7798   5.550   0.027   2.554
 2300SOL    HW1 7799   5.572   0.124   2.559
 2300SOL    HW2 7800   5.494   0.001   2.633
 2301SOL     OW 7801   3.930   3.373   5.407
 2301SOL    HW1 7802   3.891   3.283   5.422
 2301SOL    HW2 7803   3.873   3.442   5.452
 2302SOL     OW 7804   6.677   3.475   6.199
 2302SOL    HW1 7805   6.756   3.444   6.146
 2302SOL    HW2 7806   6.706   3.504   6.290
 2303SOL     OW 7807   2.570   1.871   6.615
 2303SOL    HW1 7808   2.521   1.943   6.664
 2303SOL    HW2 7809   2.658   1.908   6.583
 2304SOL     OW 7810   6.101   0.053   2.217
 2304SOL    HW1 7811   6.086   6.972   2.198
 2304SOL    HW2 7812   6.099   0.068   2.316
 2305SOL     OW 7813   3.130   6.974   5.083
 2305SOL    HW1 7814   3.040   6.952   5.122
 2305SOL    HW2 7815   3.129   6.957   4.985
 2306SOL     OW 7816   1.284   4.304   5.321
 2306SOL    HW1 7817   1.201   4.341   5.363
 2306SOL    HW2 7818   1.285   4.329   5.224
 2307SOL     OW 7819   6.571   3.703   4.568
 2307SOL    HW1 7820   6.506   3.743   4.633
 2307SOL    HW2 7821   6.613   3.776   4.514
 2308SOL     OW 7822   0.751   5.791   1.938
 2308SOL    HW1 7823   0.684   5.743   1.883
 2308SOL    HW2 7824   0.813   5.725   1.980
 2309SOL     OW 7825   2.108   0.653   5.067
 2309SOL    HW1 7826   2.038   0.605   5.121
 2309SOL    HW2 7827   2.154   0.588   5.007
 2310SOL     OW 7828   4.105   6.714   0.202
 2310SOL    HW1 7829   4.155   6.776   0.141
 2310SOL    HW2 7830   4.152   6.709   0.290
 2311SOL     OW 7831   2.421   5.642   0.771
 2311SOL    HW1 7832   2.388   5.681   0.857
 2311SOL    HW2 7833   2.343   5.617   0.714
 2312SOL     OW 7834   2.959   4.870   2.847
 2312SOL    HW1 7835   2.875   4.853   2.796
 2312SOL    HW2 7836   3.022   4.925   2.792
 2313SOL     OW 7837   4.572   4.943   1.643
 2313SOL    HW1 7838   4.522   5.026   1.619
 2313SOL    HW2 7839   4.515   4.863   1.622
 2314SOL     OW 7840   2.410   4.394   3.229
 2314SOL    HW1 7841   2.433   4.398   3.132
 2314SOL    HW2 7842   2.487   4.428   3.284
 2315SOL     OW 7843   4.963   2.328   6.489
 2315SOL    HW1 7844   4.879   2.363   6.531
 2315SOL    HW2 7845   4.962   2.228   6.492
 2316SOL     OW 7846   4.910   3.495   2.290
 2316SOL    HW1 7847   5.006   3.520   2.282
 2316SOL    HW2 7848   4.871   3.482   2.198
 2317SOL     OW 7849   0.676   5.808   3.938
 2317SOL    HW1 7850   0.675   5.713   3.969
 2317SOL    HW2 7851   0.756   5.855   3.975
 2318SOL     OW 7852   0.254   1.256   3.774
 2318SOL    HW1 7853   0.155   1.251   3.786
 2318SOL    HW2 7854   0.286   1.348   3.796
 2319SOL     OW 7855   1.199   4.784   1.389
 2319SOL    HW1 7856   1.269   4.716   1.368
 2319SOL    HW2 7857   1.113   4.760   1.343
 2320SOL     OW 7858   5.997   4.619   4.396
 2320SOL    HW1 7859   5.976   4.552   4.468
 2320SOL    HW2 7860   6.034   4.702   4.438
 2321SOL     OW 7861   3.870   4.907   4.240
 2321SOL    HW1 7862   3.911   4.957   4.316
 2321SOL    HW2 7863   3.771   4.911   4.247
 2322SOL     OW 7864   2.689   0.827   4.557
 2322SOL    HW1 7865   2.741   0.768   4.496
 2322SOL    HW2 7866   2.605   0.856   4.511
 2323SOL     OW 7867   4.880   3.574   2.011
 2323SOL    HW1 7868   4.979   3.566   2.024
 2323SOL    HW2 7869   4.852   3.669   2.028
 2324SOL     OW 7870   0.759   5.329   4.088
 2324SOL    HW1 7871   0.818   5.303   4.165
 2324SOL    HW2 7872   0.682   5.265   4.082
 2325SOL     OW 7873   0.139   2.261   0.274
 2325SOL    HW1 7874   0.197   2.311   0.338
 2325SOL    HW2 7875   0.167   2.165   0.270
 2326SOL     OW 7876   0.601   4.257   0.660
 2326SOL    HW1 7877   0.516   4.272   0.711
 2326SOL    HW2 7878   0.606   4.161   0.632
 2327SOL     OW 7879   4.573   1.047   3.544
 2327SOL    HW1 7880   4.505   1.028   3.615
 2327SOL    HW2 7881   4.548   1.131   3.495
 2328SOL     OW 7882   6.301   5.063   3.895
 2328SOL    HW1 7883   6.306   5.147   3.840
 2328SOL    HW2 7884   6.223   5.008   3.865
 2329SOL     OW 7885   1.200   5.880   3.263
 2329SOL    HW1 7886   1.254   5.848   3.341
 2329SOL    HW2 7887   1.206   5.814   3.189
 2330SOL     OW 7888   1.169   4.322   0.322
 2330SOL    HW1 7889   1.077   4.310   0.285
 2330SOL    HW2 7890   1.177   4.414   0.362
 2331SOL     OW 7891   0.806   4.650   5.284
 2331SOL    HW1 7892   0.812   4.699   5.370
 2331SOL    HW2 7893   0.878   4.681   5.222
 2332SOL     OW 7894   5.705   3.220   5.620
 2332SOL    HW1 7895   5.714   3.171   5.706
 2332SOL    HW2 7896   5.618   3.269   5.618
 2333SOL     OW 7897   2.579   4.543   3.384
 2333SOL    HW1 7898   2.649   4.612   3.371
 2333SOL    HW2 7899   2.562   4.530   3.482
 2334SOL     OW 7900   2.439   0.532   6.002
 2334SOL    HW1 7901   2.377   0.458   5.977
 2334SOL    HW2 7902   2.422   0.560   6.096
 2335SOL     OW 7903   4.920   4.481   4.155
 2335SOL    HW1 7904   4.953   4.426   4.232
 2335SOL    HW2 7905   4.923   4.578   4.178
 2336SOL     OW 7906   4.164   2.969   5.880
 2336SOL    HW1 7907   4.217   2.916   5.814
 2336SOL    HW2 7908   4.202   2.957   5.971
 2337SOL     OW 7909   5.768   0.253   4.658
 2337SOL    HW1 7910   5.821   0.326   4.615
 2337SOL    HW2 7911   5.671   0.266   4.638
 2338SOL     OW 7912   1.299   0.028   6.886
 2338SOL    HW1 7913   1.386   0.018   6.837
 2338SOL    HW2 7914   1.315   0.019   6.984
 2339SOL     OW 7915   4.153   4.937   6.932
 2339SOL    HW1 7916   4.172   4.925   0.014
 2339SOL    HW2 7917   4.124   5.031   6.915
 2340SOL     OW 7918   3.428   5.295   4.423
 2340SOL    HW1 7919   3.498   5.359   4.452
 2340SOL    HW2 7920   3.348   5.304   4.481
 2341SOL     OW 7921   6.336   4.882   6.645
 2341SOL    HW1 7922   6.412   4.824   6.676
 2341SOL    HW2 7923   6.277   4.904   6.723
 2342SOL     OW 7924   6.790   1.160   5.684
 2342SOL    HW1 7925   6.842   1.080   5.713
 2342SOL    HW2 7926   6.693   1.147   5.707
 2343SOL     OW 7927   0.918   6.514   0.366
 2343SOL    HW1 7928   0.943   6.470   0.452
 2343SOL    HW2 7929   0.839   6.467   0.327
 2344SOL     OW 7930   2.515   1.086   2.550
 2344SOL    HW1 7931   2.484   1.152   2.482
 2344SOL    HW2 7932   2.436   1.037   2.587
 2345SOL     OW 7933   0.953   1.803   1.812
 2345SOL    HW1 7934   0.936   1.884   1.757
 2345SOL    HW2 7935   0.880   1.736   1.797
 2346SOL     OW 7936   4.615   3.168   5.322
 2346SOL    HW1 7937   4.540   3.203   5.379
 2346SOL    HW2 7938   4.673   3.244   5.292
 2347SOL     OW 7939   1.899   3.842   0.652
 2347SOL    HW1 7940   1.983   3.801   0.617
 2347SOL    HW2 7941   1.922   3.921   0.709
 2348SOL     OW 7942   2.185   6.730   1.645
 2348SOL    HW1 7943   2.112   6.792   1.616
 2348SOL    HW2 7944   2.156   6.683   1.728
 2349SOL     OW 7945   5.435   3.710   6.715
 2349SOL    HW1 7946   5.388   3.759   6.788
 2349SOL    HW2 7947   5.518   3.761   6.690
 2350SOL     OW 7948   2.181   6.097   5.073
 2350SOL    HW1 7949   2.158   6.086   4.976
 2350SOL    HW2 7950   2.278   6.121   5.081
 2351SOL     OW 7951   1.379   4.737   2.515
 2351SOL    HW1 7952   1.441   4.755   2.439
 2351SOL    HW2 7953   1.406   4.791   2.594
 2352SOL     OW 7954   5.571   5.297   0.518
 2352SOL    HW1 7955   5.500   5.229   0.536
 2352SOL    HW2 7956   5.548   5.382   0.566
 2353SOL     OW 7957   2.654   2.991   6.008
 2353SOL    HW1 7958   2.738   3.032   5.973
 2353SOL    HW2 7959   2.584   3.061   6.020
 2354SOL     OW 7960   4.090   1.649   2.408
 2354SOL    HW1 7961   4.037   1.636   2.492
 2354SOL    HW2 7962   4.057   1.587   2.338
 2355SOL     OW 7963   0.416   1.473   1.787
 2355SOL    HW1 7964   0.451   1.552   1.737
 2355SOL    HW2 7965   0.490   1.431   1.839
 2356SOL     OW 7966   3.042   5.392   4.094
 2356SOL    HW1 7967   3.037   5.363   3.999
 2356SOL    HW2 7968   3.015   5.488   4.101
 2357SOL     OW 7969   0.899   4.884   0.482
 2357SOL    HW1 7970   0.944   4.885   0.571
 2357SOL    HW2 7971   0.936   4.810   0.426
 2358SOL     OW 7972   2.757   0.867   5.125
 2358SOL    HW1 7973   2.789   0.958   5.097
 2358SOL    HW2 7974   2.662   0.873   5.156
 2359SOL     OW 7975   2.366   2.210   5.739
 2359SOL    HW1 7976   2.361   2.206   5.839
 2359SOL    HW2 7977   2.381   2.117   5.703
 2360SOL     OW 7978   3.246   4.894   0.993
 2360SOL    HW1 7979   3.207   4.922   1.081
 2360SOL    HW2 7980   3.301   4.811   1.005
 2361SOL     OW 7981   3.345   5.664   1.176
 2361SOL    HW1 7982   3.327   5.759   1.150
 2361SOL    HW2 7983   3.334   5.654   1.275
 2362SOL     OW 7984   3.175   5.349   4.634
 2362SOL    HW1 7985   3.146   5.442   4.658
 2362SOL    HW2 7986   3.095   5.296   4.606
 2363SOL     OW 7987   2.263   4.057   0.812
 2363SOL    HW1 7988   2.283   3.965   0.845
 2363SOL    HW2 7989   2.334   4.085   0.747
 2364SOL     OW 7990   4.370   1.608   2.412
 2364SOL    HW1 7991   4.279   1.635   2.443
 2364SOL    HW2 7992   4.362   1.540   2.340
 2365SOL     OW 7993   5.711   4.232   3.116
 2365SOL    HW1 7994   5.739   4.273   3.203
 2365SOL    HW2 7995   5.623   4.270   3.088
 2366SOL     OW 7996   2.969   5.343   5.245
 2366SOL    HW1 7997   3.008   5.251   5.246
 2366SOL    HW2 7998   2.886   5.344   5.189
 2367SOL     OW 7999   6.344   4.922   5.382
 2367SOL    HW1 8000   6.260   4.955   5.426
 2367SOL    HW2 8001   6.322   4.882   5.293
 2368SOL     OW 8002   5.182   0.680   5.132
 2368SOL    HW1 8003   5.223   0.605   5.185
 2368SOL    HW2 8004   5.203   0.667   5.035
 2369SOL     OW 8005   4.044   1.667   4.588
 2369SOL    HW1 8006   4.018   1.571   4.581
 2369SOL    HW2 8007   4.011   1.704   4.675
 2370SOL     OW 8008   4.938   1.930   1.954
 2370SOL    HW1 8009   4.862   1.949   2.016
 2370SOL    HW2 8010   4.925   1.982   1.869
 2371SOL     OW 8011   1.220   6.942   1.826
 2371SOL    HW1 8012   1.302   6.892   1.800
 2371SOL    HW2 8013   1.203   6.931   1.924
 2372SOL     OW 8014   6.673   0.068   5.877
 2372SOL    HW1 8015   6.625   0.155   5.882
 2372SOL    HW2 8016   6.762   0.075   5.924
 2373SOL     OW 8017   5.755   4.294   5.928
 2373SOL    HW1 8018   5.694   4.219   5.956
 2373SOL    HW2 8019   5.705   4.357   5.869
 2374SOL     OW 8020   6.657   6.481   2.255
 2374SOL    HW1 8021   6.638   6.385   2.276
 2374SOL    HW2 8022   6.688   6.488   2.160
 2375SOL     OW 8023   1.767   6.997   4.399
 2375SOL    HW1 8024   1.787   0.023   4.488
 2375SOL    HW2 8025   1.840   0.004   4.334
 2376SOL     OW 8026   4.787   2.532   3.330
 2376SOL    HW1 8027   4.743   2.505   3.245
 2376SOL    HW2 8028   4.718   2.558   3.397
 2377SOL     OW 8029   4.261   3.910   5.711
 2377SOL    HW1 8030   4.202   3.988   5.692
 2377SOL    HW2 8031   4.289   3.867   5.626
 2378SOL     OW 8032   0.556   0.660   0.584
 2378SOL    HW1 8033   0.613   0.647   0.504
 2378SOL    HW2 8034   0.496   0.738   0.570
 2379SOL     OW 8035   0.296   4.851   2.490
 2379SOL    HW1 8036   0.268   4.909   2.566
 2379SOL    HW2 8037   0.347   4.772   2.524
 2380SOL     OW 8038   4.203   5.590   6.538
 2380SOL    HW1 8039   4.117   5.605   6.587
 2380SOL    HW2 8040   4.262   5.530   6.592
 2381SOL     OW 8041   2.033   3.614   4.110
 2381SOL    HW1 8042   2.099   3.688   4.120
 2381SOL    HW2 8043   1.993   3.592   4.199
 2382SOL     OW 8044   6.895   5.344   3.316
 2382SOL    HW1 8045   6.868   5.341   3.413
 2382SOL    HW2 8046   6.901   5.439   3.286
 2383SOL     OW 8047   5.001   3.786   5.734
 2383SOL    HW1 8048   4.936   3.711   5.725
 2383SOL    HW2 8049   5.092   3.750   5.758
 2384SOL     OW 8050   0.795   2.415   2.508
 2384SOL    HW1 8051   0.833   2.480   2.574
 2384SOL    HW2 8052   0.726   2.358   2.554
 2385SOL     OW 8053   0.357   1.228   6.923
 2385SOL    HW1 8054   0.405   1.148   6.888
 2385SOL    HW2 8055   0.379   1.307   6.866
 2386SOL     OW 8056   6.005   5.357   5.084
 2386SOL    HW1 8057   6.029   5.281   5.145
 2386SOL    HW2 8058   6.055   5.348   4.998
 2387SOL     OW 8059   0.680   0.655   3.590
 2387SOL    HW1 8060   0.651   0.667   3.495
 2387SOL    HW2 8061   0.618   0.590   3.635
 2388SOL     OW 8062   0.869   3.138   5.279
 2388SOL    HW1 8063   0.904   3.232   5.289
 2388SOL    HW2 8064   0.795   3.138   5.212
 2389SOL     OW 8065   4.255   5.668   3.459
 2389SOL    HW1 8066   4.177   5.730   3.455
 2389SOL    HW2 8067   4.294   5.670   3.552
 2390SOL     OW 8068   5.086   2.633   6.060
 2390SOL    HW1 8069   5.121   2.686   6.137
 2390SOL    HW2 8070   5.067   2.694   5.984
 2391SOL     OW 8071   3.010   3.902   6.860
 2391SOL    HW1 8072   3.099   3.880   6.822
 2391SOL    HW2 8073   3.020   3.927   6.957
 2392SOL     OW 8074   3.760   4.965   6.011
 2392SOL    HW1 8075   3.787   4.896   5.944
 2392SOL    HW2 8076   3.827   4.968   6.084
 2393SOL     OW 8077   3.827   4.355   0.347
 2393SOL    HW1 8078   3.735   4.345   0.310
 2393SOL    HW2 8079   3.862   4.265   0.374
 2394SOL     OW 8080   6.409   1.504   3.846
 2394SOL    HW1 8081   6.330   1.483   3.787
 2394SOL    HW2 8082   6.476   1.430   3.840
 2395SOL     OW 8083   1.375   2.622   3.776
 2395SOL    HW1 8084   1.391   2.696   3.841
 2395SOL    HW2 8085   1.368   2.535   3.825
 2396SOL     OW 8086   7.002   0.292   6.858
 2396SOL    HW1 8087   7.009   0.262   6.763
 2396SOL    HW2 8088   0.071   0.338   6.885
 2397SOL     OW 8089   2.261   4.411   5.170
 2397SOL    HW1 8090   2.193   4.417   5.244
 2397SOL    HW2 8091   2.351   4.435   5.206
 2398SOL     OW 8092   3.894   5.964   4.799
 2398SOL    HW1 8093   3.925   5.927   4.711
 2398SOL    HW2 8094   3.973   5.988   4.855
 2399SOL     OW 8095   3.099   1.378   2.561
 2399SOL    HW1 8096   3.106   1.474   2.589
 2399SOL    HW2 8097   3.126   1.369   2.465
 2400SOL     OW 8098   1.412   3.073   7.003
 2400SOL    HW1 8099   1.437   3.169   7.006
 2400SOL    HW2 8100   1.474   3.023   6.942
 2401SOL     OW 8101   1.687   6.546   0.196
 2401SOL    HW1 8102   1.739   6.461   0.199
 2401SOL    HW2 8103   1.740   6.617   0.150
 2402SOL     OW 8104   0.713   3.982   2.064
 2402SOL    HW1 8105   0.770   4.026   1.995
 2402SOL    HW2 8106   0.770   3.928   2.126
 2403SOL     OW 8107   3.065   3.970   5.371
 2403SOL    HW1 8108   3.048   3.960   5.273
 2403SOL    HW2 8109   3.032   4.059   5.402
 2404SOL     OW 8110   6.106   1.388   1.283
 2404SOL    HW1 8111   6.161   1.461   1.242
 2404SOL    HW2 8112   6.009   1.409   1.272
 2405SOL     OW 8113   2.243   3.163   0.796
 2405SOL    HW1 8114   2.165   3.206   0.843
 2405SOL    HW2 8115   2.209   3.103   0.724
 2406SOL     OW 8116   3.907   5.404   4.856
 2406SOL    HW1 8117   3.990   5.420   4.802
 2406SOL    HW2 8118   3.830   5.451   4.814
 2407SOL     OW 8119   2.004   1.917   3.896
 2407SOL    HW1 8120   1.960   1.982   3.958
 2407SOL    HW2 8121   2.019   1.831   3.945
 2408SOL     OW 8122   3.831   0.392   6.223
 2408SOL    HW1 8123   3.848   0.336   6.142
 2408SOL    HW2 8124   3.814   0.333   6.302
 2409SOL     OW 8125   0.691   3.165   6.787
 2409SOL    HW1 8126   0.638   3.216   6.855
 2409SOL    HW2 8127   0.639   3.161   6.701
 2410SOL     OW 8128   6.897   3.632   4.577
 2410SOL    HW1 8129   6.887   3.533   4.582
 2410SOL    HW2 8130   6.975   3.660   4.633
 2411SOL     OW 8131   2.810   1.397   6.873
 2411SOL    HW1 8132   2.857   1.318   6.912
 2411SOL    HW2 8133   2.725   1.367   6.829
 2412SOL     OW 8134   3.441   2.494   6.346
 2412SOL    HW1 8135   3.383   2.437   6.288
 2412SOL    HW2 8136   3.525   2.445   6.368
 2413SOL     OW 8137   0.159   3.587   6.757
 2413SOL    HW1 8138   0.257   3.604   6.765
 2413SOL    HW2 8139   0.108   3.667   6.790
 2414SOL     OW 8140   0.145   1.311   5.442
 2414SOL    HW1 8141   0.203   1.373   5.389
 2414SOL    HW2 8142   0.190   1.291   5.529
 2415SOL     OW 8143   3.279   4.772   6.462
 2415SOL    HW1 8144   3.332   4.793   6.380
 2415SOL    HW2 8145   3.306   4.683   6.499
 2416SOL     OW 8146   0.237   2.684   3.098
 2416SOL    HW1 8147   0.181   2.685   3.181
 2416SOL    HW2 8148   0.301   2.607   3.102
 2417SOL     OW 8149   3.367   2.547   1.304
 2417SOL    HW1 8150   3.286   2.490   1.317
 2417SOL    HW2 8151   3.441   2.512   1.362
 2418SOL     OW 8152   5.158   4.446   6.710
 2418SOL    HW1 8153   5.213   4.496   6.777
 2418SOL    HW2 8154   5.211   4.432   6.627
 2419SOL     OW 8155   3.489   0.913   3.415
 2419SOL    HW1 8156   3.532   1.001   3.393
 2419SOL    HW2 8157   3.548   0.838   3.385
 2420SOL     OW 8158   1.604   3.810   2.547
 2420SOL    HW1 8159   1.540   3.809   2.624
 2420SOL    HW2 8160   1.647   3.721   2.539
 2421SOL     OW 8161   2.959   6.698   3.684
 2421SOL    HW1 8162   2.990   6.742   3.767
 2421SOL    HW2 8163   2.959   6.763   3.609
 2422SOL     OW 8164   3.911   6.070   0.137
 2422SOL    HW1 8165   3.987   6.005   0.135
 2422SOL    HW2 8166   3.896   6.100   0.232
 2423SOL     OW 8167   2.766   5.076   4.213
 2423SOL    HW1 8168   2.683   5.129   4.199
 2423SOL    HW2 8169   2.745   4.978   4.211
 2424SOL     OW 8170   4.854   6.492   6.473
 2424SOL    HW1 8171   4.907   6.427   6.529
 2424SOL    HW2 8172   4.788   6.539   6.531
 2425SOL     OW 8173   4.159   5.307   5.260
 2425SOL    HW1 8174   4.062   5.294   5.279
 2425SOL    HW2 8175   4.178   5.405   5.253
 2426SOL     OW 8176   2.920   2.219   5.181
 2426SOL    HW1 8177   3.000   2.235   5.123
 2426SOL    HW2 8178   2.894   2.304   5.226
 2427SOL     OW 8179   4.700   1.670   0.542
 2427SOL    HW1 8180   4.692   1.768   0.524
 2427SOL    HW2 8181   4.640   1.644   0.616
 2428SOL     OW 8182   1.526   1.437   3.167
 2428SOL    HW1 8183   1.457   1.508   3.160
 2428SOL    HW2 8184   1.573   1.426   3.080
 2429SOL     OW 8185   5.924   6.065   1.145
 2429SOL    HW1 8186   6.008   6.079   1.198
 2429SOL    HW2 8187   5.846   6.060   1.207
 2430SOL     OW 8188   6.312   0.540   6.573
 2430SOL    HW1 8189   6.311   0.440   6.570
 2430SOL    HW2 8190   6.231   0.573   6.621
 2431SOL     OW 8191   1.657   2.743   1.787
 2431SOL    HW1 8192   1.609   2.765   1.872
 2431SOL    HW2 8193   1.755   2.743   1.803
 2432SOL     OW 8194   2.504   5.856   2.294
 2432SOL    HW1 8195   2.496   5.807   2.207
 2432SOL    HW2 8196   2.494   5.954   2.277
 2433SOL     OW 8197   0.396   4.161   4.760
 2433SOL    HW1 8198   0.325   4.121   4.817
 2433SOL    HW2 8199   0.485   4.121   4.784
 2434SOL     OW 8200   4.486   1.239   3.386
 2434SOL    HW1 8201   4.498   1.329   3.345
 2434SOL    HW2 8202   4.519   1.169   3.323
 2435SOL     OW 8203   6.192   6.528   6.720
 2435SOL    HW1 8204   6.255   6.566   6.788
 2435SOL    HW2 8205   6.218   6.559   6.629
 2436SOL     OW 8206   6.826   3.500   0.502
 2436SOL    HW1 8207   6.863   3.549   0.581
 2436SOL    HW2 8208   6.757   3.558   0.457
 2437SOL     OW 8209   0.217   4.429   1.252
 2437SOL    HW1 8210   0.214   4.336   1.215
 2437SOL    HW2 8211   0.233   4.425   1.350
 2438SOL     OW 8212   3.568   1.665   4.917
 2438SOL    HW1 8213   3.562   1.624   5.008
 2438SOL    HW2 8214   3.486   1.720   4.899
 2439SOL     OW 8215   0.286   5.503   0.857
 2439SOL    HW1 8216   0.191   5.477   0.877
 2439SOL    HW2 8217   0.325   5.549   0.936
 2440SOL     OW 8218   6.558   1.520   5.467
 2440SOL    HW1 8219   6.642   1.511   5.413
 2440SOL    HW2 8220   6.503   1.595   5.430
 2441SOL     OW 8221   6.439   0.919   0.839
 2441SOL    HW1 8222   6.340   0.929   0.829
 2441SOL    HW2 8223   6.481   1.009   0.848
 2442SOL     OW 8224   5.267   3.303   2.375
 2442SOL    HW1 8225   5.171   3.290   2.401
 2442SOL    HW2 8226   5.320   3.324   2.457
 2443SOL     OW 8227   0.406   3.327   1.169
 2443SOL    HW1 8228   0.424   3.331   1.070
 2443SOL    HW2 8229   0.445   3.243   1.206
 2444SOL     OW 8230   3.336   5.831   3.301
 2444SOL    HW1 8231   3.265   5.768   3.330
 2444SOL    HW2 8232   3.319   5.921   3.341
 2445SOL     OW 8233   0.630   2.342   0.783
 2445SOL    HW1 8234   0.724   2.309   0.776
 2445SOL    HW2 8235   0.619   2.392   0.869
 2446SOL     OW 8236   0.121   5.982   1.982
 2446SOL    HW1 8237   0.153   5.895   1.945
 2446SOL    HW2 8238   0.118   5.977   2.082
 2447SOL     OW 8239   1.799   0.012   0.501
 2447SOL    HW1 8240   1.734   6.973   0.447
 2447SOL    HW2 8241   1.754   0.046   0.584
 2448SOL     OW 8242   5.858   1.021   3.950
 2448SOL    HW1 8243   5.796   1.089   3.990
 2448SOL    HW2 8244   5.828   0.929   3.976
 2449SOL     OW 8245   1.732   4.204   0.762
 2449SOL    HW1 8246   1.797   4.272   0.795
 2449SOL    HW2 8247   1.648   4.251   0.731
 2450SOL     OW 8248   0.813   6.329   5.169
 2450SOL    HW1 8249   0.882   6.273   5.216
 2450SOL    HW2 8250   0.858   6.390   5.104
 2451SOL     OW 8251   2.144   6.516   6.000
 2451SOL    HW1 8252   2.104   6.440   6.051
 2451SOL    HW2 8253   2.190   6.481   5.919
 2452SOL     OW 8254   2.043   1.733   4.160
 2452SOL    HW1 8255   1.952   1.775   4.164
 2452SOL    HW2 8256   2.036   1.643   4.116
 2453SOL     OW 8257   1.467   1.913   5.820
 2453SOL    HW1 8258   1.469   1.847   5.894
 2453SOL    HW2 8259   1.372   1.934   5.797
 2454SOL     OW 8260   3.309   6.019   0.933
 2454SOL    HW1 8261   3.221   6.058   0.961
 2454SOL    HW2 8262   3.294   5.928   0.895
 2455SOL     OW 8263   4.502   1.935   0.677
 2455SOL    HW1 8264   4.593   1.949   0.638
 2455SOL    HW2 8265   4.459   2.023   0.696
 2456SOL     OW 8266   0.501   3.779   6.171
 2456SOL    HW1 8267   0.551   3.718   6.232
 2456SOL    HW2 8268   0.522   3.755   6.076
 2457SOL     OW 8269   4.275   1.792   5.903
 2457SOL    HW1 8270   4.318   1.704   5.925
 2457SOL    HW2 8271   4.297   1.817   5.808
 2458SOL     OW 8272   0.650   0.069   2.549
 2458SOL    HW1 8273   0.554   0.040   2.549
 2458SOL    HW2 8274   0.692   0.046   2.462
 2459SOL     OW 8275   2.041   6.742   1.299
 2459SOL    HW1 8276   2.032   6.840   1.312
 2459SOL    HW2 8277   2.120   6.708   1.351
 2460SOL     OW 8278   0.702   0.659   4.290
 2460SOL    HW1 8279   0.734   0.683   4.381
 2460SOL    HW2 8280   0.695   0.560   4.282
 2461SOL     OW 8281   3.398   1.563   3.764
 2461SOL    HW1 8282   3.349   1.651   3.763
 2461SOL    HW2 8283   3.349   1.497   3.708
 2462SOL     OW 8284   0.680   5.488   0.929
 2462SOL    HW1 8285   0.595   5.439   0.949
 2462SOL    HW2 8286   0.673   5.582   0.963
 2463SOL     OW 8287   6.535   6.883   0.450
 2463SOL    HW1 8288   6.541   6.971   0.403
 2463SOL    HW2 8289   6.519   6.898   0.548
 2464SOL     OW 8290   0.709   2.556   4.462
 2464SOL    HW1 8291   0.789   2.592   4.413
 2464SOL    HW2 8292   0.628   2.609   4.438
 2465SOL     OW 8293   6.519   0.464   0.339
 2465SOL    HW1 8294   6.425   0.452   0.372
 2465SOL    HW2 8295   6.538   0.396   0.269
 2466SOL     OW 8296   0.591   2.103   1.870
 2466SOL    HW1 8297   0.509   2.046   1.877
 2466SOL    HW2 8298   0.668   2.056   1.914
 2467SOL     OW 8299   5.271   3.321   4.835
 2467SOL    HW1 8300   5.196   3.334   4.770
 2467SOL    HW2 8301   5.235   3.283   4.920
 2468SOL     OW 8302   3.415   0.307   5.280
 2468SOL    HW1 8303   3.392   0.239   5.211
 2468SOL    HW2 8304   3.455   0.262   5.360
 2469SOL     OW 8305   3.396   2.196   6.223
 2469SOL    HW1 8306   3.483   2.189   6.175
 2469SOL    HW2 8307   3.337   2.262   6.177
 2470SOL     OW 8308   2.466   5.680   6.643
 2470SOL    HW1 8309   2.425   5.757   6.691
 2470SOL    HW2 8310   2.482   5.605   6.708
 2471SOL     OW 8311   2.903   5.259   2.075
 2471SOL    HW1 8312   3.002   5.257   2.061
 2471SOL    HW2 8313   2.863   5.171   2.049
 2472SOL     OW 8314   4.941   1.329   3.202
 2472SOL    HW1 8315   4.910   1.282   3.120
 2472SOL    HW2 8316   4.898   1.287   3.282
 2473SOL     OW 8317   0.606   3.815   3.721
 2473SOL    HW1 8318   0.656   3.781   3.641
 2473SOL    HW2 8319   0.554   3.740   3.762
 2474SOL     OW 8320   1.151   6.525   1.621
 2474SOL    HW1 8321   1.161   6.465   1.700
 2474SOL    HW2 8322   1.224   6.593   1.621
 2475SOL     OW 8323   5.054   1.465   0.568
 2475SOL    HW1 8324   5.002   1.385   0.540
 2475SOL    HW2 8325   5.152   1.443   0.570
 2476SOL     OW 8326   4.221   0.036   0.942
 2476SOL    HW1 8327   4.265   0.102   1.003
 2476SOL    HW2 8328   4.125   0.024   0.969
 2477SOL     OW 8329   3.758   0.202   3.783
 2477SOL    HW1 8330   3.790   0.156   3.700
 2477SOL    HW2 8331   3.793   0.296   3.784
 2478SOL     OW 8332   4.143   0.141   5.020
 2478SOL    HW1 8333   4.155   0.224   5.074
 2478SOL    HW2 8334   4.169   0.061   5.075
 2479SOL     OW 8335   5.541   3.344   0.949
 2479SOL    HW1 8336   5.511   3.431   0.987
 2479SOL    HW2 8337   5.481   3.318   0.873
 2480SOL     OW 8338   3.798   2.284   1.477
 2480SOL    HW1 8339   3.873   2.348   1.460
 2480SOL    HW2 8340   3.830   2.191   1.462
 2481SOL     OW 8341   3.228   6.692   2.321
 2481SOL    HW1 8342   3.201   6.787   2.305
 2481SOL    HW2 8343   3.320   6.689   2.358
 2482SOL     OW 8344   6.344   3.297   0.648
 2482SOL    HW1 8345   6.252   3.259   0.657
 2482SOL    HW2 8346   6.396   3.242   0.583
 2483SOL     OW 8347   1.979   2.432   0.575
 2483SOL    HW1 8348   1.919   2.408   0.499
 2483SOL    HW2 8349   1.966   2.367   0.650
 2484SOL     OW 8350   4.323   0.436   0.104
 2484SOL    HW1 8351   4.376   0.501   0.158
 2484SOL    HW2 8352   4.313   0.470   0.011
 2485SOL     OW 8353   0.455   2.274   6.115
 2485SOL    HW1 8354   0.393   2.291   6.192
 2485SOL    HW2 8355   0.526   2.210   6.144
 2486SOL     OW 8356   6.871   5.377   3.637
 2486SOL    HW1 8357   6.915   5.418   3.717
 2486SOL    HW2 8358   6.886   5.278   3.639
 2487SOL     OW 8359   4.152   6.143   6.929
 2487SOL    HW1 8360   4.130   6.077   7.001
 2487SOL    HW2 8361   4.076   6.206   6.916
 2488SOL     OW 8362   6.781   4.059   0.671
 2488SOL    HW1 8363   6.736   4.038   0.584
 2488SOL    HW2 8364   6.865   4.007   0.678
 2489SOL     OW 8365   6.210   5.150   4.144
 2489SOL    HW1 8366   6.285   5.114   4.089
 2489SOL    HW2 8367   6.136   5.180   4.085
 2490SOL     OW 8368   2.399   5.723   3.401
 2490SOL    HW1 8369   2.308   5.701   3.437
 2490SOL    HW2 8370   2.439   5.796   3.456
 2491SOL     OW 8371   3.940   4.711   1.514
 2491SOL    HW1 8372   3.862   4.653   1.537
 2491SOL    HW2 8373   4.024   4.658   1.518
 2492SOL     OW 8374   6.502   5.241   1.312
 2492SOL    HW1 8375   6.404   5.235   1.331
 2492SOL    HW2 8376   6.542   5.316   1.365
 2493SOL     OW 8377   5.436   6.535   1.133
 2493SOL    HW1 8378   5.473   6.555   1.042
 2493SOL    HW2 8379   5.507   6.553   1.202
 2494SOL     OW 8380   6.898   3.337   1.003
 2494SOL    HW1 8381   6.835   3.414   1.007
 2494SOL    HW2 8382   6.847   3.251   1.012
 2495SOL     OW 8383   0.559   3.891   1.789
 2495SOL    HW1 8384   0.602   3.882   1.879
 2495SOL    HW2 8385   0.617   3.946   1.729
 2496SOL     OW 8386   5.774   4.768   6.652
 2496SOL    HW1 8387   5.752   4.849   6.598
 2496SOL    HW2 8388   5.856   4.786   6.707
 2497SOL     OW 8389   0.370   0.015   2.056
 2497SOL    HW1 8390   0.455   0.043   2.101
 2497SOL    HW2 8391   0.292   0.047   2.110
 2498SOL     OW 8392   1.778   3.299   4.957
 2498SOL    HW1 8393   1.811   3.372   4.897
 2498SOL    HW2 8394   1.832   3.216   4.940
 2499SOL     OW 8395   6.952   3.476   1.968
 2499SOL    HW1 8396   6.989   3.427   2.047
 2499SOL    HW2 8397   6.977   3.572   1.974
 2500SOL     OW 8398   3.863   3.177   1.505
 2500SOL    HW1 8399   3.830   3.095   1.551
 2500SOL    HW2 8400   3.917   3.232   1.570
 2501SOL     OW 8401   6.507   5.583   6.219
 2501SOL    HW1 8402   6.595   5.630   6.217
 2501SOL    HW2 8403   6.470   5.578   6.126
 2502SOL     OW 8404   2.325   6.405   4.553
 2502SOL    HW1 8405   2.358   6.340   4.621
 2502SOL    HW2 8406   2.394   6.416   4.481
 2503SOL     OW 8407   2.926   6.848   5.861
 2503SOL    HW1 8408   2.859   6.831   5.934
 2503SOL    HW2 8409   2.887   6.821   5.773
 2504SOL     OW 8410   4.050   6.846   3.863
 2504SOL    HW1 8411   4.129   6.870   3.807
 2504SOL    HW2 8412   3.986   6.792   3.808
 2505SOL     OW 8413   0.095   4.209   3.937
 2505SOL    HW1 8414   0.008   4.250   3.913
 2505SOL    HW2 8415   0.158   4.217   3.859
 2506SOL     OW 8416   5.496   5.304   6.402
 2506SOL    HW1 8417   5.544   5.376   6.352
 2506SOL    HW2 8418   5.428   5.263   6.342
 2507SOL     OW 8419   6.606   3.141   2.010
 2507SOL    HW1 8420   6.518   3.107   2.041
 2507SOL    HW2 8421   6.628   3.227   2.057
 2508SOL     OW 8422   5.698   1.243   4.712
 2508SOL    HW1 8423   5.612   1.268   4.668
 2508SOL    HW2 8424   5.771   1.302   4.680
 2509SOL     OW 8425   0.243   3.010   5.950
 2509SOL    HW1 8426   0.297   3.088   5.981
 2509SOL    HW2 8427   0.277   2.926   5.993
 2510SOL     OW 8428   3.096   3.970   2.403
 2510SOL    HW1 8429   3.142   3.882   2.395
 2510SOL    HW2 8430   3.055   3.978   2.494
 2511SOL     OW 8431   2.177   0.421   4.484
 2511SOL    HW1 8432   2.252   0.400   4.547
 2511SOL    HW2 8433   2.173   0.519   4.467
 2512SOL     OW 8434   4.144   4.863   4.134
 2512SOL    HW1 8435   4.181   4.955   4.117
 2512SOL    HW2 8436   4.072   4.868   4.202
 2513SOL     OW 8437   2.203   5.279   6.108
 2513SOL    HW1 8438   2.185   5.334   6.190
 2513SOL    HW2 8439   2.116   5.257   6.063
 2514SOL     OW 8440   1.331   1.599   3.083
 2514SOL    HW1 8441   1.247   1.623   3.132
 2514SOL    HW2 8442   1.310   1.533   3.011
 2515SOL     OW 8443   0.688   1.740   1.414
 2515SOL    HW1 8444   0.676   1.828   1.460
 2515SOL    HW2 8445   0.750   1.751   1.336
 2516SOL     OW 8446   5.691   2.046   4.815
 2516SOL    HW1 8447   5.751   2.057   4.894
 2516SOL    HW2 8448   5.664   2.136   4.780
 2517SOL     OW 8449   1.414   1.162   3.951
 2517SOL    HW1 8450   1.426   1.249   3.905
 2517SOL    HW2 8451   1.403   1.089   3.883
 2518SOL     OW 8452   2.325   4.877   1.291
 2518SOL    HW1 8453   2.380   4.806   1.247
 2518SOL    HW2 8454   2.240   4.891   1.240
 2519SOL     OW 8455   1.143   1.374   0.812
 2519SOL    HW1 8456   1.054   1.328   0.819
 2519SOL    HW2 8457   1.195   1.334   0.736
 2520SOL     OW 8458   2.354   2.329   0.445
 2520SOL    HW1 8459   2.293   2.253   0.465
 2520SOL    HW2 8460   2.444   2.310   0.484
 2521SOL     OW 8461   5.084   0.927   5.118
 2521SOL    HW1 8462   5.131   0.984   5.186
 2521SOL    HW2 8463   5.109   0.831   5.132
 2522SOL     OW 8464   1.210   2.074   6.779
 2522SOL    HW1 8465   1.298   2.042   6.814
 2522SOL    HW2 8466   1.205   2.174   6.789
 2523SOL     OW 8467   1.509   5.484   6.700
 2523SOL    HW1 8468   1.570   5.532   6.637
 2523SOL    HW2 8469   1.521   5.385   6.690
 2524SOL     OW 8470   1.519   0.427   4.460
 2524SOL    HW1 8471   1.581   0.460   4.532
 2524SOL    HW2 8472   1.546   0.335   4.432
 2525SOL     OW 8473   6.414   2.655   5.403
 2525SOL    HW1 8474   6.403   2.590   5.328
 2525SOL    HW2 8475   6.502   2.641   5.447
 2526SOL     OW 8476   1.637   6.992   1.333
 2526SOL    HW1 8477   1.665   6.896   1.335
 2526SOL    HW2 8478   1.563   7.003   1.266
 2527SOL     OW 8479   4.389   5.026   6.003
 2527SOL    HW1 8480   4.340   5.061   6.083
 2527SOL    HW2 8481   4.487   5.026   6.022
 2528SOL     OW 8482   4.924   5.773   6.382
 2528SOL    HW1 8483   4.827   5.750   6.383
 2528SOL    HW2 8484   4.969   5.734   6.462
 2529SOL     OW 8485   0.562   6.501   6.396
 2529SOL    HW1 8486   0.591   6.463   6.484
 2529SOL    HW2 8487   0.628   6.474   6.326
 2530SOL     OW 8488   2.628   5.822   6.470
 2530SOL    HW1 8489   2.678   5.746   6.429
 2530SOL    HW2 8490   2.553   5.787   6.527
 2531SOL     OW 8491   6.928   5.624   6.442
 2531SOL    HW1 8492   6.918   5.581   6.531
 2531SOL    HW2 8493   6.901   5.720   6.448
 2532SOL     OW 8494   5.251   6.295   1.597
 2532SOL    HW1 8495   5.211   6.260   1.512
 2532SOL    HW2 8496   5.202   6.378   1.626
 2533SOL     OW 8497   4.609   0.701   4.197
 2533SOL    HW1 8498   4.665   0.618   4.199
 2533SOL    HW2 8499   4.512   0.676   4.198
 2534SOL     OW 8500   3.866   1.314   2.703
 2534SOL    HW1 8501   3.960   1.335   2.728
 2534SOL    HW2 8502   3.857   1.314   2.604
 2535SOL     OW 8503   4.125   2.860   6.405
 2535SOL    HW1 8504   4.219   2.893   6.416
 2535SOL    HW2 8505   4.126   2.770   6.361
 2536SOL     OW 8506   1.418   0.937   0.841
 2536SOL    HW1 8507   1.336   0.988   0.871
 2536SOL    HW2 8508   1.500   0.986   0.870
 2537SOL     OW 8509   4.178   6.964   5.973
 2537SOL    HW1 8510   4.129   0.018   5.921
 2537SOL    HW2 8511   4.148   6.873   5.945
 2538SOL     OW 8512   6.429   3.058   3.382
 2538SOL    HW1 8513   6.496   3.057   3.457
 2538SOL    HW2 8514   6.475   3.039   3.296
 2539SOL     OW 8515   5.069   2.466   5.275
 2539SOL    HW1 8516   5.143   2.433   5.334
 2539SOL    HW2 8517   5.021   2.541   5.321
 2540SOL     OW 8518   2.630   1.657   1.756
 2540SOL    HW1 8519   2.601   1.562   1.767
 2540SOL    HW2 8520   2.669   1.670   1.665
 2541SOL     OW 8521   3.738   6.846   4.787
 2541SOL    HW1 8522   3.803   6.888   4.851
 2541SOL    HW2 8523   3.770   6.859   4.693
 2542SOL     OW 8524   2.082   5.420   6.311
 2542SOL    HW1 8525   2.165   5.450   6.358
 2542SOL    HW2 8526   2.027   5.499   6.286
 2543SOL     OW 8527   1.079   1.119   3.950
 2543SOL    HW1 8528   1.144   1.134   3.876
 2543SOL    HW2 8529   1.127   1.123   4.038
 2544SOL     OW 8530   1.072   5.357   6.896
 2544SOL    HW1 8531   1.109   5.361   6.988
 2544SOL    HW2 8532   0.972   5.348   6.899
 2545SOL     OW 8533   3.143   5.667   3.410
 2545SOL    HW1 8534   3.180   5.630   3.496
 2545SOL    HW2 8535   3.100   5.594   3.358
 2546SOL     OW 8536   6.450   1.490   1.065
 2546SOL    HW1 8537   6.372   1.552   1.070
 2546SOL    HW2 8538   6.442   1.420   1.135
 2547SOL     OW 8539   0.719   3.404   5.210
 2547SOL    HW1 8540   0.700   3.472   5.281
 2547SOL    HW2 8541   0.733   3.451   5.122
 2548SOL     OW 8542   0.883   6.944   4.666
 2548SOL    HW1 8543   0.816   6.995   4.613
 2548SOL    HW2 8544   0.893   6.985   4.757
 2549SOL     OW 8545   6.454   2.632   1.749
 2549SOL    HW1 8546   6.400   2.706   1.708
 2549SOL    HW2 8547   6.549   2.639   1.719
 2550SOL     OW 8548   6.012   5.731   0.283
 2550SOL    HW1 8549   6.016   5.641   0.326
 2550SOL    HW2 8550   6.012   5.802   0.354
 2551SOL     OW 8551   1.304   4.280   6.687
 2551SOL    HW1 8552   1.335   4.349   6.622
 2551SOL    HW2 8553   1.342   4.300   6.778
 2552SOL     OW 8554   1.823   5.467   3.189
 2552SOL    HW1 8555   1.909   5.504   3.224
 2552SOL    HW2 8556   1.819   5.368   3.208
 2553SOL     OW 8557   4.017   3.714   6.690
 2553SOL    HW1 8558   3.985   3.806   6.714
 2553SOL    HW2 8559   4.048   3.713   6.595
 2554SOL     OW 8560   1.907   1.452   0.229
 2554SOL    HW1 8561   1.977   1.380   0.221
 2554SOL    HW2 8562   1.850   1.434   0.308
 2555SOL     OW 8563   6.390   0.878   0.036
 2555SOL    HW1 8564   6.404   0.976   0.047
 2555SOL    HW2 8565   6.478   0.831   0.038
 2556SOL     OW 8566   3.358   5.420   1.016
 2556SOL    HW1 8567   3.345   5.328   1.052
 2556SOL    HW2 8568   3.323   5.487   1.083
 2557SOL     OW 8569   1.946   4.423   6.698
 2557SOL    HW1 8570   1.976   4.338   6.742
 2557SOL    HW2 8571   1.905   4.402   6.609
 2558SOL     OW 8572   4.085   0.548   5.841
 2558SOL    HW1 8573   4.144   0.611   5.790
 2558SOL    HW2 8574   4.015   0.511   5.780
 2559SOL     OW 8575   0.472   5.375   4.941
 2559SOL    HW1 8576   0.400   5.310   4.920
 2559SOL    HW2 8577   0.443   5.435   5.015
 2560SOL     OW 8578   6.267   1.259   6.877
 2560SOL    HW1 8579   6.323   1.183   6.844
 2560SOL    HW2 8580   6.171   1.231   6.879
 2561SOL     OW 8581   3.160   5.156   5.063
 2561SOL    HW1 8582   3.153   5.131   4.967
 2561SOL    HW2 8583   3.226   5.230   5.073
 2562SOL     OW 8584   2.629   3.848   6.576
 2562SOL    HW1 8585   2.602   3.796   6.495
 2562SOL    HW2 8586   2.716   3.894   6.560
 2563SOL     OW 8587   1.846   1.044   0.770
 2563SOL    HW1 8588   1.931   1.005   0.733
 2563SOL    HW2 8589   1.769   1.010   0.717
 2564SOL     OW 8590   1.512   6.527   1.841
 2564SOL    HW1 8591   1.442   6.577   1.892
 2564SOL    HW2 8592   1.470   6.480   1.763
 2565SOL     OW 8593   1.271   0.831   1.741
 2565SOL    HW1 8594   1.272   0.930   1.752
 2565SOL    HW2 8595   1.272   0.787   1.831
 2566SOL     OW 8596   1.945   6.732   6.096
 2566SOL    HW1 8597   2.017   6.684   6.045
 2566SOL    HW2 8598   1.938   6.694   6.188
 2567SOL     OW 8599   0.842   0.374   0.519
 2567SOL    HW1 8600   0.847   0.431   0.437
 2567SOL    HW2 8601   0.844   0.278   0.493
 2568SOL     OW 8602   5.332   3.716   7.002
 2568SOL    HW1 8603   5.427   3.690   0.001
 2568SOL    HW2 8604   5.282   3.707   0.073
 2569SOL     OW 8605   2.911   0.685   2.956
 2569SOL    HW1 8606   2.970   0.764   2.941
 2569SOL    HW2 8607   2.842   0.707   3.025
 2570SOL     OW 8608   5.466   2.495   6.004
 2570SOL    HW1 8609   5.460   2.545   6.090
 2570SOL    HW2 8610   5.501   2.403   6.021
 2571SOL     OW 8611   0.934   3.545   4.754
 2571SOL    HW1 8612   1.027   3.514   4.730
 2571SOL    HW2 8613   0.872   3.525   4.679
 2572SOL     OW 8614   1.214   4.801   3.898
 2572SOL    HW1 8615   1.248   4.760   3.813
 2572SOL    HW2 8616   1.237   4.898   3.900
 2573SOL     OW 8617   1.177   0.274   0.720
 2573SOL    HW1 8618   1.121   0.341   0.769
 2573SOL    HW2 8619   1.152   0.182   0.749
 2574SOL     OW 8620   5.877   3.422   0.538
 2574SOL    HW1 8621   5.904   3.331   0.571
 2574SOL    HW2 8622   5.779   3.435   0.552
 2575SOL     OW 8623   0.291   5.970   6.119
 2575SOL    HW1 8624   0.390   5.957   6.123
 2575SOL    HW2 8625   0.246   5.893   6.165
 2576SOL     OW 8626   4.299   5.493   4.173
 2576SOL    HW1 8627   4.333   5.405   4.206
 2576SOL    HW2 8628   4.205   5.483   4.142
 2577SOL     OW 8629   2.345   4.376   2.056
 2577SOL    HW1 8630   2.307   4.293   2.016
 2577SOL    HW2 8631   2.275   4.421   2.111
 2578SOL     OW 8632   4.088   2.050   2.824
 2578SOL    HW1 8633   4.087   2.096   2.912
 2578SOL    HW2 8634   3.995   2.050   2.785
 2579SOL     OW 8635   0.991   6.286   3.349
 2579SOL    HW1 8636   0.939   6.371   3.356
 2579SOL    HW2 8637   1.042   6.271   3.433
 2580SOL     OW 8638   2.118   1.870   5.867
 2580SOL    HW1 8639   2.117   1.798   5.936
 2580SOL    HW2 8640   2.040   1.857   5.805
 2581SOL     OW 8641   3.398   0.616   5.575
 2581SOL    HW1 8642   3.306   0.650   5.558
 2581SOL    HW2 8643   3.460   0.694   5.588
 2582SOL     OW 8644   6.553   3.255   1.718
 2582SOL    HW1 8645   6.492   3.266   1.797
 2582SOL    HW2 8646   6.623   3.326   1.721
 2583SOL     OW 8647   5.955   0.359   0.803
 2583SOL    HW1 8648   6.026   0.340   0.872
 2583SOL    HW2 8649   5.910   0.446   0.826
 2584SOL     OW 8650   3.719   4.250   6.198
 2584SOL    HW1 8651   3.787   4.323   6.196
 2584SOL    HW2 8652   3.732   4.194   6.280
 2585SOL     OW 8653   2.976   4.743   6.415
 2585SOL    HW1 8654   3.072   4.770   6.422
 2585SOL    HW2 8655   2.969   4.643   6.415
 2586SOL     OW 8656   2.804   0.758   3.807
 2586SOL    HW1 8657   2.788   0.661   3.790
 2586SOL    HW2 8658   2.717   0.802   3.830
 2587SOL     OW 8659   6.643   0.723   4.147
 2587SOL    HW1 8660   6.706   0.743   4.222
 2587SOL    HW2 8661   6.660   0.630   4.112
 2588SOL     OW 8662   4.625   0.847   6.467
 2588SOL    HW1 8663   4.584   0.878   6.380
 2588SOL    HW2 8664   4.715   0.890   6.478
 2589SOL     OW 8665   2.225   6.759   0.468
 2589SOL    HW1 8666   2.298   6.796   0.411
 2589SOL    HW2 8667   2.263   6.720   0.552
 2590SOL     OW 8668   2.666   5.906   0.416
 2590SOL    HW1 8669   2.578   5.912   0.464
 2590SOL    HW2 8670   2.658   5.840   0.341
 2591SOL     OW 8671   6.001   5.281   3.596
 2591SOL    HW1 8672   5.914   5.294   3.548
 2591SOL    HW2 8673   6.072   5.255   3.531
 2592SOL     OW 8674   2.837   4.112   0.857
 2592SOL    HW1 8675   2.926   4.103   0.812
 2592SOL    HW2 8676   2.845   4.084   0.953
 2593SOL     OW 8677   3.454   4.274   1.041
 2593SOL    HW1 8678   3.410   4.308   1.125
 2593SOL    HW2 8679   3.490   4.182   1.057
 2594SOL     OW 8680   2.142   3.231   4.428
 2594SOL    HW1 8681   2.127   3.282   4.513
 2594SOL    HW2 8682   2.198   3.150   4.448
 2595SOL     OW 8683   2.355   1.436   2.800
 2595SOL    HW1 8684   2.435   1.417   2.744
 2595SOL    HW2 8685   2.382   1.491   2.879
 2596SOL     OW 8686   1.249   1.634   0.219
 2596SOL    HW1 8687   1.333   1.580   0.214
 2596SOL    HW2 8688   1.259   1.717   0.165
 2597SOL     OW 8689   6.715   6.376   0.238
 2597SOL    HW1 8690   6.733   6.464   0.193
 2597SOL    HW2 8691   6.625   6.343   0.212
 2598SOL     OW 8692   5.670   2.535   2.556
 2598SOL    HW1 8693   5.615   2.616   2.578
 2598SOL    HW2 8694   5.696   2.537   2.459
 2599SOL     OW 8695   2.951   5.693   2.143
 2599SOL    HW1 8696   2.964   5.659   2.236
 2599SOL    HW2 8697   2.853   5.698   2.122
 2600SOL     OW 8698   5.779   3.505   4.372
 2600SOL    HW1 8699   5.767   3.423   4.316
 2600SOL    HW2 8700   5.813   3.580   4.314
 2601SOL     OW 8701   6.487   1.237   3.746
 2601SOL    HW1 8702   6.473   1.201   3.653
 2601SOL    HW2 8703   6.584   1.228   3.770
 2602SOL     OW 8704   0.762   4.525   2.604
 2602SOL    HW1 8705   0.814   4.462   2.547
 2602SOL    HW2 8706   0.812   4.611   2.612
 2603SOL     OW 8707   2.519   6.109   2.594
 2603SOL    HW1 8708   2.422   6.134   2.598
 2603SOL    HW2 8709   2.532   6.017   2.630
 2604SOL     OW 8710   4.525   2.609   3.199
 2604SOL    HW1 8711   4.551   2.616   3.295
 2604SOL    HW2 8712   4.453   2.540   3.189
 2605SOL     OW 8713   1.637   3.810   2.018
 2605SOL    HW1 8714   1.645   3.791   2.116
 2605SOL    HW2 8715   1.728   3.828   1.980
 2606SOL     OW 8716   4.792   4.037   1.343
 2606SOL    HW1 8717   4.712   4.085   1.309
 2606SOL    HW2 8718   4.874   4.071   1.295
 2607SOL     OW 8719   2.574   2.445   1.406
 2607SOL    HW1 8720   2.572   2.476   1.311
 2607SOL    HW2 8721   2.638   2.501   1.458
 2608SOL     OW 8722   2.798   4.898   5.646
 2608SOL    HW1 8723   2.781   4.853   5.733
 2608SOL    HW2 8724   2.896   4.920   5.638
 2609SOL     OW 8725   0.613   2.430   0.524
 2609SOL    HW1 8726   0.629   2.353   0.462
 2609SOL    HW2 8727   0.613   2.397   0.619
 2610SOL     OW 8728   1.716   3.971   4.923
 2610SOL    HW1 8729   1.687   3.913   4.847
 2610SOL    HW2 8730   1.815   3.981   4.922
 2611SOL     OW 8731   4.872   0.147   6.135
 2611SOL    HW1 8732   4.889   0.065   6.189
 2611SOL    HW2 8733   4.947   0.162   6.071
 2612SOL     OW 8734   6.615   6.972   6.692
 2612SOL    HW1 8735   6.526   0.002   6.685
 2612SOL    HW2 8736   6.642   6.938   6.602
 2613SOL     OW 8737   1.135   6.584   6.729
 2613SOL    HW1 8738   1.146   6.679   6.703
 2613SOL    HW2 8739   1.159   6.572   6.826
 2614SOL     OW 8740   6.020   2.035   0.017
 2614SOL    HW1 8741   5.946   2.101   0.008
 2614SOL    HW2 8742   6.030   1.984   6.946
 2615SOL     OW 8743   0.458   3.338   6.643
 2615SOL    HW1 8744   0.536   3.348   6.581
 2615SOL    HW2 8745   0.382   3.293   6.594
 2616SOL     OW 8746   1.333   1.141   5.209
 2616SOL    HW1 8747   1.418   1.190   5.228
 2616SOL    HW2 8748   1.354   1.051   5.169
 2617SOL     OW 8749   4.867   0.459   1.711
 2617SOL    HW1 8750   4.892   0.378   1.763
 2617SOL    HW2 8751   4.919   0.461   1.625
 2618SOL     OW 8752   1.212   6.593   6.279
 2618SOL    HW1 8753   1.139   6.657   6.255
 2618SOL    HW2 8754   1.275   6.637   6.342
 2619SOL     OW 8755   4.674   0.853   2.946
 2619SOL    HW1 8756   4.715   0.896   2.866
 2619SOL    HW2 8757   4.740   0.790   2.988
 2620SOL     OW 8758   6.089   1.842   1.688
 2620SOL    HW1 8759   6.085   1.769   1.756
 2620SOL    HW2 8760   5.997   1.865   1.657
 2621SOL     OW 8761   1.831   6.087   1.480
 2621SOL    HW1 8762   1.845   6.097   1.381
 2621SOL    HW2 8763   1.880   6.006   1.512
 2622SOL     OW 8764   2.708   3.761   6.895
 2622SOL    HW1 8765   2.721   3.837   6.959
 2622SOL    HW2 8766   2.653   3.792   6.818
 2623SOL     OW 8767   0.062   6.362   3.813
 2623SOL    HW1 8768   0.010   6.292   3.765
 2623SOL    HW2 8769   0.127   6.405   3.750
 2624SOL     OW 8770   0.945   1.461   5.175
 2624SOL    HW1 8771   1.008   1.407   5.230
 2624SOL    HW2 8772   0.993   1.540   5.137
 2625SOL     OW 8773   2.645   5.237   6.487
 2625SOL    HW1 8774   2.660   5.259   6.584
 2625SOL    HW2 8775   2.598   5.149   6.480
 2626SOL     OW 8776   6.609   6.445   6.725
 2626SOL    HW1 8777   6.659   6.375   6.775
 2626SOL    HW2 8778   6.631   6.535   6.763
 2627SOL     OW 8779   2.298   0.305   5.899
 2627SOL    HW1 8780   2.276   0.239   5.827
 2627SOL    HW2 8781   2.394   0.295   5.925
 2628SOL     OW 8782   7.012   4.511   1.470
 2628SOL    HW1 8783   0.091   4.477   1.473
 2628SOL    HW2 8784   6.954   4.442   1.426
 2629SOL     OW 8785   3.334   4.124   2.489
 2629SOL    HW1 8786   3.257   4.095   2.433
 2629SOL    HW2 8787   3.393   4.045   2.508
 2630SOL     OW 8788   3.773   0.628   4.361
 2630SOL    HW1 8789   3.835   0.699   4.393
 2630SOL    HW2 8790   3.817   0.539   4.369
 2631SOL     OW 8791   5.851   6.916   0.160
 2631SOL    HW1 8792   5.874   6.852   0.233
 2631SOL    HW2 8793   5.787   6.873   0.096
 2632SOL     OW 8794   5.939   5.159   2.057
 2632SOL    HW1 8795   5.849   5.185   2.093
 2632SOL    HW2 8796   6.007   5.169   2.128
 2633SOL     OW 8797   0.391   3.279   6.046
 2633SOL    HW1 8798   0.404   3.283   5.947
 2633SOL    HW2 8799   0.425   3.364   6.088
 2634SOL     OW 8800   0.927   1.364   5.592
 2634SOL    HW1 8801   1.021   1.332   5.602
 2634SOL    HW2 8802   0.919   1.456   5.629
 2635SOL     OW 8803   4.247   5.028   3.363
 2635SOL    HW1 8804   4.244   5.108   3.423
 2635SOL    HW2 8805   4.178   5.037   3.291
 2636SOL     OW 8806   3.423   6.680   6.111
 2636SOL    HW1 8807   3.439   6.671   6.209
 2636SOL    HW2 8808   3.326   6.663   6.091
 2637SOL     OW 8809   0.538   0.470   2.995
 2637SOL    HW1 8810   0.589   0.543   2.947
 2637SOL    HW2 8811   0.595   0.388   3.000
 2638SOL     OW 8812   0.771   6.582   4.190
 2638SOL    HW1 8813   0.755   6.659   4.252
 2638SOL    HW2 8814   0.868   6.559   4.190
 2639SOL     OW 8815   4.568   4.773   4.703
 2639SOL    HW1 8816   4.573   4.846   4.634
 2639SOL    HW2 8817   4.482   4.781   4.754
 2640SOL     OW 8818   2.535   0.807   3.908
 2640SOL    HW1 8819   2.522   0.779   4.003
 2640SOL    HW2 8820   2.538   0.907   3.904
 2641SOL     OW 8821   5.232   2.080   0.151
 2641SOL    HW1 8822   5.140   2.112   0.170
 2641SOL    HW2 8823   5.282   2.066   0.237
 2642SOL     OW 8824   6.880   0.201   2.743
 2642SOL    HW1 8825   6.939   0.268   2.698
 2642SOL    HW2 8826   6.796   0.189   2.690
 2643SOL     OW 8827   1.532   4.545   4.662
 2643SOL    HW1 8828   1.500   4.589   4.747
 2643SOL    HW2 8829   1.632   4.538   4.665
 2644SOL     OW 8830   5.534   5.451   4.791
 2644SOL    HW1 8831   5.575   5.541   4.804
 2644SOL    HW2 8832   5.544   5.424   4.696
 2645SOL     OW 8833   4.678   5.982   3.070
 2645SOL    HW1 8834   4.739   5.984   3.148
 2645SOL    HW2 8835   4.718   6.033   2.994
 2646SOL     OW 8836   0.833   2.481   6.453
 2646SOL    HW1 8837   0.809   2.464   6.358
 2646SOL    HW2 8838   0.913   2.541   6.457
 2647SOL     OW 8839   4.702   6.845   2.379
 2647SOL    HW1 8840   4.713   6.933   2.425
 2647SOL    HW2 8841   4.783   6.789   2.395
 2648SOL     OW 8842   1.021   6.787   6.219
 2648SOL    HW1 8843   1.094   6.855   6.226
 2648SOL    HW2 8844   0.955   6.815   6.149
 2649SOL     OW 8845   5.240   1.604   3.526
 2649SOL    HW1 8846   5.187   1.589   3.442
 2649SOL    HW2 8847   5.191   1.667   3.585
 2650SOL     OW 8848   2.745   7.010   3.408
 2650SOL    HW1 8849   2.671   6.997   3.474
 2650SOL    HW2 8850   2.708   7.009   3.315
 2651SOL     OW 8851   3.903   1.850   4.421
 2651SOL    HW1 8852   3.951   1.791   4.488
 2651SOL    HW2 8853   3.810   1.816   4.409
 2652SOL     OW 8854   5.441   3.941   5.654
 2652SOL    HW1 8855   5.533   3.934   5.692
 2652SOL    HW2 8856   5.432   3.878   5.577
 2653SOL     OW 8857   2.277   6.266   0.143
 2653SOL    HW1 8858   2.205   6.226   0.200
 2653SOL    HW2 8859   2.303   6.355   0.180
 2654SOL     OW 8860   0.206   0.973   0.892
 2654SOL    HW1 8861   0.279   0.975   0.961
 2654SOL    HW2 8862   0.148   1.053   0.902
 2655SOL     OW 8863   5.299   6.171   2.951
 2655SOL    HW1 8864   5.276   6.081   2.915
 2655SOL    HW2 8865   5.367   6.162   3.023
 2656SOL     OW 8866   4.678   5.533   3.966
 2656SOL    HW1 8867   4.672   5.496   3.873
 2656SOL    HW2 8868   4.730   5.619   3.963
 2657SOL     OW 8869   1.365   3.499   6.556
 2657SOL    HW1 8870   1.434   3.431   6.581
 2657SOL    HW2 8871   1.386   3.585   6.601
 2658SOL     OW 8872   3.881   5.235   7.005
 2658SOL    HW1 8873   3.816   5.159   6.993
 2658SOL    HW2 8874   3.902   5.244   0.087
 2659SOL     OW 8875   0.187   2.008   5.253
 2659SOL    HW1 8876   0.237   1.939   5.200
 2659SOL    HW2 8877   0.248   2.047   5.322
 2660SOL     OW 8878   0.549   1.267   0.759
 2660SOL    HW1 8879   0.593   1.339   0.814
 2660SOL    HW2 8880   0.466   1.303   0.717
 2661SOL     OW 8881   1.772   1.389   1.250
 2661SOL    HW1 8882   1.808   1.320   1.187
 2661SOL    HW2 8883   1.767   1.478   1.204
 2662SOL     OW 8884   2.703   2.019   2.368
 2662SOL    HW1 8885   2.677   1.923   2.379
 2662SOL    HW2 8886   2.702   2.044   2.271
 2663SOL     OW 8887   3.859   6.937   0.715
 2663SOL    HW1 8888   3.911   6.852   0.708
 2663SOL    HW2 8889   3.764   6.917   0.737
 2664SOL     OW 8890   4.982   3.641   5.384
 2664SOL    HW1 8891   4.946   3.636   5.477
 2664SOL    HW2 8892   4.997   3.548   5.349
 2665SOL     OW 8893   1.536   2.911   3.706
 2665SOL    HW1 8894   1.568   2.883   3.616
 2665SOL    HW2 8895   1.468   2.985   3.696
 2666SOL     OW 8896   2.235   4.161   1.640
 2666SOL    HW1 8897   2.276   4.077   1.606
 2666SOL    HW2 8898   2.244   4.233   1.571
 2667SOL     OW 8899   6.452   2.916   5.297
 2667SOL    HW1 8900   6.441   2.830   5.346
 2667SOL    HW2 8901   6.381   2.923   5.227
 2668SOL     OW 8902   6.299   0.458   3.082
 2668SOL    HW1 8903   6.370   0.388   3.077
 2668SOL    HW2 8904   6.274   0.474   3.178
 2669SOL     OW 8905   2.628   1.142   0.759
 2669SOL    HW1 8906   2.669   1.055   0.734
 2669SOL    HW2 8907   2.564   1.129   0.835
 2670SOL     OW 8908   0.304   6.977   7.007
 2670SOL    HW1 8909   0.352   6.974   6.919
 2670SOL    HW2 8910   0.314   6.890   0.039
 2671SOL     OW 8911   5.405   5.079   5.999
 2671SOL    HW1 8912   5.306   5.061   5.997
 2671SOL    HW2 8913   5.431   5.113   6.089
 2672SOL     OW 8914   2.832   1.085   2.010
 2672SOL    HW1 8915   2.766   1.161   2.007
 2672SOL    HW2 8916   2.825   1.038   2.097
 2673SOL     OW 8917   3.667   0.221   2.580
 2673SOL    HW1 8918   3.757   0.177   2.577
 2673SOL    HW2 8919   3.624   0.203   2.668
 2674SOL     OW 8920   6.954   5.920   3.138
 2674SOL    HW1 8921   6.870   5.903   3.189
 2674SOL    HW2 8922   6.989   5.833   3.101
 2675SOL     OW 8923   5.006   1.196   4.898
 2675SOL    HW1 8924   5.016   1.296   4.901
 2675SOL    HW2 8925   5.086   1.153   4.939
 2676SOL     OW 8926   3.728   4.125   4.028
 2676SOL    HW1 8927   3.786   4.063   4.080
 2676SOL    HW2 8928   3.701   4.202   4.086
 2677SOL     OW 8929   1.638   5.677   0.952
 2677SOL    HW1 8930   1.717   5.714   0.903
 2677SOL    HW2 8931   1.554   5.719   0.917
 2678SOL     OW 8932   3.476   1.803   2.810
 2678SOL    HW1 8933   3.542   1.778   2.881
 2678SOL    HW2 8934   3.383   1.784   2.842
 2679SOL     OW 8935   1.737   3.622   2.233
 2679SOL    HW1 8936   1.706   3.565   2.157
 2679SOL    HW2 8937   1.686   3.598   2.315
 2680SOL     OW 8938   5.423   3.076   0.036
 2680SOL    HW1 8939   5.423   3.145   0.109
 2680SOL    HW2 8940   5.518   3.051   0.015
 2681SOL     OW 8941   2.078   2.243   3.337
 2681SOL    HW1 8942   1.994   2.236   3.391
 2681SOL    HW2 8943   2.056   2.275   3.245
 2682SOL     OW 8944   3.666   3.831   1.842
 2682SOL    HW1 8945   3.576   3.799   1.873
 2682SOL    HW2 8946   3.710   3.760   1.787
 2683SOL     OW 8947   2.356   3.946   1.307
 2683SOL    HW1 8948   2.351   3.846   1.308
 2683SOL    HW2 8949   2.335   3.979   1.214
 2684SOL     OW 8950   6.487   0.369   3.735
 2684SOL    HW1 8951   6.431   0.430   3.791
 2684SOL    HW2 8952   6.541   0.309   3.795
 2685SOL     OW 8953   0.794   6.270   5.502
 2685SOL    HW1 8954   0.710   6.215   5.506
 2685SOL    HW2 8955   0.785   6.340   5.431
 2686SOL     OW 8956   1.755   0.742   5.516
 2686SOL    HW1 8957   1.855   0.749   5.514
 2686SOL    HW2 8958   1.719   0.752   5.423
 2687SOL     OW 8959   4.241   1.527   1.667
 2687SOL    HW1 8960   4.267   1.598   1.602
 2687SOL    HW2 8961   4.221   1.442   1.619
 2688SOL     OW 8962   4.223   2.820   0.306
 2688SOL    HW1 8963   4.143   2.832   0.248
 2688SOL    HW2 8964   4.209   2.869   0.393
 2689SOL     OW 8965   0.919   3.729   2.934
 2689SOL    HW1 8966   0.948   3.680   3.016
 2689SOL    HW2 8967   0.824   3.705   2.912
 2690SOL     OW 8968   5.171   1.174   5.307
 2690SOL    HW1 8969   5.085   1.203   5.266
 2690SOL    HW2 8970   5.155   1.143   5.400
 2691SOL     OW 8971   0.108   3.906   5.147
 2691SOL    HW1 8972   0.182   3.936   5.207
 2691SOL    HW2 8973   0.118   3.808   5.128
 2692SOL     OW 8974   2.505   5.678   2.085
 2692SOL    HW1 8975   2.547   5.593   2.051
 2692SOL    HW2 8976   2.515   5.750   2.016
 2693SOL     OW 8977   0.964   5.242   3.058
 2693SOL    HW1 8978   1.021   5.304   3.003
 2693SOL    HW2 8979   0.931   5.291   3.139
 2694SOL     OW 8980   2.693   0.456   2.442
 2694SOL    HW1 8981   2.785   0.459   2.481
 2694SOL    HW2 8982   2.675   0.542   2.395
 2695SOL     OW 8983   6.994   4.755   3.756
 2695SOL    HW1 8984   6.985   4.678   3.820
 2695SOL    HW2 8985   0.070   4.756   3.717
 2696SOL     OW 8986   4.457   4.684   6.557
 2696SOL    HW1 8987   4.406   4.702   6.642
 2696SOL    HW2 8988   4.457   4.766   6.500
 2697SOL     OW 8989   4.110   1.888   0.508
 2697SOL    HW1 8990   4.073   1.970   0.551
 2697SOL    HW2 8991   4.035   1.830   0.476
 2698SOL     OW 8992   1.251   5.647   6.047
 2698SOL    HW1 8993   1.329   5.598   6.088
 2698SOL    HW2 8994   1.173   5.642   6.109
 2699SOL     OW 8995   2.801   6.442   2.100
 2699SOL    HW1 8996   2.757   6.517   2.149
 2699SOL    HW2 8997   2.775   6.446   2.003
 2700SOL     OW 8998   4.172   1.953   1.593
 2700SOL    HW1 8999   4.088   1.921   1.635
 2700SOL    HW2 9000   4.219   2.016   1.654
 2701SOL     OW 9001   4.919   4.053   5.023
 2701SOL    HW1 9002   4.957   4.139   4.987
 2701SOL    HW2 9003   4.952   4.038   5.116
 2702SOL     OW 9004   2.288   1.310   4.718
 2702SOL    HW1 9005   2.272   1.380   4.787
 2702SOL    HW2 9006   2.383   1.317   4.685
 2703SOL     OW 9007   2.546   6.547   2.811
 2703SOL    HW1 9008   2.525   6.466   2.865
 2703SOL    HW2 9009   2.645   6.559   2.805
 2704SOL     OW 9010   4.509   0.416   4.033
 2704SOL    HW1 9011   4.493   0.411   3.934
 2704SOL    HW2 9012   4.591   0.470   4.050
 2705SOL     OW 9013   1.377   0.552   4.958
 2705SOL    HW1 9014   1.375   0.598   5.047
 2705SOL    HW2 9015   1.448   0.482   4.958
 2706SOL     OW 9016   6.884   4.677   4.004
 2706SOL    HW1 9017   6.893   4.635   4.094
 2706SOL    HW2 9018   6.816   4.750   4.007
 2707SOL     OW 9019   4.055   1.090   3.703
 2707SOL    HW1 9020   3.961   1.123   3.699
 2707SOL    HW2 9021   4.118   1.168   3.703
 2708SOL     OW 9022   5.388   3.189   6.010
 2708SOL    HW1 9023   5.467   3.128   6.009
 2708SOL    HW2 9024   5.313   3.147   5.958
 2709SOL     OW 9025   4.744   1.864   5.718
 2709SOL    HW1 9026   4.812   1.861   5.645
 2709SOL    HW2 9027   4.658   1.898   5.682
 2710SOL     OW 9028   1.084   2.765   4.041
 2710SOL    HW1 9029   1.055   2.692   3.980
 2710SOL    HW2 9030   1.171   2.741   4.084
 2711SOL     OW 9031   3.641   1.124   2.067
 2711SOL    HW1 9032   3.616   1.047   2.125
 2711SOL    HW2 9033   3.559   1.164   2.027
 2712SOL     OW 9034   5.523   5.809   2.041
 2712SOL    HW1 9035   5.510   5.802   2.140
 2712SOL    HW2 9036   5.521   5.905   2.014
 2713SOL     OW 9037   3.653   4.919   5.501
 2713SOL    HW1 9038   3.674   4.876   5.414
 2713SOL    HW2 9039   3.719   4.992   5.520
 2714SOL     OW 9040   3.134   4.345   6.080
 2714SOL    HW1 9041   3.042   4.317   6.052
 2714SOL    HW2 9042   3.200   4.275   6.055
 2715SOL     OW 9043   4.402   6.546   6.575
 2715SOL    HW1 9044   4.466   6.477   6.609
 2715SOL    HW2 9045   4.319   6.501   6.542
 2716SOL     OW 9046   4.249   0.404   2.713
 2716SOL    HW1 9047   4.229   0.478   2.778
 2716SOL    HW2 9048   4.334   0.425   2.665
 2717SOL     OW 9049   0.790   2.001   2.064
 2717SOL    HW1 9050   0.793   2.043   2.154
 2717SOL    HW2 9051   0.883   1.994   2.028
 2718SOL     OW 9052   6.397   1.571   5.801
 2718SOL    HW1 9053   6.358   1.522   5.879
 2718SOL    HW2 9054   6.482   1.526   5.772
 2719SOL     OW 9055   1.582   4.979   3.714
 2719SOL    HW1 9056   1.570   4.894   3.766
 2719SOL    HW2 9057   1.663   4.971   3.655
 2720SOL     OW 9058   1.899   5.668   6.324
 2720SOL    HW1 9059   1.980   5.716   6.357
 2720SOL    HW2 9060   1.886   5.687   6.227
 2721SOL     OW 9061   2.422   6.572   1.702
 2721SOL    HW1 9062   2.350   6.642   1.696
 2721SOL    HW2 9063   2.511   6.615   1.689
 2722SOL     OW 9064   3.938   4.878   6.673
 2722SOL    HW1 9065   3.995   4.856   6.594
 2722SOL    HW2 9066   3.945   4.805   6.741
 2723SOL     OW 9067   3.977   5.927   6.472
 2723SOL    HW1 9068   4.068   5.968   6.469
 2723SOL    HW2 9069   3.933   5.938   6.382
 2724SOL     OW 9070   6.570   5.678   1.310
 2724SOL    HW1 9071   6.516   5.754   1.348
 2724SOL    HW2 9072   6.637   5.648   1.377
 2725SOL     OW 9073   5.719   4.510   3.588
 2725SOL    HW1 9074   5.807   4.464   3.603
 2725SOL    HW2 9075   5.652   4.475   3.653
 2726SOL     OW 9076   6.063   1.705   2.576
 2726SOL    HW1 9077   6.113   1.749   2.650
 2726SOL    HW2 9078   5.965   1.714   2.591
 2727SOL     OW 9079   1.676   5.810   3.404
 2727SOL    HW1 9080   1.720   5.823   3.493
 2727SOL    HW2 9081   1.722   5.868   3.336
 2728SOL     OW 9082   4.144   5.934   6.037
 2728SOL    HW1 9083   4.196   5.963   6.117
 2728SOL    HW2 9084   4.205   5.885   5.974
 2729SOL     OW 9085   6.253   0.236   0.165
 2729SOL    HW1 9086   6.317   0.215   0.238
 2729SOL    HW2 9087   6.238   0.335   0.160
 2730SOL     OW 9088   1.573   5.613   2.836
 2730SOL    HW1 9089   1.474   5.604   2.832
 2730SOL    HW2 9090   1.612   5.532   2.880
 2731SOL     OW 9091   3.085   3.981   4.662
 2731SOL    HW1 9092   3.158   3.966   4.595
 2731SOL    HW2 9093   3.077   3.901   4.721
 2732SOL     OW 9094   4.973   0.733   1.700
 2732SOL    HW1 9095   4.918   0.655   1.732
 2732SOL    HW2 9096   5.068   0.703   1.687
 2733SOL     OW 9097   0.703   6.302   0.277
 2733SOL    HW1 9098   0.661   6.245   0.347
 2733SOL    HW2 9099   0.642   6.308   0.198
 2734SOL     OW 9100   3.833   6.285   2.372
 2734SOL    HW1 9101   3.887   6.226   2.312
 2734SOL    HW2 9102   3.790   6.229   2.443
 2735SOL     OW 9103   0.730   1.624   1.842
 2735SOL    HW1 9104   0.765   1.536   1.874
 2735SOL    HW2 9105   0.666   1.610   1.767
 2736SOL     OW 9106   5.835   4.072   2.929
 2736SOL    HW1 9107   5.799   4.143   2.990
 2736SOL    HW2 9108   5.887   4.116   2.855
 2737SOL     OW 9109   2.894   0.667   5.493
 2737SOL    HW1 9110   2.905   0.703   5.400
 2737SOL    HW2 9111   2.866   0.571   5.488
 2738SOL     OW 9112   5.078   5.697   1.296
 2738SOL    HW1 9113   5.003   5.745   1.250
 2738SOL    HW2 9114   5.059   5.599   1.297
 2739SOL     OW 9115   6.777   5.673   1.530
 2739SOL    HW1 9116   6.865   5.715   1.508
 2739SOL    HW2 9117   6.716   5.742   1.568
 2740SOL     OW 9118   0.129   5.215   3.252
 2740SOL    HW1 9119   0.143   5.142   3.319
 2740SOL    HW2 9120   0.045   5.264   3.274
 2741SOL     OW 9121   0.899   6.753   5.714
 2741SOL    HW1 9122   0.982   6.803   5.741
 2741SOL    HW2 9123   0.902   6.735   5.616
 2742SOL     OW 9124   3.365   5.829   3.024
 2742SOL    HW1 9125   3.362   5.834   3.124
 2742SOL    HW2 9126   3.289   5.881   2.986
 2743SOL     OW 9127   4.660   1.779   2.551
 2743SOL    HW1 9128   4.709   1.848   2.603
 2743SOL    HW2 9129   4.627   1.819   2.465
 2744SOL     OW 9130   3.739   4.068   2.527
 2744SOL    HW1 9131   3.664   4.015   2.566
 2744SOL    HW2 9132   3.718   4.165   2.535
 2745SOL     OW 9133   0.726   5.611   0.360
 2745SOL    HW1 9134   0.627   5.603   0.347
 2745SOL    HW2 9135   0.745   5.646   0.452
 2746SOL     OW 9136   1.980   0.971   3.598
 2746SOL    HW1 9137   1.957   1.068   3.587
 2746SOL    HW2 9138   1.992   0.930   3.508
 2747SOL     OW 9139   4.176   4.604   0.815
 2747SOL    HW1 9140   4.100   4.539   0.811
 2747SOL    HW2 9141   4.231   4.597   0.732
 2748SOL     OW 9142   3.854   0.399   0.525
 2748SOL    HW1 9143   3.885   0.353   0.608
 2748SOL    HW2 9144   3.833   0.331   0.455
 2749SOL     OW 9145   3.203   1.735   0.867
 2749SOL    HW1 9146   3.150   1.753   0.950
 2749SOL    HW2 9147   3.155   1.772   0.788
 2750SOL     OW 9148   3.011   6.147   3.396
 2750SOL    HW1 9149   2.978   6.207   3.469
 2750SOL    HW2 9150   2.938   6.132   3.329
 2751SOL     OW 9151   6.084   4.540   0.977
 2751SOL    HW1 9152   5.994   4.550   1.018
 2751SOL    HW2 9153   6.140   4.621   0.999
 2752SOL     OW 9154   3.963   5.706   6.635
 2752SOL    HW1 9155   3.945   5.731   6.730
 2752SOL    HW2 9156   3.969   5.788   6.579
 2753SOL     OW 9157   5.333   5.768   5.406
 2753SOL    HW1 9158   5.365   5.680   5.441
 2753SOL    HW2 9159   5.391   5.797   5.330
 2754SOL     OW 9160   1.479   0.158   5.678
 2754SOL    HW1 9161   1.567   0.115   5.661
 2754SOL    HW2 9162   1.482   0.254   5.648
 2755SOL     OW 9163   3.780   0.226   2.250
 2755SOL    HW1 9164   3.873   0.265   2.249
 2755SOL    HW2 9165   3.714   0.299   2.268
 2756SOL     OW 9166   4.702   6.426   0.233
 2756SOL    HW1 9167   4.727   6.467   0.320
 2756SOL    HW2 9168   4.656   6.339   0.249
 2757SOL     OW 9169   0.894   4.898   0.766
 2757SOL    HW1 9170   0.889   4.798   0.770
 2757SOL    HW2 9171   0.987   4.928   0.787
 2758SOL     OW 9172   4.813   0.950   5.183
 2758SOL    HW1 9173   4.904   0.923   5.154
 2758SOL    HW2 9174   4.780   1.024   5.124
 2759SOL     OW 9175   4.913   4.758   4.188
 2759SOL    HW1 9176   4.838   4.792   4.132
 2759SOL    HW2 9177   4.937   4.826   4.257
 2760SOL     OW 9178   1.400   6.399   3.723
 2760SOL    HW1 9179   1.421   6.314   3.771
 2760SOL    HW2 9180   1.464   6.412   3.648
 2761SOL     OW 9181   2.472   5.187   4.018
 2761SOL    HW1 9182   2.476   5.222   4.112
 2761SOL    HW2 9183   2.484   5.088   4.020
 2762SOL     OW 9184   1.782   0.723   5.108
 2762SOL    HW1 9185   1.847   0.748   5.036
 2762SOL    HW2 9186   1.804   0.632   5.143
 2763SOL     OW 9187   4.679   1.551   2.399
 2763SOL    HW1 9188   4.672   1.625   2.466
 2763SOL    HW2 9189   4.592   1.502   2.394
 2764SOL     OW 9190   6.013   0.793   1.547
 2764SOL    HW1 9191   6.022   0.877   1.601
 2764SOL    HW2 9192   6.104   0.762   1.517
 2765SOL     OW 9193   5.155   1.850   2.587
 2765SOL    HW1 9194   5.124   1.946   2.586
 2765SOL    HW2 9195   5.217   1.836   2.664
 2766SOL     OW 9196   6.019   0.076   2.477
 2766SOL    HW1 9197   5.955   0.149   2.454
 2766SOL    HW2 9198   5.972   0.004   2.527
 2767SOL     OW 9199   6.041   4.406   5.838
 2767SOL    HW1 9200   5.996   4.316   5.833
 2767SOL    HW2 9201   6.140   4.394   5.839
 2768SOL     OW 9202   5.869   1.517   6.652
 2768SOL    HW1 9203   5.918   1.457   6.589
 2768SOL    HW2 9204   5.775   1.528   6.621
 2769SOL     OW 9205   1.232   4.259   1.292
 2769SOL    HW1 9206   1.330   4.279   1.283
 2769SOL    HW2 9207   1.181   4.313   1.225
 2770SOL     OW 9208   6.381   5.961   1.923
 2770SOL    HW1 9209   6.411   5.974   1.828
 2770SOL    HW2 9210   6.281   5.956   1.925
 2771SOL     OW 9211   5.196   1.315   1.225
 2771SOL    HW1 9212   5.206   1.219   1.199
 2771SOL    HW2 9213   5.272   1.368   1.188
 2772SOL     OW 9214   3.755   2.307   6.862
 2772SOL    HW1 9215   3.701   2.225   6.880
 2772SOL    HW2 9216   3.733   2.377   6.931
 2773SOL     OW 9217   3.182   4.555   0.874
 2773SOL    HW1 9218   3.231   4.600   0.949
 2773SOL    HW2 9219   3.135   4.625   0.820
 2774SOL     OW 9220   5.449   3.415   2.179
 2774SOL    HW1 9221   5.534   3.363   2.193
 2774SOL    HW2 9222   5.381   3.385   2.246
 2775SOL     OW 9223   6.497   0.150   1.914
 2775SOL    HW1 9224   6.504   0.122   1.819
 2775SOL    HW2 9225   6.401   0.156   1.940
 2776SOL     OW 9226   3.099   6.268   6.536
 2776SOL    HW1 9227   3.105   6.200   6.464
 2776SOL    HW2 9228   3.013   6.257   6.586
 2777SOL     OW 9229   2.233   1.897   3.722
 2777SOL    HW1 9230   2.197   1.819   3.671
 2777SOL    HW2 9231   2.162   1.933   3.783
 2778SOL     OW 9232   2.213   2.444   4.225
 2778SOL    HW1 9233   2.141   2.389   4.267
 2778SOL    HW2 9234   2.302   2.409   4.254
 2779SOL     OW 9235   6.299   1.556   0.749
 2779SOL    HW1 9236   6.241   1.623   0.702
 2779SOL    HW2 9237   6.256   1.531   0.836
 2780SOL     OW 9238   3.542   5.795   0.153
 2780SOL    HW1 9239   3.589   5.713   0.121
 2780SOL    HW2 9240   3.497   5.840   0.076
 2781SOL     OW 9241   4.634   4.556   6.809
 2781SOL    HW1 9242   4.642   4.649   6.775
 2781SOL    HW2 9243   4.550   4.514   6.773
 2782SOL     OW 9244   3.208   1.238   6.040
 2782SOL    HW1 9245   3.112   1.260   6.026
 2782SOL    HW2 9246   3.215   1.155   6.095
 2783SOL     OW 9247   0.207   4.195   5.738
 2783SOL    HW1 9248   0.129   4.182   5.800
 2783SOL    HW2 9249   0.198   4.283   5.692
 2784SOL     OW 9250   2.341   2.272   1.841
 2784SOL    HW1 9251   2.429   2.232   1.866
 2784SOL    HW2 9252   2.347   2.312   1.750
 2785SOL     OW 9253   6.012   1.069   1.606
 2785SOL    HW1 9254   5.917   1.101   1.606
 2785SOL    HW2 9255   6.064   1.122   1.540
 2786SOL     OW 9256   3.019   0.209   0.200
 2786SOL    HW1 9257   3.107   0.220   0.155
 2786SOL    HW2 9258   2.990   0.114   0.195
 2787SOL     OW 9259   1.979   3.147   5.650
 2787SOL    HW1 9260   1.918   3.090   5.596
 2787SOL    HW2 9261   2.074   3.129   5.624
 2788SOL     OW 9262   0.411   3.806   6.799
 2788SOL    HW1 9263   0.454   3.746   6.732
 2788SOL    HW2 9264   0.438   3.778   6.891
 2789SOL     OW 9265   6.974   2.680   4.041
 2789SOL    HW1 9266   6.926   2.618   3.979
 2789SOL    HW2 9267   6.935   2.772   4.031
 2790SOL     OW 9268   3.325   6.231   4.273
 2790SOL    HW1 9269   3.254   6.162   4.262
 2790SOL    HW2 9270   3.409   6.188   4.305
 2791SOL     OW 9271   2.171   2.869   2.595
 2791SOL    HW1 9272   2.234   2.811   2.544
 2791SOL    HW2 9273   2.132   2.817   2.671
 2792SOL     OW 9274   1.056   2.108   5.083
 2792SOL    HW1 9275   1.113   2.026   5.075
 2792SOL    HW2 9276   1.018   2.113   5.175
 2793SOL     OW 9277   5.110   0.889   4.085
 2793SOL    HW1 9278   5.028   0.918   4.037
 2793SOL    HW2 9279   5.181   0.960   4.077
 2794SOL     OW 9280   0.620   1.314   1.601
 2794SOL    HW1 9281   0.562   1.387   1.635
 2794SOL    HW2 9282   0.716   1.339   1.614
 2795SOL     OW 9283   1.613   4.529   1.364
 2795SOL    HW1 9284   1.670   4.544   1.283
 2795SOL    HW2 9285   1.639   4.594   1.435
 2796SOL     OW 9286   5.582   4.139   2.079
 2796SOL    HW1 9287   5.547   4.080   2.151
 2796SOL    HW2 9288   5.606   4.084   1.999
 2797SOL     OW 9289   4.489   4.530   4.738
 2797SOL    HW1 9290   4.529   4.619   4.718
 2797SOL    HW2 9291   4.449   4.531   4.830
 2798SOL     OW 9292   1.789   3.309   3.222
 2798SOL    HW1 9293   1.796   3.404   3.253
 2798SOL    HW2 9294   1.837   3.300   3.135
 2799SOL     OW 9295   6.361   5.561   5.997
 2799SOL    HW1 9296   6.341   5.593   5.905
 2799SOL    HW2 9297   6.372   5.461   5.995
 2800SOL     OW 9298   2.853   2.004   6.861
 2800SOL    HW1 9299   2.933   1.956   6.825
 2800SOL    HW2 9300   2.871   2.032   6.956
 2801SOL     OW 9301   4.442   5.592   2.701
 2801SOL    HW1 9302   4.476   5.648   2.626
 2801SOL    HW2 9303   4.490   5.615   2.785
 2802SOL     OW 9304   6.174   0.601   6.310
 2802SOL    HW1 9305   6.213   0.605   6.402
 2802SOL    HW2 9306   6.082   0.640   6.311
 2803SOL     OW 9307   2.246   5.701   5.547
 2803SOL    HW1 9308   2.156   5.673   5.581
 2803SOL    HW2 9309   2.256   5.800   5.557
 2804SOL     OW 9310   0.079   4.741   2.370
 2804SOL    HW1 9311   0.172   4.772   2.392
 2804SOL    HW2 9312   0.074   4.719   2.273
 2805SOL     OW 9313   5.306   3.917   6.363
 2805SOL    HW1 9314   5.322   3.925   6.265
 2805SOL    HW2 9315   5.319   3.822   6.392
 2806SOL     OW 9316   6.498   5.602   2.895
 2806SOL    HW1 9317   6.466   5.539   2.825
 2806SOL    HW2 9318   6.503   5.554   2.983
 2807SOL     OW 9319   4.349   4.648   4.015
 2807SOL    HW1 9320   4.366   4.634   4.113
 2807SOL    HW2 9321   4.275   4.714   4.003
 2808SOL     OW 9322   4.420   5.613   3.939
 2808SOL    HW1 9323   4.356   5.582   4.011
 2808SOL    HW2 9324   4.514   5.600   3.971
 2809SOL     OW 9325   5.357   3.018   0.564
 2809SOL    HW1 9326   5.442   2.984   0.602
 2809SOL    HW2 9327   5.294   2.942   0.548
 2810SOL     OW 9328   1.707   0.455   5.839
 2810SOL    HW1 9329   1.698   0.517   5.917
 2810SOL    HW2 9330   1.619   0.448   5.792
 2811SOL     OW 9331   0.183   0.800   4.247
 2811SOL    HW1 9332   0.157   0.753   4.331
 2811SOL    HW2 9333   0.100   0.820   4.193
 2812SOL     OW 9334   4.973   3.580   2.552
 2812SOL    HW1 9335   4.910   3.512   2.516
 2812SOL    HW2 9336   5.048   3.534   2.601
 2813SOL     OW 9337   6.136   2.030   6.320
 2813SOL    HW1 9338   6.230   2.060   6.336
 2813SOL    HW2 9339   6.119   2.024   6.222
 2814SOL     OW 9340   5.042   4.454   5.178
 2814SOL    HW1 9341   5.049   4.463   5.079
 2814SOL    HW2 9342   5.134   4.450   5.218
 2815SOL     OW 9343   6.969   1.523   4.675
 2815SOL    HW1 9344   6.922   1.465   4.741
 2815SOL    HW2 9345   0.014   1.587   4.723
 2816SOL     OW 9346   5.773   6.543   3.080
 2816SOL    HW1 9347   5.689   6.557   3.132
 2816SOL    HW2 9348   5.809   6.451   3.097
 2817SOL     OW 9349   1.184   1.586   1.294
 2817SOL    HW1 9350   1.124   1.506   1.297
 2817SOL    HW2 9351   1.213   1.611   1.386
 2818SOL     OW 9352   0.678   3.623   6.298
 2818SOL    HW1 9353   0.767   3.593   6.265
 2818SOL    HW2 9354   0.651   3.568   6.377
 2819SOL     OW 9355   6.102   3.258   0.893
 2819SOL    HW1 9356   6.149   3.201   0.962
 2819SOL    HW2 9357   6.119   3.354   0.914
 2820SOL     OW 9358   5.443   2.550   3.886
 2820SOL    HW1 9359   5.494   2.635   3.888
 2820SOL    HW2 9360   5.490   2.483   3.828
 2821SOL     OW 9361   1.297   3.265   3.886
 2821SOL    HW1 9362   1.311   3.347   3.942
 2821SOL    HW2 9363   1.270   3.188   3.945
 2822SOL     OW 9364   2.743   1.825   0.231
 2822SOL    HW1 9365   2.764   1.795   0.138
 2822SOL    HW2 9366   2.645   1.821   0.246
 2823SOL     OW 9367   2.095   6.447   3.907
 2823SOL    HW1 9368   1.997   6.425   3.905
 2823SOL    HW2 9369   2.148   6.362   3.911
 2824SOL     OW 9370   3.159   1.944   5.155
 2824SOL    HW1 9371   3.088   2.010   5.131
 2824SOL    HW2 9372   3.172   1.879   5.080
 2825SOL     OW 9373   6.293   6.030   1.110
 2825SOL    HW1 9374   6.288   5.932   1.092
 2825SOL    HW2 9375   6.389   6.059   1.109
 2826SOL     OW 9376   4.628   2.511   3.943
 2826SOL    HW1 9377   4.613   2.417   3.975
 2826SOL    HW2 9378   4.613   2.575   4.019
 2827SOL     OW 9379   5.655   0.932   6.905
 2827SOL    HW1 9380   5.598   0.850   6.914
 2827SOL    HW2 9381   5.747   0.912   6.939
 2828SOL     OW 9382   3.934   2.108   6.998
 2828SOL    HW1 9383   3.979   2.159   6.924
 2828SOL    HW2 9384   3.875   2.170   0.035
 2829SOL     OW 9385   2.293   0.160   6.813
 2829SOL    HW1 9386   2.363   0.231   6.813
 2829SOL    HW2 9387   2.239   0.167   6.896
 2830SOL     OW 9388   3.251   3.846   6.710
 2830SOL    HW1 9389   3.221   3.792   6.632
 2830SOL    HW2 9390   3.247   3.943   6.687
 2831SOL     OW 9391   6.629   5.996   4.115
 2831SOL    HW1 9392   6.671   6.073   4.067
 2831SOL    HW2 9393   6.645   6.005   4.214
 2832SOL     OW 9394   0.060   0.844   1.823
 2832SOL    HW1 9395   0.046   0.925   1.878
 2832SOL    HW2 9396   0.103   0.772   1.878
 2833SOL     OW 9397   6.199   2.886   2.218
 2833SOL    HW1 9398   6.297   2.901   2.233
 2833SOL    HW2 9399   6.184   2.859   2.123
 2834SOL     OW 9400   4.227   0.937   5.991
 2834SOL    HW1 9401   4.257   1.032   5.999
 2834SOL    HW2 9402   4.127   0.935   5.982
 2835SOL     OW 9403   0.625   6.308   3.303
 2835SOL    HW1 9404   0.699   6.245   3.278
 2835SOL    HW2 9405   0.624   6.384   3.238
 2836SOL     OW 9406   6.517   0.748   1.065
 2836SOL    HW1 9407   6.602   0.798   1.078
 2836SOL    HW2 9408   6.449   0.808   1.023
 2837SOL     OW 9409   6.492   2.841   3.608
 2837SOL    HW1 9410   6.488   2.936   3.641
 2837SOL    HW2 9411   6.567   2.832   3.542
 2838SOL     OW 9412   1.569   4.711   3.823
 2838SOL    HW1 9413   1.555   4.620   3.786
 2838SOL    HW2 9414   1.553   4.710   3.922
 2839SOL     OW 9415   5.163   2.412   1.302
 2839SOL    HW1 9416   5.079   2.465   1.295
 2839SOL    HW2 9417   5.186   2.374   1.212
 2840SOL     OW 9418   6.533   3.035   5.039
 2840SOL    HW1 9419   6.572   3.115   4.993
 2840SOL    HW2 9420   6.581   3.020   5.125
 2841SOL     OW 9421   0.410   6.349   1.627
 2841SOL    HW1 9422   0.320   6.359   1.584
 2841SOL    HW2 9423   0.454   6.439   1.631
 2842SOL     OW 9424   6.138   3.122   2.685
 2842SOL    HW1 9425   6.159   3.210   2.728
 2842SOL    HW2 9426   6.123   3.053   2.756
 2843SOL     OW 9427   4.278   1.697   4.448
 2843SOL    HW1 9428   4.243   1.707   4.355
 2843SOL    HW2 9429   4.203   1.682   4.512
 2844SOL     OW 9430   0.222   3.967   5.570
 2844SOL    HW1 9431   0.212   4.040   5.637
 2844SOL    HW2 9432   0.169   3.887   5.599
 2845SOL     OW 9433   6.644   4.158   5.952
 2845SOL    HW1 9434   6.607   4.087   6.013
 2845SOL    HW2 9435   6.643   4.125   5.858
 2846SOL     OW 9436   4.794   0.794   6.063
 2846SOL    HW1 9437   4.803   0.840   6.151
 2846SOL    HW2 9438   4.808   0.860   5.989
 2847SOL     OW 9439   4.730   4.666   3.768
 2847SOL    HW1 9440   4.685   4.722   3.698
 2847SOL    HW2 9441   4.660   4.626   3.828
 2848SOL     OW 9442   1.646   6.436   5.465
 2848SOL    HW1 9443   1.663   6.368   5.537
 2848SOL    HW2 9444   1.707   6.514   5.477
 2849SOL     OW 9445   2.275   2.935   1.428
 2849SOL    HW1 9446   2.319   2.859   1.380
 2849SOL    HW2 9447   2.344   3.002   1.454
 2850SOL     OW 9448   3.613   0.784   0.446
 2850SOL    HW1 9449   3.590   0.777   0.543
 2850SOL    HW2 9450   3.711   0.769   0.434
 2851SOL     OW 9451   2.245   4.811   6.337
 2851SOL    HW1 9452   2.180   4.887   6.326
 2851SOL    HW2 9453   2.334   4.838   6.301
 2852SOL     OW 9454   0.317   2.968   6.259
 2852SOL    HW1 9455   0.378   3.035   6.300
 2852SOL    HW2 9456   0.320   2.883   6.313
 2853SOL     OW 9457   3.361   2.812   1.381
 2853SOL    HW1 9458   3.320   2.805   1.472
 2853SOL    HW2 9459   3.352   2.724   1.334
 2854SOL     OW 9460   1.052   0.815   3.872
 2854SOL    HW1 9461   1.040   0.739   3.807
 2854SOL    HW2 9462   0.969   0.825   3.927
 2855SOL     OW 9463   2.836   1.101   5.044
 2855SOL    HW1 9464   2.847   1.193   5.079
 2855SOL    HW2 9465   2.882   1.093   4.955
 2856SOL     OW 9466   2.352   1.638   5.171
 2856SOL    HW1 9467   2.300   1.702   5.227
 2856SOL    HW2 9468   2.410   1.688   5.108
 2857SOL     OW 9469   3.422   3.664   3.340
 2857SOL    HW1 9470   3.511   3.631   3.373
 2857SOL    HW2 9471   3.437   3.730   3.266
 2858SOL     OW 9472   5.479   2.377   2.799
 2858SOL    HW1 9473   5.467   2.398   2.702
 2858SOL    HW2 9474   5.395   2.333   2.834
 2859SOL     OW 9475   5.501   6.237   0.553
 2859SOL    HW1 9476   5.432   6.227   0.481
 2859SOL    HW2 9477   5.560   6.155   0.554
 2860SOL     OW 9478   4.363   2.365   1.121
 2860SOL    HW1 9479   4.442   2.307   1.100
 2860SOL    HW2 9480   4.279   2.311   1.114
 2861SOL     OW 9481   3.431   5.200   5.668
 2861SOL    HW1 9482   3.494   5.256   5.614
 2861SOL    HW2 9483   3.463   5.105   5.669
 2862SOL     OW 9484   6.132   0.258   4.441
 2862SOL    HW1 9485   6.105   0.354   4.436
 2862SOL    HW2 9486   6.200   0.239   4.369
 2863SOL     OW 9487   6.785   1.666   6.913
 2863SOL    HW1 9488   6.763   1.650   6.817
 2863SOL    HW2 9489   6.754   1.588   6.968
 2864SOL     OW 9490   3.378   1.476   0.091
 2864SOL    HW1 9491   3.342   1.406   0.030
 2864SOL    HW2 9492   3.461   1.442   0.136
 2865SOL     OW 9493   4.564   5.181   5.148
 2865SOL    HW1 9494   4.525   5.112   5.086
 2865SOL    HW2 9495   4.522   5.171   5.238
 2866SOL     OW 9496   6.961   6.887   6.671
 2866SOL    HW1 9497   6.922   6.917   6.758
 2866SOL    HW2 9498   6.887   6.865   6.607
 2867SOL     OW 9499   6.504   3.970   3.147
 2867SOL    HW1 9500   6.532   4.019   3.065
 2867SOL    HW2 9501   6.577   3.971   3.214
 2868SOL     OW 9502   1.439   4.742   5.177
 2868SOL    HW1 9503   1.482   4.652   5.184
 2868SOL    HW2 9504   1.509   4.813   5.169
 2869SOL     OW 9505   5.875   0.759   2.592
 2869SOL    HW1 9506   5.869   0.748   2.691
 2869SOL    HW2 9507   5.865   0.670   2.548
 2870SOL     OW 9508   5.008   2.074   2.188
 2870SOL    HW1 9509   4.987   2.156   2.134
 2870SOL    HW2 9510   5.016   1.995   2.127
 2871SOL     OW 9511   2.208   1.382   6.168
 2871SOL    HW1 9512   2.231   1.439   6.247
 2871SOL    HW2 9513   2.290   1.369   6.112
 2872SOL     OW 9514   2.232   6.200   3.880
 2872SOL    HW1 9515   2.294   6.149   3.940
 2872SOL    HW2 9516   2.279   6.221   3.794
 2873SOL     OW 9517   6.883   5.501   1.718
 2873SOL    HW1 9518   6.874   5.558   1.636
 2873SOL    HW2 9519   6.926   5.554   1.790
 2874SOL     OW 9520   5.843   1.431   2.855
 2874SOL    HW1 9521   5.753   1.427   2.897
 2874SOL    HW2 9522   5.835   1.467   2.762
 2875SOL     OW 9523   2.808   5.107   1.219
 2875SOL    HW1 9524   2.898   5.067   1.236
 2875SOL    HW2 9525   2.814   5.207   1.227
 2876SOL     OW 9526   6.959   1.616   2.659
 2876SOL    HW1 9527   7.011   1.543   2.613
 2876SOL    HW2 9528   6.917   1.579   2.743
 2877SOL     OW 9529   2.277   3.127   5.917
 2877SOL    HW1 9530   2.184   3.143   5.950
 2877SOL    HW2 9531   2.276   3.053   5.850
 2878SOL     OW 9532   3.331   5.037   0.256
 2878SOL    HW1 9533   3.407   5.099   0.234
 2878SOL    HW2 9534   3.255   5.054   0.193
 2879SOL     OW 9535   4.526   5.025   0.111
 2879SOL    HW1 9536   4.492   5.085   0.183
 2879SOL    HW2 9537   4.572   4.946   0.153
 2880SOL     OW 9538   0.982   6.854   1.724
 2880SOL    HW1 9539   1.075   6.869   1.690
 2880SOL    HW2 9540   0.930   6.802   1.657
 2881SOL     OW 9541   0.448   6.939   6.757
 2881SOL    HW1 9542   0.431   6.858   6.702
 2881SOL    HW2 9543   0.524   6.991   6.719
 2882SOL     OW 9544   6.833   3.134   3.772
 2882SOL    HW1 9545   6.876   3.046   3.749
 2882SOL    HW2 9546   6.900   3.208   3.759
 2883SOL     OW 9547   4.783   6.264   2.807
 2883SOL    HW1 9548   4.813   6.256   2.712
 2883SOL    HW2 9549   4.858   6.241   2.868
 2884SOL     OW 9550   1.902   5.829   3.030
 2884SOL    HW1 9551   1.818   5.783   3.058
 2884SOL    HW2 9552   1.881   5.893   2.956
 2885SOL     OW 9553   0.812   2.382   3.638
 2885SOL    HW1 9554   0.901   2.344   3.666
 2885SOL    HW2 9555   0.772   2.432   3.714
 2886SOL     OW 9556   2.485   2.843   6.199
 2886SOL    HW1 9557   2.552   2.788   6.249
 2886SOL    HW2 9558   2.533   2.906   6.138
 2887SOL     OW 9559   2.429   1.320   5.092
 2887SOL    HW1 9560   2.371   1.242   5.118
 2887SOL    HW2 9561   2.370   1.394   5.058
 2888SOL     OW 9562   0.031   5.023   6.944
 2888SOL    HW1 9563   0.106   4.979   6.895
 2888SOL    HW2 9564   0.061   5.050   0.020
 2889SOL     OW 9565   0.349   6.812   1.339
 2889SOL    HW1 9566   0.381   6.869   1.415
 2889SOL    HW2 9567   0.350   6.865   1.254
 2890SOL     OW 9568   2.905   6.802   0.473
 2890SOL    HW1 9569   2.990   6.827   0.425
 2890SOL    HW2 9570   2.888   6.867   0.547
 2891SOL     OW 9571   2.656   4.826   4.194
 2891SOL    HW1 9572   2.649   4.743   4.251
 2891SOL    HW2 9573   2.571   4.878   4.201
 2892SOL     OW 9574   4.305   4.316   5.686
 2892SOL    HW1 9575   4.371   4.257   5.639
 2892SOL    HW2 9576   4.353   4.372   5.754
 2893SOL     OW 9577   3.184   0.702   5.837
 2893SOL    HW1 9578   3.145   0.613   5.861
 2893SOL    HW2 9579   3.201   0.706   5.739
 2894SOL     OW 9580   3.338   2.588   1.010
 2894SOL    HW1 9581   3.326   2.547   1.101
 2894SOL    HW2 9582   3.252   2.580   0.959
 2895SOL     OW 9583   3.093   3.376   6.890
 2895SOL    HW1 9584   3.059   3.454   6.943
 2895SOL    HW2 9585   3.151   3.319   6.949
 2896SOL     OW 9586   2.620   5.442   0.746
 2896SOL    HW1 9587   2.576   5.529   0.769
 2896SOL    HW2 9588   2.564   5.393   0.679
 2897SOL     OW 9589   1.761   6.606   3.802
 2897SOL    HW1 9590   1.743   6.610   3.900
 2897SOL    HW2 9591   1.748   6.512   3.769
 2898SOL     OW 9592   2.557   5.028   2.699
 2898SOL    HW1 9593   2.645   5.074   2.691
 2898SOL    HW2 9594   2.484   5.092   2.674
 2899SOL     OW 9595   6.596   0.819   0.623
 2899SOL    HW1 9596   6.667   0.887   0.606
 2899SOL    HW2 9597   6.543   0.846   0.705
 2900SOL     OW 9598   2.669   5.874   6.135
 2900SOL    HW1 9599   2.618   5.870   6.221
 2900SOL    HW2 9600   2.662   5.787   6.087
 2901SOL     OW 9601   2.794   0.304   1.509
 2901SOL    HW1 9602   2.825   0.221   1.554
 2901SOL    HW2 9603   2.863   0.375   1.518
 2902SOL     OW 9604   5.806   5.247   1.799
 2902SOL    HW1 9605   5.722   5.195   1.780
 2902SOL    HW2 9606   5.844   5.217   1.886
 2903SOL     OW 9607   2.659   2.294   1.842
 2903SOL    HW1 9608   2.628   2.378   1.797
 2903SOL    HW2 9609   2.744   2.313   1.892
 2904SOL     OW 9610   1.889   3.192   4.395
 2904SOL    HW1 9611   1.986   3.190   4.419
 2904SOL    HW2 9612   1.878   3.174   4.297
 2905SOL     OW 9613   0.921   2.192   1.482
 2905SOL    HW1 9614   1.002   2.245   1.508
 2905SOL    HW2 9615   0.889   2.221   1.392
 2906SOL     OW 9616   5.255   5.823   2.242
 2906SOL    HW1 9617   5.159   5.833   2.267
 2906SOL    HW2 9618   5.288   5.909   2.201
 2907SOL     OW 9619   6.371   0.597   4.213
 2907SOL    HW1 9620   6.435   0.660   4.257
 2907SOL    HW2 9621   6.281   0.606   4.255
 2908SOL     OW 9622   4.141   6.175   5.016
 2908SOL    HW1 9623   4.201   6.174   5.096
 2908SOL    HW2 9624   4.049   6.205   5.044
 2909SOL     OW 9625   1.365   6.189   5.700
 2909SOL    HW1 9626   1.272   6.202   5.664
 2909SOL    HW2 9627   1.360   6.153   5.793
 2910SOL     OW 9628   4.881   6.416   5.923
 2910SOL    HW1 9629   4.891   6.488   5.855
 2910SOL    HW2 9630   4.970   6.396   5.965
 2911SOL     OW 9631   2.185   4.103   3.616
 2911SOL    HW1 9632   2.220   4.137   3.529
 2911SOL    HW2 9633   2.115   4.165   3.651
 2912SOL     OW 9634   2.737   5.206   0.825
 2912SOL    HW1 9635   2.692   5.139   0.765
 2912SOL    HW2 9636   2.694   5.295   0.813
 2913SOL     OW 9637   1.187   3.231   2.961
 2913SOL    HW1 9638   1.283   3.219   2.938
 2913SOL    HW2 9639   1.179   3.264   3.055
 2914SOL     OW 9640   4.933   5.211   5.558
 2914SOL    HW1 9641   5.032   5.201   5.549
 2914SOL    HW2 9642   4.888   5.142   5.501
 2915SOL     OW 9643   4.160   1.285   3.992
 2915SOL    HW1 9644   4.132   1.198   3.952
 2915SOL    HW2 9645   4.085   1.350   3.987
 2916SOL     OW 9646   4.632   5.723   4.309
 2916SOL    HW1 9647   4.604   5.761   4.220
 2916SOL    HW2 9648   4.561   5.660   4.341
 2917SOL     OW 9649   4.350   1.316   2.594
 2917SOL    HW1 9650   4.283   1.244   2.577
 2917SOL    HW2 9651   4.353   1.378   2.515
 2918SOL     OW 9652   0.543   3.284   3.727
 2918SOL    HW1 9653   0.574   3.247   3.639
 2918SOL    HW2 9654   0.608   3.353   3.758
 2919SOL     OW 9655   6.543   6.058   0.204
 2919SOL    HW1 9656   6.515   6.012   0.289
 2919SOL    HW2 9657   6.495   6.145   0.195
 2920SOL     OW 9658   4.285   2.352   2.902
 2920SOL    HW1 9659   4.363   2.407   2.932
 2920SOL    HW2 9660   4.295   2.332   2.804
 2921SOL     OW 9661   0.432   6.941   1.560
 2921SOL    HW1 9662   0.398   6.943   1.654
 2921SOL    HW2 9663   0.532   6.945   1.561
 2922SOL     OW 9664   4.297   6.368   5.508
 2922SOL    HW1 9665   4.227   6.297   5.503
 2922SOL    HW2 9666   4.374   6.335   5.562
 2923SOL     OW 9667   0.219   4.276   0.231
 2923SOL    HW1 9668   0.314   4.258   0.258
 2923SOL    HW2 9669   0.211   4.371   0.201
 2924SOL     OW 9670   6.040   0.061   5.648
 2924SOL    HW1 9671   5.949   0.025   5.671
 2924SOL    HW2 9672   6.063   0.136   5.710
 2925SOL     OW 9673   5.716   3.681   1.201
 2925SOL    HW1 9674   5.743   3.775   1.180
 2925SOL    HW2 9675   5.639   3.681   1.264
 2926SOL     OW 9676   6.996   1.259   3.836
 2926SOL    HW1 9677   6.909   1.286   3.795
 2926SOL    HW2 9678   6.992   1.272   3.935
 2927SOL     OW 9679   0.398   2.841   2.571
 2927SOL    HW1 9680   0.315   2.882   2.536
 2927SOL    HW2 9681   0.408   2.748   2.534
 2928SOL     OW 9682   5.679   6.181   1.321
 2928SOL    HW1 9683   5.635   6.203   1.408
 2928SOL    HW2 9684   5.614   6.135   1.261
 2929SOL     OW 9685   1.131   0.478   5.826
 2929SOL    HW1 9686   1.098   0.467   5.732
 2929SOL    HW2 9687   1.091   0.407   5.884
 2930SOL     OW 9688   3.615   6.376   4.784
 2930SOL    HW1 9689   3.633   6.470   4.816
 2930SOL    HW2 9690   3.673   6.313   4.836
 2931SOL     OW 9691   3.635   5.301   6.812
 2931SOL    HW1 9692   3.686   5.384   6.833
 2931SOL    HW2 9693   3.697   5.231   6.778
 2932SOL     OW 9694   1.091   4.349   1.910
 2932SOL    HW1 9695   1.171   4.323   1.855
 2932SOL    HW2 9696   1.121   4.370   2.003
 2933SOL     OW 9697   4.930   1.620   3.309
 2933SOL    HW1 9698   4.953   1.535   3.262
 2933SOL    HW2 9699   4.865   1.672   3.254
 2934SOL     OW 9700   2.358   1.074   0.357
 2934SOL    HW1 9701   2.447   1.103   0.323
 2934SOL    HW2 9702   2.369   1.033   0.447
 2935SOL     OW 9703   6.662   2.130   1.037
 2935SOL    HW1 9704   6.612   2.044   1.025
 2935SOL    HW2 9705   6.716   2.148   0.954
 2936SOL     OW 9706   3.601   6.023   0.896
 2936SOL    HW1 9707   3.509   6.031   0.933
 2936SOL    HW2 9708   3.598   5.976   0.808
 2937SOL     OW 9709   2.443   4.115   0.343
 2937SOL    HW1 9710   2.428   4.121   0.244
 2937SOL    HW2 9711   2.527   4.162   0.367
 2938SOL     OW 9712   5.239   4.909   5.585
 2938SOL    HW1 9713   5.255   4.981   5.518
 2938SOL    HW2 9714   5.145   4.876   5.578
 2939SOL     OW 9715   6.967   6.793   5.814
 2939SOL    HW1 9716   6.888   6.731   5.813
 2939SOL    HW2 9717   0.025   6.754   5.759
 2940SOL     OW 9718   4.134   0.545   5.474
 2940SOL    HW1 9719   4.138   0.599   5.390
 2940SOL    HW2 9720   4.098   0.454   5.453
 2941SOL     OW 9721   3.155   1.655   5.753
 2941SOL    HW1 9722   3.098   1.733   5.777
 2941SOL    HW2 9723   3.222   1.640   5.826
 2942SOL     OW 9724   3.741   6.088   4.509
 2942SOL    HW1 9725   3.792   6.102   4.424
 2942SOL    HW2 9726   3.803   6.055   4.580
 2943SOL     OW 9727   5.524   3.844   2.792
 2943SOL    HW1 9728   5.460   3.849   2.869
 2943SOL    HW2 9729   5.503   3.762   2.737
 2944SOL     OW 9730   4.130   6.125   6.658
 2944SOL    HW1 9731   4.184   6.053   6.616
 2944SOL    HW2 9732   4.154   6.133   6.755
 2945SOL     OW 9733   2.998   3.718   3.183
 2945SOL    HW1 9734   2.951   3.735   3.097
 2945SOL    HW2 9735   3.049   3.800   3.210
 2946SOL     OW 9736   0.010   5.860   5.966
 2946SOL    HW1 9737   6.972   5.931   5.919
 2946SOL    HW2 9738   7.006   5.864   6.064
 2947SOL     OW 9739   0.180   5.028   0.372
 2947SOL    HW1 9740   0.173   5.079   0.458
 2947SOL    HW2 9741   0.276   5.022   0.346
 2948SOL     OW 9742   5.791   4.382   5.254
 2948SOL    HW1 9743   5.759   4.288   5.258
 2948SOL    HW2 9744   5.720   4.439   5.211
 2949SOL     OW 9745   1.175   6.304   0.875
 2949SOL    HW1 9746   1.189   6.371   0.801
 2949SOL    HW2 9747   1.198   6.213   0.842
 2950SOL     OW 9748   5.151   3.879   4.507
 2950SOL    HW1 9749   5.177   3.870   4.411
 2950SOL    HW2 9750   5.083   3.810   4.530
 2951SOL     OW 9751   5.876   1.064   1.236
 2951SOL    HW1 9752   5.965   1.098   1.267
 2951SOL    HW2 9753   5.869   0.966   1.256
 2952SOL     OW 9754   1.477   4.047   2.005
 2952SOL    HW1 9755   1.533   4.104   1.945
 2952SOL    HW2 9756   1.534   3.973   2.042
 2953SOL     OW 9757   5.500   0.915   2.322
 2953SOL    HW1 9758   5.401   0.923   2.328
 2953SOL    HW2 9759   5.526   0.882   2.232
 2954SOL     OW 9760   5.865   6.151   1.661
 2954SOL    HW1 9761   5.769   6.125   1.671
 2954SOL    HW2 9762   5.876   6.208   1.580
 2955SOL     OW 9763   6.527   2.723   0.698
 2955SOL    HW1 9764   6.475   2.800   0.738
 2955SOL    HW2 9765   6.471   2.640   0.702
 2956SOL     OW 9766   6.521   5.364   2.690
 2956SOL    HW1 9767   6.514   5.438   2.623
 2956SOL    HW2 9768   6.458   5.290   2.666
 2957SOL     OW 9769   1.045   4.541   1.547
 2957SOL    HW1 9770   1.036   4.582   1.456
 2957SOL    HW2 9771   0.993   4.594   1.614
 2958SOL     OW 9772   3.677   4.867   6.566
 2958SOL    HW1 9773   3.661   4.788   6.507
 2958SOL    HW2 9774   3.774   4.870   6.592
 2959SOL     OW 9775   4.419   6.069   6.938
 2959SOL    HW1 9776   4.337   6.120   6.913
 2959SOL    HW2 9777   4.491   6.132   6.966
 2960SOL     OW 9778   2.635   1.617   6.623
 2960SOL    HW1 9779   2.587   1.562   6.692
 2960SOL    HW2 9780   2.612   1.713   6.635
 2961SOL     OW 9781   5.496   2.306   4.450
 2961SOL    HW1 9782   5.427   2.379   4.443
 2961SOL    HW2 9783   5.450   2.220   4.472
 2962SOL     OW 9784   3.702   1.214   3.178
 2962SOL    HW1 9785   3.669   1.132   3.131
 2962SOL    HW2 9786   3.696   1.292   3.115
 2963SOL     OW 9787   2.204   3.091   5.529
 2963SOL    HW1 9788   2.273   3.140   5.477
 2963SOL    HW2 9789   2.186   3.002   5.485
 2964SOL     OW 9790   2.812   6.136   0.354
 2964SOL    HW1 9791   2.757   6.203   0.403
 2964SOL    HW2 9792   2.773   6.045   0.365
 2965SOL     OW 9793   0.323   2.330   5.859
 2965SOL    HW1 9794   0.345   2.427   5.851
 2965SOL    HW2 9795   0.383   2.287   5.927
 2966SOL     OW 9796   4.652   4.411   3.436
 2966SOL    HW1 9797   4.592   4.432   3.513
 2966SOL    HW2 9798   4.732   4.471   3.438
 2967SOL     OW 9799   5.812   2.300   4.057
 2967SOL    HW1 9800   5.892   2.281   4.115
 2967SOL    HW2 9801   5.729   2.288   4.111
 2968SOL     OW 9802   6.762   4.102   3.530
 2968SOL    HW1 9803   6.709   4.026   3.493
 2968SOL    HW2 9804   6.790   4.163   3.456
 2969SOL     OW 9805   4.378   1.388   4.445
 2969SOL    HW1 9806   4.378   1.355   4.350
 2969SOL    HW2 9807   4.349   1.483   4.447
 2970SOL     OW 9808   0.970   4.897   6.459
 2970SOL    HW1 9809   0.903   4.942   6.399
 2970SOL    HW2 9810   1.062   4.928   6.435
 2971SOL     OW 9811   5.126   3.407   3.318
 2971SOL    HW1 9812   5.042   3.459   3.331
 2971SOL    HW2 9813   5.196   3.465   3.276
 2972SOL     OW 9814   0.780   3.987   5.933
 2972SOL    HW1 9815   0.822   3.998   6.023
 2972SOL    HW2 9816   0.763   3.890   5.916
 2973SOL     OW 9817   5.447   6.928   4.527
 2973SOL    HW1 9818   5.535   6.930   4.573
 2973SOL    HW2 9819   5.392   6.852   4.563
 2974SOL     OW 9820   0.315   4.147   2.557
 2974SOL    HW1 9821   0.399   4.156   2.611
 2974SOL    HW2 9822   0.245   4.208   2.595
 2975SOL     OW 9823   0.423   1.395   4.268
 2975SOL    HW1 9824   0.357   1.430   4.334
 2975SOL    HW2 9825   0.512   1.386   4.311
 2976SOL     OW 9826   2.829   5.989   1.541
 2976SOL    HW1 9827   2.924   6.019   1.550
 2976SOL    HW2 9828   2.822   5.894   1.570
 2977SOL     OW 9829   3.872   6.123   4.271
 2977SOL    HW1 9830   3.894   6.220   4.279
 2977SOL    HW2 9831   3.955   6.069   4.284
 2978SOL     OW 9832   3.555   6.181   0.284
 2978SOL    HW1 9833   3.504   6.262   0.311
 2978SOL    HW2 9834   3.533   6.158   0.189
 2979SOL     OW 9835   3.146   1.091   3.492
 2979SOL    HW1 9836   3.066   1.039   3.462
 2979SOL    HW2 9837   3.177   1.150   3.418
 2980SOL     OW 9838   6.747   6.391   3.756
 2980SOL    HW1 9839   6.761   6.486   3.727
 2980SOL    HW2 9840   6.795   6.330   3.694
 2981SOL     OW 9841   1.847   1.502   5.563
 2981SOL    HW1 9842   1.781   1.550   5.506
 2981SOL    HW2 9843   1.881   1.563   5.634
 2982SOL     OW 9844   4.892   6.728   3.024
 2982SOL    HW1 9845   4.901   6.735   3.123
 2982SOL    HW2 9846   4.963   6.783   2.980
 2983SOL     OW 9847   0.018   6.973   2.470
 2983SOL    HW1 9848   6.975   0.006   2.405
 2983SOL    HW2 9849   0.091   0.019   2.501
 2984SOL     OW 9850   6.105   5.241   1.680
 2984SOL    HW1 9851   6.099   5.325   1.733
 2984SOL    HW2 9852   6.016   5.195   1.680
 2985SOL     OW 9853   6.575   1.433   3.512
 2985SOL    HW1 9854   6.607   1.460   3.421
 2985SOL    HW2 9855   6.519   1.350   3.504
 2986SOL     OW 9856   2.276   3.769   5.302
 2986SOL    HW1 9857   2.335   3.837   5.258
 2986SOL    HW2 9858   2.321   3.680   5.298
 2987SOL     OW 9859   4.560   1.841   4.405
 2987SOL    HW1 9860   4.601   1.931   4.391
 2987SOL    HW2 9861   4.526   1.834   4.499
 2988SOL     OW 9862   0.672   0.233   1.703
 2988SOL    HW1 9863   0.648   0.180   1.784
 2988SOL    HW2 9864   0.681   0.330   1.729
 2989SOL     OW 9865   6.755   5.112   0.803
 2989SOL    HW1 9866   6.844   5.085   0.767
 2989SOL    HW2 9867   6.713   5.034   0.850
 2990SOL     OW 9868   3.076   0.174   0.837
 2990SOL    HW1 9869   3.086   0.149   0.741
 2990SOL    HW2 9870   3.016   0.254   0.845
 2991SOL     OW 9871   6.416   4.578   0.166
 2991SOL    HW1 9872   6.379   4.507   0.107
 2991SOL    HW2 9873   6.405   4.551   0.262
 2992SOL     OW 9874   4.190   4.555   6.787
 2992SOL    HW1 9875   4.232   4.641   6.758
 2992SOL    HW2 9876   4.141   4.570   6.873
 2993SOL     OW 9877   1.909   5.582   0.052
 2993SOL    HW1 9878   1.834   5.600   0.115
 2993SOL    HW2 9879   1.925   5.483   0.047
 2994SOL     OW 9880   3.744   6.269   0.036
 2994SOL    HW1 9881   3.802   6.195   0.070
 2994SOL    HW2 9882   3.757   6.280   6.953
 2995SOL     OW 9883   2.648   0.767   5.655
 2995SOL    HW1 9884   2.605   0.857   5.646
 2995SOL    HW2 9885   2.713   0.753   5.581
 2996SOL     OW 9886   4.209   5.730   5.631
 2996SOL    HW1 9887   4.287   5.699   5.578
 2996SOL    HW2 9888   4.125   5.715   5.579
 2997SOL     OW 9889   4.873   6.657   0.173
 2997SOL    HW1 9890   4.792   6.600   0.157
 2997SOL    HW2 9891   4.844   6.752   0.187
 2998SOL     OW 9892   6.122   5.101   5.139
 2998SOL    HW1 9893   6.069   5.064   5.216
 2998SOL    HW2 9894   6.219   5.091   5.157
 2999SOL     OW 9895   3.070   6.652   2.081
 2999SOL    HW1 9896   3.089   6.577   2.017
 2999SOL    HW2 9897   3.121   6.636   2.166
 3000SOL     OW 9898   1.388   2.387   4.516
 3000SOL    HW1 9899   1.326   2.390   4.595
 3000SOL    HW2 9900   1.444   2.470   4.515
 3001SOL     OW 9901   4.610   0.061   6.139
 3001SOL    HW1 9902   4.705   0.092   6.137
 3001SOL    HW2 9903   4.551   0.131   6.098
 3002SOL     OW 9904   2.945   0.086   5.684
 3002SOL    HW1 9905   2.948   0.007   5.745
 3002SOL    HW2 9906   2.853   0.126   5.686
 3003SOL     OW 9907   2.235   6.862   6.448
 3003SOL    HW1 9908   2.297   6.856   6.526
 3003SOL    HW2 9909   2.157   6.920   6.473
 3004SOL     OW 9910   6.270   3.569   5.102
 3004SOL    HW1 9911   6.289   3.498   5.169
 3004SOL    HW2 9912   6.173   3.593   5.105
 3005SOL     OW 9913   4.540   2.366   1.428
 3005SOL    HW1 9914   4.518   2.340   1.522
 3005SOL    HW2 9915   4.631   2.332   1.404
 3006SOL     OW 9916   5.139   0.690   1.150
 3006SOL    HW1 9917   5.068   0.698   1.220
 3006SOL    HW2 9918   5.117   0.750   1.074
 3007SOL     OW 9919   6.732   5.482   2.065
 3007SOL    HW1 9920   6.735   5.439   1.975
 3007SOL    HW2 9921   6.805   5.551   2.071
 3008SOL     OW 9922   4.302   5.805   5.880
 3008SOL    HW1 9923   4.273   5.778   5.788
 3008SOL    HW2 9924   4.398   5.832   5.879
 3009SOL     OW 9925   0.936   0.942   2.464
 3009SOL    HW1 9926   0.936   0.996   2.548
 3009SOL    HW2 9927   1.021   0.889   2.458
 3010SOL     OW 9928   3.010   6.504   2.639
 3010SOL    HW1 9929   3.090   6.541   2.685
 3010SOL    HW2 9930   3.039   6.454   2.557
 3011SOL     OW 9931   5.705   0.553   0.119
 3011SOL    HW1 9932   5.803   0.572   0.118
 3011SOL    HW2 9933   5.679   0.504   0.035
 3012SOL     OW 9934   0.193   4.656   2.078
 3012SOL    HW1 9935   0.140   4.639   1.995
 3012SOL    HW2 9936   0.290   4.659   2.056
 3013SOL     OW 9937   6.202   3.907   2.244
 3013SOL    HW1 9938   6.122   3.966   2.230
 3013SOL    HW2 9939   6.246   3.932   2.330
 3014SOL     OW 9940   5.185   0.504   5.391
 3014SOL    HW1 9941   5.114   0.474   5.328
 3014SOL    HW2 9942   5.146   0.514   5.483
 3015SOL     OW 9943   3.194   2.254   6.939
 3015SOL    HW1 9944   3.187   2.346   6.898
 3015SOL    HW2 9945   3.171   2.186   6.870
 3016SOL     OW 9946   4.004   6.286   3.736
 3016SOL    HW1 9947   4.080   6.341   3.700
 3016SOL    HW2 9948   3.985   6.210   3.674
 3017SOL     OW 9949   6.969   5.997   0.988
 3017SOL    HW1 9950   6.957   5.939   0.908
 3017SOL    HW2 9951   0.022   5.956   1.049
 3018SOL     OW 9952   3.882   6.936   6.210
 3018SOL    HW1 9953   3.807   6.982   6.163
 3018SOL    HW2 9954   3.875   6.837   6.197
 3019SOL     OW 9955   5.056   6.608   1.990
 3019SOL    HW1 9956   5.066   6.675   2.063
 3019SOL    HW2 9957   4.960   6.596   1.967
 3020SOL     OW 9958   2.103   1.499   1.169
 3020SOL    HW1 9959   2.197   1.482   1.198
 3020SOL    HW2 9960   2.040   1.451   1.231
 3021SOL     OW 9961   3.853   1.086   6.324
 3021SOL    HW1 9962   3.934   1.029   6.334
 3021SOL    HW2 9963   3.794   1.077   6.405
 3022SOL     OW 9964   5.495   6.889   1.790
 3022SOL    HW1 9965   5.523   6.795   1.810
 3022SOL    HW2 9966   5.548   6.924   1.713
 3023SOL     OW 9967   5.309   0.124   1.375
 3023SOL    HW1 9968   5.286   0.039   1.328
 3023SOL    HW2 9969   5.306   0.200   1.310
 3024SOL     OW 9970   2.939   6.758   6.912
 3024SOL    HW1 9971   2.884   6.740   6.993
 3024SOL    HW2 9972   2.919   6.689   6.842
 3025SOL     OW 9973   1.536   2.174   1.662
 3025SOL    HW1 9974   1.622   2.123   1.658
 3025SOL    HW2 9975   1.526   2.216   1.752
 3026SOL     OW 9976   1.579   4.928   0.551
 3026SOL    HW1 9977   1.582   4.883   0.461
 3026SOL    HW2 9978   1.617   5.020   0.542
 3027SOL     OW 9979   1.656   1.381   4.322
 3027SOL    HW1 9980   1.693   1.426   4.241
 3027SOL    HW2 9981   1.626   1.288   4.298
 3028SOL     OW 9982   1.635   0.965   4.751
 3028SOL    HW1 9983   1.602   0.909   4.826
 3028SOL    HW2 9984   1.587   0.941   4.667
 3029SOL     OW 9985   5.488   5.439   5.975
 3029SOL    HW1 9986   5.451   5.389   5.898
 3029SOL    HW2 9987   5.507   5.534   5.948
 3030SOL     OW 9988   1.206   1.552   5.725
 3030SOL    HW1 9989   1.205   1.457   5.694
 3030SOL    HW2 9990   1.251   1.609   5.656
 3031SOL     OW 9991   1.240   5.449   6.683
 3031SOL    HW1 9992   1.337   5.474   6.683
 3031SOL    HW2 9993   1.217   5.405   6.769
 3032SOL     OW 9994   4.211   0.710   5.677
 3032SOL    HW1 9995   4.306   0.740   5.673
 3032SOL    HW2 9996   4.191   0.649   5.601
 3033SOL     OW 9997   5.302   5.020   6.429
 3033SOL    HW1 9998   5.245   4.946   6.464
 3033SOL    HW2 9999   5.397   4.989   6.426
 3034SOL     OW10000   2.448   0.069   4.173
 3034SOL    HW110001   2.460   0.010   4.252
 3034SOL    HW210002   2.354   0.102   4.169
 3035SOL     OW10003   6.652   6.675   6.875
 3035SOL    HW110004   6.670   6.773   6.875
 3035SOL    HW210005   6.678   6.636   6.963
 3036SOL     OW10006   1.121   4.784   5.965
 3036SOL    HW110007   1.042   4.798   6.025
 3036SOL    HW210008   1.126   4.859   5.899
 3037SOL     OW10009   6.434   0.227   5.531
 3037SOL    HW110010   6.417   0.129   5.539
 3037SOL    HW210011   6.523   0.241   5.487
 3038SOL     OW10012   5.916   6.634   5.654
 3038SOL    HW110013   5.983   6.631   5.728
 3038SOL    HW210014   5.964   6.628   5.566
 3039SOL     OW10015   6.995   4.610   0.398
 3039SOL    HW110016   0.056   4.593   0.335
 3039SOL    HW210017   6.938   4.683   0.362
 3040SOL     OW10018   1.999   2.156   6.911
 3040SOL    HW110019   1.946   2.107   6.980
 3040SOL    HW210020   2.088   2.182   6.949
 3041SOL     OW10021   1.787   1.857   6.087
 3041SOL    HW110022   1.782   1.813   5.997
 3041SOL    HW210023   1.763   1.791   6.158
 3042SOL     OW10024   5.246   6.984   2.128
 3042SOL    HW110025   5.176   6.913   2.137
 3042SOL    HW210026   5.317   6.969   2.198
 3043SOL     OW10027   6.669   5.052   0.503
 3043SOL    HW110028   6.701   5.102   0.583
 3043SOL    HW210029   6.569   5.043   0.506
 3044SOL     OW10030   3.092   3.646   5.375
 3044SOL    HW110031   3.161   3.719   5.375
 3044SOL    HW210032   3.037   3.654   5.292
 3045SOL     OW10033   5.600   1.935   3.946
 3045SOL    HW110034   5.549   2.021   3.941
 3045SOL    HW210035   5.603   1.904   4.041
 3046SOL     OW10036   2.362   2.239   6.061
 3046SOL    HW110037   2.364   2.336   6.088
 3046SOL    HW210038   2.453   2.200   6.071
 3047SOL     OW10039   0.065   4.573   1.805
 3047SOL    HW110040   0.074   4.484   1.848
 3047SOL    HW210041   7.000   4.574   1.745
 3048SOL     OW10042   2.997   2.589   1.742
 3048SOL    HW110043   2.965   2.683   1.756
 3048SOL    HW210044   2.960   2.530   1.813
 3049SOL     OW10045   0.937   0.204   1.909
 3049SOL    HW110046   0.855   0.153   1.935
 3049SOL    HW210047   0.957   0.189   1.812
 3050SOL     OW10048   2.793   6.089   4.023
 3050SOL    HW110049   2.822   6.031   3.947
 3050SOL    HW210050   2.769   6.180   3.988
 3051SOL     OW10051   2.480   4.466   5.289
 3051SOL    HW110052   2.472   4.554   5.335
 3051SOL    HW210053   2.573   4.431   5.298
 3052SOL     OW10054   4.979   6.519   2.583
 3052SOL    HW110055   4.976   6.500   2.681
 3052SOL    HW210056   5.031   6.603   2.566
 3053SOL     OW10057   4.882   6.849   1.250
 3053SOL    HW110058   4.816   6.833   1.324
 3053SOL    HW210059   4.944   6.923   1.276
 3054SOL     OW10060   2.338   3.663   5.788
 3054SOL    HW110061   2.300   3.694   5.876
 3054SOL    HW210062   2.264   3.655   5.721
 3055SOL     OW10063   5.895   6.299   3.166
 3055SOL    HW110064   5.895   6.224   3.099
 3055SOL    HW210065   5.834   6.276   3.242
 3056SOL     OW10066   6.505   0.828   1.335
 3056SOL    HW110067   6.541   0.776   1.258
 3056SOL    HW210068   6.408   0.804   1.349
 3057SOL     OW10069   6.548   6.061   2.538
 3057SOL    HW110070   6.499   6.113   2.468
 3057SOL    HW210071   6.576   6.122   2.612
 3058SOL     OW10072   6.364   5.429   1.612
 3058SOL    HW110073   6.373   5.515   1.663
 3058SOL    HW210074   6.304   5.367   1.662
 3059SOL     OW10075   2.089   2.637   4.915
 3059SOL    HW110076   2.167   2.676   4.867
 3059SOL    HW210077   2.097   2.657   5.013
 3060SOL     OW10078   6.996   6.428   0.741
 3060SOL    HW110079   7.003   6.410   0.839
 3060SOL    HW210080   0.062   6.478   0.710
 3061SOL     OW10081   0.115   0.417   6.132
 3061SOL    HW110082   0.085   0.467   6.051
 3061SOL    HW210083   0.035   0.382   6.180
 3062SOL     OW10084   2.911   5.560   6.096
 3062SOL    HW110085   2.985   5.627   6.088
 3062SOL    HW210086   2.936   5.477   6.047
 3063SOL     OW10087   1.915   5.550   0.762
 3063SOL    HW110088   1.860   5.492   0.702
 3063SOL    HW210089   1.893   5.528   0.858
 3064SOL     OW10090   6.933   4.526   3.445
 3064SOL    HW110091   0.003   4.577   3.434
 3064SOL    HW210092   6.865   4.559   3.380
 3065SOL     OW10093   2.498   1.345   1.057
 3065SOL    HW110094   2.436   1.368   1.132
 3065SOL    HW210095   2.448   1.289   0.990
 3066SOL     OW10096   5.359   5.772   0.930
 3066SOL    HW110097   5.348   5.810   1.022
 3066SOL    HW210098   5.340   5.674   0.931
 3067SOL     OW10099   4.774   6.494   3.512
 3067SOL    HW110100   4.684   6.513   3.474
 3067SOL    HW210101   4.840   6.483   3.437
 3068SOL     OW10102   5.784   4.862   0.195
 3068SOL    HW110103   5.717   4.929   0.163
 3068SOL    HW210104   5.860   4.910   0.239
 3069SOL     OW10105   1.046   5.574   3.645
 3069SOL    HW110106   1.127   5.523   3.618
 3069SOL    HW210107   1.035   5.653   3.584
 3070SOL     OW10108   4.045   1.422   4.444
 3070SOL    HW110109   4.046   1.388   4.538
 3070SOL    HW210110   4.056   1.345   4.381
 3071SOL     OW10111   5.796   0.738   3.990
 3071SOL    HW110112   5.782   0.712   3.895
 3071SOL    HW210113   5.892   0.725   4.014
 3072SOL     OW10114   0.734   0.583   2.224
 3072SOL    HW110115   0.769   0.525   2.151
 3072SOL    HW210116   0.783   0.670   2.223
 3073SOL     OW10117   1.811   2.591   4.326
 3073SOL    HW110118   1.799   2.492   4.323
 3073SOL    HW210119   1.909   2.613   4.323
 3074SOL     OW10120   4.791   3.592   5.987
 3074SOL    HW110121   4.756   3.684   5.968
 3074SOL    HW210122   4.722   3.541   6.038
 3075SOL     OW10123   0.468   5.806   1.395
 3075SOL    HW110124   0.463   5.896   1.350
 3075SOL    HW210125   0.515   5.815   1.482
 3076SOL     OW10126   0.879   0.355   4.926
 3076SOL    HW110127   0.894   0.438   4.980
 3076SOL    HW210128   0.846   0.379   4.835
 3077SOL     OW10129   5.308   4.267   3.696
 3077SOL    HW110130   5.303   4.268   3.597
 3077SOL    HW210131   5.218   4.245   3.734
 3078SOL     OW10132   2.386   3.349   0.592
 3078SOL    HW110133   2.332   3.324   0.672
 3078SOL    HW210134   2.446   3.273   0.567
 3079SOL     OW10135   5.619   2.803   6.492
 3079SOL    HW110136   5.620   2.704   6.480
 3079SOL    HW210137   5.707   2.833   6.530
 3080SOL     OW10138   5.997   5.966   0.881
 3080SOL    HW110139   5.914   6.002   0.839
 3080SOL    HW210140   5.995   5.984   0.980
 3081SOL     OW10141   6.649   5.163   6.019
 3081SOL    HW110142   6.567   5.200   6.063
 3081SOL    HW210143   6.690   5.093   6.077
 3082SOL     OW10144   2.293   0.134   2.442
 3082SOL    HW110145   2.214   0.075   2.462
 3082SOL    HW210146   2.350   0.092   2.372
 3083SOL     OW10147   3.378   0.684   2.084
 3083SOL    HW110148   3.444   0.639   2.024
 3083SOL    HW210149   3.342   0.618   2.150
 3084SOL     OW10150   4.802   6.287   4.501
 3084SOL    HW110151   4.717   6.300   4.449
 3084SOL    HW210152   4.828   6.373   4.544
 3085SOL     OW10153   0.952   6.150   1.584
 3085SOL    HW110154   1.034   6.174   1.533
 3085SOL    HW210155   0.955   6.191   1.675
 3086SOL     OW10156   5.784   1.650   4.066
 3086SOL    HW110157   5.698   1.617   4.025
 3086SOL    HW210158   5.813   1.732   4.018
 3087SOL     OW10159   5.537   3.167   2.487
 3087SOL    HW110160   5.616   3.144   2.544
 3087SOL    HW210161   5.569   3.202   2.399
 3088SOL     OW10162   3.106   4.198   5.758
 3088SOL    HW110163   3.121   4.112   5.709
 3088SOL    HW210164   3.183   4.216   5.818
 3089SOL     OW10165   2.218   2.564   0.553
 3089SOL    HW110166   2.278   2.491   0.521
 3089SOL    HW210167   2.129   2.526   0.578
 3090SOL     OW10168   0.596   1.460   1.128
 3090SOL    HW110169   0.527   1.530   1.147
 3090SOL    HW210170   0.567   1.373   1.168
 3091SOL     OW10171   2.649   0.157   0.915
 3091SOL    HW110172   2.705   0.144   0.997
 3091SOL    HW210173   2.622   0.068   0.879
 3092SOL     OW10174   4.025   6.320   0.795
 3092SOL    HW110175   4.049   6.234   0.841
 3092SOL    HW210176   3.939   6.309   0.746
 3093SOL     OW10177   4.938   5.871   3.579
 3093SOL    HW110178   5.017   5.835   3.631
 3093SOL    HW210179   4.877   5.919   3.641
 3094SOL     OW10180   3.406   4.917   5.616
 3094SOL    HW110181   3.479   4.942   5.553
 3094SOL    HW210182   3.387   4.820   5.609
 3095SOL     OW10183   2.571   4.659   4.429
 3095SOL    HW110184   2.671   4.666   4.434
 3095SOL    HW210185   2.538   4.605   4.506
 3096SOL     OW10186   0.071   0.785   5.046
 3096SOL    HW110187   0.019   0.703   5.070
 3096SOL    HW210188   0.021   0.866   5.078
 3097SOL     OW10189   1.881   2.891   0.169
 3097SOL    HW110190   1.931   2.970   0.203
 3097SOL    HW210191   1.849   2.836   0.246
 3098SOL     OW10192   4.263   2.151   0.698
 3098SOL    HW110193   4.309   2.237   0.675
 3098SOL    HW210194   4.166   2.157   0.672
 3099SOL     OW10195   1.158   5.979   5.038
 3099SOL    HW110196   1.213   6.012   4.962
 3099SOL    HW210197   1.180   5.883   5.056
 3100SOL     OW10198   6.254   5.668   0.103
 3100SOL    HW110199   6.274   5.759   0.067
 3100SOL    HW210200   6.197   5.676   0.185
 3101SOL     OW10201   4.544   6.959   0.794
 3101SOL    HW110202   4.575   6.982   0.886
 3101SOL    HW210203   4.481   6.882   0.797
 3102SOL     OW10204   0.618   5.386   0.682
 3102SOL    HW110205   0.540   5.448   0.671
 3102SOL    HW210206   0.685   5.427   0.744
 3103SOL     OW10207   4.160   3.783   1.890
 3103SOL    HW110208   4.173   3.868   1.940
 3103SOL    HW210209   4.240   3.766   1.832
 3104SOL     OW10210   6.647   5.101   3.689
 3104SOL    HW110211   6.614   5.032   3.754
 3104SOL    HW210212   6.578   5.116   3.619
 3105SOL     OW10213   6.203   6.183   3.723
 3105SOL    HW110214   6.161   6.151   3.809
 3105SOL    HW210215   6.218   6.281   3.728
 3106SOL     OW10216   6.718   3.162   4.386
 3106SOL    HW110217   6.675   3.252   4.389
 3106SOL    HW210218   6.812   3.171   4.352
 3107SOL     OW10219   2.837   0.219   3.557
 3107SOL    HW110220   2.853   0.181   3.466
 3107SOL    HW210221   2.745   0.196   3.588
 3108SOL     OW10222   3.364   0.611   3.244
 3108SOL    HW110223   3.405   0.525   3.275
 3108SOL    HW210224   3.316   0.654   3.321
 3109SOL     OW10225   4.539   6.236   2.950
 3109SOL    HW110226   4.620   6.208   2.898
 3109SOL    HW210227   4.563   6.243   3.047
 3110SOL     OW10228   0.859   2.778   2.149
 3110SOL    HW110229   0.787   2.846   2.138
 3110SOL    HW210230   0.819   2.690   2.171
 3111SOL     OW10231   6.489   4.857   3.536
 3111SOL    HW110232   6.573   4.849   3.591
 3111SOL    HW210233   6.415   4.809   3.582
 3112SOL     OW10234   3.171   3.629   6.561
 3112SOL    HW110235   3.228   3.561   6.607
 3112SOL    HW210236   3.075   3.603   6.572
 3113SOL     OW10237   3.963   0.036   4.051
 3113SOL    HW110238   3.980   6.988   3.975
 3113SOL    HW210239   3.970   0.130   4.018
 3114SOL     OW10240   5.280   5.493   0.874
 3114SOL    HW110241   5.350   5.480   0.804
 3114SOL    HW210242   5.316   5.463   0.963
 3115SOL     OW10243   2.660   3.451   1.781
 3115SOL    HW110244   2.703   3.496   1.859
 3115SOL    HW210245   2.561   3.443   1.798
 3116SOL     OW10246   6.716   1.669   6.664
 3116SOL    HW110247   6.626   1.713   6.663
 3116SOL    HW210248   6.736   1.633   6.573
 3117SOL     OW10249   4.048   3.644   5.425
 3117SOL    HW110250   3.990   3.595   5.359
 3117SOL    HW210251   4.006   3.733   5.445
 3118SOL     OW10252   5.926   5.208   0.251
 3118SOL    HW110253   5.987   5.129   0.253
 3118SOL    HW210254   5.877   5.210   0.164
 3119SOL     OW10255   1.969   4.942   5.851
 3119SOL    HW110256   1.981   4.847   5.821
 3119SOL    HW210257   2.053   4.973   5.896
 3120SOL     OW10258   2.826   5.786   5.760
 3120SOL    HW110259   2.867   5.751   5.676
 3120SOL    HW210260   2.806   5.884   5.748
 3121SOL     OW10261   0.434   5.727   3.062
 3121SOL    HW110262   0.501   5.718   2.988
 3121SOL    HW210263   0.371   5.802   3.042
 3122SOL     OW10264   2.435   5.103   0.855
 3122SOL    HW110265   2.349   5.152   0.872
 3122SOL    HW210266   2.480   5.084   0.942
 3123SOL     OW10267   3.806   6.550   4.936
 3123SOL    HW110268   3.870   6.571   4.862
 3123SOL    HW210269   3.849   6.484   4.999
 3124SOL     OW10270   3.870   0.275   5.906
 3124SOL    HW110271   3.798   0.328   5.862
 3124SOL    HW210272   3.955   0.282   5.853
 3125SOL     OW10273   6.807   2.149   5.762
 3125SOL    HW110274   6.829   2.108   5.673
 3125SOL    HW210275   6.874   2.220   5.783
 3126SOL     OW10276   3.408   6.803   0.359
 3126SOL    HW110277   3.444   6.746   0.433
 3126SOL    HW210278   3.464   6.791   0.277
 3127SOL     OW10279   1.675   1.037   3.888
 3127SOL    HW110280   1.657   1.132   3.867
 3127SOL    HW210281   1.589   0.988   3.904
 3128SOL     OW10282   1.137   0.855   0.260
 3128SOL    HW110283   1.094   0.765   0.266
 3128SOL    HW210284   1.075   0.924   0.298
 3129SOL     OW10285   1.805   2.612   3.708
 3129SOL    HW110286   1.772   2.678   3.775
 3129SOL    HW210287   1.898   2.584   3.732
 3130SOL     OW10288   2.360   5.575   3.170
 3130SOL    HW110289   2.387   5.640   3.241
 3130SOL    HW210290   2.260   5.567   3.169
 3131SOL     OW10291   0.272   3.226   3.724
 3131SOL    HW110292   0.245   3.131   3.713
 3131SOL    HW210293   0.372   3.233   3.725
 3132SOL     OW10294   5.069   6.306   5.131
 3132SOL    HW110295   5.139   6.291   5.061
 3132SOL    HW210296   4.978   6.305   5.088
 3133SOL     OW10297   2.455   1.648   2.958
 3133SOL    HW110298   2.424   1.612   3.046
 3133SOL    HW210299   2.450   1.748   2.960
 3134SOL     OW10300   5.145   3.599   2.072
 3134SOL    HW110301   5.217   3.602   2.142
 3134SOL    HW210302   5.188   3.599   1.982
 3135SOL     OW10303   2.826   1.460   3.178
 3135SOL    HW110304   2.872   1.441   3.091
 3135SOL    HW210305   2.741   1.409   3.184
 3136SOL     OW10306   6.399   6.623   5.228
 3136SOL    HW110307   6.349   6.655   5.309
 3136SOL    HW210308   6.496   6.614   5.251
 3137SOL     OW10309   6.757   2.061   4.626
 3137SOL    HW110310   6.733   2.140   4.682
 3137SOL    HW210311   6.856   2.046   4.630
 3138SOL     OW10312   5.379   1.764   4.693
 3138SOL    HW110313   5.477   1.779   4.699
 3138SOL    HW210314   5.349   1.772   4.598
 3139SOL     OW10315   4.915   6.509   5.253
 3139SOL    HW110316   4.860   6.452   5.315
 3139SOL    HW210317   4.980   6.451   5.204
 3140SOL     OW10318   6.600   6.017   6.132
 3140SOL    HW110319   6.554   5.955   6.068
 3140SOL    HW210320   6.552   6.014   6.220
 3141SOL     OW10321   0.941   5.412   0.851
 3141SOL    HW110322   0.862   5.464   0.883
 3141SOL    HW210323   0.932   5.396   0.752
 3142SOL     OW10324   3.502   0.097   6.185
 3142SOL    HW110325   3.525   0.020   6.244
 3142SOL    HW210326   3.572   0.106   6.113
 3143SOL     OW10327   0.211   1.526   0.384
 3143SOL    HW110328   0.211   1.509   0.285
 3143SOL    HW210329   0.299   1.566   0.410
 3144SOL     OW10330   1.500   3.883   5.969
 3144SOL    HW110331   1.467   3.789   5.958
 3144SOL    HW210332   1.445   3.928   6.039
 3145SOL     OW10333   3.759   6.014   3.910
 3145SOL    HW110334   3.690   5.957   3.954
 3145SOL    HW210335   3.715   6.084   3.855
 3146SOL     OW10336   2.038   0.526   3.823
 3146SOL    HW110337   2.124   0.487   3.790
 3146SOL    HW210338   1.962   0.481   3.778
 3147SOL     OW10339   3.738   4.026   0.767
 3147SOL    HW110340   3.706   4.109   0.722
 3147SOL    HW210341   3.785   3.969   0.700
 3148SOL     OW10342   3.630   5.446   5.226
 3148SOL    HW110343   3.609   5.536   5.188
 3148SOL    HW210344   3.616   5.447   5.325
 3149SOL     OW10345   3.095   6.313   6.159
 3149SOL    HW110346   3.030   6.302   6.085
 3149SOL    HW210347   3.123   6.409   6.166
 3150SOL     OW10348   0.083   0.144   3.961
 3150SOL    HW110349   0.090   0.103   4.052
 3150SOL    HW210350   0.152   0.215   3.951
 3151SOL     OW10351   3.736   0.204   0.364
 3151SOL    HW110352   3.763   0.109   0.383
 3151SOL    HW210353   3.673   0.206   0.287
 3152SOL     OW10354   1.365   5.171   6.958
 3152SOL    HW110355   1.290   5.105   6.953
 3152SOL    HW210356   1.431   5.143   0.013
 3153SOL     OW10357   6.876   4.230   2.683
 3153SOL    HW110358   6.910   4.258   2.594
 3153SOL    HW210359   6.949   4.239   2.751
 3154SOL     OW10360   5.576   2.488   6.784
 3154SOL    HW110361   5.484   2.518   6.810
 3154SOL    HW210362   5.582   2.388   6.794
 3155SOL     OW10363   4.205   6.326   0.187
 3155SOL    HW110364   4.127   6.376   0.149
 3155SOL    HW210365   4.290   6.375   0.164
 3156SOL     OW10366   3.804   3.439   3.164
 3156SOL    HW110367   3.721   3.384   3.150
 3156SOL    HW210368   3.829   3.436   3.261
 3157SOL     OW10369   1.855   2.684   4.651
 3157SOL    HW110370   1.901   2.770   4.627
 3157SOL    HW210371   1.865   2.619   4.575
 3158SOL     OW10372   3.837   6.108   1.012
 3158SOL    HW110373   3.835   6.089   1.111
 3158SOL    HW210374   3.745   6.100   0.974
 3159SOL     OW10375   5.704   4.692   0.418
 3159SOL    HW110376   5.747   4.738   0.341
 3159SOL    HW210377   5.610   4.726   0.429
 3160SOL     OW10378   5.800   4.969   0.606
 3160SOL    HW110379   5.766   4.879   0.580
 3160SOL    HW210380   5.733   5.039   0.581
 3161SOL     OW10381   0.540   1.979   2.597
 3161SOL    HW110382   0.450   1.934   2.602
 3161SOL    HW210383   0.598   1.943   2.670
 3162SOL     OW10384   6.148   6.886   5.930
 3162SOL    HW110385   6.118   6.977   5.958
 3162SOL    HW210386   6.242   6.871   5.959
 3163SOL     OW10387   2.480   4.769   5.156
 3163SOL    HW110388   2.456   4.745   5.250
 3163SOL    HW210389   2.553   4.838   5.157
 3164SOL     OW10390   5.869   5.549   6.118
 3164SOL    HW110391   5.861   5.474   6.051
 3164SOL    HW210392   5.799   5.539   6.188
 3165SOL     OW10393   0.050   2.738   1.246
 3165SOL    HW110394   0.082   2.807   1.180
 3165SOL    HW210395   0.056   2.775   1.339
 3166SOL     OW10396   5.001   3.203   6.523
 3166SOL    HW110397   4.975   3.179   6.429
 3166SOL    HW210398   5.008   3.302   6.531
 3167SOL     OW10399   0.328   4.247   2.004
 3167SOL    HW110400   0.342   4.323   1.940
 3167SOL    HW210401   0.324   4.161   1.953
 3168SOL     OW10402   4.872   3.433   0.721
 3168SOL    HW110403   4.879   3.334   0.708
 3168SOL    HW210404   4.907   3.480   0.640
 3169SOL     OW10405   1.847   1.988   4.961
 3169SOL    HW110406   1.938   1.948   4.973
 3169SOL    HW210407   1.820   1.981   4.865
 3170SOL     OW10408   4.947   0.849   5.629
 3170SOL    HW110409   4.909   0.914   5.564
 3170SOL    HW210410   4.875   0.791   5.665
 3171SOL     OW10411   6.412   0.128   2.950
 3171SOL    HW110412   6.336   0.090   3.002
 3171SOL    HW210413   6.458   0.198   3.005
 3172SOL     OW10414   5.757   0.362   6.147
 3172SOL    HW110415   5.809   0.394   6.226
 3172SOL    HW210416   5.733   0.266   6.159
 3173SOL     OW10417   1.841   1.547   1.730
 3173SOL    HW110418   1.908   1.563   1.656
 3173SOL    HW210419   1.837   1.628   1.788
 3174SOL     OW10420   2.056   3.322   6.457
 3174SOL    HW110421   2.113   3.385   6.404
 3174SOL    HW210422   2.025   3.367   6.540
 3175SOL     OW10423   6.871   5.795   0.764
 3175SOL    HW110424   6.791   5.843   0.799
 3175SOL    HW210425   6.892   5.826   0.671
 3176SOL     OW10426   1.393   6.175   6.616
 3176SOL    HW110427   1.310   6.132   6.579
 3176SOL    HW210428   1.435   6.115   6.683
 3177SOL     OW10429   1.060   6.599   4.123
 3177SOL    HW110430   1.108   6.577   4.038
 3177SOL    HW210431   1.014   6.687   4.113
 3178SOL     OW10432   2.606   3.590   0.657
 3178SOL    HW110433   2.699   3.568   0.686
 3178SOL    HW210434   2.553   3.506   0.646
 3179SOL     OW10435   1.402   2.529   3.169
 3179SOL    HW110436   1.490   2.482   3.161
 3179SOL    HW210437   1.414   2.626   3.151
 3180SOL     OW10438   5.593   1.655   6.234
 3180SOL    HW110439   5.678   1.682   6.189
 3180SOL    HW210440   5.533   1.607   6.170
 3181SOL     OW10441   0.804   1.308   2.937
 3181SOL    HW110442   0.768   1.362   2.861
 3181SOL    HW210443   0.889   1.348   2.969
 3182SOL     OW10444   1.645   4.938   5.388
 3182SOL    HW110445   1.552   4.903   5.380
 3182SOL    HW210446   1.691   4.932   5.299
 3183SOL     OW10447   4.969   3.000   1.126
 3183SOL    HW110448   4.924   3.054   1.197
 3183SOL    HW210449   5.008   2.918   1.167
 3184SOL     OW10450   0.997   2.155   3.436
 3184SOL    HW110451   0.975   2.064   3.470
 3184SOL    HW210452   0.918   2.194   3.389
 3185SOL     OW10453   0.218   6.369   6.449
 3185SOL    HW110454   0.155   6.446   6.436
 3185SOL    HW210455   0.252   6.339   6.360
 3186SOL     OW10456   3.509   0.699   1.505
 3186SOL    HW110457   3.583   0.755   1.468
 3186SOL    HW210458   3.544   0.607   1.525
 3187SOL     OW10459   2.984   4.183   0.015
 3187SOL    HW110460   3.004   4.244   0.092
 3187SOL    HW210461   3.026   4.094   0.031
 3188SOL     OW10462   4.250   6.808   3.362
 3188SOL    HW110463   4.330   6.791   3.305
 3188SOL    HW210464   4.175   6.841   3.305
 3189SOL     OW10465   7.013   6.781   1.780
 3189SOL    HW110466   6.929   6.737   1.747
 3189SOL    HW210467   0.001   6.875   1.747
 3190SOL     OW10468   0.587   6.696   1.397
 3190SOL    HW110469   0.652   6.672   1.324
 3190SOL    HW210470   0.503   6.730   1.356
 3191SOL     OW10471   2.951   0.254   0.448
 3191SOL    HW110472   2.963   0.241   0.350
 3191SOL    HW210473   2.857   0.280   0.468
 3192SOL     OW10474   5.830   2.271   3.342
 3192SOL    HW110475   5.876   2.276   3.253
 3192SOL    HW210476   5.820   2.176   3.370
 3193SOL     OW10477   4.551   4.360   0.753
 3193SOL    HW110478   4.557   4.439   0.814
 3193SOL    HW210479   4.642   4.320   0.741
 3194SOL     OW10480   1.920   4.716   5.391
 3194SOL    HW110481   1.928   4.813   5.367
 3194SOL    HW210482   1.836   4.701   5.442
 3195SOL     OW10483   1.018   3.633   3.189
 3195SOL    HW110484   1.107   3.588   3.178
 3195SOL    HW210485   1.026   3.710   3.252
 3196SOL     OW10486   0.346   0.002   5.417
 3196SOL    HW110487   0.390   6.966   5.490
 3196SOL    HW210488   0.313   6.955   5.347
 3197SOL     OW10489   0.328   3.966   4.186
 3197SOL    HW110490   0.428   3.965   4.178
 3197SOL    HW210491   0.293   3.873   4.175
 3198SOL     OW10492   5.713   6.431   0.529
 3198SOL    HW110493   5.642   6.362   0.541
 3198SOL    HW210494   5.711   6.496   0.606
 3199SOL     OW10495   3.508   1.475   3.309
 3199SOL    HW110496   3.567   1.469   3.228
 3199SOL    HW210497   3.563   1.475   3.392
 3200SOL     OW10498   0.302   2.153   0.497
 3200SOL    HW110499   0.233   2.084   0.518
 3200SOL    HW210500   0.326   2.204   0.579
 3201SOL     OW10501   4.660   4.337   3.138
 3201SOL    HW110502   4.575   4.379   3.107
 3201SOL    HW210503   4.657   4.322   3.236
 3202SOL     OW10504   0.986   5.895   1.743
 3202SOL    HW110505   1.013   5.853   1.656
 3202SOL    HW210506   0.946   5.826   1.803
 3203SOL     OW10507   4.969   0.443   1.102
 3203SOL    HW110508   4.949   0.397   1.189
 3203SOL    HW210509   5.046   0.506   1.116
 3204SOL     OW10510   6.188   6.066   2.170
 3204SOL    HW110511   6.132   6.063   2.253
 3204SOL    HW210512   6.216   6.160   2.152
 3205SOL     OW10513   0.892   3.968   3.539
 3205SOL    HW110514   0.910   3.889   3.596
 3205SOL    HW210515   0.898   3.942   3.442
 3206SOL     OW10516   1.599   6.606   0.450
 3206SOL    HW110517   1.643   6.604   0.360
 3206SOL    HW210518   1.667   6.625   0.520
 3207SOL     OW10519   0.723   1.267   2.218
 3207SOL    HW110520   0.735   1.180   2.266
 3207SOL    HW210521   0.636   1.308   2.245
 3208SOL     OW10522   6.145   0.447   4.760
 3208SOL    HW110523   6.070   0.433   4.695
 3208SOL    HW210524   6.195   0.361   4.773
 3209SOL     OW10525   2.206   0.104   2.747
 3209SOL    HW110526   2.229   0.200   2.761
 3209SOL    HW210527   2.110   0.097   2.722
 3210SOL     OW10528   0.533   4.850   2.021
 3210SOL    HW110529   0.570   4.935   2.059
 3210SOL    HW210530   0.434   4.860   2.009
 3211SOL     OW10531   1.039   4.144   2.696
 3211SOL    HW110532   1.029   4.099   2.785
 3211SOL    HW210533   1.084   4.081   2.632
 3212SOL     OW10534   4.893   3.353   5.552
 3212SOL    HW110535   4.880   3.379   5.457
 3212SOL    HW210536   4.966   3.284   5.559
 3213SOL     OW10537   4.902   0.227   1.272
 3213SOL    HW110538   4.833   0.197   1.206
 3213SOL    HW210539   4.947   0.148   1.312
 3214SOL     OW10540   4.063   4.190   6.441
 3214SOL    HW110541   3.985   4.133   6.415
 3214SOL    HW210542   4.146   4.134   6.447
 3215SOL     OW10543   6.149   1.381   0.304
 3215SOL    HW110544   6.208   1.301   0.294
 3215SOL    HW210545   6.067   1.356   0.356
 3216SOL     OW10546   5.714   6.695   4.858
 3216SOL    HW110547   5.753   6.729   4.772
 3216SOL    HW210548   5.719   6.595   4.859
 3217SOL     OW10549   6.649   4.164   0.179
 3217SOL    HW110550   6.710   4.230   0.222
 3217SOL    HW210551   6.560   4.165   0.224
 3218SOL     OW10552   3.570   1.548   2.049
 3218SOL    HW110553   3.573   1.646   2.027
 3218SOL    HW210554   3.492   1.506   2.002
 3219SOL     OW10555   0.223   6.766   3.891
 3219SOL    HW110556   0.300   6.819   3.855
 3219SOL    HW210557   0.216   6.780   3.990
 3220SOL     OW10558   5.442   2.682   6.225
 3220SOL    HW110559   5.512   2.622   6.263
 3220SOL    HW210560   5.432   2.763   6.284
 3221SOL     OW10561   3.803   0.663   2.251
 3221SOL    HW110562   3.777   0.699   2.161
 3221SOL    HW210563   3.886   0.709   2.282
 3222SOL     OW10564   6.468   4.172   2.007
 3222SOL    HW110565   6.551   4.129   2.041
 3222SOL    HW210566   6.390   4.143   2.062
 3223SOL     OW10567   2.483   4.590   3.639
 3223SOL    HW110568   2.400   4.629   3.598
 3223SOL    HW210569   2.521   4.655   3.705
 3224SOL     OW10570   3.061   5.906   1.321
 3224SOL    HW110571   3.146   5.929   1.273
 3224SOL    HW210572   2.987   5.895   1.255
 3225SOL     OW10573   1.750   2.898   1.079
 3225SOL    HW110574   1.820   2.833   1.106
 3225SOL    HW210575   1.688   2.915   1.155
 3226SOL     OW10576   0.315   0.552   3.979
 3226SOL    HW110577   0.246   0.622   3.957
 3226SOL    HW210578   0.400   0.596   4.006
 3227SOL     OW10579   2.028   1.764   5.472
 3227SOL    HW110580   2.102   1.798   5.413
 3227SOL    HW210581   1.941   1.804   5.444
 3228SOL     OW10582   4.969   3.267   4.717
 3228SOL    HW110583   4.990   3.322   4.636
 3228SOL    HW210584   4.932   3.325   4.789
 3229SOL     OW10585   4.509   1.850   5.328
 3229SOL    HW110586   4.463   1.765   5.302
 3229SOL    HW210587   4.607   1.842   5.313
 3230SOL     OW10588   1.426   0.472   4.095
 3230SOL    HW110589   1.510   0.451   4.143
 3230SOL    HW210590   1.436   0.560   4.047
 3231SOL     OW10591   4.877   4.985   0.187
 3231SOL    HW110592   4.835   4.895   0.196
 3231SOL    HW210593   4.811   5.055   0.215
 3232SOL     OW10594   1.840   4.260   3.372
 3232SOL    HW110595   1.852   4.160   3.369
 3232SOL    HW210596   1.926   4.302   3.401
 3233SOL     OW10597   1.692   3.828   0.148
 3233SOL    HW110598   1.690   3.928   0.147
 3233SOL    HW210599   1.784   3.797   0.171
 3234SOL     OW10600   6.579   2.551   5.024
 3234SOL    HW110601   6.518   2.629   5.030
 3234SOL    HW210602   6.619   2.547   4.932
 3235SOL     OW10603   5.050   0.816   2.359
 3235SOL    HW110604   5.117   0.758   2.313
 3235SOL    HW210605   5.084   0.910   2.363
 3236SOL     OW10606   0.188   2.844   1.472
 3236SOL    HW110607   0.219   2.924   1.420
 3236SOL    HW210608   0.126   2.874   1.545
 3237SOL     OW10609   3.117   6.275   4.733
 3237SOL    HW110610   3.212   6.247   4.742
 3237SOL    HW210611   3.060   6.194   4.715
 3238SOL     OW10612   6.484   6.342   6.427
 3238SOL    HW110613   6.399   6.314   6.471
 3238SOL    HW210614   6.556   6.276   6.448
 3239SOL     OW10615   0.593   6.086   5.476
 3239SOL    HW110616   0.533   6.054   5.402
 3239SOL    HW210617   0.595   6.018   5.549
 3240SOL     OW10618   0.464   2.220   4.649
 3240SOL    HW110619   0.396   2.291   4.629
 3240SOL    HW210620   0.419   2.131   4.655
 3241SOL     OW10621   4.495   6.880   5.147
 3241SOL    HW110622   4.559   6.914   5.217
 3241SOL    HW210623   4.521   6.788   5.121
 3242SOL     OW10624   3.230   6.829   0.665
 3242SOL    HW110625   3.267   6.751   0.614
 3242SOL    HW210626   3.225   6.909   0.605
 3243SOL     OW10627   3.284   5.291   1.269
 3243SOL    HW110628   3.334   5.205   1.258
 3243SOL    HW210629   3.201   5.289   1.212
 3244SOL     OW10630   1.122   6.256   5.614
 3244SOL    HW110631   1.031   6.217   5.623
 3244SOL    HW210632   1.118   6.355   5.628
 3245SOL     OW10633   3.188   1.827   6.046
 3245SOL    HW110634   3.175   1.730   6.066
 3245SOL    HW210635   3.269   1.839   5.989
 3246SOL     OW10636   5.604   6.528   3.932
 3246SOL    HW110637   5.688   6.552   3.884
 3246SOL    HW210638   5.619   6.446   3.988
 3247SOL     OW10639   6.157   2.910   5.262
 3247SOL    HW110640   6.112   2.981   5.208
 3247SOL    HW210641   6.189   2.948   5.349
 3248SOL     OW10642   5.177   3.786   2.669
 3248SOL    HW110643   5.087   3.757   2.637
 3248SOL    HW210644   5.211   3.719   2.735
 3249SOL     OW10645   3.019   4.797   5.944
 3249SOL    HW110646   2.971   4.709   5.950
 3249SOL    HW210647   3.011   4.845   6.031
 3250SOL     OW10648   4.732   5.376   1.417
 3250SOL    HW110649   4.681   5.296   1.447
 3250SOL    HW210650   4.675   5.432   1.357
 3251SOL     OW10651   3.856   0.431   3.629
 3251SOL    HW110652   3.835   0.476   3.715
 3251SOL    HW210653   3.801   0.472   3.556
 3252SOL     OW10654   3.494   2.124   3.585
 3252SOL    HW110655   3.448   2.211   3.567
 3252SOL    HW210656   3.456   2.053   3.526
 3253SOL     OW10657   4.978   4.428   1.149
 3253SOL    HW110658   4.963   4.455   1.244
 3253SOL    HW210659   4.893   4.396   1.109
 3254SOL     OW10660   6.340   3.925   2.498
 3254SOL    HW110661   6.246   3.923   2.533
 3254SOL    HW210662   6.381   3.834   2.505
 3255SOL     OW10663   4.118   5.354   0.706
 3255SOL    HW110664   4.080   5.441   0.674
 3255SOL    HW210665   4.057   5.313   0.773
 3256SOL     OW10666   6.281   6.443   5.748
 3256SOL    HW110667   6.265   6.417   5.653
 3256SOL    HW210668   6.212   6.509   5.777
 3257SOL     OW10669   2.160   1.834   1.230
 3257SOL    HW110670   2.165   1.760   1.163
 3257SOL    HW210671   2.149   1.921   1.182
 3258SOL     OW10672   4.580   6.804   1.359
 3258SOL    HW110673   4.496   6.790   1.411
 3258SOL    HW210674   4.568   6.769   1.266
 3259SOL     OW10675   5.931   6.287   3.522
 3259SOL    HW110676   6.013   6.232   3.511
 3259SOL    HW210677   5.929   6.358   3.452
 3260SOL     OW10678   1.781   1.582   0.768
 3260SOL    HW110679   1.818   1.647   0.702
 3260SOL    HW210680   1.808   1.489   0.743
 3261SOL     OW10681   4.527   6.691   3.749
 3261SOL    HW110682   4.574   6.632   3.814
 3261SOL    HW210683   4.594   6.745   3.698
 3262SOL     OW10684   3.572   1.480   3.951
 3262SOL    HW110685   3.517   1.515   3.876
 3262SOL    HW210686   3.669   1.489   3.927
 3263SOL     OW10687   3.665   4.901   2.926
 3263SOL    HW110688   3.678   4.962   3.004
 3263SOL    HW210689   3.753   4.862   2.899
 3264SOL     OW10690   4.930   4.889   5.933
 3264SOL    HW110691   4.838   4.928   5.927
 3264SOL    HW210692   4.997   4.963   5.941
 3265SOL     OW10693   5.245   0.062   6.107
 3265SOL    HW110694   5.199   0.138   6.062
 3265SOL    HW210695   5.285   0.001   6.039
 3266SOL     OW10696   1.295   2.721   6.474
 3266SOL    HW110697   1.359   2.654   6.509
 3266SOL    HW210698   1.277   2.790   6.544
 3267SOL     OW10699   5.133   2.903   1.671
 3267SOL    HW110700   5.189   2.829   1.633
 3267SOL    HW210701   5.053   2.864   1.717
 3268SOL     OW10702   1.731   5.067   6.700
 3268SOL    HW110703   1.800   5.111   6.642
 3268SOL    HW210704   1.769   4.982   6.737
 3269SOL     OW10705   4.706   3.566   0.903
 3269SOL    HW110706   4.610   3.539   0.907
 3269SOL    HW210707   4.758   3.497   0.853
 3270SOL     OW10708   0.194   5.084   3.905
 3270SOL    HW110709   0.212   5.153   3.975
 3270SOL    HW210710   0.097   5.061   3.907
 3271SOL     OW10711   4.719   0.194   2.023
 3271SOL    HW110712   4.726   0.219   2.119
 3271SOL    HW210713   4.737   0.097   2.012
 3272SOL     OW10714   4.983   6.373   6.817
 3272SOL    HW110715   5.000   6.447   6.881
 3272SOL    HW210716   5.026   6.395   6.729
 3273SOL     OW10717   1.216   0.845   3.169
 3273SOL    HW110718   1.183   0.756   3.200
 3273SOL    HW210719   1.239   0.839   3.072
 3274SOL     OW10720   2.885   1.555   6.528
 3274SOL    HW110721   2.789   1.578   6.542
 3274SOL    HW210722   2.940   1.595   6.602
 3275SOL     OW10723   4.519   1.061   6.867
 3275SOL    HW110724   4.454   1.137   6.862
 3275SOL    HW210725   4.497   0.994   6.796
 3276SOL     OW10726   2.098   6.126   0.284
 3276SOL    HW110727   2.089   6.053   0.215
 3276SOL    HW210728   2.042   6.103   0.363
 3277SOL     OW10729   6.915   6.291   6.359
 3277SOL    HW110730   6.950   6.376   6.399
 3277SOL    HW210731   6.870   6.311   6.273
 3278SOL     OW10732   0.774   0.744   0.089
 3278SOL    HW110733   0.833   0.824   0.089
 3278SOL    HW210734   0.683   0.769   0.122
 3279SOL     OW10735   1.838   6.398   1.064
 3279SOL    HW110736   1.908   6.391   1.136
 3279SOL    HW210737   1.843   6.318   1.004
 3280SOL     OW10738   2.556   6.455   4.401
 3280SOL    HW110739   2.545   6.510   4.318
 3280SOL    HW210740   2.652   6.426   4.408
 3281SOL     OW10741   2.278   6.379   0.775
 3281SOL    HW110742   2.287   6.316   0.697
 3281SOL    HW210743   2.353   6.444   0.773
 3282SOL     OW10744   2.190   5.397   2.543
 3282SOL    HW110745   2.242   5.345   2.611
 3282SOL    HW210746   2.109   5.345   2.516
 3283SOL     OW10747   2.047   6.724   3.435
 3283SOL    HW110748   2.042   6.693   3.529
 3283SOL    HW210749   2.143   6.728   3.406
 3284SOL     OW10750   1.156   4.948   5.732
 3284SOL    HW110751   1.210   5.021   5.772
 3284SOL    HW210752   1.083   4.987   5.675
 3285SOL     OW10753   0.306   3.029   4.005
 3285SOL    HW110754   0.240   3.027   3.930
 3285SOL    HW210755   0.391   2.987   3.975
 3286SOL     OW10756   4.687   4.573   6.472
 3286SOL    HW110757   4.614   4.631   6.507
 3286SOL    HW210758   4.741   4.624   6.405
 3287SOL     OW10759   0.206   3.576   1.543
 3287SOL    HW110760   0.269   3.652   1.558
 3287SOL    HW210761   0.148   3.566   1.624
 3288SOL     OW10762   0.974   0.042   6.580
 3288SOL    HW110763   0.939   0.077   6.667
 3288SOL    HW210764   0.900   0.036   6.514
 3289SOL     OW10765   1.265   6.012   4.232
 3289SOL    HW110766   1.240   6.031   4.137
 3289SOL    HW210767   1.248   6.092   4.288
 3290SOL     OW10768   0.139   4.663   3.369
 3290SOL    HW110769   0.196   4.729   3.417
 3290SOL    HW210770   0.194   4.613   3.302
 3291SOL     OW10771   2.035   0.801   2.361
 3291SOL    HW110772   2.094   0.727   2.328
 3291SOL    HW210773   2.087   0.886   2.364
 3292SOL     OW10774   0.839   5.594   4.749
 3292SOL    HW110775   0.816   5.542   4.831
 3292SOL    HW210776   0.875   5.684   4.775
 3293SOL     OW10777   5.986   0.963   3.387
 3293SOL    HW110778   5.993   1.063   3.386
 3293SOL    HW210779   6.042   0.925   3.314
 3294SOL     OW10780   0.350   6.782   0.931
 3294SOL    HW110781   0.439   6.739   0.915
 3294SOL    HW210782   0.293   6.722   0.987
 3295SOL     OW10783   2.244   2.463   6.167
 3295SOL    HW110784   2.165   2.404   6.149
 3295SOL    HW210785   2.235   2.503   6.258
 3296SOL     OW10786   0.849   6.758   2.557
 3296SOL    HW110787   0.927   6.715   2.512
 3296SOL    HW210788   0.880   6.808   2.637
 3297SOL     OW10789   3.405   1.356   5.909
 3297SOL    HW110790   3.339   1.306   5.965
 3297SOL    HW210791   3.461   1.414   5.967
 3298SOL     OW10792   6.936   4.364   2.408
 3298SOL    HW110793   6.973   4.433   2.469
 3298SOL    HW210794   6.984   4.368   2.320
 3299SOL     OW10795   1.092   1.554   4.601
 3299SOL    HW110796   1.105   1.456   4.585
 3299SOL    HW210797   1.093   1.572   4.699
 3300SOL     OW10798   6.890   0.100   5.061
 3300SOL    HW110799   6.956   0.165   5.098
 3300SOL    HW210800   6.938   0.033   5.004
 3301SOL     OW10801   6.612   3.649   2.234
 3301SOL    HW110802   6.548   3.665   2.309
 3301SOL    HW210803   6.706   3.661   2.268
 3302SOL     OW10804   1.008   6.191   5.299
 3302SOL    HW110805   1.083   6.156   5.244
 3302SOL    HW210806   1.046   6.247   5.373
 3303SOL     OW10807   2.894   3.479   4.158
 3303SOL    HW110808   2.847   3.434   4.234
 3303SOL    HW210809   2.945   3.557   4.192
 3304SOL     OW10810   1.551   0.346   3.246
 3304SOL    HW110811   1.516   0.359   3.339
 3304SOL    HW210812   1.631   0.404   3.233
 3305SOL     OW10813   0.768   3.018   0.185
 3305SOL    HW110814   0.773   3.061   0.276
 3305SOL    HW210815   0.682   3.045   0.141
 3306SOL     OW10816   1.226   2.593   2.322
 3306SOL    HW110817   1.209   2.682   2.280
 3306SOL    HW210818   1.141   2.542   2.330
 3307SOL     OW10819   0.879   0.084   0.427
 3307SOL    HW110820   0.827   0.109   0.345
 3307SOL    HW210821   0.919   7.008   0.414
 3308SOL     OW10822   5.228   6.254   0.945
 3308SOL    HW110823   5.156   6.283   0.882
 3308SOL    HW210824   5.211   6.293   1.036
 3309SOL     OW10825   1.430   4.853   2.180
 3309SOL    HW110826   1.479   4.871   2.265
 3309SOL    HW210827   1.333   4.877   2.191
 3310SOL     OW10828   1.677   0.038   2.021
 3310SOL    HW110829   1.742   0.114   2.021
 3310SOL    HW210830   1.704   6.987   1.950
 3311SOL     OW10831   3.904   5.613   0.871
 3311SOL    HW110832   4.003   5.606   0.882
 3311SOL    HW210833   3.869   5.693   0.920
 3312SOL     OW10834   1.917   2.628   6.043
 3312SOL    HW110835   1.857   2.679   6.105
 3312SOL    HW210836   1.978   2.692   5.996
 3313SOL     OW10837   6.051   6.358   5.030
 3313SOL    HW110838   6.008   6.405   5.107
 3313SOL    HW210839   6.038   6.411   4.946
 3314SOL     OW10840   1.023   4.535   6.728
 3314SOL    HW110841   0.939   4.570   6.771
 3314SOL    HW210842   1.029   4.436   6.743
 3315SOL     OW10843   6.667   2.867   3.378
 3315SOL    HW110844   6.641   2.914   3.294
 3315SOL    HW210845   6.664   2.768   3.362
 3316SOL     OW10846   4.342   1.430   0.233
 3316SOL    HW110847   4.437   1.460   0.235
 3316SOL    HW210848   4.299   1.450   0.322
 3317SOL     OW10849   4.139   2.107   1.366
 3317SOL    HW110850   4.236   2.129   1.360
 3317SOL    HW210851   4.124   2.042   1.441
 3318SOL     OW10852   2.612   5.353   5.592
 3318SOL    HW110853   2.700   5.364   5.546
 3318SOL    HW210854   2.586   5.438   5.637
 3319SOL     OW10855   6.420   6.316   6.861
 3319SOL    HW110856   6.482   6.361   6.797
 3319SOL    HW210857   6.326   6.327   6.829
 3320SOL     OW10858   0.861   0.534   1.035
 3320SOL    HW110859   0.865   0.482   1.120
 3320SOL    HW210860   0.874   0.631   1.055
 3321SOL     OW10861   3.861   3.911   4.125
 3321SOL    HW110862   3.814   3.833   4.083
 3321SOL    HW210863   3.937   3.878   4.181
 3322SOL     OW10864   4.454   2.096   2.192
 3322SOL    HW110865   4.416   2.054   2.109
 3322SOL    HW210866   4.510   2.029   2.241
 3323SOL     OW10867   1.862   4.757   0.233
 3323SOL    HW110868   1.881   4.822   0.159
 3323SOL    HW210869   1.776   4.782   0.277
 3324SOL     OW10870   6.102   3.307   1.621
 3324SOL    HW110871   6.153   3.233   1.665
 3324SOL    HW210872   6.090   3.286   1.524
 3325SOL     OW10873   0.800   4.928   5.855
 3325SOL    HW110874   0.853   4.905   5.773
 3325SOL    HW210875   0.824   4.866   5.929
 3326SOL     OW10876   5.391   0.404   2.182
 3326SOL    HW110877   5.334   0.438   2.108
 3326SOL    HW210878   5.471   0.358   2.145
 3327SOL     OW10879   4.848   5.968   1.902
 3327SOL    HW110880   4.876   5.933   1.812
 3327SOL    HW210881   4.887   6.059   1.915
 3328SOL     OW10882   6.244   6.731   4.169
 3328SOL    HW110883   6.163   6.673   4.157
 3328SOL    HW210884   6.219   6.826   4.151
 3329SOL     OW10885   5.729   0.602   6.032
 3329SOL    HW110886   5.688   0.665   6.097
 3329SOL    HW210887   5.709   0.508   6.060
 3330SOL     OW10888   6.937   6.795   2.663
 3330SOL    HW110889   6.953   6.699   2.640
 3330SOL    HW210890   6.987   6.853   2.598
 3331SOL     OW10891   1.659   3.931   2.318
 3331SOL    HW110892   1.654   4.029   2.298
 3331SOL    HW210893   1.631   3.915   2.413
 3332SOL     OW10894   3.652   5.258   0.278
 3332SOL    HW110895   3.665   5.355   0.256
 3332SOL    HW210896   3.685   5.241   0.371
 3333SOL     OW10897   1.925   3.797   0.940
 3333SOL    HW110898   1.945   3.845   0.855
 3333SOL    HW210899   1.915   3.699   0.921
 3334SOL     OW10900   1.235   2.234   2.372
 3334SOL    HW110901   1.154   2.292   2.377
 3334SOL    HW210902   1.248   2.202   2.279
 3335SOL     OW10903   3.569   4.386   5.793
 3335SOL    HW110904   3.665   4.412   5.785
 3335SOL    HW210905   3.550   4.356   5.886
 3336SOL     OW10906   3.967   5.925   5.697
 3336SOL    HW110907   3.925   5.895   5.783
 3336SOL    HW210908   4.035   5.995   5.716
 3337SOL     OW10909   3.715   2.903   3.886
 3337SOL    HW110910   3.615   2.902   3.884
 3337SOL    HW210911   3.750   2.914   3.793
 3338SOL     OW10912   2.652   3.281   1.590
 3338SOL    HW110913   2.665   3.323   1.500
 3338SOL    HW210914   2.646   3.352   1.660
 3339SOL     OW10915   0.750   6.478   6.822
 3339SOL    HW110916   0.760   6.400   6.884
 3339SOL    HW210917   0.795   6.558   6.863
 3340SOL     OW10918   4.207   1.329   6.298
 3340SOL    HW110919   4.192   1.346   6.395
 3340SOL    HW210920   4.305   1.326   6.279
 3341SOL     OW10921   1.493   3.967   1.043
 3341SOL    HW110922   1.584   3.982   1.004
 3341SOL    HW210923   1.425   3.963   0.970
 3342SOL     OW10924   5.803   0.308   2.277
 3342SOL    HW110925   5.874   0.378   2.276
 3342SOL    HW210926   5.739   0.327   2.351
 3343SOL     OW10927   3.417   5.357   0.741
 3343SOL    HW110928   3.382   5.369   0.834
 3343SOL    HW210929   3.465   5.440   0.712
 3344SOL     OW10930   1.204   3.469   1.518
 3344SOL    HW110931   1.270   3.530   1.562
 3344SOL    HW210932   1.141   3.523   1.463
 3345SOL     OW10933   5.351   5.551   1.178
 3345SOL    HW110934   5.355   5.650   1.169
 3345SOL    HW210935   5.339   5.527   1.274
 3346SOL     OW10936   1.444   0.974   0.060
 3346SOL    HW110937   1.467   0.960   0.157
 3346SOL    HW210938   1.497   0.911   0.004
 3347SOL     OW10939   1.096   3.779   5.531
 3347SOL    HW110940   1.104   3.878   5.519
 3347SOL    HW210941   1.154   3.750   5.607
 3348SOL     OW10942   3.383   4.016   6.228
 3348SOL    HW110943   3.291   3.982   6.211
 3348SOL    HW210944   3.379   4.110   6.260
 3349SOL     OW10945   1.546   5.682   1.843
 3349SOL    HW110946   1.631   5.702   1.892
 3349SOL    HW210947   1.566   5.622   1.766
 3350SOL     OW10948   2.299   4.942   5.036
 3350SOL    HW110949   2.253   4.963   5.123
 3350SOL    HW210950   2.369   4.873   5.052
 3351SOL     OW10951   4.977   6.840   1.813
 3351SOL    HW110952   5.057   6.899   1.803
 3351SOL    HW210953   5.006   6.747   1.832
 3352SOL     OW10954   5.347   1.289   6.948
 3352SOL    HW110955   5.384   1.380   6.965
 3352SOL    HW210956   5.286   1.292   6.869
 3353SOL     OW10957   3.924   1.052   6.613
 3353SOL    HW110958   4.002   1.028   6.555
 3353SOL    HW210959   3.947   1.036   6.709
 3354SOL     OW10960   2.393   3.209   0.271
 3354SOL    HW110961   2.404   3.168   0.180
 3354SOL    HW210962   2.453   3.288   0.279
 3355SOL     OW10963   1.358   1.130   4.818
 3355SOL    HW110964   1.334   1.130   4.721
 3355SOL    HW210965   1.342   1.222   4.856
 3356SOL     OW10966   2.960   0.756   6.109
 3356SOL    HW110967   2.911   0.768   6.022
 3356SOL    HW210968   3.025   0.681   6.099
 3357SOL     OW10969   2.945   3.553   3.408
 3357SOL    HW110970   2.921   3.622   3.476
 3357SOL    HW210971   2.948   3.594   3.317
 3358SOL     OW10972   6.983   1.976   1.016
 3358SOL    HW110973   0.031   2.049   0.989
 3358SOL    HW210974   6.912   2.014   1.076
 3359SOL     OW10975   1.408   6.810   4.104
 3359SOL    HW110976   1.429   6.730   4.049
 3359SOL    HW210977   1.416   6.893   4.048
 3360SOL     OW10978   1.662   5.263   4.532
 3360SOL    HW110979   1.704   5.347   4.497
 3360SOL    HW210980   1.613   5.284   4.616
 3361SOL     OW10981   6.699   6.745   4.296
 3361SOL    HW110982   6.735   6.743   4.203
 3361SOL    HW210983   6.705   6.839   4.332
 3362SOL     OW10984   3.896   0.365   4.354
 3362SOL    HW110985   3.950   0.327   4.428
 3362SOL    HW210986   3.823   0.301   4.329
 3363SOL     OW10987   5.274   3.805   0.472
 3363SOL    HW110988   5.210   3.747   0.523
 3363SOL    HW210989   5.222   3.872   0.419
 3364SOL     OW10990   1.837   3.645   1.489
 3364SOL    HW110991   1.825   3.571   1.422
 3364SOL    HW210992   1.830   3.607   1.582
 3365SOL     OW10993   1.192   2.551   2.689
 3365SOL    HW110994   1.212   2.620   2.758
 3365SOL    HW210995   1.272   2.541   2.629
 3366SOL     OW10996   6.150   2.440   4.315
 3366SOL    HW110997   6.101   2.383   4.249
 3366SOL    HW210998   6.084   2.494   4.368
 3367SOL     OW10999   3.597   3.240   3.714
 3367SOL    HW111000   3.507   3.212   3.682
 3367SOL    HW211001   3.664   3.170   3.691
 3368SOL     OW11002   2.575   1.105   3.670
 3368SOL    HW111003   2.585   1.137   3.765
 3368SOL    HW211004   2.480   1.079   3.653
 3369SOL     OW11005   5.140   2.859   1.269
 3369SOL    HW111006   5.092   2.926   1.326
 3369SOL    HW211007   5.173   2.784   1.327
 3370SOL     OW11008   1.051   5.427   2.847
 3370SOL    HW111009   1.149   5.410   2.855
 3370SOL    HW211010   1.036   5.525   2.833
 3371SOL     OW11011   2.609   3.025   1.496
 3371SOL    HW111012   2.556   3.055   1.416
 3371SOL    HW211013   2.645   3.106   1.544
 3372SOL     OW11014   5.597   2.674   3.461
 3372SOL    HW111015   5.693   2.654   3.484
 3372SOL    HW211016   5.594   2.736   3.383
 3373SOL     OW11017   0.067   4.380   0.498
 3373SOL    HW111018   7.000   4.426   0.465
 3373SOL    HW211019   0.115   4.339   0.420
 3374SOL     OW11020   1.300   5.538   4.066
 3374SOL    HW111021   1.255   5.451   4.049
 3374SOL    HW211022   1.320   5.548   4.163
 3375SOL     OW11023   0.277   6.225   5.724
 3375SOL    HW111024   0.206   6.272   5.777
 3375SOL    HW211025   0.354   6.287   5.710
 3376SOL     OW11026   3.447   3.636   5.071
 3376SOL    HW111027   3.451   3.625   5.170
 3376SOL    HW211028   3.436   3.546   5.028
 3377SOL     OW11029   6.794   5.230   4.188
 3377SOL    HW111030   6.848   5.170   4.129
 3377SOL    HW211031   6.851   5.260   4.265
 3378SOL     OW11032   0.808   5.712   0.624
 3378SOL    HW111033   0.748   5.753   0.692
 3378SOL    HW211034   0.900   5.752   0.632
 3379SOL     OW11035   5.823   4.320   4.066
 3379SOL    HW111036   5.725   4.321   4.047
 3379SOL    HW211037   5.839   4.308   4.164
 3380SOL     OW11038   1.808   5.349   1.931
 3380SOL    HW111039   1.837   5.256   1.952
 3380SOL    HW211040   1.876   5.414   1.965
 3381SOL     OW11041   2.842   3.887   6.075
 3381SOL    HW111042   2.833   3.899   5.977
 3381SOL    HW211043   2.754   3.905   6.119
 3382SOL     OW11044   6.769   3.796   6.500
 3382SOL    HW111045   6.829   3.852   6.558
 3382SOL    HW211046   6.675   3.826   6.511
 3383SOL     OW11047   2.946   6.029   0.715
 3383SOL    HW111048   2.985   6.113   0.679
 3383SOL    HW211049   2.915   5.971   0.640
 3384SOL     OW11050   2.824   2.892   6.370
 3384SOL    HW111051   2.892   2.932   6.308
 3384SOL    HW211052   2.869   2.865   6.455
 3385SOL     OW11053   5.753   2.944   4.823
 3385SOL    HW111054   5.828   2.998   4.786
 3385SOL    HW211055   5.712   2.889   4.750
 3386SOL     OW11056   0.638   5.974   4.873
 3386SOL    HW111057   0.685   5.927   4.798
 3386SOL    HW211058   0.674   5.942   4.960
 3387SOL     OW11059   6.183   0.133   2.711
 3387SOL    HW111060   6.279   0.105   2.701
 3387SOL    HW211061   6.133   0.111   2.628
 3388SOL     OW11062   0.758   3.931   0.489
 3388SOL    HW111063   0.780   3.861   0.421
 3388SOL    HW211064   0.663   3.922   0.517
 3389SOL     OW11065   6.654   5.381   6.251
 3389SOL    HW111066   6.580   5.321   6.281
 3389SOL    HW211067   6.616   5.457   6.199
 3390SOL     OW11068   3.159   5.402   0.591
 3390SOL    HW111069   3.148   5.484   0.647
 3390SOL    HW211070   3.139   5.321   0.646
 3391SOL     OW11071   5.074   3.917   5.260
 3391SOL    HW111072   5.029   3.899   5.348
 3391SOL    HW211073   5.172   3.925   5.274
 3392SOL     OW11074   5.342   6.305   5.490
 3392SOL    HW111075   5.436   6.340   5.489
 3392SOL    HW211076   5.331   6.239   5.416
 3393SOL     OW11077   3.352   0.097   0.433
 3393SOL    HW111078   3.415   0.164   0.471
 3393SOL    HW211079   3.400   0.009   0.422
 3394SOL     OW11080   2.811   5.234   1.528
 3394SOL    HW111081   2.725   5.191   1.554
 3394SOL    HW211082   2.804   5.269   1.434
 3395SOL     OW11083   2.029   6.597   3.004
 3395SOL    HW111084   2.093   6.672   3.021
 3395SOL    HW211085   1.963   6.592   3.079
 3396SOL     OW11086   4.688   0.552   4.765
 3396SOL    HW111087   4.664   0.603   4.682
 3396SOL    HW211088   4.747   0.475   4.741
 3397SOL     OW11089   2.472   6.276   1.090
 3397SOL    HW111090   2.386   6.309   1.050
 3397SOL    HW211091   2.526   6.353   1.122
 3398SOL     OW11092   6.666   0.927   6.457
 3398SOL    HW111093   6.762   0.935   6.484
 3398SOL    HW211094   6.619   1.013   6.477
 3399SOL     OW11095   0.224   6.325   2.206
 3399SOL    HW111096   0.256   6.328   2.111
 3399SOL    HW211097   0.204   6.418   2.237
 3400SOL     OW11098   3.576   2.678   5.480
 3400SOL    HW111099   3.558   2.580   5.474
 3400SOL    HW211100   3.670   2.692   5.510
 3401SOL     OW11101   6.848   3.087   4.056
 3401SOL    HW111102   6.872   3.184   4.056
 3401SOL    HW211103   6.830   3.058   3.962
 3402SOL     OW11104   5.649   3.279   0.366
 3402SOL    HW111105   5.612   3.372   0.363
 3402SOL    HW211106   5.657   3.248   0.461
 3403SOL     OW11107   5.808   6.254   4.744
 3403SOL    HW111108   5.764   6.305   4.818
 3403SOL    HW211109   5.740   6.225   4.677
 3404SOL     OW11110   5.036   5.254   3.113
 3404SOL    HW111111   5.102   5.264   3.187
 3404SOL    HW211112   4.967   5.185   3.139
 3405SOL     OW11113   4.285   6.062   0.876
 3405SOL    HW111114   4.217   6.097   0.940
 3405SOL    HW211115   4.373   6.054   0.923
 3406SOL     OW11116   3.757   5.072   1.143
 3406SOL    HW111117   3.776   5.065   1.241
 3406SOL    HW211118   3.843   5.081   1.093
 3407SOL     OW11119   1.507   2.730   0.429
 3407SOL    HW111120   1.458   2.816   0.428
 3407SOL    HW211121   1.510   2.695   0.523
 3408SOL     OW11122   4.291   6.364   4.176
 3408SOL    HW111123   4.272   6.419   4.095
 3408SOL    HW211124   4.235   6.282   4.174
 3409SOL     OW11125   4.522   2.137   7.009
 3409SOL    HW111126   4.498   2.231   6.984
 3409SOL    HW211127   4.462   2.073   6.961
 3410SOL     OW11128   6.825   0.614   2.355
 3410SOL    HW111129   6.869   0.534   2.314
 3410SOL    HW211130   6.793   0.591   2.447
 3411SOL     OW11131   5.788   3.116   5.868
 3411SOL    HW111132   5.714   3.056   5.898
 3411SOL    HW211133   5.876   3.072   5.883
 3412SOL     OW11134   5.526   2.787   3.768
 3412SOL    HW111135   5.562   2.875   3.736
 3412SOL    HW211136   5.535   2.719   3.695
 3413SOL     OW11137   0.180   2.651   0.739
 3413SOL    HW111138   0.247   2.687   0.803
 3413SOL    HW211139   0.221   2.575   0.687
 3414SOL     OW11140   3.947   3.019   1.998
 3414SOL    HW111141   3.989   2.976   1.919
 3414SOL    HW211142   3.849   3.027   1.983
 3415SOL     OW11143   2.669   1.149   6.343
 3415SOL    HW111144   2.718   1.160   6.430
 3415SOL    HW211145   2.690   1.060   6.304
 3416SOL     OW11146   5.559   6.590   5.964
 3416SOL    HW111147   5.617   6.657   6.010
 3416SOL    HW211148   5.464   6.618   5.969
 3417SOL     OW11149   5.570   0.287   2.612
 3417SOL    HW111150   5.550   0.320   2.704
 3417SOL    HW211151   5.555   0.360   2.546
 3418SOL     OW11152   4.252   5.933   0.652
 3418SOL    HW111153   4.265   5.975   0.742
 3418SOL    HW211154   4.173   5.976   0.607
 3419SOL     OW11155   3.046   4.823   5.133
 3419SOL    HW111156   3.090   4.823   5.043
 3419SOL    HW211157   2.989   4.741   5.142
 3420SOL     OW11158   4.032   1.005   2.089
 3420SOL    HW111159   4.116   0.988   2.036
 3420SOL    HW211160   3.960   0.943   2.058
 3421SOL     OW11161   0.068   1.561   4.303
 3421SOL    HW111162   0.141   1.550   4.370
 3421SOL    HW211163   7.008   1.612   4.345
 3422SOL     OW11164   3.433   5.839   2.047
 3422SOL    HW111165   3.388   5.841   2.136
 3422SOL    HW211166   3.470   5.748   2.030
 3423SOL     OW11167   2.172   4.557   6.261
 3423SOL    HW111168   2.167   4.573   6.162
 3423SOL    HW211169   2.212   4.637   6.306
 3424SOL     OW11170   5.460   6.963   2.297
 3424SOL    HW111171   5.544   6.995   2.253
 3424SOL    HW211172   5.469   6.972   2.396
 3425SOL     OW11173   5.760   2.853   6.255
 3425SOL    HW111174   5.704   2.834   6.336
 3425SOL    HW211175   5.805   2.941   6.266
 3426SOL     OW11176   6.568   5.490   6.563
 3426SOL    HW111177   6.612   5.473   6.475
 3426SOL    HW211178   6.520   5.408   6.593
 3427SOL     OW11179   2.058   1.456   6.528
 3427SOL    HW111180   2.104   1.525   6.472
 3427SOL    HW211181   2.115   1.373   6.532
 3428SOL     OW11182   5.155   0.520   4.367
 3428SOL    HW111183   5.189   0.483   4.281
 3428SOL    HW211184   5.201   0.475   4.444
 3429SOL     OW11185   4.168   6.526   0.728
 3429SOL    HW111186   4.238   6.493   0.665
 3429SOL    HW211187   4.120   6.447   0.768
 3430SOL     OW11188   3.091   4.589   6.765
 3430SOL    HW111189   3.034   4.660   6.723
 3430SOL    HW211190   3.173   4.631   6.804
 3431SOL     OW11191   0.922   4.345   2.988
 3431SOL    HW111192   1.020   4.353   3.008
 3431SOL    HW211193   0.889   4.429   2.947
 3432SOL     OW11194   0.528   5.257   6.833
 3432SOL    HW111195   0.619   5.299   6.838
 3432SOL    HW211196   0.471   5.309   6.770
 3433SOL     OW11197   0.770   0.722   0.421
 3433SOL    HW111198   0.782   0.668   0.338
 3433SOL    HW211199   0.858   0.757   0.451
 3434SOL     OW11200   3.946   2.154   2.146
 3434SOL    HW111201   3.947   2.059   2.114
 3434SOL    HW211202   3.862   2.199   2.116
 3435SOL     OW11203   2.166   2.924   1.057
 3435SOL    HW111204   2.150   3.004   1.115
 3435SOL    HW211205   2.078   2.885   1.029
 3436SOL     OW11206   4.133   6.128   5.777
 3436SOL    HW111207   4.232   6.136   5.792
 3436SOL    HW211208   4.090   6.092   5.859
 3437SOL     OW11209   1.420   6.644   0.131
 3437SOL    HW111210   1.362   6.599   0.200
 3437SOL    HW211211   1.516   6.626   0.153
 3438SOL     OW11212   2.160   4.168   0.501
 3438SOL    HW111213   2.142   4.069   0.506
 3438SOL    HW211214   2.220   4.186   0.423
 3439SOL     OW11215   2.631   6.041   0.787
 3439SOL    HW111216   2.670   6.132   0.772
 3439SOL    HW211217   2.681   5.974   0.733
 3440SOL     OW11218   3.628   3.930   5.789
 3440SOL    HW111219   3.590   3.932   5.881
 3440SOL    HW211220   3.709   3.871   5.787
 3441SOL     OW11221   6.399   5.124   4.946
 3441SOL    HW111222   6.445   5.046   4.903
 3441SOL    HW211223   6.415   5.120   5.045
 3442SOL     OW11224   1.418   1.871   0.354
 3442SOL    HW111225   1.374   1.804   0.414
 3442SOL    HW211226   1.517   1.858   0.356
 3443SOL     OW11227   0.511   5.862   2.739
 3443SOL    HW111228   0.579   5.857   2.666
 3443SOL    HW211229   0.534   5.937   2.802
 3444SOL     OW11230   0.420   4.340   6.048
 3444SOL    HW111231   0.471   4.403   5.990
 3444SOL    HW211232   0.477   4.261   6.070
 3445SOL     OW11233   5.575   5.383   4.517
 3445SOL    HW111234   5.621   5.437   4.447
 3445SOL    HW211235   5.596   5.286   4.504
 3446SOL     OW11236   4.677   1.892   6.993
 3446SOL    HW111237   4.640   1.985   6.983
 3446SOL    HW211238   4.645   1.853   0.064
 3447SOL     OW11239   5.039   1.485   6.096
 3447SOL    HW111240   5.074   1.548   6.166
 3447SOL    HW211241   5.042   1.529   6.007
 3448SOL     OW11242   0.722   4.958   5.490
 3448SOL    HW111243   0.818   4.952   5.462
 3448SOL    HW211244   0.708   4.903   5.572
 3449SOL     OW11245   1.196   3.843   5.014
 3449SOL    HW111246   1.108   3.881   5.044
 3449SOL    HW211247   1.225   3.771   5.077
 3450SOL     OW11248   2.576   6.799   2.395
 3450SOL    HW111249   2.523   6.846   2.466
 3450SOL    HW211250   2.632   6.728   2.438
 3451SOL     OW11251   1.821   2.046   0.362
 3451SOL    HW111252   1.729   2.017   0.390
 3451SOL    HW211253   1.824   2.054   0.263
 3452SOL     OW11254   4.343   1.223   6.559
 3452SOL    HW111255   4.421   1.285   6.560
 3452SOL    HW211256   4.304   1.217   6.651
 3453SOL     OW11257   4.495   6.243   5.963
 3453SOL    HW111258   4.582   6.195   5.974
 3453SOL    HW211259   4.502   6.334   6.005
 3454SOL     OW11260   1.227   2.726   2.883
 3454SOL    HW111261   1.188   2.816   2.866
 3454SOL    HW211262   1.225   2.706   2.981
 3455SOL     OW11263   0.568   4.501   5.873
 3455SOL    HW111264   0.570   4.523   5.775
 3455SOL    HW211265   0.629   4.562   5.922
 3456SOL     OW11266   4.560   5.504   3.149
 3456SOL    HW111267   4.465   5.499   3.180
 3456SOL    HW211268   4.570   5.455   3.063
 3457SOL     OW11269   4.046   4.385   0.169
 3457SOL    HW111270   4.018   4.325   0.094
 3457SOL    HW211271   3.983   4.373   0.246
 3458SOL     OW11272   4.708   2.110   0.939
 3458SOL    HW111273   4.625   2.098   0.994
 3458SOL    HW211274   4.771   2.035   0.956
 3459SOL     OW11275   6.474   6.617   2.378
 3459SOL    HW111276   6.474   6.598   2.476
 3459SOL    HW211277   6.548   6.567   2.334
 3460SOL     OW11278   4.106   1.449   5.308
 3460SOL    HW111279   4.051   1.493   5.238
 3460SOL    HW211280   4.048   1.417   5.382
 3461SOL     OW11281   4.917   4.142   3.697
 3461SOL    HW111282   4.881   4.230   3.726
 3461SOL    HW211283   4.948   4.148   3.602
 3462SOL     OW11284   1.222   4.979   6.418
 3462SOL    HW111285   1.311   4.992   6.374
 3462SOL    HW211286   1.221   5.027   6.505
 3463SOL     OW11287   5.766   4.021   0.193
 3463SOL    HW111288   5.680   4.019   0.143
 3463SOL    HW211289   5.784   4.115   0.223
 3464SOL     OW11290   0.300   4.258   3.753
 3464SOL    HW111291   0.246   4.335   3.718
 3464SOL    HW211292   0.315   4.193   3.679
 3465SOL     OW11293   0.707   3.167   1.859
 3465SOL    HW111294   0.668   3.085   1.901
 3465SOL    HW211295   0.639   3.209   1.798
 3466SOL     OW11296   6.373   3.766   3.490
 3466SOL    HW111297   6.379   3.683   3.545
 3466SOL    HW211298   6.349   3.742   3.396
 3467SOL     OW11299   1.659   2.596   6.310
 3467SOL    HW111300   1.732   2.529   6.321
 3467SOL    HW211301   1.698   2.688   6.311
 3468SOL     OW11302   4.536   5.980   1.680
 3468SOL    HW111303   4.557   6.075   1.702
 3468SOL    HW211304   4.616   5.936   1.640
 3469SOL     OW11305   5.145   4.421   0.433
 3469SOL    HW111306   5.125   4.324   0.448
 3469SOL    HW211307   5.090   4.476   0.496
 3470SOL     OW11308   6.238   5.143   1.418
 3470SOL    HW111309   6.196   5.150   1.509
 3470SOL    HW211310   6.293   5.060   1.413
 3471SOL     OW11311   4.231   6.656   4.878
 3471SOL    HW111312   4.235   6.741   4.825
 3471SOL    HW211313   4.231   6.678   4.976
 3472SOL     OW11314   4.447   0.644   4.574
 3472SOL    HW111315   4.358   0.690   4.567
 3472SOL    HW211316   4.433   0.550   4.606
 3473SOL     OW11317   4.614   6.144   3.973
 3473SOL    HW111318   4.550   6.149   3.896
 3473SOL    HW211319   4.612   6.231   4.023
 3474SOL     OW11320   4.347   4.692   0.259
 3474SOL    HW111321   4.345   4.773   0.318
 3474SOL    HW211322   4.425   4.635   0.283
 3475SOL     OW11323   1.496   5.161   5.289
 3475SOL    HW111324   1.462   5.200   5.374
 3475SOL    HW211325   1.563   5.089   5.309
 3476SOL     OW11326   4.073   1.838   3.488
 3476SOL    HW111327   4.078   1.794   3.399
 3476SOL    HW211328   4.034   1.774   3.554
 3477SOL     OW11329   4.767   5.204   2.150
 3477SOL    HW111330   4.849   5.169   2.104
 3477SOL    HW211331   4.732   5.282   2.099
 3478SOL     OW11332   3.539   4.130   0.505
 3478SOL    HW111333   3.520   4.181   0.590
 3478SOL    HW211334   3.521   4.189   0.427
 3479SOL     OW11335   1.770   0.367   0.493
 3479SOL    HW111336   1.711   0.318   0.428
 3479SOL    HW211337   1.838   0.304   0.530
 3480SOL     OW11338   1.203   6.460   4.335
 3480SOL    HW111339   1.189   6.558   4.324
 3480SOL    HW211340   1.299   6.442   4.355
 3481SOL     OW11341   2.381   5.529   0.230
 3481SOL    HW111342   2.406   5.438   0.264
 3481SOL    HW211343   2.281   5.539   0.234
 3482SOL     OW11344   7.010   2.483   1.139
 3482SOL    HW111345   6.984   2.532   1.055
 3482SOL    HW211346   0.012   2.549   1.212
 3483SOL     OW11347   3.938   1.114   0.903
 3483SOL    HW111348   3.841   1.097   0.923
 3483SOL    HW211349   3.947   1.193   0.843
 3484SOL     OW11350   3.503   4.111   3.346
 3484SOL    HW111351   3.500   4.151   3.438
 3484SOL    HW211352   3.411   4.079   3.321
 3485SOL     OW11353   6.083   2.132   5.178
 3485SOL    HW111354   6.069   2.229   5.193
 3485SOL    HW211355   6.004   2.093   5.130
 3486SOL     OW11356   5.726   0.698   3.545
 3486SOL    HW111357   5.701   0.794   3.534
 3486SOL    HW211358   5.806   0.691   3.604
 3487SOL     OW11359   1.142   0.012   0.808
 3487SOL    HW111360   1.108   0.002   0.902
 3487SOL    HW211361   1.222   6.969   0.795
 3488SOL     OW11362   5.974   3.799   4.383
 3488SOL    HW111363   5.976   3.898   4.394
 3488SOL    HW211364   5.908   3.774   4.313
 3489SOL     OW11365   2.826   5.627   6.778
 3489SOL    HW111366   2.823   5.727   6.783
 3489SOL    HW211367   2.890   5.592   6.846
 3490SOL     OW11368   4.617   4.026   0.409
 3490SOL    HW111369   4.574   4.084   0.479
 3490SOL    HW211370   4.699   4.071   0.374
 3491SOL     OW11371   5.716   2.732   4.984
 3491SOL    HW111372   5.652   2.742   5.060
 3491SOL    HW211373   5.724   2.818   4.935
 3492SOL     OW11374   6.462   4.728   6.848
 3492SOL    HW111375   6.518   4.657   6.805
 3492SOL    HW211376   6.521   4.800   6.884
 3493SOL     OW11377   6.405   4.168   1.265
 3493SOL    HW111378   6.368   4.227   1.336
 3493SOL    HW211379   6.486   4.210   1.225
 3494SOL     OW11380   3.112   6.199   1.040
 3494SOL    HW111381   3.188   6.247   1.085
 3494SOL    HW211382   3.031   6.258   1.040
 3495SOL     OW11383   5.831   4.736   6.110
 3495SOL    HW111384   5.832   4.639   6.134
 3495SOL    HW211385   5.736   4.765   6.094
 3496SOL     OW11386   0.792   5.606   1.230
 3496SOL    HW111387   0.735   5.655   1.164
 3496SOL    HW211388   0.776   5.642   1.322
 3497SOL     OW11389   3.878   6.997   4.966
 3497SOL    HW111390   3.868   6.925   5.035
 3497SOL    HW211391   3.961   0.034   4.985
 3498SOL     OW11392   1.008   1.512   0.275
 3498SOL    HW111393   1.100   1.550   0.280
 3498SOL    HW211394   0.972   1.523   0.182
 3499SOL     OW11395   6.875   3.989   4.003
 3499SOL    HW111396   6.854   4.059   4.071
 3499SOL    HW211397   6.846   4.021   3.913
 3500SOL     OW11398   5.716   2.920   0.888
 3500SOL    HW111399   5.767   3.001   0.915
 3500SOL    HW211400   5.667   2.938   0.803
 3501SOL     OW11401   0.704   4.636   3.161
 3501SOL    HW111402   0.680   4.631   3.065
 3501SOL    HW211403   0.629   4.678   3.212
 3502SOL     OW11404   0.846   5.125   1.551
 3502SOL    HW111405   0.836   5.210   1.499
 3502SOL    HW211406   0.756   5.097   1.586
 3503SOL     OW11407   3.650   6.857   3.913
 3503SOL    HW111408   3.668   6.878   3.816
 3503SOL    HW211409   3.553   6.837   3.925
 3504SOL     OW11410   1.910   2.891   2.405
 3504SOL    HW111411   1.834   2.912   2.466
 3504SOL    HW211412   1.996   2.893   2.456
 3505SOL     OW11413   4.811   6.491   4.921
 3505SOL    HW111414   4.765   6.570   4.962
 3505SOL    HW211415   4.809   6.501   4.821
 3506SOL     OW11416   6.745   4.467   1.987
 3506SOL    HW111417   6.749   4.567   1.982
 3506SOL    HW211418   6.703   4.440   2.073
 3507SOL     OW11419   6.931   0.097   5.991
 3507SOL    HW111420   6.980   0.012   5.967
 3507SOL    HW211421   6.964   0.130   6.079
 3508SOL     OW11422   6.484   4.272   6.752
 3508SOL    HW111423   6.552   4.213   6.795
 3508SOL    HW211424   6.430   4.219   6.687
 3509SOL     OW11425   5.332   6.803   0.036
 3509SOL    HW111426   5.292   6.891   0.063
 3509SOL    HW211427   5.378   6.762   0.115
 3510SOL     OW11428   1.997   1.401   1.960
 3510SOL    HW111429   2.093   1.414   1.985
 3510SOL    HW211430   1.963   1.482   1.913
 3511SOL     OW11431   1.015   0.728   4.696
 3511SOL    HW111432   0.942   0.729   4.764
 3511SOL    HW211433   1.101   0.704   4.740
 3512SOL     OW11434   4.252   3.026   1.149
 3512SOL    HW111435   4.176   3.027   1.215
 3512SOL    HW211436   4.282   2.932   1.136
 3513SOL     OW11437   6.137   4.403   1.236
 3513SOL    HW111438   6.181   4.410   1.146
 3513SOL    HW211439   6.203   4.372   1.303
 3514SOL     OW11440   2.202   6.279   1.974
 3514SOL    HW111441   2.146   6.320   1.902
 3514SOL    HW211442   2.161   6.193   2.004
 3515SOL     OW11443   3.700   5.845   3.532
 3515SOL    HW111444   3.670   5.912   3.465
 3515SOL    HW211445   3.797   5.859   3.552
 3516SOL     OW11446   1.991   0.608   0.188
 3516SOL    HW111447   1.897   0.615   0.155
 3516SOL    HW211448   2.002   0.523   0.240
 3517SOL     OW11449   0.523   0.478   6.695
 3517SOL    HW111450   0.442   0.449   6.746
 3517SOL    HW211451   0.568   0.552   6.743
 3518SOL     OW11452   4.227   3.218   6.085
 3518SOL    HW111453   4.238   3.119   6.088
 3518SOL    HW211454   4.149   3.245   6.141
 3519SOL     OW11455   3.126   0.092   0.589
 3519SOL    HW111456   3.057   0.139   0.534
 3519SOL    HW211457   3.213   0.090   0.539
 3520SOL     OW11458   3.571   4.819   1.647
 3520SOL    HW111459   3.522   4.898   1.684
 3520SOL    HW211460   3.553   4.739   1.704
 3521SOL     OW11461   6.717   1.802   5.586
 3521SOL    HW111462   6.760   1.892   5.589
 3521SOL    HW211463   6.755   1.745   5.659
 3522SOL     OW11464   2.802   0.655   0.755
 3522SOL    HW111465   2.709   0.633   0.725
 3522SOL    HW211466   2.811   0.755   0.763
 3523SOL     OW11467   2.255   4.604   4.926
 3523SOL    HW111468   2.355   4.616   4.928
 3523SOL    HW211469   2.228   4.540   4.998
 3524SOL     OW11470   2.633   1.322   3.457
 3524SOL    HW111471   2.568   1.279   3.520
 3524SOL    HW211472   2.726   1.314   3.495
 3525SOL     OW11473   1.557   2.973   3.384
 3525SOL    HW111474   1.490   2.902   3.405
 3525SOL    HW211475   1.512   3.047   3.335
 3526SOL     OW11476   3.632   6.219   3.745
 3526SOL    HW111477   3.615   6.210   3.647
 3526SOL    HW211478   3.657   6.314   3.766
 3527SOL     OW11479   5.534   3.536   0.363
 3527SOL    HW111480   5.462   3.579   0.308
 3527SOL    HW211481   5.623   3.561   0.325
 3528SOL     OW11482   1.791   0.135   4.649
 3528SOL    HW111483   1.712   0.157   4.706
 3528SOL    HW211484   1.825   0.218   4.605
 3529SOL     OW11485   3.734   5.498   0.172
 3529SOL    HW111486   3.832   5.493   0.149
 3529SOL    HW211487   3.681   5.498   0.087
 3530SOL     OW11488   2.081   5.607   3.047
 3530SOL    HW111489   2.108   5.590   2.952
 3530SOL    HW211490   2.028   5.691   3.052
 3531SOL     OW11491   5.116   4.978   0.080
 3531SOL    HW111492   5.031   4.989   0.132
 3531SOL    HW211493   5.169   5.063   0.084
 3532SOL     OW11494   2.375   6.770   1.169
 3532SOL    HW111495   2.311   6.832   1.124
 3532SOL    HW211496   2.327   6.716   1.238
 3533SOL     OW11497   1.463   1.007   3.632
 3533SOL    HW111498   1.527   1.045   3.565
 3533SOL    HW211499   1.450   0.910   3.613
 3534SOL     OW11500   5.326   6.724   4.655
 3534SOL    HW111501   5.297   6.628   4.651
 3534SOL    HW211502   5.332   6.752   4.751
 3535SOL     OW11503   4.898   6.232   0.155
 3535SOL    HW111504   4.850   6.320   0.153
 3535SOL    HW211505   4.925   6.211   0.249
 3536SOL     OW11506   1.250   3.502   2.416
 3536SOL    HW111507   1.285   3.419   2.459
 3536SOL    HW211508   1.315   3.533   2.346
 3537SOL     OW11509   2.835   4.913   1.738
 3537SOL    HW111510   2.777   4.902   1.657
 3537SOL    HW211511   2.887   4.829   1.753
 3538SOL     OW11512   4.143   0.613   3.735
 3538SOL    HW111513   4.060   0.627   3.789
 3538SOL    HW211514   4.198   0.696   3.734
 3539SOL     OW11515   4.733   5.682   5.018
 3539SOL    HW111516   4.797   5.630   5.075
 3539SOL    HW211517   4.741   5.653   4.923
 3540SOL     OW11518   3.745   4.785   6.270
 3540SOL    HW111519   3.765   4.878   6.301
 3540SOL    HW211520   3.803   4.764   6.191
 3541SOL     OW11521   0.448   2.847   2.255
 3541SOL    HW111522   0.450   2.939   2.294
 3541SOL    HW211523   0.475   2.781   2.324
 3542SOL     OW11524   5.729   1.999   0.035
 3542SOL    HW111525   5.657   2.067   0.021
 3542SOL    HW211526   5.725   1.964   0.128
 3543SOL     OW11527   6.941   2.506   3.819
 3543SOL    HW111528   6.846   2.498   3.792
 3543SOL    HW211529   6.995   2.434   3.776
 3544SOL     OW11530   2.610   4.648   6.331
 3544SOL    HW111531   2.632   4.646   6.429
 3544SOL    HW211532   2.571   4.560   6.304
 3545SOL     OW11533   3.558   6.661   0.897
 3545SOL    HW111534   3.650   6.699   0.887
 3545SOL    HW211535   3.494   6.735   0.916
 3546SOL     OW11536   6.020   4.671   1.638
 3546SOL    HW111537   6.076   4.650   1.718
 3546SOL    HW211538   6.077   4.668   1.555
 3547SOL     OW11539   0.663   3.684   4.243
 3547SOL    HW111540   0.672   3.619   4.167
 3547SOL    HW211541   0.592   3.652   4.305
 3548SOL     OW11542   6.856   0.499   5.538
 3548SOL    HW111543   6.885   0.494   5.442
 3548SOL    HW211544   6.890   0.418   5.587
 3549SOL     OW11545   2.096   6.549   6.605
 3549SOL    HW111546   2.115   6.563   6.508
 3549SOL    HW211547   2.033   6.620   6.638
 3550SOL     OW11548   5.933   2.095   6.038
 3550SOL    HW111549   6.029   2.072   6.024
 3550SOL    HW211550   5.925   2.162   6.111
 3551SOL     OW11551   5.713   1.386   5.309
 3551SOL    HW111552   5.761   1.439   5.379
 3551SOL    HW211553   5.639   1.334   5.353
 3552SOL     OW11554   0.088   0.345   3.537
 3552SOL    HW111555   0.012   0.338   3.472
 3552SOL    HW211556   0.061   0.306   3.625
 3553SOL     OW11557   6.122   6.239   6.221
 3553SOL    HW111558   6.221   6.243   6.233
 3553SOL    HW211559   6.090   6.146   6.239
 3554SOL     OW11560   4.913   4.343   6.762
 3554SOL    HW111561   4.902   4.377   6.856
 3554SOL    HW211562   5.003   4.369   6.727
 3555SOL     OW11563   2.577   1.257   5.350
 3555SOL    HW111564   2.654   1.306   5.391
 3555SOL    HW211565   2.560   1.292   5.258
 3556SOL     OW11566   6.323   0.885   0.497
 3556SOL    HW111567   6.407   0.845   0.533
 3556SOL    HW211568   6.247   0.864   0.558
 3557SOL     OW11569   4.661   6.521   1.299
 3557SOL    HW111570   4.745   6.489   1.344
 3557SOL    HW211571   4.676   6.613   1.263
 3558SOL     OW11572   4.312   5.554   2.158
 3558SOL    HW111573   4.251   5.566   2.237
 3558SOL    HW211574   4.332   5.457   2.146
 3559SOL     OW11575   3.735   6.674   6.355
 3559SOL    HW111576   3.809   6.697   6.417
 3559SOL    HW211577   3.710   6.578   6.366
 3560SOL     OW11578   2.194   6.111   4.548
 3560SOL    HW111579   2.240   6.198   4.567
 3560SOL    HW211580   2.262   6.040   4.529
 3561SOL     OW11581   3.702   3.037   5.835
 3561SOL    HW111582   3.746   3.049   5.924
 3561SOL    HW211583   3.770   3.049   5.763
 3562SOL     OW11584   2.591   1.309   0.560
 3562SOL    HW111585   2.504   1.310   0.512
 3562SOL    HW211586   2.598   1.225   0.614
 3563SOL     OW11587   0.326   2.351   6.920
 3563SOL    HW111588   0.325   2.450   6.937
 3563SOL    HW211589   0.292   2.303   7.001
 3564SOL     OW11590   6.351   3.668   2.761
 3564SOL    HW111591   6.260   3.629   2.764
 3564SOL    HW211592   6.348   3.763   2.792
 3565SOL     OW11593   4.634   6.214   5.212
 3565SOL    HW111594   4.574   6.143   5.174
 3565SOL    HW211595   4.703   6.239   5.144
 3566SOL     OW11596   1.104   0.926   5.758
 3566SOL    HW111597   1.162   0.935   5.839
 3566SOL    HW211598   1.161   0.918   5.676
 3567SOL     OW11599   0.074   4.486   6.957
 3567SOL    HW111600   0.057   4.402   7.009
 3567SOL    HW211601   0.007   4.493   6.882
 3568SOL     OW11602   4.014   3.923   5.478
 3568SOL    HW111603   3.977   4.007   5.519
 3568SOL    HW211604   4.091   3.947   5.419
 3569SOL     OW11605   1.785   0.502   3.206
 3569SOL    HW111606   1.812   0.535   3.297
 3569SOL    HW211607   1.821   0.565   3.136
 3570SOL     OW11608   5.918   1.695   4.828
 3570SOL    HW111609   5.954   1.653   4.745
 3570SOL    HW211610   5.827   1.657   4.848
 3571SOL     OW11611   5.958   5.527   4.470
 3571SOL    HW111612   5.943   5.603   4.534
 3571SOL    HW211613   6.034   5.550   4.408
 3572SOL     OW11614   6.352   7.007   5.317
 3572SOL    HW111615   6.377   6.972   5.407
 3572SOL    HW211616   6.280   0.060   5.326
 3573SOL     OW11617   0.161   2.162   0.962
 3573SOL    HW111618   0.085   2.214   0.923
 3573SOL    HW211619   0.241   2.170   0.903
 3574SOL     OW11620   6.196   3.589   6.767
 3574SOL    HW111621   6.211   3.554   6.859
 3574SOL    HW211622   6.128   3.532   6.720
 3575SOL     OW11623   6.520   6.569   1.861
 3575SOL    HW111624   6.476   6.606   1.942
 3575SOL    HW211625   6.498   6.471   1.853
 3576SOL     OW11626   0.084   0.418   0.144
 3576SOL    HW111627   0.065   0.406   0.241
 3576SOL    HW211628   0.112   0.330   0.104
 3577SOL     OW11629   2.264   4.543   6.928
 3577SOL    HW111630   2.262   4.465   6.991
 3577SOL    HW211631   2.230   4.515   6.839
 3578SOL     OW11632   3.754   4.579   1.651
 3578SOL    HW111633   3.661   4.604   1.678
 3578SOL    HW211634   3.765   4.480   1.656
 3579SOL     OW11635   1.824   3.934   5.269
 3579SOL    HW111636   1.894   3.884   5.320
 3579SOL    HW211637   1.792   3.879   5.192
 3580SOL     OW11638   6.430   2.427   0.643
 3580SOL    HW111639   6.477   2.422   0.731
 3580SOL    HW211640   6.331   2.419   0.656
 3581SOL     OW11641   0.045   0.901   3.239
 3581SOL    HW111642   0.081   0.815   3.276
 3581SOL    HW211643   0.085   0.978   3.288
 3582SOL     OW11644   0.336   0.005   5.839
 3582SOL    HW111645   0.250   7.007   5.889
 3582SOL    HW211646   0.362   0.101   5.844
 3583SOL     OW11647   1.060   5.731   1.537
 3583SOL    HW111648   1.083   5.636   1.519
 3583SOL    HW211649   1.143   5.785   1.545
 3584SOL     OW11650   5.976   0.387   5.452
 3584SOL    HW111651   5.941   0.318   5.389
 3584SOL    HW211652   6.075   0.377   5.459
 3585SOL     OW11653   2.060   4.821   3.253
 3585SOL    HW111654   2.112   4.877   3.188
 3585SOL    HW211655   2.082   4.724   3.239
 3586SOL     OW11656   1.051   1.022   6.149
 3586SOL    HW111657   1.064   0.988   6.242
 3586SOL    HW211658   0.955   1.048   6.136
 3587SOL     OW11659   3.287   6.435   6.452
 3587SOL    HW111660   3.241   6.364   6.506
 3587SOL    HW211661   3.261   6.525   6.487
 3588SOL     OW11662   2.808   2.275   5.609
 3588SOL    HW111663   2.771   2.363   5.579
 3588SOL    HW211664   2.879   2.245   5.546
 3589SOL     OW11665   3.349   6.655   4.537
 3589SOL    HW111666   3.261   6.669   4.583
 3589SOL    HW211667   3.353   6.562   4.501
 3590SOL     OW11668   1.176   5.694   6.724
 3590SOL    HW111669   1.249   5.746   6.769
 3590SOL    HW211670   1.211   5.605   6.697
 3591SOL     OW11671   5.185   1.862   5.008
 3591SOL    HW111672   5.198   1.844   5.105
 3591SOL    HW211673   5.261   1.917   4.974
 3592SOL     OW11674   5.825   1.936   1.754
 3592SOL    HW111675   5.877   2.013   1.793
 3592SOL    HW211676   5.796   1.875   1.828
 3593SOL     OW11677   1.175   5.523   4.630
 3593SOL    HW111678   1.246   5.459   4.660
 3593SOL    HW211679   1.115   5.478   4.564
 3594SOL     OW11680   3.827   1.465   4.251
 3594SOL    HW111681   3.917   1.451   4.292
 3594SOL    HW211682   3.758   1.467   4.323
 3595SOL     OW11683   2.248   6.256   5.611
 3595SOL    HW111684   2.207   6.242   5.701
 3595SOL    HW211685   2.182   6.299   5.550
 3596SOL     OW11686   0.299   3.616   3.542
 3596SOL    HW111687   0.256   3.658   3.463
 3596SOL    HW211688   0.391   3.584   3.518
 3597SOL     OW11689   4.172   6.871   4.229
 3597SOL    HW111690   4.141   6.794   4.285
 3597SOL    HW211691   4.099   6.897   4.165
 3598SOL     OW11692   1.545   0.439   6.929
 3598SOL    HW111693   1.614   0.465   6.996
 3598SOL    HW211694   1.536   0.512   6.861
 3599SOL     OW11695   6.654   1.820   4.553
 3599SOL    HW111696   6.687   1.912   4.575
 3599SOL    HW211697   6.610   1.821   4.463
 3600SOL     OW11698   6.212   0.166   1.302
 3600SOL    HW111699   6.152   0.087   1.317
 3600SOL    HW211700   6.210   0.226   1.382
 3601SOL     OW11701   5.946   3.723   5.916
 3601SOL    HW111702   5.974   3.737   5.821
 3601SOL    HW211703   6.005   3.655   5.959
 3602SOL     OW11704   2.883   2.213   1.258
 3602SOL    HW111705   2.961   2.226   1.197
 3602SOL    HW211706   2.799   2.243   1.213
 3603SOL     OW11707   4.469   5.182   4.743
 3603SOL    HW111708   4.390   5.241   4.724
 3603SOL    HW211709   4.467   5.103   4.682
 3604SOL     OW11710   6.095   4.144   3.321
 3604SOL    HW111711   6.119   4.134   3.418
 3604SOL    HW211712   6.088   4.054   3.279
 3605SOL     OW11713   6.112   2.305   6.526
 3605SOL    HW111714   6.019   2.338   6.542
 3605SOL    HW211715   6.110   2.233   6.457
 3606SOL     OW11716   2.152   3.861   3.186
 3606SOL    HW111717   2.203   3.844   3.270
 3606SOL    HW211718   2.178   3.950   3.149
 3607SOL     OW11719   4.426   0.126   6.653
 3607SOL    HW111720   4.425   0.042   6.599
 3607SOL    HW211721   4.410   0.204   6.594
 3608SOL     OW11722   0.903   3.070   3.046
 3608SOL    HW111723   0.959   3.111   2.974
 3608SOL    HW211724   0.945   2.985   3.076
 3609SOL     OW11725   6.849   0.143   4.051
 3609SOL    HW111726   6.938   0.177   4.021
 3609SOL    HW211727   6.862   0.073   4.121
 3610SOL     OW11728   1.512   5.444   6.006
 3610SOL    HW111729   1.547   5.350   6.000
 3610SOL    HW211730   1.496   5.467   6.102
 3611SOL     OW11731   4.680   5.472   5.187
 3611SOL    HW111732   4.655   5.377   5.169
 3611SOL    HW211733   4.619   5.533   5.137
 3612SOL     OW11734   2.211   6.140   1.178
 3612SOL    HW111735   2.212   6.139   1.078
 3612SOL    HW211736   2.122   6.173   1.210
 3613SOL     OW11737   4.760   5.029   5.745
 3613SOL    HW111738   4.716   5.077   5.821
 3613SOL    HW211739   4.829   5.088   5.704
 3614SOL     OW11740   3.518   2.924   4.482
 3614SOL    HW111741   3.514   2.881   4.392
 3614SOL    HW211742   3.607   2.906   4.523
 3615SOL     OW11743   5.542   6.338   6.064
 3615SOL    HW111744   5.621   6.277   6.060
 3615SOL    HW211745   5.573   6.433   6.058
 3616SOL     OW11746   6.103   0.853   4.474
 3616SOL    HW111747   6.181   0.902   4.513
 3616SOL    HW211748   6.027   0.853   4.539
 3617SOL     OW11749   6.811   0.737   0.033
 3617SOL    HW111750   6.892   0.690   7.012
 3617SOL    HW211751   6.778   0.689   0.114
 3618SOL     OW11752   2.677   6.305   6.114
 3618SOL    HW111753   2.730   6.259   6.185
 3618SOL    HW211754   2.594   6.253   6.095
 3619SOL     OW11755   5.205   3.524   3.626
 3619SOL    HW111756   5.107   3.514   3.610
 3619SOL    HW211757   5.248   3.561   3.544
 3620SOL     OW11758   6.056   1.515   4.960
 3620SOL    HW111759   6.027   1.437   4.903
 3620SOL    HW211760   6.022   1.600   4.919
 3621SOL     OW11761   1.436   2.817   5.337
 3621SOL    HW111762   1.483   2.900   5.307
 3621SOL    HW211763   1.496   2.738   5.326
 3622SOL     OW11764   0.585   3.827   1.128
 3622SOL    HW111765   0.683   3.845   1.134
 3622SOL    HW211766   0.568   3.754   1.063
 3623SOL     OW11767   6.929   4.880   4.270
 3623SOL    HW111768   6.850   4.847   4.218
 3623SOL    HW211769   6.931   4.837   4.360
 3624SOL     OW11770   2.355   1.022   1.716
 3624SOL    HW111771   2.341   0.968   1.633
 3624SOL    HW211772   2.447   1.006   1.750
 3625SOL     OW11773   0.967   2.991   4.149
 3625SOL    HW111774   1.003   2.904   4.115
 3625SOL    HW211775   0.868   2.995   4.133
 3626SOL     OW11776   2.885   4.203   5.482
 3626SOL    HW111777   2.925   4.269   5.418
 3626SOL    HW211778   2.806   4.245   5.527
 3627SOL     OW11779   3.250   3.362   3.994
 3627SOL    HW111780   3.335   3.350   4.045
 3627SOL    HW211781   3.233   3.459   3.980
 3628SOL     OW11782   2.862   5.761   4.409
 3628SOL    HW111783   2.931   5.832   4.407
 3628SOL    HW211784   2.877   5.697   4.334
 3629SOL     OW11785   5.363   3.093   5.176
 3629SOL    HW111786   5.432   3.089   5.103
 3629SOL    HW211787   5.399   3.145   5.253
 3630SOL     OW11788   5.416   0.976   5.005
 3630SOL    HW111789   5.377   0.969   5.097
 3630SOL    HW211790   5.474   1.057   5.000
 3631SOL     OW11791   2.206   0.927   4.002
 3631SOL    HW111792   2.267   0.955   4.075
 3631SOL    HW211793   2.179   1.007   3.949
 3632SOL     OW11794   4.105   6.713   6.216
 3632SOL    HW111795   4.133   6.807   6.232
 3632SOL    HW211796   4.059   6.706   6.127
 3633SOL     OW11797   0.974   2.933   5.567
 3633SOL    HW111798   0.963   2.835   5.587
 3633SOL    HW211799   1.056   2.947   5.512
 3634SOL     OW11800   3.125   5.005   6.146
 3634SOL    HW111801   3.168   5.074   6.204
 3634SOL    HW211802   3.185   4.984   6.069
 3635SOL     OW11803   1.916   1.472   4.941
 3635SOL    HW111804   1.951   1.554   4.986
 3635SOL    HW211805   1.851   1.499   4.870
 3636SOL     OW11806   1.240   6.198   0.552
 3636SOL    HW111807   1.210   6.197   0.457
 3636SOL    HW211808   1.170   6.155   0.610
 3637SOL     OW11809   4.614   1.000   1.489
 3637SOL    HW111810   4.585   1.095   1.485
 3637SOL    HW211811   4.707   0.994   1.525
 3638SOL     OW11812   6.565   4.825   3.275
 3638SOL    HW111813   6.543   4.841   3.371
 3638SOL    HW211814   6.554   4.728   3.254
 3639SOL     OW11815   2.477   6.363   0.398
 3639SOL    HW111816   2.415   6.297   0.440
 3639SOL    HW211817   2.424   6.432   0.350
 3640SOL     OW11818   2.035   6.978   1.666
 3640SOL    HW111819   2.047   6.992   1.567
 3640SOL    HW211820   2.080   0.037   1.715
 3641SOL     OW11821   2.343   0.591   4.681
 3641SOL    HW111822   2.409   0.539   4.736
 3641SOL    HW211823   2.279   0.638   4.741
 3642SOL     OW11824   5.782   6.689   2.094
 3642SOL    HW111825   5.814   6.740   2.014
 3642SOL    HW211826   5.689   6.718   2.117
 3643SOL     OW11827   3.916   5.292   5.370
 3643SOL    HW111828   3.869   5.228   5.430
 3643SOL    HW211829   3.854   5.321   5.297
 3644SOL     OW11830   6.684   0.061   1.479
 3644SOL    HW111831   6.642   0.075   1.389
 3644SOL    HW211832   6.698   0.149   1.524
 3645SOL     OW11833   3.835   6.259   2.992
 3645SOL    HW111834   3.917   6.291   2.944
 3645SOL    HW211835   3.756   6.311   2.961
 3646SOL     OW11836   0.097   5.345   4.944
 3646SOL    HW111837   0.126   5.431   4.902
 3646SOL    HW211838   0.015   5.361   4.999
 3647SOL     OW11839   2.761   2.816   1.035
 3647SOL    HW111840   2.830   2.744   1.028
 3647SOL    HW211841   2.746   2.837   1.132
 3648SOL     OW11842   3.330   6.418   3.441
 3648SOL    HW111843   3.263   6.479   3.484
 3648SOL    HW211844   3.335   6.333   3.492
 3649SOL     OW11845   3.298   3.341   2.378
 3649SOL    HW111846   3.210   3.307   2.347
 3649SOL    HW211847   3.330   3.285   2.455
 3650SOL     OW11848   5.548   6.951   1.247
 3650SOL    HW111849   5.450   6.938   1.264
 3650SOL    HW211850   5.560   0.002   1.173
 3651SOL     OW11851   1.441   6.271   2.206
 3651SOL    HW111852   1.350   6.309   2.191
 3651SOL    HW211853   1.449   6.240   2.300
 3652SOL     OW11854   4.495   5.289   2.905
 3652SOL    HW111855   4.488   5.207   2.849
 3652SOL    HW211856   4.406   5.335   2.908
 3653SOL     OW11857   6.332   3.078   4.637
 3653SOL    HW111858   6.308   3.114   4.727
 3653SOL    HW211859   6.345   2.979   4.642
 3654SOL     OW11860   1.375   6.693   1.581
 3654SOL    HW111861   1.401   6.625   1.512
 3654SOL    HW211862   1.456   6.739   1.615
 3655SOL     OW11863   6.750   1.073   3.369
 3655SOL    HW111864   6.760   1.002   3.299
 3655SOL    HW211865   6.838   1.120   3.380
 3656SOL     OW11866   2.752   1.600   2.858
 3656SOL    HW111867   2.771   1.532   2.788
 3656SOL    HW211868   2.653   1.617   2.863
 3657SOL     OW11869   4.563   5.046   2.214
 3657SOL    HW111870   4.551   4.949   2.195
 3657SOL    HW211871   4.653   5.075   2.183
 3658SOL     OW11872   1.945   5.412   5.770
 3658SOL    HW111873   1.967   5.338   5.833
 3658SOL    HW211874   2.019   5.422   5.703
 3659SOL     OW11875   1.245   3.586   0.236
 3659SOL    HW111876   1.244   3.544   0.327
 3659SOL    HW211877   1.340   3.595   0.205
 3660SOL     OW11878   4.244   5.049   0.901
 3660SOL    HW111879   4.205   5.132   0.942
 3660SOL    HW211880   4.336   5.068   0.867
 3661SOL     OW11881   5.231   1.813   1.392
 3661SOL    HW111882   5.156   1.872   1.364
 3661SOL    HW211883   5.245   1.742   1.323
 3662SOL     OW11884   2.085   6.026   4.797
 3662SOL    HW111885   2.135   6.073   4.724
 3662SOL    HW211886   2.091   5.927   4.784
 3663SOL     OW11887   1.579   3.555   5.275
 3663SOL    HW111888   1.557   3.649   5.302
 3663SOL    HW211889   1.496   3.499   5.280
 3664SOL     OW11890   3.865   6.981   2.170
 3664SOL    HW111891   3.812   6.964   2.087
 3664SOL    HW211892   3.854   0.061   2.198
 3665SOL     OW11893   1.864   1.086   5.478
 3665SOL    HW111894   1.948   1.034   5.495
 3665SOL    HW211895   1.889   1.179   5.450
 3666SOL     OW11896   0.872   4.508   4.213
 3666SOL    HW111897   0.958   4.465   4.241
 3666SOL    HW211898   0.843   4.470   4.125
 3667SOL     OW11899   0.984   1.541   6.517
 3667SOL    HW111900   1.047   1.470   6.548
 3667SOL    HW211901   1.035   1.627   6.504
 3668SOL     OW11902   1.529   5.989   2.058
 3668SOL    HW111903   1.584   5.933   1.995
 3668SOL    HW211904   1.506   6.076   2.014
 3669SOL     OW11905   5.528   1.597   3.955
 3669SOL    HW111906   5.471   1.521   3.924
 3669SOL    HW211907   5.573   1.640   3.877
 3670SOL     OW11908   2.326   5.490   6.442
 3670SOL    HW111909   2.299   5.552   6.516
 3670SOL    HW211910   2.425   5.492   6.431
 3671SOL     OW11911   1.727   0.652   3.521
 3671SOL    HW111912   1.776   0.720   3.575
 3671SOL    HW211913   1.792   0.604   3.461
 3672SOL     OW11914   6.523   6.954   0.717
 3672SOL    HW111915   6.470   0.023   0.727
 3672SOL    HW211916   6.578   6.939   0.799
 3673SOL     OW11917   4.319   0.355   6.825
 3673SOL    HW111918   4.362   0.388   6.741
 3673SOL    HW211919   4.220   0.353   6.813
 3674SOL     OW11920   1.327   6.628   0.822
 3674SOL    HW111921   1.256   6.645   0.891
 3674SOL    HW211922   1.295   6.558   0.758
 3675SOL     OW11923   1.685   2.340   4.437
 3675SOL    HW111924   1.610   2.406   4.433
 3675SOL    HW211925   1.702   2.314   4.532
 3676SOL     OW11926   1.516   4.854   2.745
 3676SOL    HW111927   1.608   4.817   2.731
 3676SOL    HW211928   1.500   4.870   2.842
 3677SOL     OW11929   6.447   6.602   4.059
 3677SOL    HW111930   6.511   6.596   4.135
 3677SOL    HW211931   6.373   6.665   4.082
 3678SOL     OW11932   1.582   1.683   3.597
 3678SOL    HW111933   1.669   1.725   3.623
 3678SOL    HW211934   1.530   1.746   3.540
 3679SOL     OW11935   6.854   0.844   1.668
 3679SOL    HW111936   6.916   0.798   1.731
 3679SOL    HW211937   6.895   0.930   1.637
 3680SOL     OW11938   5.901   4.750   4.841
 3680SOL    HW111939   5.888   4.685   4.915
 3680SOL    HW211940   5.928   4.839   4.878
 3681SOL     OW11941   5.575   6.154   4.596
 3681SOL    HW111942   5.563   6.066   4.640
 3681SOL    HW211943   5.517   6.222   4.640
 3682SOL     OW11944   0.641   2.675   6.438
 3682SOL    HW111945   0.703   2.599   6.454
 3682SOL    HW211946   0.556   2.660   6.487
 3683SOL     OW11947   5.469   6.197   3.903
 3683SOL    HW111948   5.479   6.263   3.828
 3683SOL    HW211949   5.412   6.121   3.872
 3684SOL     OW11950   1.998   3.285   0.815
 3684SOL    HW111951   1.938   3.316   0.741
 3684SOL    HW211952   1.981   3.188   0.834
 3685SOL     OW11953   6.352   6.626   6.908
 3685SOL    HW111954   6.364   6.684   6.989
 3685SOL    HW211955   6.433   6.633   6.850
 3686SOL     OW11956   6.813   4.410   1.312
 3686SOL    HW111957   6.776   4.322   1.280
 3686SOL    HW211958   6.871   4.450   1.241
 3687SOL     OW11959   3.605   1.339   0.236
 3687SOL    HW111960   3.633   1.260   0.291
 3687SOL    HW211961   3.676   1.359   0.168
 3688SOL     OW11962   6.378   3.266   0.259
 3688SOL    HW111963   6.290   3.303   0.288
 3688SOL    HW211964   6.438   3.256   0.338
 3689SOL     OW11965   2.985   6.856   3.468
 3689SOL    HW111966   2.906   6.912   3.444
 3689SOL    HW211967   3.030   6.825   3.385
 3690SOL     OW11968   4.215   5.647   5.013
 3690SOL    HW111969   4.203   5.603   5.102
 3690SOL    HW211970   4.220   5.746   5.025
 3691SOL     OW11971   3.108   2.942   6.263
 3691SOL    HW111972   3.136   2.976   6.353
 3691SOL    HW211973   3.184   2.892   6.221
 3692SOL     OW11974   0.864   0.004   6.228
 3692SOL    HW111975   0.924   0.066   6.278
 3692SOL    HW211976   0.771   0.040   6.226
 3693SOL     OW11977   2.066   1.365   3.441
 3693SOL    HW111978   2.021   1.342   3.527
 3693SOL    HW211979   2.088   1.281   3.391
 3694SOL     OW11980   2.197   5.575   2.784
 3694SOL    HW111981   2.128   5.513   2.746
 3694SOL    HW211982   2.287   5.552   2.746
 3695SOL     OW11983   1.433   2.618   1.279
 3695SOL    HW111984   1.503   2.686   1.304
 3695SOL    HW211985   1.365   2.661   1.220
 3696SOL     OW11986   3.055   5.739   5.915
 3696SOL    HW111987   2.972   5.743   5.859
 3696SOL    HW211988   3.135   5.749   5.856
 3697SOL     OW11989   5.278   0.426   4.067
 3697SOL    HW111990   5.195   0.425   4.012
 3697SOL    HW211991   5.310   0.521   4.078
 3698SOL     OW11992   3.489   0.430   6.543
 3698SOL    HW111993   3.550   0.505   6.566
 3698SOL    HW211994   3.540   0.343   6.546
 3699SOL     OW11995   1.004   4.624   1.819
 3699SOL    HW111996   1.047   4.709   1.846
 3699SOL    HW211997   1.042   4.548   1.873
 3700SOL     OW11998   0.297   0.456   3.403
 3700SOL    HW111999   0.366   0.389   3.376
 3700SOL    HW212000   0.224   0.411   3.454
 3701SOL     OW12001   5.382   0.517   3.544
 3701SOL    HW112002   5.372   0.596   3.604
 3701SOL    HW212003   5.302   0.512   3.483
 3702SOL     OW12004   4.943   0.557   6.310
 3702SOL    HW112005   4.852   0.584   6.281
 3702SOL    HW212006   4.992   0.517   6.233
 3703SOL     OW12007   3.589   4.699   0.497
 3703SOL    HW112008   3.508   4.725   0.446
 3703SOL    HW212009   3.664   4.682   0.433
 3704SOL     OW12010   2.644   6.870   2.086
 3704SOL    HW112011   2.682   6.889   1.996
 3704SOL    HW212012   2.708   6.812   2.137
 3705SOL     OW12013   5.983   1.382   4.352
 3705SOL    HW112014   6.003   1.466   4.301
 3705SOL    HW212015   5.890   1.386   4.388
 3706SOL     OW12016   2.743   2.373   3.361
 3706SOL    HW112017   2.652   2.400   3.394
 3706SOL    HW212018   2.758   2.411   3.270
 3707SOL     OW12019   4.470   2.608   5.389
 3707SOL    HW112020   4.401   2.620   5.460
 3707SOL    HW212021   4.495   2.697   5.351
 3708SOL     OW12022   6.356   0.046   6.722
 3708SOL    HW112023   6.347   0.079   6.816
 3708SOL    HW212024   6.291   6.988   6.706
 3709SOL     OW12025   5.441   0.557   0.181
 3709SOL    HW112026   5.412   0.625   0.113
 3709SOL    HW212027   5.540   0.543   0.174
 3710SOL     OW12028   0.294   4.661   6.949
 3710SOL    HW112029   0.220   4.593   6.948
 3710SOL    HW212030   0.370   4.626   7.004
 3711SOL     OW12031   6.880   5.171   2.323
 3711SOL    HW112032   6.836   5.246   2.273
 3711SOL    HW212033   6.913   5.103   2.258
 3712SOL     OW12034   1.618   0.203   0.326
 3712SOL    HW112035   1.585   0.222   0.234
 3712SOL    HW212036   1.551   0.145   0.374
 3713SOL     OW12037   3.499   4.998   6.034
 3713SOL    HW112038   3.599   5.004   6.036
 3713SOL    HW212039   3.461   5.084   6.001
 3714SOL     OW12040   4.444   1.561   5.283
 3714SOL    HW112041   4.365   1.562   5.223
 3714SOL    HW212042   4.488   1.471   5.278
 3715SOL     OW12043   5.520   4.085   3.761
 3715SOL    HW112044   5.430   4.127   3.753
 3715SOL    HW212045   5.571   4.130   3.835
 3716SOL     OW12046   0.687   1.583   4.083
 3716SOL    HW112047   0.631   1.539   4.152
 3716SOL    HW212048   0.783   1.585   4.113
 3717SOL     OW12049   6.284   0.423   0.482
 3717SOL    HW112050   6.198   0.381   0.452
 3717SOL    HW212051   6.297   0.407   0.580
 3718SOL     OW12052   0.784   5.325   0.278
 3718SOL    HW112053   0.708   5.272   0.316
 3718SOL    HW212054   0.772   5.422   0.301
 3719SOL     OW12055   3.756   4.703   0.076
 3719SOL    HW112056   3.713   4.793   0.071
 3719SOL    HW212057   3.711   4.641   0.011
 3720SOL     OW12058   0.341   1.257   5.662
 3720SOL    HW112059   0.329   1.268   5.760
 3720SOL    HW212060   0.433   1.286   5.636
 3721SOL     OW12061   4.725   3.680   0.135
 3721SOL    HW112062   4.706   3.586   0.106
 3721SOL    HW212063   4.699   3.743   0.061
 3722SOL     OW12064   5.628   6.028   1.645
 3722SOL    HW112065   5.634   5.933   1.675
 3722SOL    HW212066   5.539   6.044   1.603
 3723SOL     OW12067   4.508   0.948   0.546
 3723SOL    HW112068   4.603   0.918   0.539
 3723SOL    HW212069   4.472   0.968   0.455
 3724SOL     OW12070   6.920   4.797   5.617
 3724SOL    HW112071   6.867   4.875   5.586
 3724SOL    HW212072   7.015   4.825   5.632
 3725SOL     OW12073   6.216   6.104   0.867
 3725SOL    HW112074   6.129   6.055   0.871
 3725SOL    HW212075   6.266   6.091   0.953
 3726SOL     OW12076   6.027   2.995   1.180
 3726SOL    HW112077   6.120   3.025   1.202
 3726SOL    HW212078   6.021   2.896   1.188
 3727SOL     OW12079   2.409   2.840   5.385
 3727SOL    HW112080   2.430   2.906   5.312
 3727SOL    HW212081   2.310   2.833   5.396
 3728SOL     OW12082   0.731   3.576   6.759
 3728SOL    HW112083   0.653   3.616   6.711
 3728SOL    HW212084   0.810   3.636   6.750
 3729SOL     OW12085   0.510   2.601   3.332
 3729SOL    HW112086   0.585   2.543   3.298
 3729SOL    HW212087   0.539   2.696   3.330
 3730SOL     OW12088   2.347   0.410   0.864
 3730SOL    HW112089   2.342   0.341   0.792
 3730SOL    HW212090   2.437   0.408   0.907
 3731SOL     OW12091   3.229   5.819   6.396
 3731SOL    HW112092   3.172   5.872   6.334
 3731SOL    HW212093   3.308   5.873   6.425
 3732SOL     OW12094   1.915   3.750   4.628
 3732SOL    HW112095   1.910   3.850   4.622
 3732SOL    HW212096   1.837   3.716   4.681
 3733SOL     OW12097   3.485   3.201   0.950
 3733SOL    HW112098   3.578   3.169   0.930
 3733SOL    HW212099   3.425   3.122   0.962
 3734SOL     OW12100   4.925   6.960   3.836
 3734SOL    HW112101   5.021   6.989   3.842
 3734SOL    HW212102   4.911   6.879   3.893
 3735SOL     OW12103   3.304   1.957   1.820
 3735SOL    HW112104   3.351   1.989   1.903
 3735SOL    HW212105   3.206   1.950   1.838
 3736SOL     OW12106   5.061   1.202   5.840
 3736SOL    HW112107   5.141   1.203   5.900
 3736SOL    HW212108   5.087   1.232   5.749
 3737SOL     OW12109   3.810   6.439   4.226
 3737SOL    HW112110   3.831   6.362   4.166
 3737SOL    HW212111   3.809   6.523   4.172
 3738SOL     OW12112   0.147   0.220   4.482
 3738SOL    HW112113   0.093   0.136   4.494
 3738SOL    HW212114   0.120   0.287   4.552
 3739SOL     OW12115   1.080   3.264   1.680
 3739SOL    HW112116   1.147   3.338   1.671
 3739SOL    HW212117   1.112   3.198   1.748
 3740SOL     OW12118   5.550   0.451   6.892
 3740SOL    HW112119   5.552   0.437   6.793
 3740SOL    HW212120   5.462   0.422   6.928
 3741SOL     OW12121   3.396   2.273   0.110
 3741SOL    HW112122   3.451   2.343   0.063
 3741SOL    HW212123   3.321   2.245   0.051
 3742SOL     OW12124   3.453   3.365   5.525
 3742SOL    HW112125   3.370   3.349   5.578
 3742SOL    HW212126   3.523   3.406   5.584
 3743SOL     OW12127   0.989   5.617   6.173
 3743SOL    HW112128   0.997   5.653   6.266
 3743SOL    HW212129   0.893   5.599   6.153
 3744SOL     OW12130   6.580   5.196   3.220
 3744SOL    HW112131   6.533   5.157   3.141
 3744SOL    HW212132   6.678   5.186   3.209
 3745SOL     OW12133   5.150   6.054   1.789
 3745SOL    HW112134   5.169   5.979   1.852
 3745SOL    HW212135   5.221   6.124   1.797
 3746SOL     OW12136   4.368   1.364   1.911
 3746SOL    HW112137   4.306   1.403   1.843
 3746SOL    HW212138   4.360   1.264   1.909
 3747SOL     OW12139   2.712   0.354   0.484
 3747SOL    HW112140   2.716   0.447   0.445
 3747SOL    HW212141   2.677   0.359   0.577
 3748SOL     OW12142   5.254   0.611   1.759
 3748SOL    HW112143   5.241   0.587   1.855
 3748SOL    HW212144   5.314   0.544   1.716
 3749SOL     OW12145   1.692   0.454   4.215
 3749SOL    HW112146   1.751   0.534   4.223
 3749SOL    HW212147   1.641   0.441   4.300
 3750SOL     OW12148   6.975   4.256   6.342
 3750SOL    HW112149   6.936   4.202   6.268
 3750SOL    HW212150   6.925   4.239   6.426
 3751SOL     OW12151   1.587   4.040   1.338
 3751SOL    HW112152   1.539   3.991   1.265
 3751SOL    HW212153   1.658   3.982   1.376
 3752SOL     OW12154   5.128   5.931   0.047
 3752SOL    HW112155   5.221   5.905   0.075
 3752SOL    HW212156   5.124   6.030   0.033
 3753SOL     OW12157   0.569   0.167   3.306
 3753SOL    HW112158   0.592   0.262   3.284
 3753SOL    HW212159   0.509   0.165   3.386
 3754SOL     OW12160   2.751   1.323   1.390
 3754SOL    HW112161   2.736   1.287   1.482
 3754SOL    HW212162   2.704   1.410   1.381
 3755SOL     OW12163   2.723   5.466   4.396
 3755SOL    HW112164   2.779   5.424   4.467
 3755SOL    HW212165   2.720   5.565   4.410
 3756SOL     OW12166   1.351   6.863   0.725
 3756SOL    HW112167   1.335   6.771   0.760
 3756SOL    HW212168   1.393   6.858   0.635
 3757SOL     OW12169   0.589   4.238   0.963
 3757SOL    HW112170   0.502   4.272   0.929
 3757SOL    HW212171   0.582   4.218   1.061
 3758SOL     OW12172   1.763   6.854   4.018
 3758SOL    HW112173   1.755   6.827   4.114
 3758SOL    HW212174   1.679   6.899   3.989
 3759SOL     OW12175   5.491   0.231   4.440
 3759SOL    HW112176   5.467   0.139   4.474
 3759SOL    HW212177   5.563   0.223   4.371
 3760SOL     OW12178   1.237   0.815   2.886
 3760SOL    HW112179   1.158   0.876   2.889
 3760SOL    HW212180   1.280   0.819   2.795
 3761SOL     OW12181   4.329   1.788   5.608
 3761SOL    HW112182   4.296   1.797   5.514
 3761SOL    HW212183   4.428   1.801   5.609
 3762SOL     OW12184   0.516   2.908   3.901
 3762SOL    HW112185   0.598   2.965   3.906
 3762SOL    HW212186   0.515   2.857   3.815
 3763SOL     OW12187   0.668   5.418   6.679
 3763SOL    HW112188   0.627   5.497   6.633
 3763SOL    HW212189   0.722   5.449   6.757
 3764SOL     OW12190   2.953   1.150   2.667
 3764SOL    HW112191   2.858   1.175   2.686
 3764SOL    HW212192   3.002   1.231   2.635
 3765SOL     OW12193   5.328   2.783   2.816
 3765SOL    HW112194   5.269   2.859   2.789
 3765SOL    HW212195   5.273   2.699   2.822
 3766SOL     OW12196   1.365   2.984   2.557
 3766SOL    HW112197   1.438   2.954   2.617
 3766SOL    HW212198   1.287   2.923   2.566
 3767SOL     OW12199   1.624   5.986   5.813
 3767SOL    HW112200   1.649   6.026   5.725
 3767SOL    HW212201   1.683   6.025   5.885
 3768SOL     OW12202   1.786   6.742   2.568
 3768SOL    HW112203   1.688   6.722   2.575
 3768SOL    HW212204   1.828   6.680   2.501
 3769SOL     OW12205   5.251   5.477   4.341
 3769SOL    HW112206   5.345   5.448   4.323
 3769SOL    HW212207   5.189   5.400   4.324
 3770SOL     OW12208   2.917   0.539   1.431
 3770SOL    HW112209   2.983   0.610   1.454
 3770SOL    HW212210   2.845   0.578   1.374
 3771SOL     OW12211   6.744   5.959   5.383
 3771SOL    HW112212   6.814   5.963   5.454
 3771SOL    HW212213   6.671   6.024   5.403
 3772SOL     OW12214   1.535   6.262   1.943
 3772SOL    HW112215   1.496   6.287   2.031
 3772SOL    HW212216   1.521   6.337   1.878
 3773SOL     OW12217   4.813   4.993   6.932
 3773SOL    HW112218   4.809   5.013   0.014
 3773SOL    HW212219   4.859   4.905   6.918
 3774SOL     OW12220   6.669   4.697   1.714
 3774SOL    HW112221   6.746   4.641   1.683
 3774SOL    HW212222   6.690   4.734   1.804
 3775SOL     OW12223   5.232   5.176   5.123
 3775SOL    HW112224   5.307   5.228   5.083
 3775SOL    HW212225   5.145   5.220   5.100
 3776SOL     OW12226   4.384   2.974   6.405
 3776SOL    HW112227   4.449   2.912   6.359
 3776SOL    HW212228   4.350   3.041   6.339
 3777SOL     OW12229   3.028   5.262   3.854
 3777SOL    HW112230   3.056   5.181   3.906
 3777SOL    HW212231   2.945   5.241   3.802
 3778SOL     OW12232   2.977   4.868   6.780
 3778SOL    HW112233   2.957   4.959   6.746
 3778SOL    HW212234   3.076   4.858   6.794
 3779SOL     OW12235   6.836   4.583   6.861
 3779SOL    HW112236   6.828   4.677   6.896
 3779SOL    HW212237   6.761   4.564   6.798
 3780SOL     OW12238   5.956   3.051   1.857
 3780SOL    HW112239   6.028   3.027   1.791
 3780SOL    HW212240   5.885   3.103   1.810
 3781SOL     OW12241   1.468   6.873   5.655
 3781SOL    HW112242   1.545   6.881   5.718
 3781SOL    HW212243   1.447   6.776   5.640
 3782SOL     OW12244   4.113   5.343   0.255
 3782SOL    HW112245   4.166   5.294   0.186
 3782SOL    HW212246   4.116   5.293   0.342
 3783SOL     OW12247   4.685   5.325   4.805
 3783SOL    HW112248   4.613   5.260   4.780
 3783SOL    HW212249   4.650   5.419   4.793
 3784SOL     OW12250   5.238   2.929   5.406
 3784SOL    HW112251   5.197   2.853   5.357
 3784SOL    HW212252   5.310   2.971   5.350
 3785SOL     OW12253   0.974   2.259   2.959
 3785SOL    HW112254   1.028   2.337   2.991
 3785SOL    HW212255   0.973   2.258   2.859
 3786SOL     OW12256   1.924   3.042   4.913
 3786SOL    HW112257   1.969   2.994   4.838
 3786SOL    HW212258   1.990   3.062   4.985
 3787SOL     OW12259   5.319   6.302   4.283
 3787SOL    HW112260   5.257   6.325   4.208
 3787SOL    HW212261   5.413   6.319   4.255
 3788SOL     OW12262   5.457   3.065   5.690
 3788SOL    HW112263   5.404   3.131   5.743
 3788SOL    HW212264   5.420   2.973   5.704
 3789SOL     OW12265   2.102   3.128   1.252
 3789SOL    HW112266   2.160   3.083   1.320
 3789SOL    HW212267   2.139   3.219   1.233
 3790SOL     OW12268   0.824   6.753   1.528
 3790SOL    HW112269   0.731   6.729   1.500
 3790SOL    HW212270   0.886   6.677   1.507
 3791SOL     OW12271   4.890   0.750   4.867
 3791SOL    HW112272   4.866   0.837   4.823
 3791SOL    HW212273   4.826   0.679   4.838
 3792SOL     OW12274   6.543   0.313   4.261
 3792SOL    HW112275   6.492   0.397   4.278
 3792SOL    HW212276   6.603   0.294   4.338
 3793SOL     OW12277   3.934   4.433   0.758
 3793SOL    HW112278   3.835   4.445   0.755
 3793SOL    HW212279   3.969   4.417   0.666
 3794SOL     OW12280   1.624   5.190   6.043
 3794SOL    HW112281   1.666   5.120   5.985
 3794SOL    HW212282   1.677   5.199   6.128
 3795SOL     OW12283   3.088   6.302   0.768
 3795SOL    HW112284   3.085   6.399   0.793
 3795SOL    HW212285   3.082   6.247   0.851
 3796SOL     OW12286   4.985   1.123   0.061
 3796SOL    HW112287   5.000   1.130   6.978
 3796SOL    HW212288   5.067   1.086   0.104
 3797SOL     OW12289   0.128   2.923   1.034
 3797SOL    HW112290   0.101   2.991   1.102
 3797SOL    HW212291   0.226   2.929   1.016
 3798SOL     OW12292   0.985   5.190   3.633
 3798SOL    HW112293   1.076   5.228   3.646
 3798SOL    HW212294   0.930   5.206   3.715
 3799SOL     OW12295   0.436   1.022   3.403
 3799SOL    HW112296   0.504   1.094   3.415
 3799SOL    HW212297   0.482   0.933   3.397
 3800SOL     OW12298   5.352   2.567   3.192
 3800SOL    HW112299   5.302   2.487   3.224
 3800SOL    HW212300   5.447   2.542   3.173
 3801SOL     OW12301   5.859   0.972   0.586
 3801SOL    HW112302   5.888   1.023   0.667
 3801SOL    HW212303   5.863   0.874   0.605
 3802SOL     OW12304   6.359   3.310   1.913
 3802SOL    HW112305   6.302   3.383   1.874
 3802SOL    HW212306   6.333   3.294   2.008
 3803SOL     OW12307   4.351   3.834   5.439
 3803SOL    HW112308   4.298   3.910   5.402
 3803SOL    HW212309   4.343   3.755   5.379
 3804SOL     OW12310   3.912   6.505   3.892
 3804SOL    HW112311   3.948   6.428   3.839
 3804SOL    HW212312   3.827   6.537   3.850
 3805SOL     OW12313   2.381   2.080   6.667
 3805SOL    HW112314   2.342   2.167   6.639
 3805SOL    HW212315   2.450   2.095   6.738
 3806SOL     OW12316   2.211   5.128   1.672
 3806SOL    HW112317   2.280   5.104   1.603
 3806SOL    HW212318   2.135   5.064   1.666
 3807SOL     OW12319   1.155   4.150   3.637
 3807SOL    HW112320   1.058   4.172   3.629
 3807SOL    HW212321   1.186   4.105   3.553
 3808SOL     OW12322   2.733   6.504   5.950
 3808SOL    HW112323   2.727   6.479   5.853
 3808SOL    HW212324   2.711   6.425   6.007
 3809SOL     OW12325   5.291   1.639   1.816
 3809SOL    HW112326   5.254   1.696   1.889
 3809SOL    HW212327   5.389   1.658   1.806
 3810SOL     OW12328   4.976   2.256   3.027
 3810SOL    HW112329   4.910   2.329   3.012
 3810SOL    HW212330   4.995   2.247   3.124
 3811SOL     OW12331   6.721   6.129   5.114
 3811SOL    HW112332   6.791   6.061   5.092
 3811SOL    HW212333   6.759   6.196   5.178
 3812SOL     OW12334   4.157   5.941   0.101
 3812SOL    HW112335   4.247   5.967   0.067
 3812SOL    HW212336   4.168   5.890   0.187
 3813SOL     OW12337   5.562   4.368   6.909
 3813SOL    HW112338   5.586   4.282   6.863
 3813SOL    HW212339   5.568   4.356   7.008
 3814SOL     OW12340   0.652   0.308   5.100
 3814SOL    HW112341   0.690   0.336   5.188
 3814SOL    HW212342   0.726   0.300   5.033
 3815SOL     OW12343   5.781   3.473   6.173
 3815SOL    HW112344   5.760   3.570   6.161
 3815SOL    HW212345   5.801   3.432   6.084
 3816SOL     OW12346   6.553   6.285   0.903
 3816SOL    HW112347   6.545   6.369   0.850
 3816SOL    HW212348   6.649   6.269   0.927
 3817SOL     OW12349   4.325   3.673   1.536
 3817SOL    HW112350   4.401   3.697   1.596
 3817SOL    HW212351   4.252   3.740   1.545
 3818SOL     OW12352   5.149   5.965   2.548
 3818SOL    HW112353   5.086   5.927   2.480
 3818SOL    HW212354   5.217   5.896   2.573
 3819SOL     OW12355   6.445   3.466   3.308
 3819SOL    HW112356   6.413   3.551   3.266
 3819SOL    HW212357   6.526   3.484   3.364
 3820SOL     OW12358   3.449   6.803   5.667
 3820SOL    HW112359   3.355   6.804   5.632
 3820SOL    HW212360   3.457   6.730   5.736
 3821SOL     OW12361   1.982   0.094   0.323
 3821SOL    HW112362   1.904   0.075   0.383
 3821SOL    HW212363   1.956   0.164   0.256
 3822SOL     OW12364   4.796   6.945   2.006
 3822SOL    HW112365   4.858   6.927   1.929
 3822SOL    HW212366   4.750   6.860   2.032
 3823SOL     OW12367   5.328   6.508   5.195
 3823SOL    HW112368   5.239   6.552   5.208
 3823SOL    HW212369   5.332   6.422   5.246
 3824SOL     OW12370   2.230   2.952   0.558
 3824SOL    HW112371   2.170   2.903   0.495
 3824SOL    HW212372   2.274   2.888   0.620
 3825SOL     OW12373   0.159   5.090   5.822
 3825SOL    HW112374   0.069   5.051   5.843
 3825SOL    HW212375   0.187   5.062   5.730
 3826SOL     OW12376   5.294   3.577   3.236
 3826SOL    HW112377   5.392   3.575   3.218
 3826SOL    HW212378   5.274   3.647   3.305
 3827SOL     OW12379   0.161   1.784   6.762
 3827SOL    HW112380   0.161   1.806   6.860
 3827SOL    HW212381   0.184   1.866   6.710
 3828SOL     OW12382   4.152   3.444   4.174
 3828SOL    HW112383   4.165   3.448   4.273
 3828SOL    HW212384   4.056   3.422   4.154
 3829SOL     OW12385   0.587   3.128   1.377
 3829SOL    HW112386   0.601   3.167   1.468
 3829SOL    HW212387   0.668   3.074   1.351
 3830SOL     OW12388   5.848   0.319   3.505
 3830SOL    HW112389   5.748   0.321   3.501
 3830SOL    HW212390   5.877   0.232   3.545
 3831SOL     OW12391   4.682   2.298   3.147
 3831SOL    HW112392   4.762   2.244   3.173
 3831SOL    HW212393   4.659   2.280   3.052
 3832SOL     OW12394   6.523   0.713   3.611
 3832SOL    HW112395   6.548   0.809   3.603
 3832SOL    HW212396   6.605   0.658   3.630
 3833SOL     OW12397   1.805   2.990   5.531
 3833SOL    HW112398   1.808   3.003   5.431
 3833SOL    HW212399   1.746   2.913   5.553
 3834SOL     OW12400   5.034   4.666   1.017
 3834SOL    HW112401   5.056   4.730   1.091
 3834SOL    HW212402   5.037   4.573   1.053
 3835SOL     OW12403   4.231   5.568   5.334
 3835SOL    HW112404   4.312   5.612   5.374
 3835SOL    HW212405   4.156   5.570   5.400
 3836SOL     OW12406   6.710   6.224   4.835
 3836SOL    HW112407   6.730   6.191   4.927
 3836SOL    HW212408   6.646   6.301   4.841
 3837SOL     OW12409   4.164   4.871   6.036
 3837SOL    HW112410   4.247   4.920   6.011
 3837SOL    HW212411   4.178   4.822   6.122
 3838SOL     OW12412   6.977   0.545   4.117
 3838SOL    HW112413   6.888   0.501   4.107
 3838SOL    HW212414   0.026   0.481   4.160
 3839SOL     OW12415   4.999   0.672   3.566
 3839SOL    HW112416   5.049   0.753   3.594
 3839SOL    HW212417   4.973   0.619   3.647
 3840SOL     OW12418   3.364   1.336   6.774
 3840SOL    HW112419   3.287   1.375   6.824
 3840SOL    HW212420   3.330   1.290   6.691
 3841SOL     OW12421   6.046   4.293   3.922
 3841SOL    HW112422   5.952   4.295   3.955
 3841SOL    HW212423   6.079   4.198   3.922
 3842SOL     OW12424   2.230   4.190   6.043
 3842SOL    HW112425   2.249   4.105   6.091
 3842SOL    HW212426   2.316   4.239   6.026
 3843SOL     OW12427   5.305   2.196   6.036
 3843SOL    HW112428   5.269   2.137   6.108
 3843SOL    HW212429   5.243   2.273   6.023
 3844SOL     OW12430   6.795   0.390   1.081
 3844SOL    HW112431   6.853   0.429   1.010
 3844SOL    HW212432   6.812   0.292   1.088
 3845SOL     OW12433   1.839   5.828   0.815
 3845SOL    HW112434   1.907   5.880   0.866
 3845SOL    HW212435   1.880   5.743   0.782
 3846SOL     OW12436   0.336   3.312   2.559
 3846SOL    HW112437   0.362   3.409   2.550
 3846SOL    HW212438   0.361   3.263   2.476
 3847SOL     OW12439   0.534   1.942   6.569
 3847SOL    HW112440   0.632   1.959   6.577
 3847SOL    HW212441   0.497   1.994   6.491
 3848SOL     OW12442   6.262   4.260   1.864
 3848SOL    HW112443   6.351   4.236   1.903
 3848SOL    HW212444   6.248   4.208   1.779
 3849SOL     OW12445   0.021   4.872   6.206
 3849SOL    HW112446   0.095   4.840   6.146
 3849SOL    HW212447   0.060   4.902   6.293
 3850SOL     OW12448   3.085   2.437   1.354
 3850SOL    HW112449   3.102   2.344   1.385
 3850SOL    HW212450   2.989   2.447   1.326
 3851SOL     OW12451   0.483   6.272   3.038
 3851SOL    HW112452   0.550   6.337   3.075
 3851SOL    HW212453   0.395   6.285   3.084
 3852SOL     OW12454   1.569   0.174   4.342
 3852SOL    HW112455   1.641   0.108   4.361
 3852SOL    HW212456   1.490   0.127   4.303
 3853SOL     OW12457   3.097   0.629   3.646
 3853SOL    HW112458   3.049   0.542   3.656
 3853SOL    HW212459   3.041   0.703   3.683
 3854SOL     OW12460   0.215   2.066   1.644
 3854SOL    HW112461   0.179   2.025   1.560
 3854SOL    HW212462   0.313   2.083   1.633
 3855SOL     OW12463   3.363   6.677   6.831
 3855SOL    HW112464   3.321   6.760   6.868
 3855SOL    HW212465   3.380   6.613   6.906
 3856SOL     OW12466   0.173   2.534   6.237
 3856SOL    HW112467   0.226   2.579   6.309
 3856SOL    HW212468   0.144   2.603   6.170
 3857SOL     OW12469   2.527   0.253   6.051
 3857SOL    HW112470   2.564   0.299   6.133
 3857SOL    HW212471   2.593   0.186   6.019
 3858SOL     OW12472   4.728   1.337   4.299
 3858SOL    HW112473   4.686   1.427   4.283
 3858SOL    HW212474   4.689   1.271   4.236
 3859SOL     OW12475   5.885   6.790   1.464
 3859SOL    HW112476   5.884   6.690   1.471
 3859SOL    HW212477   5.802   6.827   1.506
 3860SOL     OW12478   1.565   6.797   4.359
 3860SOL    HW112479   1.528   6.794   4.267
 3860SOL    HW212480   1.637   6.867   4.364
 3861SOL     OW12481   2.571   5.138   1.592
 3861SOL    HW112482   2.541   5.042   1.587
 3861SOL    HW212483   2.497   5.197   1.558
 3862SOL     OW12484   1.669   0.592   4.719
 3862SOL    HW112485   1.742   0.591   4.651
 3862SOL    HW212486   1.659   0.501   4.759
 3863SOL     OW12487   3.123   0.434   0.582
 3863SOL    HW112488   3.119   0.514   0.521
 3863SOL    HW212489   3.074   0.358   0.539
 3864SOL     OW12490   1.633   0.404   4.951
 3864SOL    HW112491   1.605   0.352   5.032
 3864SOL    HW212492   1.633   0.343   4.872
 3865SOL     OW12493   4.771   1.343   0.663
 3865SOL    HW112494   4.695   1.278   0.652
 3865SOL    HW212495   4.831   1.338   0.583
 3866SOL     OW12496   2.818   2.000   6.536
 3866SOL    HW112497   2.844   2.073   6.597
 3866SOL    HW212498   2.897   1.969   6.483
 3867SOL     OW12499   0.500   2.974   1.836
 3867SOL    HW112500   0.479   3.043   1.767
 3867SOL    HW212501   0.416   2.929   1.866
 3868SOL     OW12502   4.273   0.653   0.374
 3868SOL    HW112503   4.215   0.734   0.367
 3868SOL    HW212504   4.285   0.628   0.470
 3869SOL     OW12505   4.746   1.623   3.950
 3869SOL    HW112506   4.844   1.645   3.950
 3869SOL    HW212507   4.696   1.696   3.997
 3870SOL     OW12508   0.341   0.776   5.243
 3870SOL    HW112509   0.347   0.873   5.270
 3870SOL    HW212510   0.271   0.766   5.172
 3871SOL     OW12511   2.338   5.887   4.533
 3871SOL    HW112512   2.413   5.846   4.585
 3871SOL    HW212513   2.268   5.817   4.516
 3872SOL     OW12514   3.045   3.342   5.341
 3872SOL    HW112515   3.111   3.295   5.283
 3872SOL    HW212516   3.050   3.441   5.323
 3873SOL     OW12517   4.379   1.819   0.479
 3873SOL    HW112518   4.287   1.860   0.479
 3873SOL    HW212519   4.431   1.854   0.556
 3874SOL     OW12520   1.907   1.143   0.411
 3874SOL    HW112521   1.960   1.076   0.358
 3874SOL    HW212522   1.968   1.191   0.474
 3875SOL     OW12523   1.169   2.241   6.135
 3875SOL    HW112524   1.239   2.312   6.124
 3875SOL    HW212525   1.213   2.151   6.139
 3876SOL     OW12526   3.558   5.222   2.496
 3876SOL    HW112527   3.479   5.266   2.538
 3876SOL    HW212528   3.597   5.155   2.559
 3877SOL     OW12529   0.363   1.992   6.333
 3877SOL    HW112530   0.386   1.902   6.295
 3877SOL    HW212531   0.305   2.041   6.268
 3878SOL     OW12532   5.315   1.134   4.385
 3878SOL    HW112533   5.348   1.043   4.361
 3878SOL    HW212534   5.217   1.130   4.405
 3879SOL     OW12535   5.685   5.745   0.193
 3879SOL    HW112536   5.780   5.715   0.183
 3879SOL    HW212537   5.627   5.666   0.216
 3880SOL     OW12538   4.567   4.494   3.915
 3880SOL    HW112539   4.496   4.551   3.957
 3880SOL    HW212540   4.574   4.408   3.965
 3881SOL     OW12541   1.377   3.481   6.877
 3881SOL    HW112542   1.304   3.542   6.846
 3881SOL    HW212543   1.414   3.431   6.799
 3882SOL     OW12544   0.629   2.063   6.182
 3882SOL    HW112545   0.573   1.984   6.158
 3882SOL    HW212546   0.714   2.062   6.129
 3883SOL     OW12547   4.677   5.694   3.320
 3883SOL    HW112548   4.640   5.647   3.239
 3883SOL    HW212549   4.769   5.658   3.339
 3884SOL     OW12550   0.349   3.831   2.127
 3884SOL    HW112551   0.400   3.882   2.197
 3884SOL    HW212552   0.337   3.889   2.046
 3885SOL     OW12553   5.256   5.578   2.753
 3885SOL    HW112554   5.244   5.565   2.654
 3885SOL    HW212555   5.167   5.583   2.797
 3886SOL     OW12556   2.565   6.323   5.687
 3886SOL    HW112557   2.554   6.227   5.659
 3886SOL    HW212558   2.479   6.355   5.727
 3887SOL     OW12559   1.250   6.003   2.365
 3887SOL    HW112560   1.342   5.975   2.390
 3887SOL    HW212561   1.185   5.972   2.434
 3888SOL     OW12562   5.637   5.050   4.008
 3888SOL    HW112563   5.656   5.084   3.916
 3888SOL    HW212564   5.565   4.980   4.004
 3889SOL     OW12565   5.411   3.857   0.709
 3889SOL    HW112566   5.361   3.846   0.623
 3889SOL    HW212567   5.443   3.951   0.718
 3890SOL     OW12568   5.285   3.228   4.376
 3890SOL    HW112569   5.294   3.145   4.321
 3890SOL    HW212570   5.376   3.266   4.394
 3891SOL     OW12571   5.144   5.599   3.140
 3891SOL    HW112572   5.219   5.612   3.075
 3891SOL    HW212573   5.057   5.599   3.091
 3892SOL     OW12574   6.903   2.231   1.195
 3892SOL    HW112575   6.821   2.238   1.138
 3892SOL    HW212576   6.970   2.299   1.166
 3893SOL     OW12577   3.992   3.920   2.907
 3893SOL    HW112578   4.076   3.865   2.908
 3893SOL    HW212579   3.953   3.923   2.999
 3894SOL     OW12580   4.765   0.712   5.749
 3894SOL    HW112581   4.761   0.671   5.840
 3894SOL    HW212582   4.693   0.672   5.692
 3895SOL     OW12583   0.963   0.344   4.188
 3895SOL    HW112584   1.047   0.347   4.134
 3895SOL    HW212585   0.962   0.420   4.253
 3896SOL     OW12586   1.402   1.398   6.389
 3896SOL    HW112587   1.361   1.443   6.469
 3896SOL    HW212588   1.331   1.347   6.341
 3897SOL     OW12589   4.137   6.315   1.278
 3897SOL    HW112590   4.066   6.380   1.251
 3897SOL    HW212591   4.096   6.243   1.334
 3898SOL     OW12592   3.796   2.887   1.189
 3898SOL    HW112593   3.786   2.789   1.206
 3898SOL    HW212594   3.708   2.933   1.207
 3899SOL     OW12595   3.440   0.445   5.785
 3899SOL    HW112596   3.509   0.378   5.758
 3899SOL    HW212597   3.426   0.510   5.711
 3900SOL     OW12598   4.882   3.670   2.867
 3900SOL    HW112599   4.968   3.699   2.909
 3900SOL    HW212600   4.877   3.706   2.773
 3901SOL     OW12601   2.678   0.314   6.888
 3901SOL    HW112602   2.730   0.337   6.970
 3901SOL    HW212603   2.605   0.382   6.874
 3902SOL     OW12604   5.903   2.817   2.625
 3902SOL    HW112605   5.873   2.726   2.598
 3902SOL    HW212606   5.988   2.840   2.576
 3903SOL     OW12607   3.129   4.454   6.327
 3903SOL    HW112608   3.058   4.440   6.397
 3903SOL    HW212609   3.108   4.397   6.248
 3904SOL     OW12610   1.435   0.467   0.487
 3904SOL    HW112611   1.483   0.460   0.574
 3904SOL    HW212612   1.406   0.377   0.456
 3905SOL     OW12613   6.561   5.871   5.207
 3905SOL    HW112614   6.628   5.905   5.273
 3905SOL    HW212615   6.471   5.866   5.249
 3906SOL     OW12616   6.558   6.444   4.896
 3906SOL    HW112617   6.461   6.463   4.911
 3906SOL    HW212618   6.612   6.524   4.923
 3907SOL     OW12619   6.521   1.945   3.620
 3907SOL    HW112620   6.554   2.013   3.556
 3907SOL    HW212621   6.560   1.855   3.597
 3908SOL     OW12622   2.188   3.490   6.281
 3908SOL    HW112623   2.237   3.576   6.298
 3908SOL    HW212624   2.255   3.415   6.278
 3909SOL     OW12625   5.647   5.424   3.896
 3909SOL    HW112626   5.657   5.430   3.796
 3909SOL    HW212627   5.571   5.364   3.919
 3910SOL     OW12628   4.119   3.622   2.857
 3910SOL    HW112629   4.078   3.658   2.773
 3910SOL    HW212630   4.189   3.555   2.833
 3911SOL     OW12631   6.612   2.263   5.550
 3911SOL    HW112632   6.522   2.295   5.581
 3911SOL    HW212633   6.677   2.269   5.625
 3912SOL     OW12634   5.361   2.783   6.716
 3912SOL    HW112635   5.424   2.861   6.718
 3912SOL    HW212636   5.389   2.720   6.643
 3913SOL     OW12637   0.797   6.733   1.202
 3913SOL    HW112638   0.895   6.740   1.221
 3913SOL    HW212639   0.755   6.823   1.212
 3914SOL     OW12640   3.147   5.507   5.725
 3914SOL    HW112641   3.206   5.511   5.805
 3914SOL    HW212642   3.068   5.450   5.744
 3915SOL     OW12643   6.790   6.098   1.416
 3915SOL    HW112644   6.762   6.022   1.357
 3915SOL    HW212645   6.887   6.118   1.399
 3916SOL     OW12646   0.993   6.878   3.283
 3916SOL    HW112647   1.040   6.894   3.370
 3916SOL    HW212648   0.903   6.923   3.286
 3917SOL     OW12649   2.132   0.197   0.037
 3917SOL    HW112650   2.100   0.103   0.029
 3917SOL    HW212651   2.182   0.209   0.123
 3918SOL     OW12652   5.655   3.177   0.655
 3918SOL    HW112653   5.648   3.079   0.637
 3918SOL    HW212654   5.708   3.192   0.738
 3919SOL     OW12655   3.304   6.501   0.591
 3919SOL    HW112656   3.279   6.421   0.646
 3919SOL    HW212657   3.403   6.504   0.580
 3920SOL     OW12658   2.077   1.554   6.960
 3920SOL    HW112659   2.083   1.602   0.032
 3920SOL    HW212660   2.146   1.591   6.897
 3921SOL     OW12661   1.477   3.937   1.756
 3921SOL    HW112662   1.514   3.927   1.848
 3921SOL    HW212663   1.458   4.034   1.737
 3922SOL     OW12664   0.988   4.634   1.270
 3922SOL    HW112665   1.033   4.569   1.208
 3922SOL    HW212666   0.910   4.676   1.224
 3923SOL     OW12667   6.608   0.312   0.893
 3923SOL    HW112668   6.610   0.350   0.986
 3923SOL    HW212669   6.686   0.347   0.841
 3924SOL     OW12670   6.927   5.012   4.589
 3924SOL    HW112671   6.900   4.922   4.556
 3924SOL    HW212672   0.008   5.009   4.618
 3925SOL     OW12673   1.485   5.010   1.972
 3925SOL    HW112674   1.492   4.962   2.059
 3925SOL    HW212675   1.460   5.106   1.989
 3926SOL     OW12676   3.640   5.034   2.695
 3926SOL    HW112677   3.647   4.976   2.776
 3926SOL    HW212678   3.661   4.980   2.613
 3927SOL     OW12679   0.803   3.391   5.958
 3927SOL    HW112680   0.810   3.370   6.055
 3927SOL    HW212681   0.792   3.306   5.906
 3928SOL     OW12682   5.618   5.716   6.567
 3928SOL    HW112683   5.624   5.790   6.634
 3928SOL    HW212684   5.561   5.643   6.604
 3929SOL     OW12685   1.003   2.028   4.692
 3929SOL    HW112686   0.952   2.012   4.776
 3929SOL    HW212687   0.994   1.949   4.631
 3930SOL     OW12688   2.489   1.642   3.831
 3930SOL    HW112689   2.490   1.545   3.810
 3930SOL    HW212690   2.573   1.685   3.797
 3931SOL     OW12691   5.204   0.522   2.033
 3931SOL    HW112692   5.138   0.593   2.007
 3931SOL    HW212693   5.156   0.437   2.054
 3932SOL     OW12694   1.956   1.516   4.007
 3932SOL    HW112695   1.857   1.502   4.016
 3932SOL    HW212696   1.983   1.504   3.911
 3933SOL     OW12697   0.665   6.942   5.462
 3933SOL    HW112698   0.584   6.935   5.520
 3933SOL    HW212699   0.747   6.946   5.520
 3934SOL     OW12700   5.485   6.821   6.828
 3934SOL    HW112701   5.419   6.812   6.902
 3934SOL    HW212702   5.437   6.821   6.740
 3935SOL     OW12703   4.855   0.571   0.875
 3935SOL    HW112704   4.757   0.559   0.861
 3935SOL    HW212705   4.883   0.524   0.959
 3936SOL     OW12706   0.314   4.538   3.066
 3936SOL    HW112707   0.343   4.489   2.984
 3936SOL    HW212708   0.356   4.497   3.146
 3937SOL     OW12709   0.507   1.141   2.527
 3937SOL    HW112710   0.436   1.082   2.565
 3937SOL    HW212711   0.581   1.152   2.593
 3938SOL     OW12712   6.961   2.173   2.539
 3938SOL    HW112713   6.872   2.128   2.530
 3938SOL    HW212714   0.014   2.123   2.486
 3939SOL     OW12715   2.756   1.891   1.901
 3939SOL    HW112716   2.718   1.807   1.860
 3939SOL    HW212717   2.845   1.911   1.860
 3940SOL     OW12718   4.252   3.422   1.426
 3940SOL    HW112719   4.219   3.348   1.485
 3940SOL    HW212720   4.274   3.502   1.482
 3941SOL     OW12721   4.707   3.765   6.736
 3941SOL    HW112722   4.788   3.766   6.794
 3941SOL    HW212723   4.681   3.858   6.712
 3942SOL     OW12724   6.787   6.951   6.902
 3942SOL    HW112725   6.718   6.966   6.831
 3942SOL    HW212726   6.790   0.015   6.962
 3943SOL     OW12727   6.968   3.306   4.542
 3943SOL    HW112728   0.041   3.261   4.524
 3943SOL    HW212729   6.913   3.249   4.603
 3944SOL     OW12730   5.121   2.512   4.840
 3944SOL    HW112731   5.088   2.455   4.764
 3944SOL    HW212732   5.177   2.587   4.803
 3945SOL     OW12733   0.057   0.889   0.631
 3945SOL    HW112734   0.129   0.897   0.700
 3945SOL    HW212735   0.095   0.847   0.548
 3946SOL     OW12736   4.185   4.735   2.996
 3946SOL    HW112737   4.189   4.705   2.900
 3946SOL    HW212738   4.160   4.658   3.054
 3947SOL     OW12739   6.072   5.326   6.476
 3947SOL    HW112740   6.113   5.373   6.397
 3947SOL    HW212741   6.106   5.368   6.561
 3948SOL     OW12742   6.249   3.996   0.728
 3948SOL    HW112743   6.246   3.908   0.775
 3948SOL    HW212744   6.160   4.014   0.686
 3949SOL     OW12745   5.480   6.059   3.327
 3949SOL    HW112746   5.408   6.011   3.277
 3949SOL    HW212747   5.457   6.060   3.424
 3950SOL     OW12748   1.498   6.189   0.641
 3950SOL    HW112749   1.534   6.096   0.641
 3950SOL    HW212750   1.403   6.188   0.610
 3951SOL     OW12751   5.216   6.958   1.747
 3951SOL    HW112752   5.239   0.039   1.763
 3951SOL    HW212753   5.288   6.900   1.785
 3952SOL     OW12754   5.539   2.247   0.031
 3952SOL    HW112755   5.445   2.267   0.004
 3952SOL    HW212756   5.540   2.211   0.125
 3953SOL     OW12757   3.496   4.039   2.898
 3953SOL    HW112758   3.545   4.104   2.955
 3953SOL    HW212759   3.410   4.079   2.867
 3954SOL     OW12760   4.194   4.862   5.547
 3954SOL    HW112761   4.227   4.780   5.593
 3954SOL    HW212762   4.097   4.876   5.567
 3955SOL     OW12763   3.891   1.096   4.685
 3955SOL    HW112764   3.890   1.028   4.759
 3955SOL    HW212765   3.811   1.155   4.693
 3956SOL     OW12766   2.450   1.276   1.437
 3956SOL    HW112767   2.488   1.192   1.399
 3956SOL    HW212768   2.355   1.260   1.465
 3957SOL     OW12769   4.035   0.506   4.699
 3957SOL    HW112770   4.126   0.479   4.729
 3957SOL    HW212771   3.984   0.424   4.670
 3958SOL     OW12772   5.757   0.295   5.709
 3958SOL    HW112773   5.701   0.365   5.665
 3958SOL    HW212774   5.833   0.338   5.756
 3959SOL     OW12775   4.661   5.764   0.161
 3959SOL    HW112776   4.652   5.686   0.099
 3959SOL    HW212777   4.587   5.762   0.228
 3960SOL     OW12778   5.108   2.094   4.545
 3960SOL    HW112779   5.207   2.093   4.532
 3960SOL    HW212780   5.069   2.007   4.517
 3961SOL     OW12781   5.612   6.324   4.094
 3961SOL    HW112782   5.577   6.242   4.048
 3961SOL    HW212783   5.674   6.296   4.168
 3962SOL     OW12784   0.171   5.694   5.211
 3962SOL    HW112785   0.155   5.707   5.309
 3962SOL    HW212786   0.084   5.688   5.163
 3963SOL     OW12787   4.555   6.773   1.863
 3963SOL    HW112788   4.607   6.741   1.942
 3963SOL    HW212789   4.491   6.844   1.891
 3964SOL     OW12790   5.715   3.234   3.117
 3964SOL    HW112791   5.736   3.262   3.211
 3964SOL    HW212792   5.740   3.138   3.105
 3965SOL     OW12793   4.860   4.003   4.475
 3965SOL    HW112794   4.910   3.918   4.494
 3965SOL    HW212795   4.886   4.073   4.541
 3966SOL     OW12796   2.781   6.152   6.302
 3966SOL    HW112797   2.801   6.056   6.285
 3966SOL    HW212798   2.811   6.177   6.394
 3967SOL     OW12799   1.923   4.476   3.179
 3967SOL    HW112800   2.010   4.488   3.227
 3967SOL    HW212801   1.934   4.407   3.108
 3968SOL     OW12802   3.558   6.649   0.554
 3968SOL    HW112803   3.643   6.596   0.545
 3968SOL    HW212804   3.562   6.705   0.636
 3969SOL     OW12805   0.461   5.009   2.894
 3969SOL    HW112806   0.487   5.082   2.958
 3969SOL    HW212807   0.543   4.960   2.865
 3970SOL     OW12808   4.843   6.126   2.285
 3970SOL    HW112809   4.939   6.115   2.260
 3970SOL    HW212810   4.789   6.054   2.241
 3971SOL     OW12811   2.200   6.143   2.946
 3971SOL    HW112812   2.267   6.107   3.012
 3971SOL    HW212813   2.121   6.081   2.943
 3972SOL     OW12814   1.922   3.676   0.201
 3972SOL    HW112815   1.931   3.576   0.204
 3972SOL    HW212816   1.986   3.712   0.132
 3973SOL     OW12817   1.546   5.270   0.956
 3973SOL    HW112818   1.603   5.219   1.021
 3973SOL    HW212819   1.499   5.343   1.005
 3974SOL     OW12820   2.235   1.092   5.042
 3974SOL    HW112821   2.201   1.060   4.954
 3974SOL    HW212822   2.164   1.144   5.088
 3975SOL     OW12823   5.948   2.484   6.093
 3975SOL    HW112824   6.046   2.502   6.093
 3975SOL    HW212825   5.919   2.457   6.184
 3976SOL     OW12826   2.093   4.962   2.269
 3976SOL    HW112827   2.130   5.049   2.234
 3976SOL    HW212828   2.158   4.923   2.334
 3977SOL     OW12829   1.147   3.425   6.390
 3977SOL    HW112830   1.222   3.466   6.442
 3977SOL    HW212831   1.130   3.480   6.308
 3978SOL     OW12832   6.551   4.380   3.643
 3978SOL    HW112833   6.563   4.297   3.588
 3978SOL    HW212834   6.487   4.360   3.718
 3979SOL     OW12835   3.930   6.987   6.458
 3979SOL    HW112836   4.025   6.959   6.472
 3979SOL    HW212837   3.906   6.978   6.362
 3980SOL     OW12838   5.537   6.098   5.817
 3980SOL    HW112839   5.624   6.147   5.811
 3980SOL    HW212840   5.530   6.034   5.740
 3981SOL     OW12841   4.434   6.503   0.133
 3981SOL    HW112842   4.513   6.466   0.181
 3981SOL    HW212843   4.452   6.597   0.104
 3982SOL     OW12844   3.030   6.512   3.282
 3982SOL    HW112845   3.025   6.490   3.379
 3982SOL    HW212846   2.941   6.498   3.239
 3983SOL     OW12847   3.380   5.947   4.330
 3983SOL    HW112848   3.478   5.958   4.347
 3983SOL    HW212849   3.357   5.850   4.327
 3984SOL     OW12850   6.731   2.468   2.870
 3984SOL    HW112851   6.664   2.465   2.795
 3984SOL    HW212852   6.696   2.418   2.949
 3985SOL     OW12853   4.111   5.119   6.416
 3985SOL    HW112854   4.065   5.195   6.461
 3985SOL    HW212855   4.175   5.075   6.480
 3986SOL     OW12856   5.099   0.799   2.699
 3986SOL    HW112857   5.185   0.801   2.750
 3986SOL    HW212858   5.110   0.743   2.617
 3987SOL     OW12859   3.342   5.214   4.827
 3987SOL    HW112860   3.269   5.228   4.761
 3987SOL    HW212861   3.383   5.123   4.813
 3988SOL     OW12862   4.007   5.975   0.521
 3988SOL    HW112863   3.956   5.956   0.605
 3988SOL    HW212864   3.965   6.050   0.472
 3989SOL     OW12865   5.512   2.159   0.278
 3989SOL    HW112866   5.466   2.075   0.306
 3989SOL    HW212867   5.560   2.198   0.357
 3990SOL     OW12868   6.433   1.631   2.603
 3990SOL    HW112869   6.491   1.608   2.526
 3990SOL    HW212870   6.358   1.564   2.610
 3991SOL     OW12871   6.631   0.716   3.193
 3991SOL    HW112872   6.657   0.647   3.261
 3991SOL    HW212873   6.666   0.689   3.104
 3992SOL     OW12874   2.813   1.873   1.103
 3992SOL    HW112875   2.875   1.871   1.182
 3992SOL    HW212876   2.831   1.793   1.045
 3993SOL     OW12877   1.320   2.839   1.769
 3993SOL    HW112878   1.299   2.775   1.843
 3993SOL    HW212879   1.307   2.793   1.681
 3994SOL     OW12880   2.438   6.214   4.690
 3994SOL    HW112881   2.535   6.189   4.694
 3994SOL    HW212882   2.390   6.170   4.766
 3995SOL     OW12883   1.412   2.185   4.805
 3995SOL    HW112884   1.337   2.247   4.781
 3995SOL    HW212885   1.379   2.091   4.802
 3996SOL     OW12886   6.818   6.497   4.623
 3996SOL    HW112887   6.810   6.460   4.716
 3996SOL    HW212888   6.740   6.556   4.604
 3997SOL     OW12889   4.648   0.818   4.637
 3997SOL    HW112890   4.676   0.879   4.563
 3997SOL    HW212891   4.553   0.790   4.623
 3998SOL     OW12892   4.641   1.752   3.378
 3998SOL    HW112893   4.567   1.717   3.320
 3998SOL    HW212894   4.628   1.719   3.471
 3999SOL     OW12895   5.064   2.356   4.157
 3999SOL    HW112896   5.076   2.376   4.060
 3999SOL    HW212897   4.990   2.290   4.169
 4000SOL     OW12898   4.090   6.664   4.419
 4000SOL    HW112899   4.040   6.655   4.505
 4000SOL    HW212900   4.152   6.587   4.408
 4001SOL     OW12901   1.121   2.316   4.380
 4001SOL    HW112902   1.168   2.310   4.469
 4001SOL    HW212903   1.188   2.312   4.307
 4002SOL     OW12904   2.346   3.890   1.711
 4002SOL    HW112905   2.272   3.851   1.655
 4002SOL    HW212906   2.427   3.832   1.703
 4003SOL     OW12907   3.743   1.804   5.140
 4003SOL    HW112908   3.652   1.795   5.180
 4003SOL    HW212909   3.736   1.853   5.053
 4004SOL     OW12910   0.056   1.670   5.231
 4004SOL    HW112911   0.042   1.745   5.166
 4004SOL    HW212912   6.989   1.613   5.234
 4005SOL     OW12913   6.445   5.110   5.201
 4005SOL    HW112914   6.491   5.196   5.221
 4005SOL    HW212915   6.414   5.068   5.286
 4006SOL     OW12916   3.730   5.711   2.508
 4006SOL    HW112917   3.672   5.774   2.559
 4006SOL    HW212918   3.686   5.622   2.503
 4007SOL     OW12919   6.621   1.753   6.302
 4007SOL    HW112920   6.638   1.851   6.318
 4007SOL    HW212921   6.529   1.730   6.333
 4008SOL     OW12922   2.665   2.351   5.077
 4008SOL    HW112923   2.737   2.385   5.138
 4008SOL    HW212924   2.590   2.418   5.075
 4009SOL     OW12925   3.248   3.579   3.130
 4009SOL    HW112926   3.311   3.616   3.198
 4009SOL    HW212927   3.155   3.608   3.151
 4010SOL     OW12928   1.700   2.840   6.579
 4010SOL    HW112929   1.748   2.777   6.640
 4010SOL    HW212930   1.746   2.839   6.490
 4011SOL     OW12931   1.294   2.737   1.071
 4011SOL    HW112932   1.215   2.798   1.063
 4011SOL    HW212933   1.373   2.778   1.025
 4012SOL     OW12934   5.810   2.627   3.652
 4012SOL    HW112935   5.752   2.656   3.728
 4012SOL    HW212936   5.809   2.527   3.646
 4013SOL     OW12937   4.419   2.332   3.279
 4013SOL    HW112938   4.512   2.338   3.244
 4013SOL    HW212939   4.419   2.280   3.365
 4014SOL     OW12940   5.684   6.485   2.281
 4014SOL    HW112941   5.719   6.547   2.212
 4014SOL    HW212942   5.756   6.467   2.349
 4015SOL     OW12943   4.464   3.669   6.809
 4015SOL    HW112944   4.479   3.571   6.802
 4015SOL    HW212945   4.551   3.717   6.801
 4016SOL     OW12946   3.392   6.263   5.222
 4016SOL    HW112947   3.448   6.204   5.280
 4016SOL    HW212948   3.351   6.335   5.279
 4017SOL     OW12949   6.102   6.594   0.162
 4017SOL    HW112950   6.149   6.682   0.153
 4017SOL    HW212951   6.025   6.603   0.225
 4018SOL     OW12952   2.100   6.397   0.429
 4018SOL    HW112953   2.075   6.414   0.525
 4018SOL    HW212954   2.036   6.332   0.389
 4019SOL     OW12955   4.942   5.472   2.985
 4019SOL    HW112956   4.976   5.389   3.030
 4019SOL    HW212957   4.869   5.448   2.921
 4020SOL     OW12958   4.918   1.974   5.114
 4020SOL    HW112959   4.993   1.931   5.063
 4020SOL    HW212960   4.946   2.066   5.143
 4021SOL     OW12961   4.289   4.399   0.286
 4021SOL    HW112962   4.335   4.481   0.250
 4021SOL    HW212963   4.193   4.400   0.258
 4022SOL     OW12964   5.363   0.652   0.809
 4022SOL    HW112965   5.461   0.667   0.802
 4022SOL    HW212966   5.314   0.737   0.788
 4023SOL     OW12967   0.093   0.247   5.798
 4023SOL    HW112968   0.168   0.230   5.862
 4023SOL    HW212969   0.006   0.229   5.844
 4024SOL     OW12970   4.445   4.627   4.272
 4024SOL    HW112971   4.497   4.570   4.336
 4024SOL    HW212972   4.383   4.687   4.323
 4025SOL     OW12973   1.486   4.190   3.574
 4025SOL    HW112974   1.473   4.173   3.671
 4025SOL    HW212975   1.405   4.161   3.524
 4026SOL     OW12976   4.828   0.056   4.932
 4026SOL    HW112977   4.910   0.024   4.886
 4026SOL    HW212978   4.827   0.156   4.935
 4027SOL     OW12979   3.925   5.094   2.288
 4027SOL    HW112980   3.862   5.099   2.211
 4027SOL    HW212981   3.987   5.173   2.287
 4028SOL     OW12982   2.606   6.167   3.576
 4028SOL    HW112983   2.611   6.068   3.560
 4028SOL    HW212984   2.659   6.190   3.657
 4029SOL     OW12985   1.832   3.576   3.852
 4029SOL    HW112986   1.912   3.529   3.890
 4029SOL    HW212987   1.821   3.665   3.896
 4030SOL     OW12988   1.189   1.719   6.065
 4030SOL    HW112989   1.248   1.639   6.077
 4030SOL    HW212990   1.095   1.689   6.052
 4031SOL     OW12991   5.631   5.842   3.942
 4031SOL    HW112992   5.642   5.917   4.007
 4031SOL    HW212993   5.573   5.771   3.981
 4032SOL     OW12994   3.885   7.003   5.368
 4032SOL    HW112995   3.872   6.919   5.315
 4032SOL    HW212996   3.842   6.993   5.458
 4033SOL     OW12997   3.410   3.669   5.893
 4033SOL    HW112998   3.317   3.705   5.891
 4033SOL    HW212999   3.462   3.716   5.965
 4034SOL     OW13000   5.913   3.117   4.708
 4034SOL    HW113001   5.926   3.187   4.778
 4034SOL    HW213002   5.867   3.157   4.629
 4035SOL     OW13003   0.335   5.094   1.531
 4035SOL    HW113004   0.331   5.036   1.450
 4035SOL    HW213005   0.359   5.187   1.504
 4036SOL     OW13006   6.455   6.332   2.697
 4036SOL    HW113007   6.397   6.327   2.778
 4036SOL    HW213008   6.402   6.307   2.616
 4037SOL     OW13009   6.865   4.080   6.155
 4037SOL    HW113010   6.835   3.991   6.189
 4037SOL    HW213011   6.796   4.118   6.094
 4038SOL     OW13012   6.452   5.191   3.468
 4038SOL    HW113013   6.493   5.157   3.384
 4038SOL    HW213014   6.510   5.264   3.506
 4039SOL     OW13015   3.669   5.858   1.403
 4039SOL    HW113016   3.612   5.845   1.485
 4039SOL    HW213017   3.680   5.770   1.357
 4040SOL     OW13018   3.151   6.504   0.332
 4040SOL    HW113019   3.162   6.506   0.432
 4040SOL    HW213020   3.109   6.417   0.306
 4041SOL     OW13021   1.202   6.323   2.948
 4041SOL    HW113022   1.183   6.259   3.022
 4041SOL    HW213023   1.250   6.403   2.983
 4042SOL     OW13024   6.008   5.827   2.234
 4042SOL    HW113025   6.058   5.745   2.209
 4042SOL    HW213026   6.060   5.879   2.302
 4043SOL     OW13027   6.455   3.875   1.668
 4043SOL    HW113028   6.437   3.878   1.570
 4043SOL    HW213029   6.375   3.907   1.718
 4044SOL     OW13030   5.920   5.582   3.155
 4044SOL    HW113031   5.999   5.629   3.194
 4044SOL    HW213032   5.930   5.578   3.056
 4045SOL     OW13033   2.414   4.853   5.634
 4045SOL    HW113034   2.480   4.923   5.660
 4045SOL    HW213035   2.329   4.867   5.686
 4046SOL     OW13036   0.167   3.206   0.448
 4046SOL    HW113037   0.211   3.251   0.525
 4046SOL    HW213038   0.073   3.239   0.440
 4047SOL     OW13039   2.995   3.945   2.652
 4047SOL    HW113040   2.972   3.851   2.630
 4047SOL    HW213041   2.934   3.979   2.723
 4048SOL     OW13042   4.618   2.583   0.605
 4048SOL    HW113043   4.702   2.608   0.557
 4048SOL    HW213044   4.560   2.664   0.616
 4049SOL     OW13045   6.768   0.561   5.919
 4049SOL    HW113046   6.859   0.523   5.905
 4049SOL    HW213047   6.776   0.647   5.971
 4050SOL     OW13048   2.896   0.769   2.093
 4050SOL    HW113049   2.906   0.685   2.040
 4050SOL    HW213050   2.949   0.842   2.051
 4051SOL     OW13051   1.294   3.988   0.846
 4051SOL    HW113052   1.217   4.002   0.908
 4051SOL    HW213053   1.261   3.950   0.760
 4052SOL     OW13054   1.394   6.856   1.042
 4052SOL    HW113055   1.379   6.875   0.945
 4052SOL    HW213056   1.474   6.796   1.053
 4053SOL     OW13057   3.261   5.339   3.760
 4053SOL    HW113058   3.176   5.307   3.801
 4053SOL    HW213059   3.245   5.422   3.708
 4054SOL     OW13060   5.386   1.797   6.398
 4054SOL    HW113061   5.419   1.762   6.310
 4054SOL    HW213062   5.463   1.817   6.458
 4055SOL     OW13063   4.861   2.803   0.366
 4055SOL    HW113064   4.827   2.897   0.368
 4055SOL    HW213065   4.825   2.757   0.284
 4056SOL     OW13066   4.536   2.844   0.626
 4056SOL    HW113067   4.446   2.824   0.666
 4056SOL    HW213068   4.553   2.942   0.632
 4057SOL     OW13069   6.221   2.136   0.223
 4057SOL    HW113070   6.153   2.107   0.155
 4057SOL    HW213071   6.175   2.165   0.307
 4058SOL     OW13072   1.047   1.831   4.211
 4058SOL    HW113073   1.015   1.839   4.116
 4058SOL    HW213074   1.043   1.921   4.255
 4059SOL     OW13075   6.882   2.011   5.549
 4059SOL    HW113076   6.837   2.007   5.460
 4059SOL    HW213077   6.954   1.941   5.553
 4060SOL     OW13078   3.245   5.913   5.779
 4060SOL    HW113079   3.343   5.901   5.796
 4060SOL    HW213080   3.232   5.952   5.688
 4061SOL     OW13081   2.356   2.759   1.246
 4061SOL    HW113082   2.440   2.709   1.225
 4061SOL    HW213083   2.340   2.829   1.176
 4062SOL     OW13084   3.383   6.449   2.560
 4062SOL    HW113085   3.455   6.430   2.627
 4062SOL    HW213086   3.314   6.509   2.602
 4063SOL     OW13087   2.463   5.044   6.489
 4063SOL    HW113088   2.475   4.978   6.414
 4063SOL    HW213089   2.416   5.000   6.565
 4064SOL     OW13090   6.153   6.974   3.994
 4064SOL    HW113091   6.067   6.999   4.039
 4064SOL    HW213092   6.138   6.899   3.931
 4065SOL     OW13093   6.991   4.562   6.208
 4065SOL    HW113094   6.983   4.510   6.294
 4065SOL    HW213095   0.007   4.655   6.228
 4066SOL     OW13096   6.025   5.364   1.415
 4066SOL    HW113097   6.095   5.425   1.379
 4066SOL    HW213098   6.067   5.295   1.474
 4067SOL     OW13099   5.755   1.122   1.597
 4067SOL    HW113100   5.702   1.130   1.681
 4067SOL    HW213101   5.693   1.110   1.520
 4068SOL     OW13102   5.446   1.269   4.636
 4068SOL    HW113103   5.391   1.187   4.650
 4068SOL    HW213104   5.410   1.344   4.692
 4069SOL     OW13105   0.108   6.145   0.786
 4069SOL    HW113106   0.052   6.185   0.713
 4069SOL    HW213107   0.050   6.092   0.847
 4070SOL     OW13108   0.330   3.714   3.247
 4070SOL    HW113109   0.326   3.616   3.229
 4070SOL    HW213110   0.423   3.747   3.235
 4071SOL     OW13111   2.874   0.456   4.039
 4071SOL    HW113112   2.963   0.470   3.994
 4071SOL    HW213113   2.830   0.376   3.999
 4072SOL     OW13114   1.156   7.008   3.879
 4072SOL    HW113115   1.224   0.040   3.823
 4072SOL    HW213116   1.065   0.014   3.846
 4073SOL     OW13117   2.208   5.201   2.188
 4073SOL    HW113118   2.260   5.233   2.267
 4073SOL    HW213119   2.173   5.279   2.136
 4074SOL     OW13120   0.503   2.814   6.931
 4074SOL    HW113121   0.506   2.913   6.947
 4074SOL    HW213122   0.594   2.775   6.944
 4075SOL     OW13123   5.473   0.300   3.677
 4075SOL    HW113124   5.426   0.371   3.624
 4075SOL    HW213125   5.488   0.220   3.620
 4076SOL     OW13126   2.026   2.247   2.820
 4076SOL    HW113127   2.106   2.253   2.760
 4076SOL    HW213128   1.984   2.338   2.828
 4077SOL     OW13129   3.594   0.796   0.708
 4077SOL    HW113130   3.646   0.725   0.755
 4077SOL    HW213131   3.620   0.886   0.745
 4078SOL     OW13132   4.861   3.818   2.602
 4078SOL    HW113133   4.899   3.734   2.563
 4078SOL    HW213134   4.813   3.869   2.530
 4079SOL     OW13135   5.558   0.465   4.580
 4079SOL    HW113136   5.558   0.537   4.510
 4079SOL    HW213137   5.499   0.390   4.550
 4080SOL     OW13138   3.792   2.970   3.599
 4080SOL    HW113139   3.885   2.984   3.565
 4080SOL    HW213140   3.747   2.899   3.544
 4081SOL     OW13141   2.588   2.099   6.848
 4081SOL    HW113142   2.598   2.196   6.869
 4081SOL    HW213143   2.678   2.058   6.837
 4082SOL     OW13144   0.859   1.948   5.727
 4082SOL    HW113145   0.953   1.918   5.712
 4082SOL    HW213146   0.799   1.869   5.736
 4083SOL     OW13147   6.040   5.113   2.802
 4083SOL    HW113148   6.038   5.103   2.902
 4083SOL    HW213149   5.967   5.175   2.774
 4084SOL     OW13150   4.930   0.231   1.837
 4084SOL    HW113151   4.859   0.160   1.840
 4084SOL    HW213152   4.981   0.230   1.923
 4085SOL     OW13153   2.332   4.207   2.856
 4085SOL    HW113154   2.368   4.297   2.880
 4085SOL    HW213155   2.332   4.148   2.937
 4086SOL     OW13156   6.039   4.999   5.364
 4086SOL    HW113157   6.011   5.070   5.429
 4086SOL    HW213158   5.968   4.928   5.360
 4087SOL     OW13159   2.118   0.828   1.748
 4087SOL    HW113160   2.186   0.833   1.674
 4087SOL    HW213161   2.087   0.920   1.771
 4088SOL     OW13162   0.310   1.580   5.523
 4088SOL    HW113163   0.259   1.580   5.436
 4088SOL    HW213164   0.384   1.513   5.518
 4089SOL     OW13165   1.346   0.865   2.633
 4089SOL    HW113166   1.431   0.814   2.615
 4089SOL    HW213167   1.361   0.962   2.615
 4090SOL     OW13168   3.121   2.472   5.854
 4090SOL    HW113169   3.163   2.449   5.766
 4090SOL    HW213170   3.049   2.406   5.874
 4091SOL     OW13171   3.163   6.096   2.460
 4091SOL    HW113172   3.115   6.114   2.546
 4091SOL    HW213173   3.201   6.182   2.425
 4092SOL     OW13174   5.868   1.713   5.952
 4092SOL    HW113175   5.862   1.781   6.025
 4092SOL    HW213176   5.783   1.660   5.950
 4093SOL     OW13177   5.579   3.910   3.124
 4093SOL    HW113178   5.493   3.888   3.077
 4093SOL    HW213179   5.656   3.873   3.073
 4094SOL     OW13180   6.926   6.810   0.634
 4094SOL    HW113181   0.005   6.783   0.651
 4094SOL    HW213182   6.876   6.817   0.721
 4095SOL     OW13183   1.842   5.419   0.520
 4095SOL    HW113184   1.824   5.441   0.424
 4095SOL    HW213185   1.927   5.368   0.527
 4096SOL     OW13186   0.606   0.120   6.601
 4096SOL    HW113187   0.686   0.175   6.626
 4096SOL    HW213188   0.528   0.180   6.586
 4097SOL     OW13189   0.683   3.785   5.587
 4097SOL    HW113190   0.609   3.736   5.541
 4097SOL    HW213191   0.664   3.883   5.586
 4098SOL     OW13192   1.215   6.033   1.824
 4098SOL    HW113193   1.135   5.994   1.779
 4098SOL    HW213194   1.199   6.035   1.923
 4099SOL     OW13195   6.686   3.582   5.192
 4099SOL    HW113196   6.711   3.517   5.120
 4099SOL    HW213197   6.629   3.536   5.260
 4100SOL     OW13198   2.471   0.664   3.385
 4100SOL    HW113199   2.493   0.654   3.288
 4100SOL    HW213200   2.498   0.754   3.417
 4101SOL     OW13201   6.408   5.902   5.941
 4101SOL    HW113202   6.346   5.869   6.013
 4101SOL    HW213203   6.369   5.983   5.898
 4102SOL     OW13204   1.051   5.818   0.634
 4102SOL    HW113205   1.061   5.857   0.543
 4102SOL    HW213206   1.132   5.764   0.657
 4103SOL     OW13207   2.853   5.428   3.016
 4103SOL    HW113208   2.773   5.455   3.070
 4103SOL    HW213209   2.864   5.329   3.019
 4104SOL     OW13210   1.312   6.132   5.355
 4104SOL    HW113211   1.288   6.035   5.364
 4104SOL    HW213212   1.406   6.141   5.325
 4105SOL     OW13213   3.634   6.348   1.868
 4105SOL    HW113214   3.626   6.250   1.845
 4105SOL    HW213215   3.713   6.387   1.820
 4106SOL     OW13216   1.583   0.059   2.274
 4106SOL    HW113217   1.608   0.037   2.180
 4106SOL    HW213218   1.643   0.131   2.309
 4107SOL     OW13219   1.637   1.128   0.912
 4107SOL    HW113220   1.583   1.200   0.868
 4107SOL    HW213221   1.722   1.115   0.861
 4108SOL     OW13222   6.559   6.366   5.632
 4108SOL    HW113223   6.491   6.357   5.559
 4108SOL    HW213224   6.522   6.422   5.706
 4109SOL     OW13225   5.056   6.599   4.916
 4109SOL    HW113226   4.978   6.540   4.934
 4109SOL    HW213227   5.096   6.577   4.827
 4110SOL     OW13228   4.367   3.175   0.237
 4110SOL    HW113229   4.452   3.166   0.289
 4110SOL    HW213230   4.368   3.260   0.185
 4111SOL     OW13231   5.585   4.715   3.895
 4111SOL    HW113232   5.504   4.770   3.875
 4111SOL    HW213233   5.571   4.664   3.980
 4112SOL     OW13234   4.330   5.831   4.584
 4112SOL    HW113235   4.323   5.814   4.486
 4112SOL    HW213236   4.426   5.849   4.607
 4113SOL     OW13237   4.762   5.059   4.867
 4113SOL    HW113238   4.732   5.148   4.899
 4113SOL    HW213239   4.817   5.069   4.784
 4114SOL     OW13240   0.220   0.840   2.170
 4114SOL    HW113241   0.197   0.831   2.267
 4114SOL    HW213242   0.318   0.824   2.158
 4115SOL     OW13243   4.283   5.729   4.315
 4115SOL    HW113244   4.288   5.643   4.263
 4115SOL    HW213245   4.341   5.797   4.271
 4116SOL     OW13246   6.274   3.262   3.404
 4116SOL    HW113247   6.319   3.339   3.358
 4116SOL    HW213248   6.338   3.185   3.409
 4117SOL     OW13249   0.185   1.215   3.053
 4117SOL    HW113250   0.108   1.270   3.086
 4117SOL    HW213251   0.216   1.154   3.125
 4118SOL     OW13252   1.637   0.441   1.021
 4118SOL    HW113253   1.635   0.479   1.113
 4118SOL    HW213254   1.567   0.370   1.013
 4119SOL     OW13255   0.143   0.626   4.736
 4119SOL    HW113256   0.211   0.641   4.808
 4119SOL    HW213257   0.063   0.683   4.752
 4120SOL     OW13258   2.138   0.800   6.277
 4120SOL    HW113259   2.206   0.860   6.234
 4120SOL    HW213260   2.083   0.757   6.205
 4121SOL     OW13261   6.291   1.127   1.965
 4121SOL    HW113262   6.338   1.081   2.040
 4121SOL    HW213263   6.196   1.097   1.962
 4122SOL     OW13264   0.976   4.967   2.836
 4122SOL    HW113265   0.890   4.929   2.870
 4122SOL    HW213266   0.981   5.064   2.859
 4123SOL     OW13267   5.487   4.364   1.408
 4123SOL    HW113268   5.505   4.318   1.495
 4123SOL    HW213269   5.388   4.365   1.390
 4124SOL     OW13270   6.315   6.819   0.085
 4124SOL    HW113271   6.398   6.785   0.129
 4124SOL    HW213272   6.282   6.900   0.134
 4125SOL     OW13273   0.110   3.016   6.863
 4125SOL    HW113274   0.102   3.052   6.956
 4125SOL    HW213275   0.093   3.089   6.798
 4126SOL     OW13276   1.289   3.971   4.272
 4126SOL    HW113277   1.290   4.057   4.220
 4126SOL    HW213278   1.208   3.969   4.331
 4127SOL     OW13279   5.474   2.250   3.947
 4127SOL    HW113280   5.519   2.313   3.884
 4127SOL    HW213281   5.490   2.279   4.041
 4128SOL     OW13282   6.808   2.285   6.071
 4128SOL    HW113283   6.769   2.323   6.155
 4128SOL    HW213284   6.742   2.225   6.027
 4129SOL     OW13285   3.215   1.306   1.111
 4129SOL    HW113286   3.277   1.384   1.116
 4129SOL    HW213287   3.141   1.318   1.178
 4130SOL     OW13288   5.574   2.609   0.363
 4130SOL    HW113289   5.657   2.656   0.394
 4130SOL    HW213290   5.585   2.581   0.267
 4131SOL     OW13291   4.885   6.264   3.933
 4131SOL    HW113292   4.875   6.346   3.877
 4131SOL    HW213293   4.804   6.206   3.923
 4132SOL     OW13294   6.537   4.370   3.053
 4132SOL    HW113295   6.511   4.322   3.137
 4132SOL    HW213296   6.461   4.429   3.024
 4133SOL     OW13297   5.191   6.298   3.495
 4133SOL    HW113298   5.225   6.214   3.452
 4133SOL    HW213299   5.268   6.354   3.524
 4134SOL     OW13300   1.381   3.790   1.341
 4134SOL    HW113301   1.472   3.788   1.383
 4134SOL    HW213302   1.362   3.702   1.299
 4135SOL     OW13303   6.242   1.173   0.910
 4135SOL    HW113304   6.337   1.192   0.885
 4135SOL    HW213305   6.237   1.083   0.952
 4136SOL     OW13306   0.731   4.371   0.444
 4136SOL    HW113307   0.733   4.468   0.469
 4136SOL    HW213308   0.698   4.317   0.521
 4137SOL     OW13309   6.968   2.833   5.826
 4137SOL    HW113310   6.952   2.789   5.914
 4137SOL    HW213311   6.907   2.912   5.816
 4138SOL     OW13312   4.959   6.960   6.292
 4138SOL    HW113313   5.028   0.011   6.320
 4138SOL    HW213314   4.982   6.870   6.330
 4139SOL     OW13315   1.658   4.500   2.154
 4139SOL    HW113316   1.661   4.459   2.062
 4139SOL    HW213317   1.565   4.495   2.190
 4140SOL     OW13318   2.360   6.903   6.688
 4140SOL    HW113319   2.325   6.987   6.729
 4140SOL    HW213320   2.460   6.902   6.692
 4141SOL     OW13321   5.338   0.580   6.079
 4141SOL    HW113322   5.239   0.582   6.067
 4141SOL    HW213323   5.381   0.643   6.015
 4142SOL     OW13324   6.272   5.740   1.282
 4142SOL    HW113325   6.292   5.751   1.184
 4142SOL    HW213326   6.343   5.786   1.336
 4143SOL     OW13327   6.070   3.939   6.470
 4143SOL    HW113328   6.155   3.886   6.471
 4143SOL    HW213329   6.016   3.914   6.390
 4144SOL     OW13330   4.211   0.557   1.332
 4144SOL    HW113331   4.141   0.499   1.291
 4144SOL    HW213332   4.301   0.515   1.321
 4145SOL     OW13333   5.347   0.353   1.220
 4145SOL    HW113334   5.403   0.397   1.149
 4145SOL    HW213335   5.311   0.422   1.282
 4146SOL     OW13336   4.290   0.148   1.958
 4146SOL    HW113337   4.231   0.137   1.878
 4146SOL    HW213338   4.328   0.060   1.984
 4147SOL     OW13339   4.322   4.790   6.761
 4147SOL    HW113340   4.238   4.837   6.789
 4147SOL    HW213341   4.401   4.846   6.784
 4148SOL     OW13342   3.132   1.556   6.077
 4148SOL    HW113343   3.099   1.468   6.043
 4148SOL    HW213344   3.076   1.584   6.155
 4149SOL     OW13345   1.243   3.444   5.857
 4149SOL    HW113346   1.309   3.464   5.784
 4149SOL    HW213347   1.198   3.356   5.838
 4150SOL     OW13348   5.574   1.668   0.274
 4150SOL    HW113349   5.602   1.730   0.348
 4150SOL    HW213350   5.647   1.602   0.258
 4151SOL     OW13351   2.506   5.787   5.051
 4151SOL    HW113352   2.595   5.806   5.009
 4151SOL    HW213353   2.446   5.742   4.985
 4152SOL     OW13354   3.087   3.699   1.208
 4152SOL    HW113355   3.136   3.786   1.203
 4152SOL    HW213356   3.017   3.697   1.137
 4153SOL     OW13357   6.932   5.640   2.159
 4153SOL    HW113358   0.007   5.672   2.186
 4153SOL    HW213359   6.873   5.635   2.239
 4154SOL     OW13360   0.391   6.838   4.191
 4154SOL    HW113361   0.453   6.821   4.268
 4154SOL    HW213362   0.374   6.752   4.142
 4155SOL     OW13363   6.439   1.023   2.187
 4155SOL    HW113364   6.537   1.045   2.194
 4155SOL    HW213365   6.397   1.032   2.277
 4156SOL     OW13366   0.624   4.538   5.571
 4156SOL    HW113367   0.642   4.630   5.605
 4156SOL    HW213368   0.710   4.492   5.552
 4157SOL     OW13369   5.008   5.703   0.666
 4157SOL    HW113370   5.027   5.691   0.763
 4157SOL    HW213371   4.922   5.658   0.642
 4158SOL     OW13372   0.658   2.863   0.497
 4158SOL    HW113373   0.592   2.816   0.439
 4158SOL    HW213374   0.631   2.855   0.593
 4159SOL     OW13375   3.107   0.706   4.615
 4159SOL    HW113376   3.162   0.746   4.542
 4159SOL    HW213377   3.043   0.639   4.576
 4160SOL     OW13378   1.645   6.795   6.053
 4160SOL    HW113379   1.564   6.772   6.106
 4160SOL    HW213380   1.724   6.803   6.113
 4161SOL     OW13381   3.649   2.894   3.376
 4161SOL    HW113382   3.570   2.955   3.367
 4161SOL    HW213383   3.682   2.869   3.285
 4162SOL     OW13384   5.355   6.024   1.573
 4162SOL    HW113385   5.275   6.029   1.632
 4162SOL    HW213386   5.327   6.026   1.477
 4163SOL     OW13387   3.898   5.654   1.504
 4163SOL    HW113388   3.807   5.616   1.516
 4163SOL    HW213389   3.911   5.731   1.566
 4164SOL     OW13390   5.369   2.098   6.540
 4164SOL    HW113391   5.273   2.112   6.565
 4164SOL    HW213392   5.373   2.043   6.456
 4165SOL     OW13393   3.323   1.672   4.039
 4165SOL    HW113394   3.365   1.615   3.969
 4165SOL    HW213395   3.336   1.768   4.016
 4166SOL     OW13396   5.900   2.234   1.708
 4166SOL    HW113397   5.831   2.272   1.646
 4166SOL    HW213398   5.908   2.292   1.789
 4167SOL     OW13399   3.597   5.487   4.531
 4167SOL    HW113400   3.631   5.464   4.623
 4167SOL    HW213401   3.674   5.492   4.467
 4168SOL     OW13402   5.450   4.633   0.259
 4168SOL    HW113403   5.466   4.591   0.170
 4168SOL    HW213404   5.468   4.566   0.331
 4169SOL     OW13405   5.298   3.464   6.816
 4169SOL    HW113406   5.390   3.478   6.779
 4169SOL    HW213407   5.305   3.443   6.914
 4170SOL     OW13408   1.018   2.746   5.052
 4170SOL    HW113409   1.000   2.806   5.129
 4170SOL    HW213410   0.932   2.719   5.009
 4171SOL     OW13411   0.501   1.508   6.208
 4171SOL    HW113412   0.489   1.451   6.127
 4171SOL    HW213413   0.436   1.479   6.279
 4172SOL     OW13414   2.567   2.400   6.429
 4172SOL    HW113415   2.485   2.375   6.480
 4172SOL    HW213416   2.541   2.448   6.345
 4173SOL     OW13417   4.925   1.818   5.519
 4173SOL    HW113418   4.877   1.795   5.435
 4173SOL    HW213419   4.990   1.746   5.541
 4174SOL     OW13420   3.546   6.287   4.525
 4174SOL    HW113421   3.608   6.209   4.519
 4174SOL    HW213422   3.568   6.342   4.606
 4175SOL     OW13423   1.368   4.734   6.490
 4175SOL    HW113424   1.274   4.768   6.478
 4175SOL    HW213425   1.421   4.801   6.543
 4176SOL     OW13426   5.061   7.014   5.875
 4176SOL    HW113427   5.158   0.018   5.891
 4176SOL    HW213428   5.038   6.926   5.917
 4177SOL     OW13429   4.058   5.183   2.863
 4177SOL    HW113430   4.117   5.264   2.863
 4177SOL    HW213431   4.030   5.162   2.956
 4178SOL     OW13432   3.539   6.100   1.325
 4178SOL    HW113433   3.589   6.018   1.351
 4178SOL    HW213434   3.487   6.134   1.404
 4179SOL     OW13435   4.420   2.645   0.039
 4179SOL    HW113436   4.393   2.689   0.125
 4179SOL    HW213437   4.344   2.647   6.990
 4180SOL     OW13438   3.691   3.677   0.340
 4180SOL    HW113439   3.790   3.682   0.353
 4180SOL    HW213440   3.669   3.599   0.281
 4181SOL     OW13441   5.795   6.183   5.721
 4181SOL    HW113442   5.894   6.175   5.736
 4181SOL    HW213443   5.768   6.279   5.727
 4182SOL     OW13444   0.558   5.872   5.655
 4182SOL    HW113445   0.528   5.786   5.614
 4182SOL    HW213446   0.497   5.897   5.730
 4183SOL     OW13447   4.447   2.159   0.281
 4183SOL    HW113448   4.498   2.207   0.352
 4183SOL    HW213449   4.503   2.151   0.199
 4184SOL     OW13450   3.572   5.636   3.328
 4184SOL    HW113451   3.507   5.697   3.282
 4184SOL    HW213452   3.598   5.676   3.416
 4185SOL     OW13453   4.855   3.716   3.168
 4185SOL    HW113454   4.844   3.805   3.210
 4185SOL    HW213455   4.806   3.713   3.081
 4186SOL     OW13456   2.000   5.296   0.045
 4186SOL    HW113457   2.055   5.219   0.075
 4186SOL    HW213458   1.904   5.282   0.072
 4187SOL     OW13459   2.307   4.064   5.742
 4187SOL    HW113460   2.322   4.161   5.727
 4187SOL    HW213461   2.393   4.014   5.727
 4188SOL     OW13462   4.663   0.287   6.847
 4188SOL    HW113463   4.718   0.241   6.917
 4188SOL    HW213464   4.723   0.341   6.788
 4189SOL     OW13465   4.620   5.155   3.123
 4189SOL    HW113466   4.547   5.112   3.177
 4189SOL    HW213467   4.581   5.194   3.040
 4190SOL     OW13468   6.078   6.531   1.688
 4190SOL    HW113469   5.999   6.554   1.631
 4190SOL    HW213470   6.148   6.601   1.678
 4191SOL     OW13471   4.339   3.350   6.527
 4191SOL    HW113472   4.270   3.346   6.598
 4191SOL    HW213473   4.409   3.281   6.545
 4192SOL     OW13474   1.933   3.703   6.249
 4192SOL    HW113475   1.849   3.745   6.284
 4192SOL    HW213476   1.927   3.604   6.258
 4193SOL     OW13477   0.058   0.621   6.978
 4193SOL    HW113478   0.043   0.548   0.030
 4193SOL    HW213479   0.086   0.580   6.891
 4194SOL     OW13480   5.739   1.127   6.388
 4194SOL    HW113481   5.779   1.083   6.469
 4194SOL    HW213482   5.678   1.201   6.417
 4195SOL     OW13483   2.741   6.770   1.081
 4195SOL    HW113484   2.696   6.831   1.146
 4195SOL    HW213485   2.837   6.796   1.071
 4196SOL     OW13486   0.054   2.443   3.143
 4196SOL    HW113487   0.065   2.404   3.052
 4196SOL    HW213488   0.142   2.440   3.191
 4197SOL     OW13489   3.183   1.213   0.084
 4197SOL    HW113490   3.147   1.119   0.082
 4197SOL    HW213491   3.149   1.263   0.005
 4198SOL     OW13492   6.522   1.917   2.276
 4198SOL    HW113493   6.609   1.871   2.295
 4198SOL    HW213494   6.453   1.883   2.339
 4199SOL     OW13495   0.467   3.623   6.615
 4199SOL    HW113496   0.438   3.533   6.646
 4199SOL    HW213497   0.420   3.645   6.529
 4200SOL     OW13498   4.630   1.682   3.670
 4200SOL    HW113499   4.637   1.699   3.769
 4200SOL    HW213500   4.544   1.721   3.636
 4201SOL     OW13501   5.810   6.771   4.608
 4201SOL    HW113502   5.774   6.717   4.532
 4201SOL    HW213503   5.908   6.784   4.597
 4202SOL     OW13504   4.548   4.046   1.678
 4202SOL    HW113505   4.643   4.046   1.710
 4202SOL    HW213506   4.498   4.119   1.725
 4203SOL     OW13507   5.614   4.437   5.588
 4203SOL    HW113508   5.624   4.475   5.680
 4203SOL    HW213509   5.565   4.502   5.531
 4204SOL     OW13510   1.466   4.160   6.187
 4204SOL    HW113511   1.473   4.199   6.096
 4204SOL    HW213512   1.386   4.100   6.192
 4205SOL     OW13513   4.651   6.651   6.557
 4205SOL    HW113514   4.556   6.621   6.545
 4205SOL    HW213515   4.652   6.743   6.596
 4206SOL     OW13516   2.242   1.888   4.227
 4206SOL    HW113517   2.173   1.819   4.204
 4206SOL    HW213518   2.326   1.870   4.175
 4207SOL     OW13519   1.549   2.091   2.262
 4207SOL    HW113520   1.470   2.151   2.249
 4207SOL    HW213521   1.520   2.007   2.308
 4208SOL     OW13522   2.512   2.483   3.743
 4208SOL    HW113523   2.473   2.501   3.833
 4208SOL    HW213524   2.487   2.390   3.713
 4209SOL     OW13525   6.646   5.918   1.754
 4209SOL    HW113526   6.618   5.899   1.849
 4209SOL    HW213527   6.746   5.917   1.748
 4210SOL     OW13528   3.046   4.316   5.281
 4210SOL    HW113529   3.031   4.401   5.231
 4210SOL    HW213530   3.083   4.336   5.372
 4211SOL     OW13531   3.787   2.813   5.237
 4211SOL    HW113532   3.756   2.877   5.167
 4211SOL    HW213533   3.710   2.757   5.267
 4212SOL     OW13534   0.308   2.169   3.124
 4212SOL    HW113535   0.346   2.262   3.121
 4212SOL    HW213536   0.356   2.116   3.194
 4213SOL     OW13537   3.647   0.098   4.007
 4213SOL    HW113538   3.625   0.002   3.989
 4213SOL    HW213539   3.717   0.129   3.942
 4214SOL     OW13540   6.397   5.715   3.300
 4214SOL    HW113541   6.447   5.669   3.226
 4214SOL    HW213542   6.443   5.698   3.387
 4215SOL     OW13543   5.929   0.024   6.188
 4215SOL    HW113544   5.982   0.082   6.125
 4215SOL    HW213545   5.991   6.998   6.255
 4216SOL     OW13546   2.385   5.408   2.227
 4216SOL    HW113547   2.369   5.496   2.270
 4216SOL    HW213548   2.428   5.421   2.137
 4217SOL     OW13549   1.624   0.102   3.231
 4217SOL    HW113550   1.597   0.198   3.228
 4217SOL    HW213551   1.552   0.048   3.274
 4218SOL     OW13552   2.889   0.958   1.785
 4218SOL    HW113553   2.863   1.016   1.862
 4218SOL    HW213554   2.806   0.930   1.735
 4219SOL     OW13555   3.868   5.016   3.498
 4219SOL    HW113556   3.919   5.100   3.513
 4219SOL    HW213557   3.779   5.022   3.544
 4220SOL     OW13558   6.315   1.963   0.966
 4220SOL    HW113559   6.402   1.915   0.955
 4220SOL    HW213560   6.329   2.061   0.955
 4221SOL     OW13561   0.353   6.309   0.411
 4221SOL    HW113562   0.290   6.383   0.386
 4221SOL    HW213563   0.392   6.270   0.328
 4222SOL     OW13564   4.886   3.339   4.249
 4222SOL    HW113565   4.868   3.338   4.151
 4222SOL    HW213566   4.866   3.430   4.286
 4223SOL     OW13567   3.424   3.824   3.130
 4223SOL    HW113568   3.413   3.906   3.186
 4223SOL    HW213569   3.391   3.843   3.037
 4224SOL     OW13570   4.612   4.850   4.299
 4224SOL    HW113571   4.555   4.770   4.282
 4224SOL    HW213572   4.598   4.881   4.393
 4225SOL     OW13573   1.211   2.048   5.851
 4225SOL    HW113574   1.206   2.011   5.944
 4225SOL    HW213575   1.224   2.147   5.856
 4226SOL     OW13576   0.491   5.026   4.792
 4226SOL    HW113577   0.434   5.108   4.786
 4226SOL    HW213578   0.472   4.979   4.878
 4227SOL     OW13579   4.884   5.206   1.807
 4227SOL    HW113580   4.928   5.158   1.883
 4227SOL    HW213581   4.843   5.140   1.744
 4228SOL     OW13582   1.477   4.668   4.088
 4228SOL    HW113583   1.383   4.646   4.114
 4228SOL    HW213584   1.539   4.636   4.159
 4229SOL     OW13585   5.798   5.735   5.409
 4229SOL    HW113586   5.863   5.667   5.374
 4229SOL    HW213587   5.745   5.694   5.484
 4230SOL     OW13588   6.595   1.393   1.535
 4230SOL    HW113589   6.642   1.417   1.620
 4230SOL    HW213590   6.634   1.309   1.498
 4231SOL     OW13591   0.318   0.554   6.234
 4231SOL    HW113592   0.231   0.514   6.206
 4231SOL    HW213593   0.391   0.520   6.175
 4232SOL     OW13594   1.390   4.834   4.346
 4232SOL    HW113595   1.452   4.912   4.356
 4232SOL    HW213596   1.443   4.749   4.347
 4233SOL     OW13597   4.666   5.578   2.348
 4233SOL    HW113598   4.691   5.533   2.263
 4233SOL    HW213599   4.569   5.605   2.345
 4234SOL     OW13600   3.453   5.267   5.939
 4234SOL    HW113601   3.450   5.364   5.964
 4234SOL    HW213602   3.438   5.258   5.840
 4235SOL     OW13603   6.932   5.894   6.504
 4235SOL    HW113604   6.847   5.916   6.457
 4235SOL    HW213605   6.984   5.977   6.519
 4236SOL     OW13606   0.109   5.662   3.070
 4236SOL    HW113607   0.181   5.700   3.129
 4236SOL    HW213608   0.100   5.719   2.988
 4237SOL     OW13609   0.154   4.558   3.870
 4237SOL    HW113610   0.174   4.647   3.912
 4237SOL    HW213611   0.154   4.487   3.940
 4238SOL     OW13612   2.966   6.122   2.640
 4238SOL    HW113613   2.991   6.106   2.736
 4238SOL    HW213614   2.906   6.201   2.634
 4239SOL     OW13615   4.441   1.068   3.803
 4239SOL    HW113616   4.462   1.164   3.819
 4239SOL    HW213617   4.399   1.028   3.884
 4240SOL     OW13618   5.631   6.947   1.517
 4240SOL    HW113619   5.574   6.937   1.436
 4240SOL    HW213620   5.692   0.011   1.505
 4241SOL     OW13621   6.080   4.378   0.143
 4241SOL    HW113622   6.106   4.339   0.054
 4241SOL    HW213623   6.137   4.338   0.215
 4242SOL     OW13624   3.079   2.072   3.344
 4242SOL    HW113625   3.162   2.028   3.309
 4242SOL    HW213626   3.100   2.120   3.430
 4243SOL     OW13627   4.370   1.507   2.823
 4243SOL    HW113628   4.384   1.457   2.738
 4243SOL    HW213629   4.436   1.581   2.829
 4244SOL     OW13630   3.191   3.194   4.823
 4244SOL    HW113631   3.267   3.173   4.761
 4244SOL    HW213632   3.179   3.118   4.887
 4245SOL     OW13633   6.025   0.323   6.995
 4245SOL    HW113634   5.953   0.262   6.960
 4245SOL    HW213635   6.093   0.269   0.029
 4246SOL     OW13636   6.671   4.112   6.438
 4246SOL    HW113637   6.645   4.171   6.362
 4246SOL    HW213638   6.600   4.042   6.453
 4247SOL     OW13639   0.551   5.816   5.272
 4247SOL    HW113640   0.481   5.885   5.257
 4247SOL    HW213641   0.630   5.835   5.215
 4248SOL     OW13642   2.284   3.956   6.173
 4248SOL    HW113643   2.218   3.949   6.248
 4248SOL    HW213644   2.250   3.904   6.094
 4249SOL     OW13645   5.394   3.765   5.452
 4249SOL    HW113646   5.375   3.801   5.361
 4249SOL    HW213647   5.334   3.687   5.470
 4250SOL     OW13648   1.336   4.165   3.141
 4250SOL    HW113649   1.301   4.129   3.228
 4250SOL    HW213650   1.433   4.185   3.150
 4251SOL     OW13651   5.184   4.744   0.275
 4251SOL    HW113652   5.253   4.672   0.259
 4251SOL    HW213653   5.176   4.801   0.193
 4252SOL     OW13654   6.911   5.492   5.255
 4252SOL    HW113655   6.966   5.409   5.251
 4252SOL    HW213656   6.816   5.470   5.233
 4253SOL     OW13657   3.724   6.139   2.569
 4253SOL    HW113658   3.649   6.106   2.625
 4253SOL    HW213659   3.802   6.077   2.577
 4254SOL     OW13660   3.016   3.947   1.732
 4254SOL    HW113661   2.918   3.956   1.714
 4254SOL    HW213662   3.029   3.897   1.818
 4255SOL     OW13663   0.359   1.886   4.287
 4255SOL    HW113664   0.374   1.905   4.190
 4255SOL    HW213665   0.268   1.919   4.314
 4256SOL     OW13666   1.980   1.064   1.851
 4256SOL    HW113667   2.008   1.098   1.941
 4256SOL    HW213668   1.881   1.072   1.841
 4257SOL     OW13669   4.376   2.382   4.844
 4257SOL    HW113670   4.313   2.418   4.912
 4257SOL    HW213671   4.325   2.334   4.773
 4258SOL     OW13672   4.963   6.472   2.861
 4258SOL    HW113673   4.884   6.411   2.848
 4258SOL    HW213674   4.939   6.544   2.925
 4259SOL     OW13675   1.811   3.420   1.060
 4259SOL    HW113676   1.835   3.327   1.034
 4259SOL    HW213677   1.751   3.460   0.991
 4260SOL     OW13678   3.985   5.793   3.970
 4260SOL    HW113679   3.891   5.826   3.959
 4260SOL    HW213680   4.046   5.846   3.910
 4261SOL     OW13681   1.282   1.406   2.895
 4261SOL    HW113682   1.272   1.315   2.937
 4261SOL    HW213683   1.304   1.396   2.798
 4262SOL     OW13684   6.946   6.760   6.274
 4262SOL    HW113685   6.875   6.761   6.204
 4262SOL    HW213686   0.021   6.762   6.229
 4263SOL     OW13687   4.316   5.101   6.249
 4263SOL    HW113688   4.227   5.105   6.295
 4263SOL    HW213689   4.361   5.190   6.255
 4264SOL     OW13690   6.995   0.563   1.428
 4264SOL    HW113691   0.031   0.497   1.483
 4264SOL    HW213692   6.956   0.633   1.488
 4265SOL     OW13693   1.250   2.285   0.059
 4265SOL    HW113694   1.150   2.290   0.065
 4265SOL    HW213695   1.284   2.363   0.007
 4266SOL     OW13696   3.086   4.635   1.295
 4266SOL    HW113697   3.034   4.551   1.310
 4266SOL    HW213698   3.111   4.675   1.383
 4267SOL     OW13699   1.807   4.410   5.905
 4267SOL    HW113700   1.798   4.492   5.849
 4267SOL    HW213701   1.822   4.330   5.847
 4268SOL     OW13702   1.720   0.721   0.813
 4268SOL    HW113703   1.725   0.718   0.913
 4268SOL    HW213704   1.803   0.762   0.777
 4269SOL     OW13705   3.082   4.071   0.598
 4269SOL    HW113706   3.133   4.084   0.513
 4269SOL    HW213707   3.125   4.124   0.671
 4270SOL     OW13708   3.717   2.678   6.210
 4270SOL    HW113709   3.735   2.627   6.295
 4270SOL    HW213710   3.661   2.758   6.231
 4271SOL     OW13711   1.216   0.226   0.456
 4271SOL    HW113712   1.155   0.264   0.386
 4271SOL    HW213713   1.179   0.246   0.547
 4272SOL     OW13714   6.850   4.158   3.764
 4272SOL    HW113715   6.871   4.255   3.781
 4272SOL    HW213716   6.804   4.150   3.676
 4273SOL     OW13717   5.631   6.411   4.458
 4273SOL    HW113718   5.611   6.451   4.548
 4273SOL    HW213719   5.647   6.313   4.468
 4274SOL     OW13720   1.784   0.420   3.745
 4274SOL    HW113721   1.787   0.464   3.655
 4274SOL    HW213722   1.745   0.483   3.812
 4275SOL     OW13723   1.259   0.312   6.225
 4275SOL    HW113724   1.306   0.397   6.251
 4275SOL    HW213725   1.231   0.263   6.308
 4276SOL     OW13726   1.903   4.572   2.266
 4276SOL    HW113727   1.979   4.605   2.209
 4276SOL    HW213728   1.817   4.583   2.217
 4277SOL     OW13729   1.089   5.327   4.837
 4277SOL    HW113730   1.062   5.394   4.768
 4277SOL    HW213731   1.124   5.245   4.791
 4278SOL     OW13732   1.292   6.778   5.976
 4278SOL    HW113733   1.292   6.684   5.942
 4278SOL    HW213734   1.357   6.786   6.052
 4279SOL     OW13735   3.070   5.943   4.377
 4279SOL    HW113736   3.169   5.938   4.385
 4279SOL    HW213737   3.043   6.036   4.352
 4280SOL     OW13738   4.743   2.890   3.521
 4280SOL    HW113739   4.713   2.956   3.589
 4280SOL    HW213740   4.758   2.801   3.565
 4281SOL     OW13741   2.537   4.207   5.298
 4281SOL    HW113742   2.478   4.286   5.283
 4281SOL    HW213743   2.483   4.123   5.285
 4282SOL     OW13744   0.724   3.145   0.454
 4282SOL    HW113745   0.813   3.153   0.497
 4282SOL    HW213746   0.685   3.055   0.474
 4283SOL     OW13747   2.553   0.478   4.873
 4283SOL    HW113748   2.626   0.424   4.831
 4283SOL    HW213749   2.592   0.561   4.913
 4284SOL     OW13750   6.737   1.802   3.006
 4284SOL    HW113751   6.693   1.763   2.925
 4284SOL    HW213752   6.675   1.867   3.049
 4285SOL     OW13753   1.113   6.149   4.694
 4285SOL    HW113754   1.204   6.140   4.733
 4285SOL    HW213755   1.044   6.140   4.766
 4286SOL     OW13756   5.430   5.716   6.824
 4286SOL    HW113757   5.513   5.722   6.879
 4286SOL    HW213758   5.356   5.678   6.880
 4287SOL     OW13759   4.120   6.541   5.620
 4287SOL    HW113760   4.148   6.634   5.645
 4287SOL    HW213761   4.192   6.498   5.566
 4288SOL     OW13762   1.410   6.244   3.325
 4288SOL    HW113763   1.324   6.218   3.369
 4288SOL    HW213764   1.428   6.182   3.248
 4289SOL     OW13765   6.591   3.704   0.076
 4289SOL    HW113766   6.515   3.763   0.103
 4289SOL    HW213767   6.675   3.758   0.068
 4290SOL     OW13768   2.343   1.593   3.214
 4290SOL    HW113769   2.410   1.611   3.285
 4290SOL    HW213770   2.251   1.604   3.251
 4291SOL     OW13771   6.458   4.557   1.206
 4291SOL    HW113772   6.523   4.533   1.134
 4291SOL    HW213773   6.486   4.515   1.292
 4292SOL     OW13774   5.545   5.722   5.934
 4292SOL    HW113775   5.620   5.712   5.868
 4292SOL    HW213776   5.582   5.745   6.024
 4293SOL     OW13777   0.062   2.316   6.399
 4293SOL    HW113778   0.140   2.292   6.458
 4293SOL    HW213779   0.088   2.392   6.339
 4294SOL     OW13780   5.070   2.418   5.680
 4294SOL    HW113781   5.047   2.359   5.602
 4294SOL    HW213782   5.092   2.509   5.646
 4295SOL     OW13783   3.838   6.328   5.427
 4295SOL    HW113784   3.777   6.325   5.348
 4295SOL    HW213785   3.896   6.410   5.422
 4296SOL     OW13786   2.501   1.333   2.403
 4296SOL    HW113787   2.407   1.366   2.387
 4296SOL    HW213788   2.538   1.379   2.483
 4297SOL     OW13789   5.904   0.944   6.989
 4297SOL    HW113790   5.977   0.876   6.981
 4297SOL    HW213791   5.872   0.949   0.068
 4298SOL     OW13792   2.380   5.284   1.492
 4298SOL    HW113793   2.379   5.256   1.396
 4298SOL    HW213794   2.299   5.341   1.511
 4299SOL     OW13795   0.876   4.513   5.821
 4299SOL    HW113796   0.852   4.416   5.812
 4299SOL    HW213797   0.936   4.525   5.900
 4300SOL     OW13798   5.784   6.815   5.830
 4300SOL    HW113799   5.806   6.741   5.767
 4300SOL    HW213800   5.797   6.903   5.784
 4301SOL     OW13801   2.575   1.171   0.170
 4301SOL    HW113802   2.525   1.239   0.117
 4301SOL    HW213803   2.633   1.117   0.109
 4302SOL     OW13804   0.788   6.979   6.848
 4302SOL    HW113805   0.855   6.918   6.892
 4302SOL    HW213806   0.696   6.956   6.880
 4303SOL     OW13807   0.120   4.147   1.774
 4303SOL    HW113808   0.084   4.199   1.852
 4303SOL    HW213809   0.075   4.178   1.691
 4304SOL     OW13810   3.175   3.018   5.052
 4304SOL    HW113811   3.080   2.992   5.066
 4304SOL    HW213812   3.235   2.943   5.080
 4305SOL     OW13813   5.878   1.014   4.922
 4305SOL    HW113814   5.869   1.077   4.999
 4305SOL    HW213815   5.941   0.941   4.947
 4306SOL     OW13816   5.839   5.841   6.446
 4306SOL    HW113817   5.741   5.823   6.444
 4306SOL    HW213818   5.889   5.755   6.447
 4307SOL     OW13819   5.118   3.413   0.401
 4307SOL    HW113820   5.094   3.316   0.409
 4307SOL    HW213821   5.035   3.469   0.401
 4308SOL     OW13822   4.189   6.813   5.606
 4308SOL    HW113823   4.181   6.867   5.523
 4308SOL    HW213824   4.270   6.842   5.658
 4309SOL     OW13825   1.655   0.936   1.426
 4309SOL    HW113826   1.619   0.926   1.333
 4309SOL    HW213827   1.701   1.024   1.434
 4310SOL     OW13828   1.551   0.711   2.560
 4310SOL    HW113829   1.601   0.794   2.536
 4310SOL    HW213830   1.615   0.634   2.564
 4311SOL     OW13831   1.643   5.716   4.273
 4311SOL    HW113832   1.650   5.632   4.219
 4311SOL    HW213833   1.590   5.698   4.356
 4312SOL     OW13834   1.538   5.743   1.509
 4312SOL    HW113835   1.546   5.649   1.541
 4312SOL    HW213836   1.571   5.750   1.415
 4313SOL     OW13837   4.805   0.533   2.012
 4313SOL    HW113838   4.804   0.479   2.096
 4313SOL    HW213839   4.807   0.472   1.933
 4314SOL     OW13840   5.393   3.704   2.490
 4314SOL    HW113841   5.374   3.697   2.392
 4314SOL    HW213842   5.315   3.747   2.536
 4315SOL     OW13843   2.433   1.518   2.175
 4315SOL    HW113844   2.415   1.614   2.153
 4315SOL    HW213845   2.526   1.494   2.150
 4316SOL     OW13846   0.509   0.804   2.104
 4316SOL    HW113847   0.516   0.810   2.204
 4316SOL    HW213848   0.592   0.842   2.063
 4317SOL     OW13849   3.954   0.489   4.099
 4317SOL    HW113850   4.051   0.513   4.097
 4317SOL    HW213851   3.928   0.459   4.191
 4318SOL     OW13852   6.428   2.678   3.917
 4318SOL    HW113853   6.364   2.742   3.877
 4318SOL    HW213854   6.450   2.706   4.011
 4319SOL     OW13855   2.924   3.276   5.749
 4319SOL    HW113856   2.899   3.220   5.828
 4319SOL    HW213857   2.853   3.346   5.734
 4320SOL     OW13858   0.444   5.584   3.292
 4320SOL    HW113859   0.441   5.633   3.206
 4320SOL    HW213860   0.453   5.486   3.274
 4321SOL     OW13861   0.525   0.584   4.744
 4321SOL    HW113862   0.513   0.487   4.764
 4321SOL    HW213863   0.519   0.636   4.829
 4322SOL     OW13864   5.794   1.383   0.722
 4322SOL    HW113865   5.735   1.462   0.707
 4322SOL    HW213866   5.831   1.386   0.815
 4323SOL     OW13867   6.800   2.188   3.915
 4323SOL    HW113868   6.719   2.182   3.858
 4323SOL    HW213869   6.822   2.097   3.951
 4324SOL     OW13870   5.942   2.571   6.388
 4324SOL    HW113871   5.864   2.542   6.443
 4324SOL    HW213872   5.914   2.648   6.330
 4325SOL     OW13873   2.029   1.659   5.713
 4325SOL    HW113874   2.113   1.607   5.728
 4325SOL    HW213875   2.026   1.692   5.618
 4326SOL     OW13876   6.513   2.433   5.243
 4326SOL    HW113877   6.540   2.455   5.149
 4326SOL    HW213878   6.591   2.448   5.304
 4327SOL     OW13879   5.271   0.282   3.347
 4327SOL    HW113880   5.341   0.279   3.276
 4327SOL    HW213881   5.218   0.366   3.338
 4328SOL     OW13882   5.518   5.100   0.264
 4328SOL    HW113883   5.471   5.122   0.179
 4328SOL    HW213884   5.525   5.182   0.320
 4329SOL     OW13885   5.030   1.690   6.301
 4329SOL    HW113886   4.934   1.714   6.290
 4329SOL    HW213887   5.057   1.701   6.397
 4330SOL     OW13888   0.653   0.653   6.307
 4330SOL    HW113889   0.667   0.637   6.209
 4330SOL    HW213890   0.650   0.565   6.355
 4331SOL     OW13891   5.061   2.567   6.800
 4331SOL    HW113892   5.078   2.471   6.820
 4331SOL    HW213893   4.964   2.581   6.781
 4332SOL     OW13894   5.258   3.559   1.744
 4332SOL    HW113895   5.213   3.639   1.706
 4332SOL    HW213896   5.301   3.506   1.671
 4333SOL     OW13897   6.110   1.611   5.323
 4333SOL    HW113898   6.174   1.596   5.399
 4333SOL    HW213899   6.151   1.673   5.257
 4334SOL     OW13900   4.637   0.317   1.568
 4334SOL    HW113901   4.605   0.263   1.646
 4334SOL    HW213902   4.716   0.373   1.596
 4335SOL     OW13903   3.805   4.526   5.783
 4335SOL    HW113904   3.776   4.619   5.804
 4335SOL    HW213905   3.876   4.527   5.713
 4336SOL     OW13906   1.463   5.930   5.136
 4336SOL    HW113907   1.373   5.901   5.101
 4336SOL    HW213908   1.485   5.877   5.218
 4337SOL     OW13909   0.546   5.028   0.251
 4337SOL    HW113910   0.599   4.946   0.230
 4337SOL    HW213911   0.558   5.052   0.347
 4338SOL     OW13912   5.778   6.091   3.632
 4338SOL    HW113913   5.843   6.153   3.589
 4338SOL    HW213914   5.776   6.107   3.731
 4339SOL     OW13915   6.519   1.151   6.506
 4339SOL    HW113916   6.464   1.123   6.584
 4339SOL    HW213917   6.523   1.251   6.502
 4340SOL     OW13918   4.900   3.327   1.902
 4340SOL    HW113919   4.877   3.240   1.946
 4340SOL    HW213920   4.890   3.402   1.968
 4341SOL     OW13921   0.710   3.905   6.871
 4341SOL    HW113922   0.697   3.924   6.774
 4341SOL    HW213923   0.808   3.899   6.891
 4342SOL     OW13924   6.984   1.991   2.791
 4342SOL    HW113925   6.986   2.086   2.761
 4342SOL    HW213926   6.899   1.948   2.761
 4343SOL     OW13927   2.273   1.652   1.617
 4343SOL    HW113928   2.351   1.589   1.605
 4343SOL    HW213929   2.232   1.637   1.707
 4344SOL     OW13930   2.229   4.062   2.450
 4344SOL    HW113931   2.131   4.058   2.467
 4344SOL    HW213932   2.269   4.140   2.498
 4345SOL     OW13933   2.654   1.348   6.088
 4345SOL    HW113934   2.659   1.447   6.102
 4345SOL    HW213935   2.633   1.303   6.175
 4346SOL     OW13936   0.114   3.022   0.765
 4346SOL    HW113937   0.142   2.998   0.858
 4346SOL    HW213938   0.056   2.950   0.728
 4347SOL     OW13939   5.587   5.918   2.836
 4347SOL    HW113940   5.604   5.972   2.754
 4347SOL    HW213941   5.513   5.852   2.818
 4348SOL     OW13942   1.197   4.046   6.784
 4348SOL    HW113943   1.281   4.002   6.816
 4348SOL    HW213944   1.220   4.134   6.742
 4349SOL     OW13945   0.129   0.636   1.962
 4349SOL    HW113946   0.134   0.674   2.055
 4349SOL    HW213947   0.058   0.566   1.959
 4350SOL     OW13948   4.639   0.617   3.477
 4350SOL    HW113949   4.586   0.699   3.498
 4350SOL    HW213950   4.726   0.620   3.525
 4351SOL     OW13951   2.428   6.617   0.679
 4351SOL    HW113952   2.441   6.660   0.768
 4351SOL    HW213953   2.502   6.642   0.618
 4352SOL     OW13954   6.198   1.248   2.694
 4352SOL    HW113955   6.285   1.269   2.649
 4352SOL    HW213956   6.132   1.217   2.625
 4353SOL     OW13957   2.722   5.471   1.951
 4353SOL    HW113958   2.630   5.431   1.943
 4353SOL    HW213959   2.775   5.420   2.019
 4354SOL     OW13960   2.285   0.941   1.293
 4354SOL    HW113961   2.191   0.969   1.313
 4354SOL    HW213962   2.284   0.864   1.229
 4355SOL     OW13963   4.811   0.831   0.849
 4355SOL    HW113964   4.883   0.900   0.849
 4355SOL    HW213965   4.848   0.745   0.885
 4356SOL     OW13966   3.527   4.291   0.295
 4356SOL    HW113967   3.467   4.369   0.313
 4356SOL    HW213968   3.496   4.245   0.211
 4357SOL     OW13969   6.513   0.584   6.969
 4357SOL    HW113970   6.606   0.618   6.978
 4357SOL    HW213971   6.467   0.632   6.894
 4358SOL     OW13972   6.283   0.995   1.149
 4358SOL    HW113973   6.251   1.063   1.215
 4358SOL    HW213974   6.214   0.923   1.139
 4359SOL     OW13975   5.923   2.713   4.168
 4359SOL    HW113976   5.883   2.658   4.241
 4359SOL    HW213977   6.012   2.748   4.196
 4360SOL     OW13978   2.236   3.374   1.243
 4360SOL    HW113979   2.333   3.350   1.246
 4360SOL    HW213980   2.226   3.468   1.209
 4361SOL     OW13981   5.426   1.546   2.153
 4361SOL    HW113982   5.450   1.459   2.196
 4361SOL    HW213983   5.334   1.573   2.182
 4362SOL     OW13984   5.264   4.112   3.056
 4362SOL    HW113985   5.349   4.122   3.005
 4362SOL    HW213986   5.202   4.188   3.033
 4363SOL     OW13987   5.438   0.918   6.357
 4363SOL    HW113988   5.443   0.987   6.429
 4363SOL    HW213989   5.371   0.946   6.289
 4364SOL     OW13990   3.550   4.074   5.122
 4364SOL    HW113991   3.496   4.108   5.045
 4364SOL    HW213992   3.505   4.098   5.208
 4365SOL     OW13993   3.676   1.543   0.445
 4365SOL    HW113994   3.649   1.506   0.356
 4365SOL    HW213995   3.702   1.468   0.506
 4366SOL     OW13996   5.322   5.093   1.177
 4366SOL    HW113997   5.348   5.067   1.270
 4366SOL    HW213998   5.390   5.156   1.140
 4367SOL     OW13999   0.216   6.823   0.591
 4367SOL    HW114000   0.281   6.885   0.635
 4367SOL    HW214001   0.164   6.872   0.522
 4368SOL     OW14002   4.763   4.248   1.991
 4368SOL    HW114003   4.786   4.336   2.033
 4368SOL    HW214004   4.665   4.244   1.972
 4369SOL     OW14005   3.202   5.845   1.540
 4369SOL    HW114006   3.136   5.866   1.613
 4369SOL    HW214007   3.154   5.846   1.452
 4370SOL     OW14008   5.656   4.125   2.445
 4370SOL    HW114009   5.692   4.048   2.393
 4370SOL    HW214010   5.727   4.161   2.506
 4371SOL     OW14011   0.355   2.284   2.176
 4371SOL    HW114012   0.367   2.380   2.153
 4371SOL    HW214013   0.288   2.275   2.250
 4372SOL     OW14014   4.646   0.063   3.591
 4372SOL    HW114015   4.575   0.134   3.586
 4372SOL    HW214016   4.726   0.098   3.638
 4373SOL     OW14017   6.697   1.628   6.071
 4373SOL    HW114018   6.701   1.671   6.162
 4373SOL    HW214019   6.625   1.559   6.070
 4374SOL     OW14020   3.382   1.513   1.047
 4374SOL    HW114021   3.331   1.541   0.966
 4374SOL    HW214022   3.451   1.582   1.069
 4375SOL     OW14023   3.614   6.049   4.191
 4375SOL    HW114024   3.707   6.074   4.220
 4375SOL    HW214025   3.593   6.094   4.105
 4376SOL     OW14026   6.490   2.078   4.184
 4376SOL    HW114027   6.457   2.078   4.089
 4376SOL    HW214028   6.441   2.147   4.237
 4377SOL     OW14029   6.737   4.970   6.197
 4377SOL    HW114030   6.827   4.932   6.175
 4377SOL    HW214031   6.671   4.896   6.207
 4378SOL     OW14032   2.651   1.392   3.758
 4378SOL    HW114033   2.710   1.422   3.683
 4378SOL    HW214034   2.704   1.335   3.821
 4379SOL     OW14035   3.324   1.850   5.624
 4379SOL    HW114036   3.275   1.931   5.658
 4379SOL    HW214037   3.283   1.768   5.664
 4380SOL     OW14038   0.177   2.055   2.461
 4380SOL    HW114039   0.220   2.144   2.475
 4380SOL    HW214040   0.220   2.010   2.382
 4381SOL     OW14041   1.640   6.299   6.611
 4381SOL    HW114042   1.547   6.262   6.608
 4381SOL    HW214043   1.667   6.316   6.705
 4382SOL     OW14044   0.573   4.861   4.383
 4382SOL    HW114045   0.616   4.775   4.355
 4382SOL    HW214046   0.631   4.906   4.451
 4383SOL     OW14047   6.174   3.630   0.115
 4383SOL    HW114048   6.246   3.696   0.095
 4383SOL    HW214049   6.188   3.548   0.060
 4384SOL     OW14050   5.704   0.190   4.190
 4384SOL    HW114051   5.779   0.127   4.175
 4384SOL    HW214052   5.632   0.173   4.123
 4385SOL     OW14053   4.760   1.629   5.840
 4385SOL    HW114054   4.854   1.631   5.876
 4385SOL    HW214055   4.742   1.715   5.791
 4386SOL     OW14056   1.991   3.568   4.985
 4386SOL    HW114057   2.042   3.636   4.933
 4386SOL    HW214058   1.914   3.612   5.031
 4387SOL     OW14059   5.640   1.842   0.496
 4387SOL    HW114060   5.667   1.937   0.481
 4387SOL    HW214061   5.551   1.840   0.543
 4388SOL     OW14062   5.133   4.045   0.259
 4388SOL    HW114063   5.223   4.072   0.292
 4388SOL    HW214064   5.136   4.031   0.160
 4389SOL     OW14065   1.184   2.506   0.502
 4389SOL    HW114066   1.208   2.418   0.543
 4389SOL    HW214067   1.202   2.503   0.404
 4390SOL     OW14068   0.295   1.360   0.652
 4390SOL    HW114069   0.296   1.428   0.725
 4390SOL    HW214070   0.201   1.332   0.634
 4391SOL     OW14071   1.232   6.024   0.807
 4391SOL    HW114072   1.210   6.046   0.902
 4391SOL    HW214073   1.158   5.969   0.768
 4392SOL     OW14074   0.725   3.143   5.789
 4392SOL    HW114075   0.823   3.123   5.791
 4392SOL    HW214076   0.690   3.132   5.697
 4393SOL     OW14077   5.027   0.707   2.008
 4393SOL    HW114078   5.007   0.805   2.015
 4393SOL    HW214079   4.941   0.656   2.002
 4394SOL     OW14080   1.073   6.948   2.705
 4394SOL    HW114081   1.052   7.001   2.787
 4394SOL    HW214082   1.131   7.003   2.644
 4395SOL     OW14083   1.717   4.791   2.019
 4395SOL    HW114084   1.659   4.856   1.972
 4395SOL    HW214085   1.674   4.700   2.018
 4396SOL     OW14086   3.102   0.924   3.005
 4396SOL    HW114087   3.178   0.860   3.012
 4396SOL    HW214088   3.088   0.969   3.093
 4397SOL     OW14089   3.360   1.425   4.755
 4397SOL    HW114090   3.396   1.504   4.705
 4397SOL    HW214091   3.306   1.368   4.693
 4398SOL     OW14092   1.562   3.052   5.269
 4398SOL    HW114093   1.571   3.095   5.358
 4398SOL    HW214094   1.653   3.036   5.230
 4399SOL     OW14095   2.438   6.496   1.973
 4399SOL    HW114096   2.427   6.531   1.880
 4399SOL    HW214097   2.359   6.439   1.997
 4400SOL     OW14098   1.902   5.810   4.580
 4400SOL    HW114099   1.834   5.870   4.622
 4400SOL    HW214100   1.925   5.844   4.489
 4401SOL     OW14101   3.219   6.703   6.587
 4401SOL    HW114102   3.121   6.719   6.602
 4401SOL    HW214103   3.261   6.668   6.671
 4402SOL     OW14104   2.480   0.687   2.896
 4402SOL    HW114105   2.384   0.659   2.885
 4402SOL    HW214106   2.485   0.787   2.898
 4403SOL     OW14107   0.594   5.100   1.655
 4403SOL    HW114108   0.536   5.159   1.711
 4403SOL    HW214109   0.536   5.034   1.606
 4404SOL     OW14110   0.242   6.719   6.128
 4404SOL    HW114111   0.338   6.735   6.149
 4404SOL    HW214112   0.231   6.627   6.090
 4405SOL     OW14113   1.928   5.264   2.441
 4405SOL    HW114114   1.891   5.227   2.356
 4405SOL    HW214115   1.875   5.344   2.469
 4406SOL     OW14116   6.014   3.887   1.968
 4406SOL    HW114117   6.004   3.836   2.053
 4406SOL    HW214118   5.957   3.969   1.970
 4407SOL     OW14119   6.142   6.510   1.199
 4407SOL    HW114120   6.201   6.455   1.139
 4407SOL    HW214121   6.046   6.487   1.183
 4408SOL     OW14122   4.094   0.663   0.120
 4408SOL    HW114123   4.058   0.571   0.104
 4408SOL    HW214124   4.175   0.658   0.179
 4409SOL     OW14125   3.252   0.725   3.456
 4409SOL    HW114126   3.204   0.692   3.537
 4409SOL    HW214127   3.327   0.786   3.484
 4410SOL     OW14128   0.443   0.580   0.957
 4410SOL    HW114129   0.473   0.484   0.961
 4410SOL    HW214130   0.461   0.624   1.045
 4411SOL     OW14131   4.438   4.712   5.277
 4411SOL    HW114132   4.462   4.783   5.343
 4411SOL    HW214133   4.338   4.704   5.270
 4412SOL     OW14134   4.425   6.272   1.743
 4412SOL    HW114135   4.370   6.295   1.823
 4412SOL    HW214136   4.394   6.326   1.665
 4413SOL     OW14137   4.762   5.118   3.880
 4413SOL    HW114138   4.761   5.025   3.918
 4413SOL    HW214139   4.707   5.178   3.939
 4414SOL     OW14140   5.511   3.872   1.557
 4414SOL    HW114141   5.442   3.930   1.515
 4414SOL    HW214142   5.595   3.925   1.571
 4415SOL     OW14143   1.612   3.419   1.374
 4415SOL    HW114144   1.697   3.369   1.359
 4415SOL    HW214145   1.545   3.358   1.416
 4416SOL     OW14146   5.003   2.535   3.615
 4416SOL    HW114147   5.017   2.634   3.607
 4416SOL    HW214148   4.905   2.517   3.629
 4417SOL     OW14149   0.308   3.980   1.875
 4417SOL    HW114150   0.226   4.004   1.823
 4417SOL    HW214151   0.374   3.934   1.815
 4418SOL     OW14152   6.644   0.622   5.645
 4418SOL    HW114153   6.623   0.617   5.743
 4418SOL    HW214154   6.733   0.580   5.627
 4419SOL     OW14155   6.304   5.548   6.485
 4419SOL    HW114156   6.400   5.575   6.486
 4419SOL    HW214157   6.278   5.520   6.393
 4420SOL     OW14158   3.646   1.722   0.847
 4420SOL    HW114159   3.735   1.736   0.805
 4420SOL    HW214160   3.654   1.733   0.947
 4421SOL     OW14161   2.099   3.069   0.189
 4421SOL    HW114162   2.121   3.109   0.099
 4421SOL    HW214163   2.179   3.075   0.248
 4422SOL     OW14164   6.580   2.975   6.088
 4422SOL    HW114165   6.571   2.943   6.182
 4422SOL    HW214166   6.572   3.075   6.086
 4423SOL     OW14167   6.319   4.273   4.537
 4423SOL    HW114168   6.331   4.325   4.621
 4423SOL    HW214169   6.401   4.217   4.521
 4424SOL     OW14170   4.966   6.005   2.744
 4424SOL    HW114171   5.024   5.995   2.663
 4424SOL    HW214172   4.877   5.964   2.726
 4425SOL     OW14173   0.794   5.711   1.492
 4425SOL    HW114174   0.760   5.804   1.481
 4425SOL    HW214175   0.886   5.713   1.532
 4426SOL     OW14176   0.719   0.683   4.563
 4426SOL    HW114177   0.639   0.632   4.595
 4426SOL    HW214178   0.778   0.705   4.640
 4427SOL     OW14179   2.346   5.652   2.390
 4427SOL    HW114180   2.400   5.731   2.360
 4427SOL    HW214181   2.386   5.614   2.473
 4428SOL     OW14182   6.218   5.301   3.151
 4428SOL    HW114183   6.124   5.323   3.125
 4428SOL    HW214184   6.248   5.218   3.103
 4429SOL     OW14185   3.157   6.512   3.618
 4429SOL    HW114186   3.237   6.529   3.677
 4429SOL    HW214187   3.086   6.579   3.639
 4430SOL     OW14188   5.847   3.823   5.153
 4430SOL    HW114189   5.799   3.792   5.235
 4430SOL    HW214190   5.816   3.915   5.129
 4431SOL     OW14191   3.966   6.604   4.725
 4431SOL    HW114192   3.931   6.679   4.670
 4431SOL    HW214193   4.058   6.627   4.759
 4432SOL     OW14194   0.572   3.503   5.851
 4432SOL    HW114195   0.652   3.457   5.891
 4432SOL    HW214196   0.516   3.435   5.803
 4433SOL     OW14197   0.804   1.195   4.278
 4433SOL    HW114198   0.768   1.165   4.189
 4433SOL    HW214199   0.902   1.212   4.270
 4434SOL     OW14200   6.643   0.923   1.807
 4434SOL    HW114201   6.678   0.914   1.900
 4434SOL    HW214202   6.712   0.889   1.742
 4435SOL     OW14203   2.583   4.279   0.806
 4435SOL    HW114204   2.673   4.316   0.785
 4435SOL    HW214205   2.552   4.220   0.731
 4436SOL     OW14206   4.515   2.533   2.133
 4436SOL    HW114207   4.430   2.484   2.111
 4436SOL    HW214208   4.527   2.536   2.232
 4437SOL     OW14209   6.327   4.367   6.949
 4437SOL    HW114210   6.401   4.338   6.889
 4437SOL    HW214211   6.240   4.333   6.914
 4438SOL     OW14212   4.275   1.102   4.803
 4438SOL    HW114213   4.223   1.018   4.819
 4438SOL    HW214214   4.277   1.157   4.887
 4439SOL     OW14215   2.591   6.018   3.204
 4439SOL    HW114216   2.575   6.095   3.266
 4439SOL    HW214217   2.503   5.980   3.174
 4440SOL     OW14218   1.424   4.463   5.772
 4440SOL    HW114219   1.336   4.416   5.761
 4440SOL    HW214220   1.419   4.529   5.846
 4441SOL     OW14221   0.005   2.380   0.840
 4441SOL    HW114222   0.001   2.370   0.741
 4441SOL    HW214223   0.002   2.478   0.864
 4442SOL     OW14224   1.548   5.147   0.175
 4442SOL    HW114225   1.627   5.088   0.162
 4442SOL    HW214226   1.479   5.100   0.231
 4443SOL     OW14227   0.333   5.725   5.868
 4443SOL    HW114228   0.236   5.706   5.887
 4443SOL    HW214229   0.353   5.820   5.892
 4444SOL     OW14230   5.668   5.272   0.776
 4444SOL    HW114231   5.630   5.362   0.798
 4444SOL    HW214232   5.646   5.249   0.681
 4445SOL     OW14233   1.570   4.115   0.056
 4445SOL    HW114234   1.665   4.145   0.066
 4445SOL    HW214235   1.518   4.143   0.138
 4446SOL     OW14236   4.497   1.841   1.747
 4446SOL    HW114237   4.399   1.851   1.760
 4446SOL    HW214238   4.544   1.923   1.780
 4447SOL     OW14239   3.796   5.860   5.941
 4447SOL    HW114240   3.709   5.908   5.950
 4447SOL    HW214241   3.778   5.762   5.929
 4448SOL     OW14242   3.274   6.498   1.697
 4448SOL    HW114243   3.187   6.449   1.707
 4448SOL    HW214244   3.317   6.507   1.787
 4449SOL     OW14245   3.805   1.976   5.760
 4449SOL    HW114246   3.768   1.966   5.668
 4449SOL    HW214247   3.897   1.937   5.763
 4450SOL     OW14248   2.283   6.547   0.256
 4450SOL    HW114249   2.296   6.646   0.257
 4450SOL    HW214250   2.196   6.524   0.300
 4451SOL     OW14251   4.732   5.323   3.329
 4451SOL    HW114252   4.707   5.271   3.247
 4451SOL    HW214253   4.760   5.416   3.303
 4452SOL     OW14254   5.197   5.168   4.105
 4452SOL    HW114255   5.168   5.076   4.078
 4452SOL    HW214256   5.133   5.235   4.068
 4453SOL     OW14257   6.831   4.696   0.884
 4453SOL    HW114258   6.890   4.715   0.805
 4453SOL    HW214259   6.777   4.778   0.905
 4454SOL     OW14260   1.348   2.267   0.340
 4454SOL    HW114261   1.332   2.245   0.244
 4454SOL    HW214262   1.274   2.229   0.396
 4455SOL     OW14263   1.826   0.591   4.495
 4455SOL    HW114264   1.781   0.658   4.436
 4455SOL    HW214265   1.918   0.571   4.461
 4456SOL     OW14266   2.030   5.989   4.060
 4456SOL    HW114267   1.974   6.053   4.112
 4456SOL    HW214268   2.004   5.991   3.964
 4457SOL     OW14269   1.280   1.925   4.645
 4457SOL    HW114270   1.183   1.945   4.630
 4457SOL    HW214271   1.291   1.875   4.730
 4458SOL     OW14272   1.368   3.172   6.368
 4458SOL    HW114273   1.342   3.078   6.346
 4458SOL    HW214274   1.287   3.224   6.394
 4459SOL     OW14275   1.039   3.427   2.863
 4459SOL    HW114276   0.950   3.383   2.874
 4459SOL    HW214277   1.111   3.358   2.876
 4460SOL     OW14278   0.085   2.952   4.540
 4460SOL    HW114279   0.029   2.987   4.615
 4460SOL    HW214280   0.043   2.977   4.453
 4461SOL     OW14281   2.282   0.847   0.932
 4461SOL    HW114282   2.246   0.799   0.852
 4461SOL    HW214283   2.212   0.849   1.003
 4462SOL     OW14284   6.351   4.341   2.423
 4462SOL    HW114285   6.440   4.296   2.428
 4462SOL    HW214286   6.359   4.434   2.459
 4463SOL     OW14287   5.313   1.730   0.314
 4463SOL    HW114288   5.240   1.673   0.277
 4463SOL    HW214289   5.401   1.704   0.273
 4464SOL     OW14290   0.601   4.003   1.341
 4464SOL    HW114291   0.571   3.948   1.263
 4464SOL    HW214292   0.633   3.943   1.414
 4465SOL     OW14293   3.930   5.361   1.857
 4465SOL    HW114294   4.010   5.412   1.889
 4465SOL    HW214295   3.910   5.286   1.920
 4466SOL     OW14296   0.448   3.142   2.315
 4466SOL    HW114297   0.521   3.206   2.291
 4466SOL    HW214298   0.380   3.141   2.241
 4467SOL     OW14299   5.435   4.748   2.156
 4467SOL    HW114300   5.358   4.691   2.186
 4467SOL    HW214301   5.469   4.714   2.068
 4468SOL     OW14302   1.378   3.081   1.191
 4468SOL    HW114303   1.320   3.041   1.262
 4468SOL    HW214304   1.342   3.170   1.165
 4469SOL     OW14305   2.073   5.506   1.729
 4469SOL    HW114306   1.979   5.541   1.728
 4469SOL    HW214307   2.121   5.539   1.648
 4470SOL     OW14308   0.742   6.999   2.822
 4470SOL    HW114309   0.683   7.008   2.743
 4470SOL    HW214310   0.812   0.055   2.820
 4471SOL     OW14311   0.812   0.260   6.355
 4471SOL    HW114312   0.886   0.285   6.292
 4471SOL    HW214313   0.833   0.296   6.446
 4472SOL     OW14314   1.873   3.014   0.860
 4472SOL    HW114315   1.827   2.970   0.937
 4472SOL    HW214316   1.861   2.958   0.778
 4473SOL     OW14317   0.218   3.346   4.836
 4473SOL    HW114318   0.305   3.312   4.873
 4473SOL    HW214319   0.236   3.419   4.770
 4474SOL     OW14320   2.554   6.003   1.040
 4474SOL    HW114321   2.515   6.092   1.063
 4474SOL    HW214322   2.592   6.007   0.947
 4475SOL     OW14323   0.842   3.728   0.357
 4475SOL    HW114324   0.866   3.663   0.429
 4475SOL    HW214325   0.821   3.678   0.273
 4476SOL     OW14326   5.444   1.277   3.512
 4476SOL    HW114327   5.367   1.307   3.568
 4476SOL    HW214328   5.479   1.355   3.460
 4477SOL     OW14329   0.295   1.049   4.838
 4477SOL    HW114330   0.204   1.084   4.860
 4477SOL    HW214331   0.291   0.993   4.755
 4478SOL     OW14332   1.711   0.582   1.714
 4478SOL    HW114333   1.775   0.614   1.784
 4478SOL    HW214334   1.647   0.656   1.692
 4479SOL     OW14335   2.044   2.486   6.706
 4479SOL    HW114336   1.990   2.402   6.696
 4479SOL    HW214337   2.132   2.475   6.659
 4480SOL     OW14338   0.589   6.665   3.317
 4480SOL    HW114339   0.640   6.669   3.231
 4480SOL    HW214340   0.493   6.647   3.298
 4481SOL     OW14341   2.013   3.378   5.420
 4481SOL    HW114342   1.999   3.302   5.483
 4481SOL    HW214343   1.932   3.387   5.361
 4482SOL     OW14344   2.006   0.264   1.322
 4482SOL    HW114345   1.913   0.240   1.348
 4482SOL    HW214346   2.022   0.361   1.340
 4483SOL     OW14347   1.504   3.643   0.522
 4483SOL    HW114348   1.599   3.650   0.490
 4483SOL    HW214349   1.494   3.696   0.606
 4484SOL     OW14350   2.908   0.616   6.844
 4484SOL    HW114351   2.936   0.523   6.867
 4484SOL    HW214352   2.977   0.657   6.784
 4485SOL     OW14353   0.068   3.702   4.747
 4485SOL    HW114354   0.158   3.673   4.715
 4485SOL    HW214355   0.039   3.644   4.824
 4486SOL     OW14356   5.234   4.619   3.814
 4486SOL    HW114357   5.280   4.619   3.725
 4486SOL    HW214358   5.147   4.667   3.806
 4487SOL     OW14359   0.463   3.048   6.610
 4487SOL    HW114360   0.368   3.076   6.596
 4487SOL    HW214361   0.465   2.975   6.679
 4488SOL     OW14362   6.835   3.679   3.389
 4488SOL    HW114363   6.867   3.719   3.303
 4488SOL    HW214364   6.892   3.711   3.464
 4489SOL     OW14365   3.592   5.919   6.562
 4489SOL    HW114366   3.592   5.826   6.525
 4489SOL    HW214367   3.507   5.965   6.535
 4490SOL     OW14368   5.816   1.606   1.790
 4490SOL    HW114369   5.872   1.549   1.729
 4490SOL    HW214370   5.723   1.612   1.754
 4491SOL     OW14371   1.197   3.637   2.847
 4491SOL    HW114372   1.128   3.708   2.858
 4491SOL    HW214373   1.153   3.547   2.855
 4492SOL     OW14374   6.624   1.020   2.428
 4492SOL    HW114375   6.554   1.027   2.498
 4492SOL    HW214376   6.682   1.101   2.429
 4493SOL     OW14377   5.057   1.554   5.467
 4493SOL    HW114378   5.114   1.535   5.387
 4493SOL    HW214379   5.016   1.468   5.500
 4494SOL     OW14380   1.780   0.741   2.234
 4494SOL    HW114381   1.877   0.754   2.256
 4494SOL    HW214382   1.726   0.811   2.281
 4495SOL     OW14383   4.023   6.579   1.012
 4495SOL    HW114384   4.088   6.648   1.045
 4495SOL    HW214385   4.069   6.518   0.948
 4496SOL     OW14386   2.722   6.373   5.243
 4496SOL    HW114387   2.721   6.290   5.297
 4496SOL    HW214388   2.633   6.418   5.249
 4497SOL     OW14389   4.194   0.697   6.175
 4497SOL    HW114390   4.218   0.786   6.137
 4497SOL    HW214391   4.104   0.669   6.143
 4498SOL     OW14392   0.712   5.026   4.586
 4498SOL    HW114393   0.661   4.992   4.665
 4498SOL    HW214394   0.808   4.998   4.593
 4499SOL     OW14395   6.177   0.941   2.535
 4499SOL    HW114396   6.104   1.008   2.539
 4499SOL    HW214397   6.138   0.849   2.531
 4500SOL     OW14398   3.418   6.413   0.319
 4500SOL    HW114399   3.428   6.489   0.383
 4500SOL    HW214400   3.320   6.396   0.303
 4501SOL     OW14401   5.867   0.637   2.317
 4501SOL    HW114402   5.949   0.580   2.313
 4501SOL    HW214403   5.893   0.733   2.327
 4502SOL     OW14404   1.095   3.958   6.390
 4502SOL    HW114405   1.132   3.912   6.470
 4502SOL    HW214406   1.101   4.057   6.403
 4503SOL     OW14407   3.466   1.599   2.550
 4503SOL    HW114408   3.401   1.671   2.526
 4503SOL    HW214409   3.466   1.587   2.650
 4504SOL     OW14410   0.942   2.512   3.234
 4504SOL    HW114411   0.945   2.589   3.298
 4504SOL    HW214412   1.034   2.477   3.219
 4505SOL     OW14413   6.207   2.744   3.676
 4505SOL    HW114414   6.231   2.805   3.752
 4505SOL    HW214415   6.249   2.776   3.592
 4506SOL     OW14416   3.950   3.941   6.828
 4506SOL    HW114417   4.030   3.995   6.803
 4506SOL    HW214418   3.928   3.957   6.925
 4507SOL     OW14419   5.962   2.268   3.109
 4507SOL    HW114420   5.969   2.197   3.038
 4507SOL    HW214421   5.946   2.356   3.066
 4508SOL     OW14422   6.398   4.969   0.767
 4508SOL    HW114423   6.359   5.036   0.829
 4508SOL    HW214424   6.409   5.010   0.676
 4509SOL     OW14425   5.459   2.100   2.283
 4509SOL    HW114426   5.442   2.062   2.192
 4509SOL    HW214427   5.386   2.163   2.307
 4510SOL     OW14428   4.817   1.660   4.421
 4510SOL    HW114429   4.832   1.601   4.501
 4510SOL    HW214430   4.723   1.650   4.389
 4511SOL     OW14431   0.032   4.850   6.705
 4511SOL    HW114432   0.131   4.859   6.713
 4511SOL    HW214433   7.002   4.901   6.778
 4512SOL     OW14434   3.257   3.285   5.716
 4512SOL    HW114435   3.219   3.333   5.795
 4512SOL    HW214436   3.242   3.186   5.728
 4513SOL     OW14437   0.027   0.571   0.671
 4513SOL    HW114438   0.099   0.631   0.703
 4513SOL    HW214439   7.005   0.606   0.585
 4514SOL     OW14440   4.736   4.907   6.513
 4514SOL    HW114441   4.779   4.854   6.440
 4514SOL    HW214442   4.799   4.978   6.543
 4515SOL     OW14443   4.105   0.955   6.416
 4515SOL    HW114444   4.184   1.013   6.397
 4515SOL    HW214445   4.114   0.869   6.365
 4516SOL     OW14446   3.193   2.105   5.731
 4516SOL    HW114447   3.172   2.193   5.690
 4516SOL    HW214448   3.175   2.108   5.830
 4517SOL     OW14449   4.282   0.475   4.731
 4517SOL    HW114450   4.337   0.393   4.745
 4517SOL    HW214451   4.272   0.524   4.817
 4518SOL     OW14452   0.296   7.006   0.770
 4518SOL    HW114453   0.312   6.928   0.831
 4518SOL    HW214454   0.209   0.035   0.794
 4519SOL     OW14455   4.699   6.552   6.957
 4519SOL    HW114456   4.752   6.581   6.878
 4519SOL    HW214457   4.664   6.460   6.943
 4520SOL     OW14458   4.653   4.812   5.623
 4520SOL    HW114459   4.688   4.895   5.667
 4520SOL    HW214460   4.577   4.836   5.562
 4521SOL     OW14461   4.346   2.299   3.941
 4521SOL    HW114462   4.437   2.262   3.963
 4521SOL    HW214463   4.292   2.228   3.896
 4522SOL     OW14464   5.816   3.564   3.500
 4522SOL    HW114465   5.764   3.481   3.482
 4522SOL    HW214466   5.914   3.544   3.495
 4523SOL     OW14467   0.145   3.297   6.165
 4523SOL    HW114468   0.081   3.224   6.140
 4523SOL    HW214469   0.233   3.281   6.121
 4524SOL     OW14470   2.002   3.638   2.242
 4524SOL    HW114471   2.047   3.551   2.223
 4524SOL    HW214472   1.903   3.626   2.236
 4525SOL     OW14473   3.685   2.453   5.907
 4525SOL    HW114474   3.699   2.357   5.882
 4525SOL    HW214475   3.593   2.465   5.944
 4526SOL     OW14476   1.650   0.410   5.387
 4526SOL    HW114477   1.674   0.319   5.352
 4526SOL    HW214478   1.583   0.452   5.326
 4527SOL     OW14479   0.348   1.593   2.619
 4527SOL    HW114480   0.300   1.679   2.635
 4527SOL    HW214481   0.441   1.612   2.587
 4528SOL     OW14482   4.976   0.963   4.495
 4528SOL    HW114483   5.021   1.052   4.496
 4528SOL    HW214484   5.043   0.892   4.477
 4529SOL     OW14485   2.358   2.120   4.044
 4529SOL    HW114486   2.283   2.055   4.054
 4529SOL    HW214487   2.417   2.092   3.968
 4530SOL     OW14488   3.977   5.369   6.583
 4530SOL    HW114489   3.939   5.428   6.654
 4530SOL    HW214490   3.933   5.389   6.496
 4531SOL     OW14491   1.784   6.667   5.491
 4531SOL    HW114492   1.764   6.754   5.445
 4531SOL    HW214493   1.789   6.682   5.590
 4532SOL     OW14494   6.393   1.099   2.542
 4532SOL    HW114495   6.384   1.188   2.497
 4532SOL    HW214496   6.306   1.050   2.537
 4533SOL     OW14497   2.969   6.332   1.321
 4533SOL    HW114498   2.976   6.411   1.261
 4533SOL    HW214499   2.939   6.361   1.412
 4534SOL     OW14500   5.788   1.480   4.601
 4534SOL    HW114501   5.858   1.538   4.559
 4534SOL    HW214502   5.700   1.499   4.559
 4535SOL     OW14503   1.743   0.760   0.180
 4535SOL    HW114504   1.752   0.858   0.198
 4535SOL    HW214505   1.686   0.718   0.251
 4536SOL     OW14506   3.985   1.312   5.822
 4536SOL    HW114507   4.041   1.244   5.869
 4536SOL    HW214508   3.997   1.401   5.866
 4537SOL     OW14509   3.409   3.267   3.414
 4537SOL    HW114510   3.340   3.340   3.422
 4537SOL    HW214511   3.396   3.202   3.488
 4538SOL     OW14512   1.034   2.266   0.359
 4538SOL    HW114513   1.060   2.332   0.289
 4538SOL    HW214514   0.997   2.315   0.438
 4539SOL     OW14515   1.398   5.665   4.797
 4539SOL    HW114516   1.320   5.681   4.737
 4539SOL    HW214517   1.379   5.704   4.888
 4540SOL     OW14518   1.499   1.513   0.204
 4540SOL    HW114519   1.472   1.426   0.163
 4540SOL    HW214520   1.588   1.541   0.167
 4541SOL     OW14521   3.843   3.501   0.133
 4541SOL    HW114522   3.752   3.498   0.090
 4541SOL    HW214523   3.857   3.418   0.187
 4542SOL     OW14524   0.736   1.608   6.633
 4542SOL    HW114525   0.714   1.682   6.569
 4542SOL    HW214526   0.826   1.571   6.612
 4543SOL     OW14527   4.471   1.799   0.918
 4543SOL    HW114528   4.499   1.706   0.894
 4543SOL    HW214529   4.521   1.864   0.861
 4544SOL     OW14530   4.765   6.572   0.457
 4544SOL    HW114531   4.865   6.575   0.464
 4544SOL    HW214532   4.725   6.644   0.513
 4545SOL     OW14533   2.994   2.562   5.443
 4545SOL    HW114534   3.042   2.634   5.493
 4545SOL    HW214535   3.036   2.473   5.463
 4546SOL     OW14536   4.177   0.323   6.374
 4546SOL    HW114537   4.145   0.249   6.315
 4546SOL    HW214538   4.277   0.325   6.373
 4547SOL     OW14539   0.522   0.501   0.073
 4547SOL    HW114540   0.508   0.434   0.000
 4547SOL    HW214541   0.454   0.487   0.145
 4548SOL     OW14542   3.344   1.161   2.075
 4548SOL    HW114543   3.342   1.161   2.175
 4548SOL    HW214544   3.283   1.089   2.041
 4549SOL     OW14545   6.907   3.363   4.052
 4549SOL    HW114546   6.986   3.404   4.099
 4549SOL    HW214547   6.839   3.434   4.034
 4550SOL     OW14548   1.708   5.752   5.553
 4550SOL    HW114549   1.664   5.742   5.464
 4550SOL    HW214550   1.690   5.671   5.609
 4551SOL     OW14551   3.270   2.389   6.084
 4551SOL    HW114552   3.338   2.462   6.084
 4551SOL    HW214553   3.194   2.414   6.024
 4552SOL     OW14554   4.942   0.840   6.746
 4552SOL    HW114555   4.966   0.770   6.680
 4552SOL    HW214556   4.855   0.817   6.790
 4553SOL     OW14557   0.486   5.781   0.514
 4553SOL    HW114558   0.408   5.804   0.572
 4553SOL    HW214559   0.456   5.772   0.419
 4554SOL     OW14560   5.817   6.910   3.378
 4554SOL    HW114561   5.769   6.891   3.463
 4554SOL    HW214562   5.755   6.897   3.301
 4555SOL     OW14563   0.897   0.745   1.763
 4555SOL    HW114564   0.910   0.815   1.692
 4555SOL    HW214565   0.812   0.696   1.747
 4556SOL     OW14566   5.348   4.171   3.989
 4556SOL    HW114567   5.305   4.203   4.073
 4556SOL    HW214568   5.316   4.078   3.968
 4557SOL     OW14569   6.540   4.782   4.378
 4557SOL    HW114570   6.571   4.866   4.334
 4557SOL    HW214571   6.444   4.765   4.354
 4558SOL     OW14572   0.933   3.814   4.845
 4558SOL    HW114573   0.943   3.716   4.825
 4558SOL    HW214574   0.997   3.866   4.787
 4559SOL     OW14575   0.184   2.642   3.863
 4559SOL    HW114576   0.091   2.666   3.891
 4559SOL    HW214577   0.214   2.561   3.912
 4560SOL     OW14578   6.125   4.706   3.272
 4560SOL    HW114579   6.094   4.745   3.359
 4560SOL    HW214580   6.059   4.637   3.242
 4561SOL     OW14581   4.257   2.273   4.255
 4561SOL    HW114582   4.238   2.286   4.158
 4561SOL    HW214583   4.335   2.331   4.282
 4562SOL     OW14584   4.017   1.347   0.711
 4562SOL    HW114585   3.951   1.364   0.637
 4562SOL    HW214586   4.102   1.395   0.693
 4563SOL     OW14587   1.003   4.044   1.642
 4563SOL    HW114588   0.996   4.127   1.587
 4563SOL    HW214589   1.057   3.975   1.592
 4564SOL     OW14590   1.955   4.332   2.372
 4564SOL    HW114591   1.947   4.270   2.294
 4564SOL    HW214592   1.912   4.419   2.351
 4565SOL     OW14593   2.037   0.096   5.835
 4565SOL    HW114594   2.091   0.088   5.920
 4565SOL    HW214595   2.067   0.027   5.770
 4566SOL     OW14596   6.791   4.033   3.191
 4566SOL    HW114597   6.803   4.042   3.092
 4566SOL    HW214598   6.834   4.112   3.236
 4567SOL     OW14599   0.004   6.622   6.734
 4567SOL    HW114600   6.985   6.595   6.824
 4567SOL    HW214601   7.012   6.721   6.724
 4568SOL     OW14602   0.789   5.259   3.809
 4568SOL    HW114603   0.767   5.276   3.905
 4568SOL    HW214604   0.771   5.341   3.755
 4569SOL     OW14605   1.449   1.798   2.927
 4569SOL    HW114606   1.464   1.881   2.981
 4569SOL    HW214607   1.410   1.727   2.987
 4570SOL     OW14608   5.029   5.395   0.979
 4570SOL    HW114609   5.113   5.433   0.940
 4570SOL    HW214610   4.950   5.449   0.949
 4571SOL     OW14611   2.394   4.288   5.591
 4571SOL    HW114612   2.339   4.252   5.515
 4571SOL    HW214613   2.480   4.324   5.555
 4572SOL     OW14614   4.230   3.133   1.748
 4572SOL    HW114615   4.244   3.042   1.710
 4572SOL    HW214616   4.308   3.191   1.728
 4573SOL     OW14617   2.232   4.938   0.610
 4573SOL    HW114618   2.246   4.924   0.512
 4573SOL    HW214619   2.191   4.856   0.649
 4574SOL     OW14620   4.633   0.986   1.998
 4574SOL    HW114621   4.654   1.052   1.926
 4574SOL    HW214622   4.690   1.006   2.078
 4575SOL     OW14623   6.407   1.105   5.195
 4575SOL    HW114624   6.344   1.183   5.187
 4575SOL    HW214625   6.366   1.025   5.151
 4576SOL     OW14626   3.482   3.950   6.840
 4576SOL    HW114627   3.451   3.951   6.935
 4576SOL    HW214628   3.405   3.927   6.780
 4577SOL     OW14629   0.553   1.617   1.608
 4577SOL    HW114630   0.602   1.626   1.522
 4577SOL    HW214631   0.464   1.663   1.600
 4578SOL     OW14632   1.931   0.664   2.842
 4578SOL    HW114633   1.924   0.700   2.749
 4578SOL    HW214634   1.856   0.600   2.859
 4579SOL     OW14635   4.602   0.732   3.814
 4579SOL    HW114636   4.596   0.801   3.887
 4579SOL    HW214637   4.666   0.764   3.744
 4580SOL     OW14638   0.923   1.229   0.904
 4580SOL    HW114639   0.840   1.277   0.932
 4580SOL    HW214640   0.899   1.159   0.836
 4581SOL     OW14641   2.844   0.572   1.037
 4581SOL    HW114642   2.926   0.514   1.031
 4581SOL    HW214643   2.844   0.637   0.961
 4582SOL     OW14644   6.942   0.882   3.620
 4582SOL    HW114645   0.019   0.852   3.597
 4582SOL    HW214646   6.928   0.877   3.719
 4583SOL     OW14647   1.881   6.750   0.115
 4583SOL    HW114648   1.887   6.746   0.215
 4583SOL    HW214649   1.962   6.709   0.075
 4584SOL     OW14650   0.241   1.761   3.845
 4584SOL    HW114651   0.244   1.745   3.943
 4584SOL    HW214652   0.181   1.840   3.826
 4585SOL     OW14653   1.752   3.156   2.763
 4585SOL    HW114654   1.769   3.059   2.781
 4585SOL    HW214655   1.796   3.211   2.833
 4586SOL     OW14656   6.545   4.725   5.948
 4586SOL    HW114657   6.623   4.712   5.886
 4586SOL    HW214658   6.464   4.746   5.894
 4587SOL     OW14659   4.099   4.168   5.749
 4587SOL    HW114660   4.024   4.175   5.683
 4587SOL    HW214661   4.170   4.234   5.725
 4588SOL     OW14662   3.214   4.121   6.641
 4588SOL    HW114663   3.139   4.183   6.666
 4588SOL    HW214664   3.216   4.110   6.541
 4589SOL     OW14665   5.698   6.340   2.632
 4589SOL    HW114666   5.605   6.335   2.595
 4589SOL    HW214667   5.760   6.290   2.572
 4590SOL     OW14668   2.812   5.380   1.287
 4590SOL    HW114669   2.726   5.401   1.242
 4590SOL    HW214670   2.851   5.463   1.326
 4591SOL     OW14671   2.450   0.923   4.971
 4591SOL    HW114672   2.388   0.995   5.000
 4591SOL    HW214673   2.397   0.846   4.935
 4592SOL     OW14674   2.737   1.747   3.754
 4592SOL    HW114675   2.826   1.738   3.798
 4592SOL    HW214676   2.729   1.837   3.712
 4593SOL     OW14677   1.213   6.196   4.443
 4593SOL    HW114678   1.216   6.295   4.425
 4593SOL    HW214679   1.184   6.180   4.537
 4594SOL     OW14680   1.949   6.288   4.227
 4594SOL    HW114681   1.999   6.362   4.271
 4594SOL    HW214682   1.937   6.213   4.292
 4595SOL     OW14683   5.724   2.043   6.450
 4595SOL    HW114684   5.689   2.073   6.361
 4595SOL    HW214685   5.732   2.121   6.511
 4596SOL     OW14686   1.429   1.136   2.271
 4596SOL    HW114687   1.458   1.194   2.347
 4596SOL    HW214688   1.352   1.079   2.301
 4597SOL     OW14689   2.437   5.890   0.651
 4597SOL    HW114690   2.443   5.796   0.687
 4597SOL    HW214691   2.492   5.951   0.707
 4598SOL     OW14692   0.761   3.561   0.142
 4598SOL    HW114693   0.797   3.483   0.091
 4598SOL    HW214694   0.676   3.534   0.188
 4599SOL     OW14695   3.481   6.678   2.437
 4599SOL    HW114696   3.432   6.619   2.501
 4599SOL    HW214697   3.563   6.632   2.405
 4600SOL     OW14698   0.004   6.559   6.469
 4600SOL    HW114699   6.987   6.630   6.406
 4600SOL    HW214700   7.013   6.593   6.563
 4601SOL     OW14701   1.870   0.517   5.643
 4601SOL    HW114702   1.798   0.483   5.704
 4601SOL    HW214703   1.831   0.583   5.579
 4602SOL     OW14704   3.797   1.836   6.615
 4602SOL    HW114705   3.719   1.845   6.554
 4602SOL    HW214706   3.879   1.874   6.573
 4603SOL     OW14707   4.148   6.920   1.256
 4603SOL    HW114708   4.085   6.844   1.274
 4603SOL    HW214709   4.118   7.001   1.306
 4604SOL     OW14710   0.479   6.848   3.811
 4604SOL    HW114711   0.490   6.790   3.892
 4604SOL    HW214712   0.534   6.812   3.736
 4605SOL     OW14713   4.334   0.920   1.542
 4605SOL    HW114714   4.312   1.004   1.492
 4605SOL    HW214715   4.353   0.846   1.477
 4606SOL     OW14716   0.068   6.756   5.122
 4606SOL    HW114717   0.118   6.767   5.036
 4606SOL    HW214718   7.007   6.820   5.125
 4607SOL     OW14719   2.477   1.751   1.061
 4607SOL    HW114720   2.471   1.763   1.160
 4607SOL    HW214721   2.416   1.816   1.016
 4608SOL     OW14722   6.905   3.091   4.731
 4608SOL    HW114723   6.823   3.050   4.691
 4608SOL    HW214724   6.892   3.104   4.829
 4609SOL     OW14725   5.156   4.973   6.663
 4609SOL    HW114726   5.191   5.060   6.629
 4609SOL    HW214727   5.057   4.969   6.649
 4610SOL     OW14728   5.055   5.253   0.313
 4610SOL    HW114729   5.111   5.186   0.361
 4610SOL    HW214730   4.958   5.234   0.330
 4611SOL     OW14731   0.161   1.051   6.561
 4611SOL    HW114732   0.256   1.021   6.550
 4611SOL    HW214733   0.158   1.149   6.576
 4612SOL     OW14734   2.691   1.174   2.736
 4612SOL    HW114735   2.651   1.129   2.656
 4612SOL    HW214736   2.650   1.136   2.819
 4613SOL     OW14737   1.294   5.667   1.986
 4613SOL    HW114738   1.371   5.713   1.942
 4613SOL    HW214739   1.328   5.597   2.048
 4614SOL     OW14740   0.176   4.326   3.382
 4614SOL    HW114741   0.211   4.232   3.375
 4614SOL    HW214742   0.156   4.348   3.477
 4615SOL     OW14743   1.372   4.473   6.541
 4615SOL    HW114744   1.356   4.571   6.525
 4615SOL    HW214745   1.437   4.439   6.474
 4616SOL     OW14746   1.257   3.938   6.121
 4616SOL    HW114747   1.229   3.950   6.217
 4616SOL    HW214748   1.275   3.842   6.103
 4617SOL     OW14749   7.007   3.296   3.349
 4617SOL    HW114750   0.047   3.323   3.429
 4617SOL    HW214751   6.955   3.214   3.371
 4618SOL     OW14752   2.395   3.369   5.694
 4618SOL    HW114753   2.341   3.311   5.756
 4618SOL    HW214754   2.345   3.454   5.677
 4619SOL     OW14755   4.447   6.182   6.370
 4619SOL    HW114756   4.393   6.218   6.294
 4619SOL    HW214757   4.437   6.241   6.450
 4620SOL     OW14758   1.046   4.273   1.493
 4620SOL    HW114759   1.037   4.370   1.516
 4620SOL    HW214760   1.135   4.258   1.449
 4621SOL     OW14761   3.292   0.348   2.753
 4621SOL    HW114762   3.293   0.321   2.657
 4621SOL    HW214763   3.378   0.323   2.796
 4622SOL     OW14764   5.285   0.156   0.646
 4622SOL    HW114765   5.278   0.218   0.724
 4622SOL    HW214766   5.378   0.161   0.607
 4623SOL     OW14767   3.285   4.857   2.509
 4623SOL    HW114768   3.216   4.861   2.437
 4623SOL    HW214769   3.259   4.919   2.583
 4624SOL     OW14770   4.962   1.450   1.661
 4624SOL    HW114771   4.894   1.461   1.589
 4624SOL    HW214772   5.048   1.493   1.632
 4625SOL     OW14773   1.448   6.331   1.641
 4625SOL    HW114774   1.353   6.315   1.668
 4625SOL    HW214775   1.496   6.243   1.638
 4626SOL     OW14776   4.134   3.215   2.035
 4626SOL    HW114777   4.065   3.143   2.027
 4626SOL    HW214778   4.198   3.209   1.959
 4627SOL     OW14779   5.675   0.297   5.062
 4627SOL    HW114780   5.700   0.284   4.966
 4627SOL    HW214781   5.737   0.363   5.103
 4628SOL     OW14782   6.178   4.450   2.849
 4628SOL    HW114783   6.226   4.499   2.922
 4628SOL    HW214784   6.080   4.469   2.855
 4629SOL     OW14785   1.742   5.347   0.278
 4629SOL    HW114786   1.657   5.334   0.228
 4629SOL    HW214787   1.791   5.260   0.284
 4630SOL     OW14788   1.921   3.896   1.445
 4630SOL    HW114789   1.887   3.802   1.450
 4630SOL    HW214790   1.980   3.905   1.365
 4631SOL     OW14791   6.387   0.871   3.243
 4631SOL    HW114792   6.478   0.832   3.228
 4631SOL    HW214793   6.351   0.839   3.331
 4632SOL     OW14794   2.754   4.745   3.343
 4632SOL    HW114795   2.751   4.771   3.247
 4632SOL    HW214796   2.848   4.752   3.376
 4633SOL     OW14797   4.765   2.365   4.472
 4633SOL    HW114798   4.696   2.381   4.543
 4633SOL    HW214799   4.854   2.350   4.516
 4634SOL     OW14800   3.780   2.976   4.554
 4634SOL    HW114801   3.798   3.074   4.544
 4634SOL    HW214802   3.853   2.924   4.510
 4635SOL     OW14803   4.486   6.014   2.593
 4635SOL    HW114804   4.462   5.942   2.527
 4635SOL    HW214805   4.530   6.090   2.544
 4636SOL     OW14806   1.624   6.323   6.187
 4636SOL    HW114807   1.618   6.234   6.233
 4636SOL    HW214808   1.533   6.366   6.187
 4637SOL     OW14809   2.248   2.061   3.115
 4637SOL    HW114810   2.281   2.048   3.209
 4637SOL    HW214811   2.211   2.154   3.106
 4638SOL     OW14812   3.690   4.878   0.666
 4638SOL    HW114813   3.651   4.828   0.589
 4638SOL    HW214814   3.709   4.972   0.639
 4639SOL     OW14815   3.749   2.003   1.836
 4639SOL    HW114816   3.732   2.062   1.915
 4639SOL    HW214817   3.701   2.039   1.756
 4640SOL     OW14818   6.141   2.948   0.846
 4640SOL    HW114819   6.098   2.865   0.880
 4640SOL    HW214820   6.144   3.016   0.919
 4641SOL     OW14821   1.772   5.538   4.504
 4641SOL    HW114822   1.816   5.548   4.593
 4641SOL    HW214823   1.746   5.628   4.469
 4642SOL     OW14824   6.070   1.346   5.569
 4642SOL    HW114825   6.114   1.433   5.593
 4642SOL    HW214826   6.140   1.281   5.539
 4643SOL     OW14827   0.437   1.666   0.411
 4643SOL    HW114828   0.505   1.717   0.463
 4643SOL    HW214829   0.467   1.656   0.316
 4644SOL     OW14830   0.950   0.365   0.824
 4644SOL    HW114831   0.923   0.384   0.729
 4644SOL    HW214832   0.924   0.442   0.882
 4645SOL     OW14833   6.437   2.325   4.710
 4645SOL    HW114834   6.392   2.413   4.721
 4645SOL    HW214835   6.373   2.252   4.736
 4646SOL     OW14836   2.119   3.998   2.790
 4646SOL    HW114837   2.133   3.936   2.714
 4646SOL    HW214838   2.197   4.061   2.797
 4647SOL     OW14839   2.013   6.383   1.792
 4647SOL    HW114840   1.943   6.326   1.835
 4647SOL    HW214841   2.013   6.474   1.834
 4648SOL     OW14842   2.911   1.240   4.560
 4648SOL    HW114843   2.969   1.166   4.527
 4648SOL    HW214844   2.850   1.270   4.487
 4649SOL     OW14845   5.893   1.761   0.547
 4649SOL    HW114846   5.802   1.796   0.524
 4649SOL    HW214847   5.895   1.662   0.534
 4650SOL     OW14848   4.606   5.715   0.951
 4650SOL    HW114849   4.569   5.626   0.926
 4650SOL    HW214850   4.549   5.755   1.023
 4651SOL     OW14851   0.572   3.929   6.412
 4651SOL    HW114852   0.472   3.937   6.404
 4651SOL    HW214853   0.602   3.847   6.363
 4652SOL     OW14854   6.920   0.215   5.472
 4652SOL    HW114855   6.969   0.128   5.475
 4652SOL    HW214856   6.822   0.198   5.459
 4653SOL     OW14857   0.087   5.603   1.178
 4653SOL    HW114858   0.174   5.558   1.200
 4653SOL    HW214859   0.057   5.574   1.087
 4654SOL     OW14860   0.766   0.986   5.859
 4654SOL    HW114861   0.858   0.947   5.872
 4654SOL    HW214862   0.769   1.054   5.787
 4655SOL     OW14863   5.351   3.607   2.791
 4655SOL    HW114864   5.286   3.533   2.809
 4655SOL    HW214865   5.438   3.586   2.837
 4656SOL     OW14866   5.989   1.138   2.166
 4656SOL    HW114867   6.006   1.155   2.069
 4656SOL    HW214868   6.048   1.063   2.198
 4657SOL     OW14869   3.740   1.529   2.823
 4657SOL    HW114870   3.828   1.572   2.839
 4657SOL    HW214871   3.753   1.439   2.781
 4658SOL     OW14872   1.421   2.051   6.413
 4658SOL    HW114873   1.460   2.020   6.327
 4658SOL    HW214874   1.479   2.021   6.489
 4659SOL     OW14875   2.156   4.400   0.624
 4659SOL    HW114876   2.219   4.374   0.697
 4659SOL    HW214877   2.139   4.321   0.565
 4660SOL     OW14878   0.486   5.286   4.007
 4660SOL    HW114879   0.525   5.198   3.981
 4660SOL    HW214880   0.402   5.272   4.059
 4661SOL     OW14881   0.932   1.626   5.686
 4661SOL    HW114882   0.904   1.595   5.777
 4661SOL    HW214883   1.032   1.625   5.680
 4662SOL     OW14884   2.848   0.474   5.937
 4662SOL    HW114885   2.826   0.532   5.858
 4662SOL    HW214886   2.818   0.381   5.919
 4663SOL     OW14887   0.861   6.745   0.624
 4663SOL    HW114888   0.776   6.706   0.660
 4663SOL    HW214889   0.871   6.839   0.656
 4664SOL     OW14890   5.956   6.729   6.128
 4664SOL    HW114891   5.864   6.702   6.101
 4664SOL    HW214892   5.991   6.798   6.064
 4665SOL     OW14893   0.254   0.390   3.031
 4665SOL    HW114894   0.263   0.308   3.086
 4665SOL    HW214895   0.345   0.428   3.013
 4666SOL     OW14896   1.576   2.570   5.749
 4666SOL    HW114897   1.624   2.503   5.805
 4666SOL    HW214898   1.510   2.619   5.805
 4667SOL     OW14899   6.503   3.169   0.883
 4667SOL    HW114900   6.565   3.212   0.948
 4667SOL    HW214901   6.511   3.215   0.794
 4668SOL     OW14902   4.685   2.080   4.457
 4668SOL    HW114903   4.696   2.145   4.382
 4668SOL    HW214904   4.595   2.092   4.499
 4669SOL     OW14905   5.111   6.911   6.840
 4669SOL    HW114906   5.173   6.960   6.901
 4669SOL    HW214907   5.162   6.875   6.762
 4670SOL     OW14908   0.281   3.701   6.445
 4670SOL    HW114909   0.238   3.762   6.379
 4670SOL    HW214910   0.213   3.674   6.514
 4671SOL     OW14911   6.938   2.774   1.914
 4671SOL    HW114912   6.911   2.867   1.891
 4671SOL    HW214913   0.008   2.775   1.966
 4672SOL     OW14914   2.875   3.682   0.207
 4672SOL    HW114915   2.803   3.729   0.257
 4672SOL    HW214916   2.894   3.594   0.252
 4673SOL     OW14917   5.898   0.719   0.667
 4673SOL    HW114918   5.982   0.681   0.630
 4673SOL    HW214919   5.912   0.748   0.762
 4674SOL     OW14920   0.985   3.220   0.543
 4674SOL    HW114921   1.040   3.185   0.467
 4674SOL    HW214922   1.016   3.179   0.628
 4675SOL     OW14923   1.882   5.700   6.669
 4675SOL    HW114924   1.909   5.729   6.577
 4675SOL    HW214925   1.954   5.724   6.734
 4676SOL     OW14926   0.339   5.920   4.650
 4676SOL    HW114927   0.281   5.881   4.579
 4676SOL    HW214928   0.429   5.876   4.648
 4677SOL     OW14929   3.569   6.674   0.176
 4677SOL    HW114930   3.579   6.688   0.078
 4677SOL    HW214931   3.659   6.673   0.219
 4678SOL     OW14932   2.322   4.384   0.116
 4678SOL    HW114933   2.399   4.321   0.128
 4678SOL    HW214934   2.330   4.459   0.182
 4679SOL     OW14935   2.340   6.585   5.562
 4679SOL    HW114936   2.369   6.631   5.646
 4679SOL    HW214937   2.245   6.555   5.571
 4680SOL     OW14938   0.837   4.791   0.009
 4680SOL    HW114939   0.854   4.887   7.003
 4680SOL    HW214940   0.817   4.741   6.940
 4681SOL     OW14941   6.482   5.628   5.082
 4681SOL    HW114942   6.392   5.638   5.040
 4681SOL    HW214943   6.514   5.717   5.113
 4682SOL     OW14944   2.647   6.743   0.531
 4682SOL    HW114945   2.734   6.726   0.486
 4682SOL    HW214946   2.650   6.831   0.578
 4683SOL     OW14947   0.173   4.676   2.849
 4683SOL    HW114948   0.207   4.625   2.928
 4683SOL    HW214949   0.073   4.680   2.853
 4684SOL     OW14950   1.582   1.295   5.215
 4684SOL    HW114951   1.564   1.246   5.129
 4684SOL    HW214952   1.649   1.244   5.269
 4685SOL     OW14953   4.915   4.892   5.037
 4685SOL    HW114954   4.865   4.957   4.981
 4685SOL    HW214955   5.013   4.903   5.022
 4686SOL     OW14956   4.724   6.017   0.064
 4686SOL    HW114957   4.681   5.938   0.109
 4686SOL    HW214958   4.815   6.032   0.104
 4687SOL     OW14959   4.937   6.667   4.512
 4687SOL    HW114960   4.940   6.603   4.435
 4687SOL    HW214961   4.937   6.761   4.477
 4688SOL     OW14962   0.322   1.754   0.659
 4688SOL    HW114963   0.333   1.686   0.586
 4688SOL    HW214964   0.250   1.819   0.633
 4689SOL     OW14965   1.944   5.021   4.804
 4689SOL    HW114966   1.929   5.004   4.707
 4689SOL    HW214967   1.990   4.942   4.845
 4690SOL     OW14968   1.483   1.232   0.690
 4690SOL    HW114969   1.403   1.204   0.637
 4690SOL    HW214970   1.474   1.328   0.716
 4691SOL     OW14971   3.813   4.644   0.338
 4691SOL    HW114972   3.858   4.559   0.365
 4691SOL    HW214973   3.787   4.638   0.241
 4692SOL     OW14974   0.645   5.665   3.487
 4692SOL    HW114975   0.557   5.655   3.440
 4692SOL    HW214976   0.713   5.702   3.423
 4693SOL     OW14977   0.832   0.383   3.270
 4693SOL    HW114978   0.845   0.293   3.229
 4693SOL    HW214979   0.916   0.437   3.260
 4694SOL     OW14980   1.556   0.967   5.813
 4694SOL    HW114981   1.481   0.968   5.880
 4694SOL    HW214982   1.579   1.061   5.787
 4695SOL     OW14983   3.033   3.026   2.603
 4695SOL    HW114984   2.947   2.984   2.575
 4695SOL    HW214985   3.015   3.094   2.675
 4696SOL     OW14986   6.189   3.025   0.430
 4696SOL    HW114987   6.157   3.052   0.340
 4696SOL    HW214988   6.278   2.980   0.423
 4697SOL     OW14989   1.357   5.803   6.934
 4697SOL    HW114990   1.294   5.743   6.983
 4697SOL    HW214991   1.394   5.870   6.997
 4698SOL     OW14992   6.144   2.912   2.506
 4698SOL    HW114993   6.156   3.002   2.547
 4698SOL    HW214994   6.172   2.916   2.410
 4699SOL     OW14995   6.728   6.595   2.944
 4699SOL    HW114996   6.784   6.521   2.905
 4699SOL    HW214997   6.772   6.683   2.926
 4700SOL     OW14998   5.510   6.659   0.205
 4700SOL    HW114999   5.577   6.638   0.276
 4700SOL    HW215000   5.522   6.596   0.128
 4701SOL     OW15001   0.601   0.664   6.876
 4701SOL    HW115002   0.684   0.676   6.931
 4701SOL    HW215003   0.523   0.647   6.936
 4702SOL     OW15004   2.691   3.772   0.458
 4702SOL    HW115005   2.746   3.844   0.501
 4702SOL    HW215006   2.667   3.703   0.527
 4703SOL     OW15007   0.954   1.154   1.754
 4703SOL    HW115008   0.960   1.141   1.656
 4703SOL    HW215009   0.862   1.133   1.785
 4704SOL     OW15010   4.741   0.096   0.045
 4704SOL    HW115011   4.752   0.013   0.099
 4704SOL    HW215012   4.800   0.168   0.082
 4705SOL     OW15013   3.303   4.000   4.453
 4705SOL    HW115014   3.372   4.039   4.514
 4705SOL    HW215015   3.346   3.932   4.394
 4706SOL     OW15016   4.996   4.960   0.648
 4706SOL    HW115017   5.016   5.014   0.730
 4706SOL    HW215018   5.032   4.867   0.660
 4707SOL     OW15019   2.952   5.609   1.357
 4707SOL    HW115020   3.029   5.592   1.419
 4707SOL    HW215021   2.935   5.708   1.352
 4708SOL     OW15022   1.698   3.064   2.509
 4708SOL    HW115023   1.699   3.141   2.445
 4708SOL    HW215024   1.690   3.098   2.602
 4709SOL     OW15025   2.548   4.466   0.460
 4709SOL    HW115026   2.603   4.385   0.481
 4709SOL    HW215027   2.605   4.548   0.465
 4710SOL     OW15028   4.619   3.083   1.236
 4710SOL    HW115029   4.575   3.052   1.320
 4710SOL    HW215030   4.664   3.171   1.251
 4711SOL     OW15031   2.874   0.082   3.028
 4711SOL    HW115032   2.964   0.091   2.986
 4711SOL    HW215033   2.831   7.013   2.996
 4712SOL     OW15034   1.583   4.316   6.384
 4712SOL    HW115035   1.587   4.243   6.452
 4712SOL    HW215036   1.566   4.277   6.293
 4713SOL     OW15037   1.814   5.462   1.009
 4713SOL    HW115038   1.737   5.525   1.014
 4713SOL    HW215039   1.797   5.383   1.069
 4714SOL     OW15040   3.978   1.909   0.895
 4714SOL    HW115041   3.952   1.826   0.847
 4714SOL    HW215042   3.919   1.985   0.866
 4715SOL     OW15043   4.886   3.842   4.815
 4715SOL    HW115044   4.901   3.921   4.875
 4715SOL    HW215045   4.824   3.777   4.860
 4716SOL     OW15046   2.406   5.016   0.034
 4716SOL    HW115047   2.391   4.918   0.035
 4716SOL    HW215048   2.471   5.039   6.977
 4717SOL     OW15049   2.066   5.182   3.969
 4717SOL    HW115050   2.140   5.235   4.011
 4717SOL    HW215051   2.068   5.089   4.004
 4718SOL     OW15052   5.297   1.139   0.145
 4718SOL    HW115053   5.321   1.189   0.061
 4718SOL    HW215054   5.253   1.201   0.209
 4719SOL     OW15055   4.747   3.094   1.653
 4719SOL    HW115056   4.823   3.050   1.699
 4719SOL    HW215057   4.660   3.056   1.686
 4720SOL     OW15058   3.028   0.876   3.890
 4720SOL    HW115059   3.103   0.834   3.942
 4720SOL    HW215060   2.949   0.815   3.889
 4721SOL     OW15061   1.295   1.729   1.094
 4721SOL    HW115062   1.386   1.763   1.116
 4721SOL    HW215063   1.253   1.690   1.176
 4722SOL     OW15064   3.315   0.530   2.329
 4722SOL    HW115065   3.368   0.592   2.387
 4722SOL    HW215066   3.331   0.436   2.358
 4723SOL     OW15067   3.046   0.387   5.580
 4723SOL    HW115068   3.103   0.438   5.516
 4723SOL    HW215069   2.953   0.380   5.544
 4724SOL     OW15070   4.671   4.640   1.423
 4724SOL    HW115071   4.763   4.673   1.442
 4724SOL    HW215072   4.675   4.542   1.400
 4725SOL     OW15073   5.593   5.076   3.208
 4725SOL    HW115074   5.521   5.054   3.274
 4725SOL    HW215075   5.561   5.148   3.147
 4726SOL     OW15076   0.031   6.320   4.988
 4726SOL    HW115077   7.001   6.396   5.034
 4726SOL    HW215078   0.042   6.243   5.051
 4727SOL     OW15079   6.316   6.420   1.014
 4727SOL    HW115080   6.369   6.336   1.003
 4727SOL    HW215081   6.377   6.499   1.018
 4728SOL     OW15082   6.894   0.931   6.862
 4728SOL    HW115083   6.882   0.868   6.939
 4728SOL    HW215084   6.972   0.991   6.880
 4729SOL     OW15085   2.713   0.930   0.638
 4729SOL    HW115086   2.759   0.962   0.555
 4729SOL    HW215087   2.650   0.856   0.614
 4730SOL     OW15088   2.067   0.759   5.533
 4730SOL    HW115089   2.123   0.773   5.615
 4730SOL    HW215090   2.110   0.690   5.474
 4731SOL     OW15091   5.084   2.028   6.828
 4731SOL    HW115092   5.067   1.991   6.737
 4731SOL    HW215093   4.997   2.043   6.875
 4732SOL     OW15094   0.051   1.135   6.920
 4732SOL    HW115095   0.144   1.149   6.887
 4732SOL    HW215096   0.035   1.194   6.999
 4733SOL     OW15097   6.958   3.378   3.762
 4733SOL    HW115098   6.994   3.408   3.850
 4733SOL    HW215099   0.004   3.409   3.689
 4734SOL     OW15100   5.200   4.660   5.725
 4734SOL    HW115101   5.108   4.697   5.716
 4734SOL    HW215102   5.267   4.735   5.718
 4735SOL     OW15103   0.509   4.015   3.880
 4735SOL    HW115104   0.549   4.018   3.972
 4735SOL    HW215105   0.566   3.957   3.821
 4736SOL     OW15106   2.088   7.012   1.374
 4736SOL    HW115107   2.050   0.089   1.373
 4736SOL    HW215108   2.150   7.001   1.297
 4737SOL     OW15109   3.426   5.043   1.756
 4737SOL    HW115110   3.380   5.105   1.693
 4737SOL    HW215111   3.370   5.033   1.838
 4738SOL     OW15112   0.070   6.448   2.945
 4738SOL    HW115113   0.149   6.448   3.007
 4738SOL    HW215114   0.041   6.354   2.929
 4739SOL     OW15115   4.334   6.750   1.461
 4739SOL    HW115116   4.289   6.699   1.534
 4739SOL    HW215117   4.334   6.696   1.377
 4740SOL     OW15118   0.579   2.150   3.793
 4740SOL    HW115119   0.628   2.170   3.707
 4740SOL    HW215120   0.615   2.065   3.832
 4741SOL     OW15121   3.852   3.561   1.699
 4741SOL    HW115122   3.813   3.501   1.769
 4741SOL    HW215123   3.950   3.543   1.690
 4742SOL     OW15124   4.251   1.033   0.805
 4742SOL    HW115125   4.347   1.010   0.821
 4742SOL    HW215126   4.216   0.978   0.729
 4743SOL     OW15127   1.701   6.317   0.795
 4743SOL    HW115128   1.633   6.281   0.731
 4743SOL    HW215129   1.677   6.411   0.821
 4744SOL     OW15130   1.809   5.647   1.710
 4744SOL    HW115131   1.782   5.659   1.805
 4744SOL    HW215132   1.735   5.676   1.650
 4745SOL     OW15133   1.905   3.414   0.282
 4745SOL    HW115134   1.954   3.360   0.351
 4745SOL    HW215135   1.833   3.358   0.241
 4746SOL     OW15136   5.192   5.605   4.069
 4746SOL    HW115137   5.201   5.573   4.163
 4746SOL    HW215138   5.196   5.527   4.007
 4747SOL     OW15139   3.250   0.567   6.480
 4747SOL    HW115140   3.228   0.598   6.573
 4747SOL    HW215141   3.327   0.503   6.483
 4748SOL     OW15142   2.111   0.101   1.969
 4748SOL    HW115143   2.113   0.135   1.875
 4748SOL    HW215144   2.193   0.131   2.017
 4749SOL     OW15145   2.102   1.856   0.849
 4749SOL    HW115146   2.120   1.758   0.845
 4749SOL    HW215147   2.185   1.906   0.824
 4750SOL     OW15148   4.541   3.457   6.000
 4750SOL    HW115149   4.533   3.430   6.096
 4750SOL    HW215150   4.506   3.550   5.988
 4751SOL     OW15151   4.859   1.456   2.842
 4751SOL    HW115152   4.850   1.489   2.749
 4751SOL    HW215153   4.822   1.524   2.906
 4752SOL     OW15154   5.807   1.782   6.891
 4752SOL    HW115155   5.881   1.797   6.825
 4752SOL    HW215156   5.773   1.870   6.925
 4753SOL     OW15157   2.874   6.085   5.004
 4753SOL    HW115158   2.844   6.167   5.053
 4753SOL    HW215159   2.974   6.087   4.993
 4754SOL     OW15160   4.813   4.117   0.244
 4754SOL    HW115161   4.780   4.167   0.164
 4754SOL    HW215162   4.894   4.064   0.218
 4755SOL     OW15163   0.691   1.470   0.879
 4755SOL    HW115164   0.653   1.465   0.971
 4755SOL    HW215165   0.737   1.557   0.866
 4756SOL     OW15166   6.831   4.067   5.541
 4756SOL    HW115167   6.754   4.064   5.477
 4756SOL    HW215168   6.901   4.129   5.508
 4757SOL     OW15169   2.342   3.549   0.213
 4757SOL    HW115170   2.333   3.505   0.123
 4757SOL    HW215171   2.427   3.519   0.256
 4758SOL     OW15172   2.440   5.306   3.369
 4758SOL    HW115173   2.341   5.300   3.356
 4758SOL    HW215174   2.461   5.389   3.421
 4759SOL     OW15175   0.513   6.386   2.653
 4759SOL    HW115176   0.508   6.481   2.682
 4759SOL    HW215177   0.608   6.355   2.657
 4760SOL     OW15178   1.731   6.107   0.997
 4760SOL    HW115179   1.649   6.060   1.028
 4760SOL    HW215180   1.708   6.166   0.919
 4761SOL     OW15181   4.935   6.560   1.582
 4761SOL    HW115182   4.907   6.474   1.538
 4761SOL    HW215183   4.855   6.606   1.620
 4762SOL     OW15184   1.726   0.503   2.947
 4762SOL    HW115185   1.659   0.560   2.994
 4762SOL    HW215186   1.688   0.411   2.933
 4763SOL     OW15187   5.315   5.462   1.935
 4763SOL    HW115188   5.408   5.470   1.899
 4763SOL    HW215189   5.318   5.429   2.029
 4764SOL     OW15190   4.760   3.382   6.997
 4764SOL    HW115191   4.860   3.374   6.994
 4764SOL    HW215192   4.727   3.348   0.069
 4765SOL     OW15193   3.955   2.238   5.898
 4765SOL    HW115194   3.988   2.149   5.929
 4765SOL    HW215195   4.003   2.264   5.814
 4766SOL     OW15196   1.011   0.913   4.489
 4766SOL    HW115197   1.001   0.827   4.541
 4766SOL    HW215198   0.930   0.969   4.502
 4767SOL     OW15199   1.809   4.933   3.386
 4767SOL    HW115200   1.890   4.886   3.350
 4767SOL    HW215201   1.828   4.963   3.480
 4768SOL     OW15202   4.811   2.464   6.101
 4768SOL    HW115203   4.910   2.451   6.089
 4768SOL    HW215204   4.795   2.546   6.155
 4769SOL     OW15205   1.546   3.151   0.483
 4769SOL    HW115206   1.547   3.115   0.390
 4769SOL    HW215207   1.493   3.091   0.543
 4770SOL     OW15208   6.753   1.372   3.734
 4770SOL    HW115209   6.708   1.394   3.647
 4770SOL    HW215210   6.753   1.453   3.793
 4771SOL     OW15211   1.935   0.135   3.754
 4771SOL    HW115212   1.893   0.216   3.793
 4771SOL    HW215213   1.884   0.106   3.673
 4772SOL     OW15214   2.905   5.159   3.054
 4772SOL    HW115215   2.869   5.145   3.147
 4772SOL    HW215216   2.883   5.080   2.998
 4773SOL     OW15217   3.169   4.851   4.879
 4773SOL    HW115218   3.252   4.894   4.913
 4773SOL    HW215219   3.185   4.753   4.865
 4774SOL     OW15220   0.929   4.107   0.608
 4774SOL    HW115221   0.872   4.049   0.550
 4774SOL    HW215222   1.017   4.064   0.623
 4775SOL     OW15223   5.697   5.213   5.184
 4775SOL    HW115224   5.679   5.189   5.088
 4775SOL    HW215225   5.790   5.249   5.193
 4776SOL     OW15226   0.364   1.746   4.799
 4776SOL    HW115227   0.440   1.732   4.863
 4776SOL    HW215228   0.395   1.728   4.706
 4777SOL     OW15229   1.606   6.708   3.204
 4777SOL    HW115230   1.625   6.675   3.296
 4777SOL    HW215231   1.509   6.732   3.196
 4778SOL     OW15232   1.790   0.434   0.006
 4778SOL    HW115233   1.845   0.437   0.090
 4778SOL    HW215234   1.851   0.415   6.944
 4779SOL     OW15235   4.853   1.054   4.715
 4779SOL    HW115236   4.890   0.999   4.641
 4779SOL    HW215237   4.925   1.112   4.753
 4780SOL     OW15238   4.866   3.141   4.475
 4780SOL    HW115239   4.934   3.153   4.547
 4780SOL    HW215240   4.871   3.217   4.411
 4781SOL     OW15241   1.357   5.280   1.994
 4781SOL    HW115242   1.319   5.249   2.081
 4781SOL    HW215243   1.285   5.283   1.925
 4782SOL     OW15244   0.735   6.146   3.626
 4782SOL    HW115245   0.689   6.143   3.715
 4782SOL    HW215246   0.780   6.058   3.609
 4783SOL     OW15247   0.378   3.346   6.338
 4783SOL    HW115248   0.329   3.403   6.273
 4783SOL    HW215249   0.317   3.275   6.372
 4784SOL     OW15250   5.399   3.438   0.074
 4784SOL    HW115251   5.427   3.367   0.139
 4784SOL    HW215252   5.337   3.502   0.120
 4785SOL     OW15253   0.716   6.981   3.951
 4785SOL    HW115254   0.723   6.891   3.908
 4785SOL    HW215255   0.726   6.972   4.050
 4786SOL     OW15256   0.966   5.711   0.153
 4786SOL    HW115257   0.928   5.664   0.233
 4786SOL    HW215258   0.913   5.795   0.136
 4787SOL     OW15259   5.052   1.460   4.681
 4787SOL    HW115260   5.073   1.554   4.710
 4787SOL    HW215261   4.953   1.447   4.681
 4788SOL     OW15262   6.568   5.689   1.032
 4788SOL    HW115263   6.562   5.682   1.132
 4788SOL    HW215264   6.656   5.654   1.001
 4789SOL     OW15265   6.142   0.513   2.855
 4789SOL    HW115266   6.213   0.499   2.923
 4789SOL    HW215267   6.071   0.443   2.865
 4790SOL     OW15268   6.917   2.277   4.381
 4790SOL    HW115269   6.846   2.266   4.312
 4790SOL    HW215270   6.930   2.190   4.430
 4791SOL     OW15271   0.698   0.009   0.191
 4791SOL    HW115272   0.648   6.972   0.122
 4791SOL    HW215273   0.670   6.996   0.282
 4792SOL     OW15274   1.018   3.997   2.202
 4792SOL    HW115275   1.097   4.012   2.261
 4792SOL    HW215276   1.047   3.953   2.117
 4793SOL     OW15277   0.939   3.961   5.090
 4793SOL    HW115278   0.904   3.940   4.999
 4793SOL    HW215279   0.986   4.049   5.089
 4794SOL     OW15280   5.029   2.079   5.486
 4794SOL    HW115281   4.993   1.986   5.493
 4794SOL    HW215282   4.953   2.144   5.490
 4795SOL     OW15283   0.150   1.164   6.246
 4795SOL    HW115284   0.138   1.258   6.214
 4795SOL    HW215285   0.136   1.160   6.345
 4796SOL     OW15286   4.950   1.314   5.603
 4796SOL    HW115287   4.928   1.243   5.536
 4796SOL    HW215288   4.866   1.358   5.635
 4797SOL     OW15289   2.346   5.127   5.845
 4797SOL    HW115290   2.439   5.114   5.810
 4797SOL    HW215291   2.343   5.209   5.902
 4798SOL     OW15292   3.204   6.208   0.084
 4798SOL    HW115293   3.180   6.264   0.004
 4798SOL    HW215294   3.263   6.133   0.055
 4799SOL     OW15295   3.599   2.901   0.268
 4799SOL    HW115296   3.679   2.911   0.209
 4799SOL    HW215297   3.623   2.930   0.361
 4800SOL     OW15298   0.974   4.730   0.291
 4800SOL    HW115299   0.956   4.632   0.298
 4800SOL    HW215300   0.936   4.765   0.205
 4801SOL     OW15301   4.895   2.206   3.310
 4801SOL    HW115302   4.933   2.113   3.319
 4801SOL    HW215303   4.970   2.272   3.310
 4802SOL     OW15304   6.757   0.576   4.724
 4802SOL    HW115305   6.835   0.637   4.742
 4802SOL    HW215306   6.757   0.502   4.790
 4803SOL     OW15307   4.907   3.955   5.505
 4803SOL    HW115308   4.918   3.881   5.572
 4803SOL    HW215309   4.809   3.974   5.493
 4804SOL     OW15310   5.221   2.287   0.627
 4804SOL    HW115311   5.132   2.266   0.668
 4804SOL    HW215312   5.215   2.275   0.528
 4805SOL     OW15313   5.260   1.682   6.881
 4805SOL    HW115314   5.239   1.669   6.978
 4805SOL    HW215315   5.334   1.749   6.871
 4806SOL     OW15316   1.146   1.916   3.085
 4806SOL    HW115317   1.055   1.885   3.114
 4806SOL    HW215318   1.148   1.925   2.986
 4807SOL     OW15319   6.851   4.247   6.587
 4807SOL    HW115320   6.780   4.199   6.536
 4807SOL    HW215321   6.865   4.202   6.676
 4808SOL     OW15322   3.452   6.235   2.296
 4808SOL    HW115323   3.435   6.312   2.358
 4808SOL    HW215324   3.518   6.172   2.338
 4809SOL     OW15325   3.034   3.538   1.703
 4809SOL    HW115326   2.987   3.542   1.615
 4809SOL    HW215327   2.967   3.550   1.776
 4810SOL     OW15328   1.839   4.955   4.316
 4810SOL    HW115329   1.873   5.000   4.399
 4810SOL    HW215330   1.916   4.922   4.262
 4811SOL     OW15331   3.581   3.329   4.501
 4811SOL    HW115332   3.557   3.332   4.598
 4811SOL    HW215333   3.504   3.359   4.446
 4812SOL     OW15334   1.931   6.466   2.422
 4812SOL    HW115335   1.881   6.466   2.335
 4812SOL    HW215336   1.939   6.373   2.457
 4813SOL     OW15337   0.773   2.742   4.920
 4813SOL    HW115338   0.712   2.677   4.874
 4813SOL    HW215339   0.787   2.822   4.862
 4814SOL     OW15340   6.389   2.967   0.766
 4814SOL    HW115341   6.290   2.966   0.783
 4814SOL    HW215342   6.434   3.025   0.833
 4815SOL     OW15343   5.931   4.043   2.222
 4815SOL    HW115344   5.860   4.014   2.157
 4815SOL    HW215345   5.905   4.015   2.314
 4816SOL     OW15346   2.976   0.400   2.550
 4816SOL    HW115347   3.043   0.436   2.485
 4816SOL    HW215348   2.955   0.305   2.526
 4817SOL     OW15349   4.394   2.405   0.628
 4817SOL    HW115350   4.454   2.453   0.564
 4817SOL    HW215351   4.416   2.432   0.722
 4818SOL     OW15352   4.572   6.350   4.398
 4818SOL    HW115353   4.517   6.292   4.458
 4818SOL    HW215354   4.551   6.446   4.416
 4819SOL     OW15355   2.906   1.122   0.003
 4819SOL    HW115356   2.909   1.197   0.069
 4819SOL    HW215357   2.827   1.064   0.022
 4820SOL     OW15358   6.682   4.052   1.610
 4820SOL    HW115359   6.592   4.009   1.608
 4820SOL    HW215360   6.741   4.012   1.540
 4821SOL     OW15361   6.923   5.897   1.725
 4821SOL    HW115362   6.977   5.900   1.641
 4821SOL    HW215363   6.983   5.911   1.804
 4822SOL     OW15364   0.615   3.529   1.233
 4822SOL    HW115365   0.568   3.594   1.293
 4822SOL    HW215366   0.550   3.460   1.201
 4823SOL     OW15367   0.610   1.464   3.345
 4823SOL    HW115368   0.519   1.472   3.305
 4823SOL    HW215369   0.664   1.546   3.324
 4824SOL     OW15370   5.480   1.861   2.436
 4824SOL    HW115371   5.451   1.931   2.371
 4824SOL    HW215372   5.424   1.779   2.425
 4825SOL     OW15373   1.036   3.363   3.817
 4825SOL    HW115374   1.121   3.320   3.847
 4825SOL    HW215375   1.057   3.439   3.756
 4826SOL     OW15376   6.778   6.667   0.172
 4826SOL    HW115377   6.843   6.662   0.096
 4826SOL    HW215378   6.812   6.730   0.242
 4827SOL     OW15379   4.959   2.061   6.481
 4827SOL    HW115380   4.873   2.036   6.437
 4827SOL    HW215381   5.012   1.978   6.499
 4828SOL     OW15382   5.352   3.663   6.462
 4828SOL    HW115383   5.372   3.706   6.550
 4828SOL    HW215384   5.333   3.566   6.475
 4829SOL     OW15385   3.635   0.232   5.084
 4829SOL    HW115386   3.588   0.234   5.173
 4829SOL    HW215387   3.602   0.308   5.028
 4830SOL     OW15388   4.690   5.602   4.772
 4830SOL    HW115389   4.722   5.583   4.679
 4830SOL    HW215390   4.594   5.574   4.780
 4831SOL     OW15391   6.088   2.420   6.974
 4831SOL    HW115392   6.084   2.518   6.959
 4831SOL    HW215393   6.175   2.384   6.941
 4832SOL     OW15394   1.961   2.374   6.163
 4832SOL    HW115395   1.930   2.368   6.258
 4832SOL    HW215396   1.944   2.465   6.127
 4833SOL     OW15397   6.088   1.504   3.439
 4833SOL    HW115398   6.111   1.488   3.343
 4833SOL    HW215399   6.002   1.458   3.460
 4834SOL     OW15400   5.945   0.445   3.274
 4834SOL    HW115401   6.040   0.477   3.277
 4834SOL    HW215402   5.920   0.405   3.362
 4835SOL     OW15403   1.949   1.466   6.149
 4835SOL    HW115404   2.030   1.408   6.151
 4835SOL    HW215405   1.883   1.430   6.084
 4836SOL     OW15406   5.675   3.257   2.268
 4836SOL    HW115407   5.708   3.303   2.185
 4836SOL    HW215408   5.734   3.180   2.288
 4837SOL     OW15409   0.681   4.527   0.732
 4837SOL    HW115410   0.608   4.596   0.726
 4837SOL    HW215411   0.644   4.438   0.705
 4838SOL     OW15412   2.832   5.470   2.681
 4838SOL    HW115413   2.928   5.483   2.655
 4838SOL    HW215414   2.803   5.545   2.740
 4839SOL     OW15415   0.746   6.886   6.573
 4839SOL    HW115416   0.763   6.880   6.672
 4839SOL    HW215417   0.687   6.965   6.555
 4840SOL     OW15418   6.427   6.230   6.133
 4840SOL    HW115419   6.499   6.178   6.087
 4840SOL    HW215420   6.468   6.283   6.208
 4841SOL     OW15421   1.890   5.788   1.313
 4841SOL    HW115422   1.939   5.706   1.282
 4841SOL    HW215423   1.915   5.809   1.407
 4842SOL     OW15424   3.315   6.374   1.158
 4842SOL    HW115425   3.340   6.418   1.244
 4842SOL    HW215426   3.396   6.363   1.101
 4843SOL     OW15427   1.528   3.283   6.765
 4843SOL    HW115428   1.553   3.216   6.696
 4843SOL    HW215429   1.609   3.335   6.793
 4844SOL     OW15430   0.848   1.856   5.091
 4844SOL    HW115431   0.834   1.930   5.025
 4844SOL    HW215432   0.760   1.822   5.123
 4845SOL     OW15433   5.742   5.735   3.732
 4845SOL    HW115434   5.708   5.789   3.809
 4845SOL    HW215435   5.776   5.797   3.661
 4846SOL     OW15436   0.549   5.003   6.814
 4846SOL    HW115437   0.635   4.983   6.768
 4846SOL    HW215438   0.537   5.102   6.821
 4847SOL     OW15439   4.812   3.071   4.822
 4847SOL    HW115440   4.720   3.098   4.792
 4847SOL    HW215441   4.880   3.107   4.758
 4848SOL     OW15442   2.556   2.535   1.738
 4848SOL    HW115443   2.617   2.568   1.666
 4848SOL    HW215444   2.493   2.608   1.765
 4849SOL     OW15445   1.861   6.417   5.812
 4849SOL    HW115446   1.948   6.425   5.859
 4849SOL    HW215447   1.790   6.462   5.866
 4850SOL     OW15448   3.610   6.879   3.630
 4850SOL    HW115449   3.587   6.823   3.551
 4850SOL    HW215450   3.594   6.975   3.609
 4851SOL     OW15451   4.926   1.286   5.215
 4851SOL    HW115452   4.952   1.380   5.194
 4851SOL    HW215453   4.862   1.252   5.146
 4852SOL     OW15454   1.752   1.975   1.694
 4852SOL    HW115455   1.822   1.994   1.763
 4852SOL    HW215456   1.698   1.896   1.723
 4853SOL     OW15457   3.484   1.905   1.629
 4853SOL    HW115458   3.400   1.913   1.683
 4853SOL    HW215459   3.526   1.995   1.619
 4854SOL     OW15460   3.660   0.296   6.797
 4854SOL    HW115461   3.711   0.210   6.788
 4854SOL    HW215462   3.562   0.276   6.797
 4855SOL     OW15463   6.569   3.123   2.420
 4855SOL    HW115464   6.480   3.162   2.444
 4855SOL    HW215465   6.642   3.184   2.450
 4856SOL     OW15466   0.922   4.334   2.491
 4856SOL    HW115467   0.866   4.269   2.440
 4856SOL    HW215468   0.969   4.287   2.566
 4857SOL     OW15469   0.230   1.017   5.569
 4857SOL    HW115470   0.258   0.945   5.633
 4857SOL    HW215471   0.285   1.099   5.584
 4858SOL     OW15472   1.535   0.855   4.209
 4858SOL    HW115473   1.569   0.949   4.209
 4858SOL    HW215474   1.612   0.791   4.211
 4859SOL     OW15475   3.597   5.856   6.199
 4859SOL    HW115476   3.663   5.929   6.215
 4859SOL    HW215477   3.504   5.892   6.209
 4860SOL     OW15478   3.552   4.267   0.749
 4860SOL    HW115479   3.528   4.279   0.846
 4860SOL    HW215480   3.595   4.351   0.715
 4861SOL     OW15481   4.552   3.858   6.300
 4861SOL    HW115482   4.551   3.951   6.337
 4861SOL    HW215483   4.461   3.834   6.266
 4862SOL     OW15484   0.490   0.129   0.633
 4862SOL    HW115485   0.396   0.119   0.663
 4862SOL    HW215486   0.523   0.221   0.655
 4863SOL     OW15487   5.199   4.540   6.250
 4863SOL    HW115488   5.151   4.471   6.195
 4863SOL    HW215489   5.259   4.494   6.314
 4864SOL     OW15490   3.462   1.293   4.124
 4864SOL    HW115491   3.478   1.212   4.069
 4864SOL    HW215492   3.510   1.371   4.084
 4865SOL     OW15493   1.660   0.158   5.243
 4865SOL    HW115494   1.610   0.101   5.308
 4865SOL    HW215495   1.674   0.107   5.158
 4866SOL     OW15496   6.577   4.246   6.243
 4866SOL    HW115497   6.634   4.293   6.175
 4866SOL    HW215498   6.512   4.311   6.282
 4867SOL     OW15499   4.547   1.337   2.997
 4867SOL    HW115500   4.555   1.407   3.068
 4867SOL    HW215501   4.451   1.309   2.989
 4868SOL     OW15502   6.711   4.518   0.494
 4868SOL    HW115503   6.751   4.607   0.470
 4868SOL    HW215504   6.756   4.481   0.574
 4869SOL     OW15505   0.828   1.693   0.868
 4869SOL    HW115506   0.829   1.783   0.911
 4869SOL    HW215507   0.912   1.682   0.814
 4870SOL     OW15508   0.142   0.107   1.219
 4870SOL    HW115509   0.218   0.056   1.178
 4870SOL    HW215510   0.154   0.205   1.201
 4871SOL     OW15511   1.105   1.620   3.226
 4871SOL    HW115512   1.054   1.605   3.142
 4871SOL    HW215513   1.137   1.533   3.262
 4872SOL     OW15514   5.644   6.629   2.774
 4872SOL    HW115515   5.723   6.678   2.737
 4872SOL    HW215516   5.675   6.547   2.823
 4873SOL     OW15517   6.763   5.380   4.800
 4873SOL    HW115518   6.750   5.323   4.718
 4873SOL    HW215519   6.833   5.449   4.781
 4874SOL     OW15520   4.871   3.001   3.060
 4874SOL    HW115521   4.881   2.929   3.128
 4874SOL    HW215522   4.898   2.966   2.970
 4875SOL     OW15523   5.895   6.490   5.229
 4875SOL    HW115524   5.815   6.431   5.222
 4875SOL    HW215525   5.879   6.575   5.178
 4876SOL     OW15526   0.058   1.257   1.922
 4876SOL    HW115527   0.128   1.196   1.958
 4876SOL    HW215528   0.013   1.305   1.997
 4877SOL     OW15529   6.752   1.400   6.369
 4877SOL    HW115530   6.669   1.411   6.424
 4877SOL    HW215531   6.819   1.469   6.397
 4878SOL     OW15532   6.369   3.480   2.309
 4878SOL    HW115533   6.288   3.517   2.263
 4878SOL    HW215534   6.414   3.413   2.250
 4879SOL     OW15535   5.234   0.690   3.153
 4879SOL    HW115536   5.215   0.788   3.164
 4879SOL    HW215537   5.190   0.658   3.069
 4880SOL     OW15538   0.072   2.941   6.441
 4880SOL    HW115539   0.049   2.845   6.425
 4880SOL    HW215540   7.005   2.997   6.432
 4881SOL     OW15541   1.672   2.913   1.565
 4881SOL    HW115542   1.742   2.854   1.523
 4881SOL    HW215543   1.646   2.876   1.654
 4882SOL     OW15544   4.758   2.246   4.227
 4882SOL    HW115545   4.822   2.176   4.195
 4882SOL    HW215546   4.796   2.293   4.306
 4883SOL     OW15547   6.189   4.292   0.374
 4883SOL    HW115548   6.109   4.256   0.421
 4883SOL    HW215549   6.227   4.369   0.427
 4884SOL     OW15550   1.828   1.171   1.503
 4884SOL    HW115551   1.866   1.221   1.581
 4884SOL    HW215552   1.774   1.234   1.446
 4885SOL     OW15553   1.287   4.770   0.067
 4885SOL    HW115554   1.243   4.681   0.072
 4885SOL    HW215555   1.343   4.776   7.000
 4886SOL     OW15556   3.040   0.606   2.335
 4886SOL    HW115557   3.137   0.586   2.323
 4886SOL    HW215558   3.007   0.661   2.258
 4887SOL     OW15559   4.599   6.180   0.292
 4887SOL    HW115560   4.504   6.150   0.304
 4887SOL    HW215561   4.646   6.117   0.230
 4888SOL     OW15562   4.591   0.559   3.211
 4888SOL    HW115563   4.632   0.558   3.303
 4888SOL    HW215564   4.498   0.597   3.217
 4889SOL     OW15565   6.551   3.074   3.710
 4889SOL    HW115566   6.504   3.085   3.797
 4889SOL    HW215567   6.648   3.097   3.720
 4890SOL     OW15568   6.871   1.596   4.949
 4890SOL    HW115569   6.948   1.642   4.904
 4890SOL    HW215570   6.809   1.665   4.987
 4891SOL     OW15571   2.621   5.672   0.253
 4891SOL    HW115572   2.681   5.595   0.275
 4891SOL    HW215573   2.528   5.638   0.239
 4892SOL     OW15574   5.363   4.933   3.027
 4892SOL    HW115575   5.425   4.972   2.959
 4892SOL    HW215576   5.413   4.872   3.087
 4893SOL     OW15577   1.345   3.103   0.876
 4893SOL    HW115578   1.404   3.162   0.820
 4893SOL    HW215579   1.355   3.127   0.972
 4894SOL     OW15580   4.889   5.860   1.224
 4894SOL    HW115581   4.795   5.829   1.240
 4894SOL    HW215582   4.903   5.877   1.127
 4895SOL     OW15583   0.311   4.005   5.301
 4895SOL    HW115584   0.264   4.093   5.293
 4895SOL    HW215585   0.285   3.961   5.387
 4896SOL     OW15586   2.867   5.090   5.015
 4896SOL    HW115587   2.805   5.019   5.048
 4896SOL    HW215588   2.954   5.084   5.065
 4897SOL     OW15589   1.820   1.062   5.025
 4897SOL    HW115590   1.901   1.119   5.026
 4897SOL    HW215591   1.847   0.966   5.032
 4898SOL     OW15592   5.010   2.077   3.918
 4898SOL    HW115593   5.022   2.125   3.831
 4898SOL    HW215594   5.099   2.061   3.960
 4899SOL     OW15595   6.143   6.562   2.026
 4899SOL    HW115596   6.062   6.507   2.010
 4899SOL    HW215597   6.116   6.650   2.065
 4900SOL     OW15598   3.904   5.981   6.161
 4900SOL    HW115599   3.852   5.950   6.082
 4900SOL    HW215600   3.999   6.000   6.135
 4901SOL     OW15601   1.360   0.674   6.816
 4901SOL    HW115602   1.296   0.646   6.888
 4901SOL    HW215603   1.439   0.718   6.857
 4902SOL     OW15604   2.807   0.426   5.414
 4902SOL    HW115605   2.708   0.420   5.421
 4902SOL    HW215606   2.840   0.360   5.346
 4903SOL     OW15607   5.108   3.706   3.029
 4903SOL    HW115608   5.042   3.720   3.102
 4903SOL    HW215609   5.165   3.626   3.050
 4904SOL     OW15610   1.961   0.529   1.394
 4904SOL    HW115611   1.982   0.627   1.401
 4904SOL    HW215612   1.864   0.517   1.377
 4905SOL     OW15613   2.431   0.302   2.963
 4905SOL    HW115614   2.434   0.400   2.941
 4905SOL    HW215615   2.521   0.273   2.995
 4906SOL     OW15616   5.355   3.700   5.068
 4906SOL    HW115617   5.329   3.724   4.975
 4906SOL    HW215618   5.317   3.611   5.092
 4907SOL     OW15619   4.006   2.544   0.168
 4907SOL    HW115620   3.984   2.568   0.263
 4907SOL    HW215621   4.037   2.625   0.119
 4908SOL     OW15622   3.566   6.893   6.386
 4908SOL    HW115623   3.586   6.922   6.480
 4908SOL    HW215624   3.626   6.817   6.362
 4909SOL     OW15625   4.891   5.109   4.197
 4909SOL    HW115626   4.891   5.066   4.106
 4909SOL    HW215627   4.916   5.040   4.265
 4910SOL     OW15628   4.077   2.267   6.851
 4910SOL    HW115629   4.030   2.349   6.820
 4910SOL    HW215630   4.145   2.292   6.920
 4911SOL     OW15631   6.457   4.061   2.726
 4911SOL    HW115632   6.406   4.043   2.641
 4911SOL    HW215633   6.393   4.067   2.802
 4912SOL     OW15634   5.678   2.822   4.598
 4912SOL    HW115635   5.616   2.771   4.539
 4912SOL    HW215636   5.767   2.831   4.554
 4913SOL     OW15637   0.340   3.901   4.474
 4913SOL    HW115638   0.388   3.918   4.388
 4913SOL    HW215639   0.256   3.955   4.476
 4914SOL     OW15640   3.808   6.910   4.271
 4914SOL    HW115641   3.836   6.829   4.220
 4914SOL    HW215642   3.846   6.992   4.227
 4915SOL     OW15643   4.046   5.504   5.544
 4915SOL    HW115644   4.059   5.483   5.641
 4915SOL    HW215645   3.991   5.433   5.500
 4916SOL     OW15646   5.321   2.069   3.801
 4916SOL    HW115647   5.375   2.145   3.837
 4916SOL    HW215648   5.289   2.091   3.709
 4917SOL     OW15649   3.954   6.679   6.512
 4917SOL    HW115650   3.913   6.621   6.583
 4917SOL    HW215651   4.038   6.719   6.547
 4918SOL     OW15652   5.636   5.144   3.708
 4918SOL    HW115653   5.664   5.196   3.627
 4918SOL    HW215654   5.590   5.060   3.679
 4919SOL     OW15655   3.419   3.658   2.193
 4919SOL    HW115656   3.415   3.620   2.100
 4919SOL    HW215657   3.515   3.674   2.218
 4920SOL     OW15658   6.012   1.652   6.368
 4920SOL    HW115659   5.980   1.572   6.419
 4920SOL    HW215660   5.998   1.734   6.423
 4921SOL     OW15661   6.744   6.444   1.682
 4921SOL    HW115662   6.655   6.416   1.717
 4921SOL    HW215663   6.761   6.540   1.707
 4922SOL     OW15664   4.091   1.991   5.917
 4922SOL    HW115665   4.046   1.984   6.006
 4922SOL    HW215666   4.146   1.908   5.901
 4923SOL     OW15667   3.581   1.653   1.564
 4923SOL    HW115668   3.650   1.629   1.632
 4923SOL    HW215669   3.551   1.748   1.579
 4924SOL     OW15670   2.235   0.632   5.339
 4924SOL    HW115671   2.333   0.612   5.336
 4924SOL    HW215672   2.203   0.651   5.246
 4925SOL     OW15673   4.947   5.627   3.354
 4925SOL    HW115674   5.017   5.588   3.294
 4925SOL    HW215675   4.991   5.684   3.423
 4926SOL     OW15676   5.667   3.042   1.754
 4926SOL    HW115677   5.584   3.056   1.700
 4926SOL    HW215678   5.647   3.059   1.850
 4927SOL     OW15679   2.647   1.676   0.002
 4927SOL    HW115680   2.733   1.649   6.974
 4927SOL    HW215681   2.578   1.604   7.003
 4928SOL     OW15682   6.947   1.710   0.368
 4928SOL    HW115683   6.897   1.707   0.455
 4928SOL    HW215684   6.927   1.627   0.316
 4929SOL     OW15685   0.096   0.346   4.721
 4929SOL    HW115686   0.131   0.286   4.793
 4929SOL    HW215687   0.120   0.441   4.743
 4930SOL     OW15688   4.876   5.569   2.594
 4930SOL    HW115689   4.805   5.602   2.532
 4930SOL    HW215690   4.895   5.473   2.574
 4931SOL     OW15691   6.490   0.106   1.228
 4931SOL    HW115692   6.504   0.192   1.277
 4931SOL    HW215693   6.393   0.084   1.225
 4932SOL     OW15694   3.318   3.185   2.751
 4932SOL    HW115695   3.271   3.148   2.832
 4932SOL    HW215696   3.406   3.223   2.778
 4933SOL     OW15697   0.951   0.487   5.592
 4933SOL    HW115698   1.004   0.426   5.533
 4933SOL    HW215699   0.967   0.582   5.566
 4934SOL     OW15700   3.351   6.811   2.798
 4934SOL    HW115701   3.407   6.832   2.878
 4934SOL    HW215702   3.370   6.878   2.726
 4935SOL     OW15703   0.455   1.095   5.056
 4935SOL    HW115704   0.420   1.063   5.144
 4935SOL    HW215705   0.391   1.070   4.983
 4936SOL     OW15706   4.986   2.438   0.915
 4936SOL    HW115707   4.891   2.448   0.943
 4936SOL    HW215708   5.031   2.369   0.971
 4937SOL     OW15709   4.209   2.925   5.339
 4937SOL    HW115710   4.135   2.865   5.308
 4937SOL    HW215711   4.178   3.020   5.339
 4938SOL     OW15712   3.757   4.273   6.663
 4938SOL    HW115713   3.761   4.187   6.715
 4938SOL    HW215714   3.840   4.326   6.680
 4939SOL     OW15715   4.435   4.359   6.427
 4939SOL    HW115716   4.352   4.382   6.377
 4939SOL    HW215717   4.497   4.438   6.426
 4940SOL     OW15718   2.488   5.758   3.982
 4940SOL    HW115719   2.579   5.743   4.021
 4940SOL    HW215720   2.462   5.679   3.926
 4941SOL     OW15721   5.807   0.576   0.936
 4941SOL    HW115722   5.795   0.544   1.030
 4941SOL    HW215723   5.831   0.673   0.936
 4942SOL     OW15724   4.843   2.894   6.081
 4942SOL    HW115725   4.825   2.819   6.144
 4942SOL    HW215726   4.941   2.904   6.066
 4943SOL     OW15727   5.648   2.774   1.129
 4943SOL    HW115728   5.663   2.842   1.057
 4943SOL    HW215729   5.593   2.814   1.202
 4944SOL     OW15730   2.149   3.919   1.922
 4944SOL    HW115731   2.222   3.906   1.854
 4944SOL    HW215732   2.190   3.939   2.011
 4945SOL     OW15733   6.937   6.029   4.302
 4945SOL    HW115734   6.883   6.090   4.245
 4945SOL    HW215735   0.017   6.058   4.302
 4946SOL     OW15736   0.069   3.776   2.146
 4946SOL    HW115737   0.023   3.853   2.190
 4946SOL    HW215738   0.164   3.772   2.176
 4947SOL     OW15739   6.277   0.631   0.941
 4947SOL    HW115740   6.260   0.608   1.037
 4947SOL    HW215741   6.375   0.645   0.927
 4948SOL     OW15742   2.215   1.327   2.432
 4948SOL    HW115743   2.208   1.345   2.530
 4948SOL    HW215744   2.164   1.397   2.381
 4949SOL     OW15745   5.326   2.688   4.737
 4949SOL    HW115746   5.394   2.635   4.787
 4949SOL    HW215747   5.330   2.663   4.640
 4950SOL     OW15748   3.378   4.943   5.013
 4950SOL    HW115749   3.419   4.998   4.940
 4950SOL    HW215750   3.408   4.978   5.102
 4951SOL     OW15751   4.179   1.668   4.100
 4951SOL    HW115752   4.230   1.752   4.080
 4951SOL    HW215753   4.085   1.692   4.124
 4952SOL     OW15754   6.805   4.551   4.242
 4952SOL    HW115755   6.732   4.579   4.304
 4952SOL    HW215756   6.856   4.475   4.283
 4953SOL     OW15757   1.214   4.650   2.052
 4953SOL    HW115758   1.295   4.695   2.091
 4953SOL    HW215759   1.178   4.583   2.118
 4954SOL     OW15760   6.146   6.231   0.446
 4954SOL    HW115761   6.151   6.312   0.504
 4954SOL    HW215762   6.229   6.176   0.460
 4955SOL     OW15763   1.904   0.797   1.378
 4955SOL    HW115764   1.952   0.885   1.381
 4955SOL    HW215765   1.808   0.811   1.401
 4956SOL     OW15766   6.172   6.557   3.457
 4956SOL    HW115767   6.075   6.563   3.434
 4956SOL    HW215768   6.215   6.484   3.404
 4957SOL     OW15769   2.033   5.692   3.729
 4957SOL    HW115770   2.068   5.722   3.817
 4957SOL    HW215771   1.998   5.770   3.678
 4958SOL     OW15772   6.917   6.493   6.958
 4958SOL    HW115773   6.994   6.476   0.005
 4958SOL    HW215774   6.896   6.410   6.907
 4959SOL     OW15775   0.558   1.849   6.978
 4959SOL    HW115776   0.642   1.795   6.969
 4959SOL    HW215777   0.499   1.808   0.031
 4960SOL     OW15778   4.379   0.145   5.812
 4960SOL    HW115779   4.384   0.049   5.783
 4960SOL    HW215780   4.355   0.149   5.909
 4961SOL     OW15781   5.175   0.642   5.673
 4961SOL    HW115782   5.117   0.722   5.659
 4961SOL    HW215783   5.270   0.672   5.687
 4962SOL     OW15784   6.901   2.635   2.300
 4962SOL    HW115785   6.915   2.546   2.343
 4962SOL    HW215786   6.815   2.634   2.249
 4963SOL     OW15787   6.873   4.737   1.202
 4963SOL    HW115788   6.928   4.656   1.180
 4963SOL    HW215789   6.887   4.760   1.299
 4964SOL     OW15790   3.820   6.584   3.503
 4964SOL    HW115791   3.895   6.649   3.508
 4964SOL    HW215792   3.839   6.517   3.432
 4965SOL     OW15793   6.888   6.207   4.539
 4965SOL    HW115794   6.929   6.183   4.627
 4965SOL    HW215795   6.950   6.180   4.465
 4966SOL     OW15796   4.231   5.265   4.654
 4966SOL    HW115797   4.231   5.362   4.630
 4966SOL    HW215798   4.184   5.251   4.741
 4967SOL     OW15799   5.832   2.124   6.685
 4967SOL    HW115800   5.915   2.068   6.691
 4967SOL    HW215801   5.815   2.167   6.773
 4968SOL     OW15802   5.268   4.275   6.915
 4968SOL    HW115803   5.229   4.291   6.825
 4968SOL    HW215804   5.368   4.273   6.908
 4969SOL     OW15805   1.556   1.780   1.140
 4969SOL    HW115806   1.603   1.701   1.103
 4969SOL    HW215807   1.622   1.853   1.158
 4970SOL     OW15808   1.940   2.636   5.695
 4970SOL    HW115809   2.000   2.676   5.764
 4970SOL    HW215810   1.880   2.707   5.658
 4971SOL     OW15811   6.646   5.308   3.903
 4971SOL    HW115812   6.628   5.266   3.814
 4971SOL    HW215813   6.731   5.270   3.940
 4972SOL     OW15814   1.687   2.162   5.343
 4972SOL    HW115815   1.745   2.196   5.269
 4972SOL    HW215816   1.635   2.238   5.382
 4973SOL     OW15817   5.575   5.400   2.937
 4973SOL    HW115818   5.640   5.398   3.013
 4973SOL    HW215819   5.535   5.310   2.925
 4974SOL     OW15820   3.933   6.531   6.740
 4974SOL    HW115821   3.920   6.435   6.763
 4974SOL    HW215822   3.847   6.580   6.753
 4975SOL     OW15823   3.798   6.472   0.260
 4975SOL    HW115824   3.851   6.431   0.186
 4975SOL    HW215825   3.813   6.571   0.261
 4976SOL     OW15826   2.818   0.665   4.364
 4976SOL    HW115827   2.759   0.644   4.286
 4976SOL    HW215828   2.913   0.672   4.334
 4977SOL     OW15829   3.343   2.562   0.641
 4977SOL    HW115830   3.375   2.473   0.674
 4977SOL    HW215831   3.311   2.553   0.547
 4978SOL     OW15832   6.037   4.412   6.363
 4978SOL    HW115833   6.080   4.348   6.299
 4978SOL    HW215834   6.062   4.388   6.457
 4979SOL     OW15835   1.659   2.082   4.328
 4979SOL    HW115836   1.693   2.173   4.352
 4979SOL    HW215837   1.559   2.083   4.329
 4980SOL     OW15838   2.061   4.639   2.941
 4980SOL    HW115839   1.999   4.716   2.953
 4980SOL    HW215840   2.013   4.554   2.964
 4981SOL     OW15841   4.948   6.171   5.382
 4981SOL    HW115842   5.003   6.230   5.323
 4981SOL    HW215843   4.908   6.098   5.328
 4982SOL     OW15844   2.620   2.415   6.874
 4982SOL    HW115845   2.694   2.433   6.808
 4982SOL    HW215846   2.659   2.395   6.963
 4983SOL     OW15847   6.288   3.130   4.895
 4983SOL    HW115848   6.215   3.134   4.962
 4983SOL    HW215849   6.370   3.092   4.937
 4984SOL     OW15850   5.090   3.920   3.238
 4984SOL    HW115851   5.140   3.983   3.178
 4984SOL    HW215852   4.996   3.952   3.249
 4985SOL     OW15853   5.721   3.940   1.912
 4985SOL    HW115854   5.649   3.891   1.862
 4985SOL    HW215855   5.793   3.875   1.937
 4986SOL     OW15856   4.455   4.538   3.117
 4986SOL    HW115857   4.520   4.612   3.130
 4986SOL    HW215858   4.415   4.544   3.025
 4987SOL     OW15859   0.684   3.302   0.684
 4987SOL    HW115860   0.749   3.263   0.749
 4987SOL    HW215861   0.671   3.238   0.608
 4988SOL     OW15862   1.862   2.215   5.104
 4988SOL    HW115863   1.908   2.289   5.055
 4988SOL    HW215864   1.861   2.133   5.048
 4989SOL     OW15865   6.792   1.160   0.888
 4989SOL    HW115866   6.769   1.248   0.931
 4989SOL    HW215867   6.887   1.137   0.910
 4990SOL     OW15868   1.560   2.211   6.076
 4990SOL    HW115869   1.647   2.237   6.033
 4990SOL    HW215870   1.534   2.281   6.143
 4991SOL     OW15871   2.861   2.047   5.409
 4991SOL    HW115872   2.762   2.048   5.419
 4991SOL    HW215873   2.885   2.063   5.314
 4992SOL     OW15874   4.769   6.531   4.658
 4992SOL    HW115875   4.677   6.563   4.635
 4992SOL    HW215876   4.836   6.591   4.614
 4993SOL     OW15877   1.646   6.224   4.252
 4993SOL    HW115878   1.585   6.150   4.222
 4993SOL    HW215879   1.738   6.187   4.264
 4994SOL     OW15880   0.444   6.686   2.986
 4994SOL    HW115881   0.519   6.715   2.927
 4994SOL    HW215882   0.366   6.659   2.930
 4995SOL     OW15883   5.584   2.874   5.198
 4995SOL    HW115884   5.586   2.969   5.165
 4995SOL    HW215885   5.633   2.869   5.285
 4996SOL     OW15886   0.691   1.833   3.455
 4996SOL    HW115887   0.685   1.787   3.544
 4996SOL    HW215888   0.715   1.766   3.384
 4997SOL     OW15889   0.281   2.375   3.945
 4997SOL    HW115890   0.190   2.334   3.950
 4997SOL    HW215891   0.344   2.323   4.004
 4998SOL     OW15892   0.818   5.606   5.670
 4998SOL    HW115893   0.858   5.534   5.726
 4998SOL    HW215894   0.719   5.602   5.677
 4999SOL     OW15895   5.934   4.296   0.782
 4999SOL    HW115896   6.024   4.333   0.801
 4999SOL    HW215897   5.878   4.298   0.865
 5000SOL     OW15898   0.067   5.103   4.271
 5000SOL    HW115899   0.009   5.021   4.270
 5000SOL    HW215900   0.026   5.171   4.332
 5001SOL     OW15901   5.268   4.186   5.690
 5001SOL    HW115902   5.326   4.108   5.666
 5001SOL    HW215903   5.191   4.190   5.627
 5002SOL     OW15904   1.924   2.582   1.322
 5002SOL    HW115905   1.868   2.499   1.324
 5002SOL    HW215906   1.907   2.635   1.405
 5003SOL     OW15907   6.710   4.887   4.072
 5003SOL    HW115908   6.675   4.952   4.139
 5003SOL    HW215909   6.646   4.882   3.995
 5004SOL     OW15910   2.230   4.639   5.997
 5004SOL    HW115911   2.195   4.646   5.904
 5004SOL    HW215912   2.265   4.728   6.026
 5005SOL     OW15913   4.686   1.938   0.444
 5005SOL    HW115914   4.752   2.011   0.459
 5005SOL    HW215915   4.609   1.972   0.389
 5006SOL     OW15916   5.331   4.366   2.431
 5006SOL    HW115917   5.284   4.328   2.352
 5006SOL    HW215918   5.364   4.293   2.490
 5007SOL     OW15919   4.600   1.314   5.192
 5007SOL    HW115920   4.672   1.378   5.163
 5007SOL    HW215921   4.598   1.236   5.129
 5008SOL     OW15922   6.300   0.728   3.441
 5008SOL    HW115923   6.392   0.709   3.476
 5008SOL    HW215924   6.240   0.752   3.517
 5009SOL     OW15925   1.883   5.981   1.956
 5009SOL    HW115926   1.979   5.976   1.983
 5009SOL    HW215927   1.850   6.075   1.965
 5010SOL     OW15928   3.574   3.466   5.775
 5010SOL    HW115929   3.573   3.387   5.836
 5010SOL    HW215930   3.501   3.529   5.800
 5011SOL     OW15931   1.525   2.013   3.650
 5011SOL    HW115932   1.594   2.073   3.611
 5011SOL    HW215933   1.568   1.947   3.711
 5012SOL     OW15934   5.882   3.332   6.937
 5012SOL    HW115935   5.793   3.287   6.925
 5012SOL    HW215936   5.881   3.421   6.892
 5013SOL     OW15937   4.646   2.250   5.663
 5013SOL    HW115938   4.619   2.342   5.692
 5013SOL    HW215939   4.718   2.256   5.594
 5014SOL     OW15940   6.736   5.675   6.739
 5014SOL    HW115941   6.665   5.646   6.675
 5014SOL    HW215942   6.693   5.707   6.824
 5015SOL     OW15943   5.591   1.727   3.184
 5015SOL    HW115944   5.667   1.772   3.137
 5015SOL    HW215945   5.521   1.794   3.206
 5016SOL     OW15946   2.469   6.150   2.225
 5016SOL    HW115947   2.484   6.232   2.281
 5016SOL    HW215948   2.473   6.174   2.128
 5017SOL     OW15949   1.162   1.960   1.955
 5017SOL    HW115950   1.108   1.878   1.934
 5017SOL    HW215951   1.157   2.024   1.878
 5018SOL     OW15952   6.732   4.762   3.637
 5018SOL    HW115953   6.813   4.753   3.695
 5018SOL    HW215954   6.659   4.705   3.675
 5019SOL     OW15955   2.300   5.345   5.427
 5019SOL    HW115956   2.280   5.399   5.345
 5019SOL    HW215957   2.399   5.338   5.438
 5020SOL     OW15958   4.361   5.367   6.651
 5020SOL    HW115959   4.298   5.300   6.689
 5020SOL    HW215960   4.361   5.359   6.551
 5021SOL     OW15961   2.317   4.557   5.710
 5021SOL    HW115962   2.272   4.532   5.624
 5021SOL    HW215963   2.416   4.563   5.695
 5022SOL     OW15964   2.364   3.733   0.594
 5022SOL    HW115965   2.327   3.773   0.510
 5022SOL    HW215966   2.462   3.716   0.583
 5023SOL     OW15967   0.333   2.959   4.453
 5023SOL    HW115968   0.368   3.050   4.474
 5023SOL    HW215969   0.236   2.955   4.475
 5024SOL     OW15970   4.739   3.688   5.586
 5024SOL    HW115971   4.699   3.606   5.547
 5024SOL    HW215972   4.680   3.723   5.658
 5025SOL     OW15973   6.238   0.919   4.214
 5025SOL    HW115974   6.286   1.005   4.228
 5025SOL    HW215975   6.175   0.903   4.290
 5026SOL     OW15976   1.011   5.628   3.189
 5026SOL    HW115977   0.988   5.553   3.251
 5026SOL    HW215978   1.100   5.610   3.146
 5027SOL     OW15979   1.063   6.032   3.699
 5027SOL    HW115980   1.022   6.101   3.759
 5027SOL    HW215981   0.994   5.962   3.679
 5028SOL     OW15982   0.899   6.585   2.926
 5028SOL    HW115983   0.975   6.573   2.862
 5028SOL    HW215984   0.932   6.631   3.009
 5029SOL     OW15985   6.650   0.957   3.635
 5029SOL    HW115986   6.599   1.010   3.567
 5029SOL    HW215987   6.747   0.960   3.613
 5030SOL     OW15988   1.456   6.017   0.064
 5030SOL    HW115989   1.526   6.087   0.049
 5030SOL    HW215990   1.412   6.032   0.153
 5031SOL     OW15991   5.498   0.724   6.985
 5031SOL    HW115992   5.552   0.649   6.947
 5031SOL    HW215993   5.438   0.762   6.914
 5032SOL     OW15994   1.709   5.372   2.606
 5032SOL    HW115995   1.680   5.459   2.567
 5032SOL    HW215996   1.713   5.380   2.706
 5033SOL     OW15997   0.625   4.388   4.642
 5033SOL    HW115998   0.650   4.329   4.566
 5033SOL    HW215999   0.541   4.353   4.685
 5034SOL     OW16000   6.818   3.797   6.191
 5034SOL    HW116001   6.810   3.798   6.291
 5034SOL    HW216002   6.906   3.760   6.165
 5035SOL     OW16003   6.659   4.213   1.121
 5035SOL    HW116004   6.646   4.252   1.029
 5035SOL    HW216005   6.685   4.117   1.113
 5036SOL     OW16006   1.675   0.967   2.395
 5036SOL    HW116007   1.635   1.032   2.331
 5036SOL    HW216008   1.670   1.004   2.488
 5037SOL     OW16009   4.919   3.139   2.732
 5037SOL    HW116010   4.913   3.140   2.632
 5037SOL    HW216011   4.892   3.228   2.768
 5038SOL     OW16012   3.245   5.376   5.471
 5038SOL    HW116013   3.190   5.397   5.552
 5038SOL    HW216014   3.255   5.277   5.462
 5039SOL     OW16015   1.762   2.301   2.555
 5039SOL    HW116016   1.769   2.397   2.529
 5039SOL    HW216017   1.840   2.251   2.518
 5040SOL     OW16018   3.124   3.395   5.974
 5040SOL    HW116019   3.158   3.485   5.945
 5040SOL    HW216020   3.041   3.408   6.029
 5041SOL     OW16021   0.058   5.393   0.923
 5041SOL    HW116022   6.975   5.374   0.919
 5041SOL    HW216023   0.101   5.331   0.990
 5042SOL     OW16024   6.043   1.551   6.120
 5042SOL    HW116025   5.965   1.588   6.070
 5042SOL    HW216026   6.041   1.585   6.215
 5043SOL     OW16027   5.094   6.392   4.112
 5043SOL    HW116028   5.048   6.303   4.107
 5043SOL    HW216029   5.127   6.418   4.021
 5044SOL     OW16030   5.883   4.718   1.909
 5044SOL    HW116031   5.909   4.700   1.814
 5044SOL    HW216032   5.929   4.800   1.942
 5045SOL     OW16033   6.013   3.204   5.363
 5045SOL    HW116034   6.071   3.229   5.286
 5045SOL    HW216035   6.052   3.240   5.448
 5046SOL     OW16036   3.852   3.375   5.881
 5046SOL    HW116037   3.785   3.356   5.809
 5046SOL    HW216038   3.921   3.303   5.882
 5047SOL     OW16039   0.607   1.779   2.054
 5047SOL    HW116040   0.667   1.718   2.002
 5047SOL    HW216041   0.660   1.855   2.090
 5048SOL     OW16042   5.515   3.615   1.019
 5048SOL    HW116043   5.570   3.633   1.100
 5048SOL    HW216044   5.559   3.657   0.939
 5049SOL     OW16045   1.011   1.944   1.343
 5049SOL    HW116046   1.107   1.917   1.351
 5049SOL    HW216047   0.993   2.022   1.403
 5050SOL     OW16048   2.015   4.223   6.868
 5050SOL    HW116049   2.112   4.201   6.883
 5050SOL    HW216050   1.959   4.158   6.919
 5051SOL     OW16051   2.552   3.713   6.324
 5051SOL    HW116052   2.560   3.615   6.342
 5051SOL    HW216053   2.545   3.729   6.225
 5052SOL     OW16054   5.798   2.754   0.414
 5052SOL    HW116055   5.877   2.744   0.475
 5052SOL    HW216056   5.828   2.792   0.327
 5053SOL     OW16057   1.704   3.969   0.876
 5053SOL    HW116058   1.732   4.052   0.829
 5053SOL    HW216059   1.785   3.920   0.908
 5054SOL     OW16060   4.083   6.202   5.495
 5054SOL    HW116061   3.998   6.223   5.446
 5054SOL    HW216062   4.062   6.183   5.591
 5055SOL     OW16063   1.367   1.092   4.213
 5055SOL    HW116064   1.401   1.111   4.121
 5055SOL    HW216065   1.308   1.012   4.211
 5056SOL     OW16066   3.458   2.056   5.802
 5056SOL    HW116067   3.363   2.085   5.787
 5056SOL    HW216068   3.468   1.960   5.777
 5057SOL     OW16069   0.117   3.885   3.269
 5057SOL    HW116070   0.199   3.832   3.249
 5057SOL    HW216071   0.039   3.845   3.221
 5058SOL     OW16072   3.545   2.023   0.551
 5058SOL    HW116073   3.468   2.006   0.490
 5058SOL    HW216074   3.624   2.053   0.497
 5059SOL     OW16075   5.199   2.196   2.353
 5059SOL    HW116076   5.159   2.283   2.380
 5059SOL    HW216077   5.141   2.151   2.286
 5060SOL     OW16078   6.879   3.985   5.122
 5060SOL    HW116079   6.972   3.954   5.141
 5060SOL    HW216080   6.881   4.064   5.061
 5061SOL     OW16081   3.922   2.897   6.227
 5061SOL    HW116082   3.963   2.909   6.317
 5061SOL    HW216083   3.857   2.821   6.230
 5062SOL     OW16084   5.395   1.115   2.981
 5062SOL    HW116085   5.399   1.053   2.903
 5062SOL    HW216086   5.462   1.086   3.050
 5063SOL     OW16087   0.473   1.712   1.240
 5063SOL    HW116088   0.529   1.720   1.323
 5063SOL    HW216089   0.376   1.720   1.263
 5064SOL     OW16090   5.525   4.630   1.298
 5064SOL    HW116091   5.511   4.535   1.326
 5064SOL    HW216092   5.525   4.636   1.198
 5065SOL     OW16093   2.118   1.695   2.306
 5065SOL    HW116094   2.172   1.657   2.381
 5065SOL    HW216095   2.122   1.795   2.309
 5066SOL     OW16096   1.401   5.222   2.653
 5066SOL    HW116097   1.371   5.202   2.746
 5066SOL    HW216098   1.477   5.162   2.628
 5067SOL     OW16099   5.623   2.543   1.326
 5067SOL    HW116100   5.638   2.596   1.242
 5067SOL    HW216101   5.527   2.548   1.352
 5068SOL     OW16102   1.558   6.383   1.151
 5068SOL    HW116103   1.651   6.420   1.153
 5068SOL    HW216104   1.548   6.324   1.071
 5069SOL     OW16105   4.626   5.424   5.959
 5069SOL    HW116106   4.605   5.417   5.861
 5069SOL    HW216107   4.569   5.496   5.999
 5070SOL     OW16108   6.106   3.506   5.995
 5070SOL    HW116109   6.201   3.512   5.964
 5070SOL    HW216110   6.099   3.437   6.066
 5071SOL     OW16111   2.610   6.068   2.907
 5071SOL    HW116112   2.569   6.023   2.828
 5071SOL    HW216113   2.606   6.007   2.986
 5072SOL     OW16114   0.871   1.362   1.953
 5072SOL    HW116115   0.889   1.343   1.857
 5072SOL    HW216116   0.815   1.290   1.992
 5073SOL     OW16117   1.609   1.156   3.450
 5073SOL    HW116118   1.658   1.123   3.370
 5073SOL    HW216119   1.584   1.252   3.438
 5074SOL     OW16120   3.459   2.151   1.376
 5074SOL    HW116121   3.362   2.147   1.350
 5074SOL    HW216122   3.467   2.147   1.475
 5075SOL     OW16123   6.429   2.457   0.365
 5075SOL    HW116124   6.452   2.407   0.449
 5075SOL    HW216125   6.438   2.396   0.287
 5076SOL     OW16126   0.137   0.817   5.859
 5076SOL    HW116127   0.141   0.854   5.951
 5076SOL    HW216128   0.226   0.829   5.814
 5077SOL     OW16129   1.002   4.396   3.835
 5077SOL    HW116130   0.953   4.313   3.861
 5077SOL    HW216131   0.978   4.420   3.741
 5078SOL     OW16132   6.310   2.099   3.237
 5078SOL    HW116133   6.335   2.174   3.298
 5078SOL    HW216134   6.297   2.015   3.290
 5079SOL     OW16135   1.669   3.729   4.771
 5079SOL    HW116136   1.619   3.642   4.769
 5079SOL    HW216137   1.624   3.794   4.709
 5080SOL     OW16138   6.485   5.621   6.933
 5080SOL    HW116139   6.461   5.678   6.854
 5080SOL    HW216140   6.402   5.603   6.987
 5081SOL     OW16141   2.253   4.954   5.309
 5081SOL    HW116142   2.301   4.925   5.392
 5081SOL    HW216143   2.154   4.941   5.322
 5082SOL     OW16144   5.685   6.432   1.727
 5082SOL    HW116145   5.634   6.509   1.765
 5082SOL    HW216146   5.729   6.381   1.801
 5083SOL     OW16147   1.771   0.047   3.572
 5083SOL    HW116148   1.713   7.000   3.625
 5083SOL    HW216149   1.835   7.009   3.517
 5084SOL     OW16150   3.705   4.788   5.784
 5084SOL    HW116151   3.689   4.847   5.705
 5084SOL    HW216152   3.625   4.730   5.798
 5085SOL     OW16153   0.238   4.498   5.629
 5085SOL    HW116154   0.148   4.492   5.587
 5085SOL    HW216155   0.304   4.534   5.563
 5086SOL     OW16156   0.847   4.812   2.636
 5086SOL    HW116157   0.819   4.827   2.541
 5086SOL    HW216158   0.920   4.876   2.660
 5087SOL     OW16159   0.126   4.998   1.685
 5087SOL    HW116160   0.184   5.025   1.608
 5087SOL    HW216161   0.089   5.080   1.729
 5088SOL     OW16162   4.918   5.251   2.408
 5088SOL    HW116163   5.008   5.288   2.432
 5088SOL    HW216164   4.902   5.263   2.310
 5089SOL     OW16165   5.243   6.596   6.266
 5089SOL    HW116166   5.245   6.624   6.170
 5089SOL    HW216167   5.224   6.498   6.272
 5090SOL     OW16168   2.411   6.623   4.672
 5090SOL    HW116169   2.345   6.568   4.621
 5090SOL    HW216170   2.434   6.577   4.757
 5091SOL     OW16171   6.575   6.562   6.090
 5091SOL    HW116172   6.545   6.654   6.113
 5091SOL    HW216173   6.558   6.545   5.993
 5092SOL     OW16174   4.100   3.712   4.128
 5092SOL    HW116175   4.121   3.614   4.136
 5092SOL    HW216176   4.074   3.748   4.217
 5093SOL     OW16177   2.822   2.111   3.290
 5093SOL    HW116178   2.914   2.097   3.328
 5093SOL    HW216179   2.784   2.196   3.326
 5094SOL     OW16180   2.277   5.914   5.241
 5094SOL    HW116181   2.225   5.967   5.174
 5094SOL    HW216182   2.336   5.849   5.193
 5095SOL     OW16183   0.208   1.426   3.458
 5095SOL    HW116184   0.246   1.381   3.539
 5095SOL    HW216185   0.214   1.525   3.470
 5096SOL     OW16186   6.555   3.257   6.054
 5096SOL    HW116187   6.603   3.235   5.970
 5096SOL    HW216188   6.599   3.335   6.099
 5097SOL     OW16189   0.748   1.115   5.588
 5097SOL    HW116190   0.735   1.209   5.621
 5097SOL    HW216191   0.672   1.090   5.528
 5098SOL     OW16192   2.869   2.426   0.327
 5098SOL    HW116193   2.878   2.351   0.392
 5098SOL    HW216194   2.823   2.503   0.370
 5099SOL     OW16195   2.233   6.009   2.335
 5099SOL    HW116196   2.320   5.961   2.340
 5099SOL    HW216197   2.247   6.105   2.359
 5100SOL     OW16198   5.347   3.698   2.236
 5100SOL    HW116199   5.375   3.631   2.167
 5100SOL    HW216200   5.403   3.781   2.226
 5101SOL     OW16201   3.145   1.159   4.987
 5101SOL    HW116202   3.070   1.161   4.920
 5101SOL    HW216203   3.109   1.129   5.076
 5102SOL     OW16204   5.740   4.843   5.148
 5102SOL    HW116205   5.651   4.880   5.124
 5102SOL    HW216206   5.810   4.880   5.087
 5103SOL     OW16207   0.517   0.480   6.038
 5103SOL    HW116208   0.555   0.413   6.102
 5103SOL    HW216209   0.587   0.546   6.013
 5104SOL     OW16210   4.070   3.702   3.427
 5104SOL    HW116211   4.083   3.661   3.517
 5104SOL    HW216212   4.023   3.790   3.437
 5105SOL     OW16213   4.198   3.351   6.786
 5105SOL    HW116214   4.188   3.425   6.852
 5105SOL    HW216215   4.270   3.288   6.817
 5106SOL     OW16216   3.324   1.547   1.624
 5106SOL    HW116217   3.409   1.597   1.608
 5106SOL    HW216218   3.323   1.464   1.568
 5107SOL     OW16219   6.155   5.376   0.514
 5107SOL    HW116220   6.215   5.427   0.576
 5107SOL    HW216221   6.074   5.344   0.564
 5108SOL     OW16222   3.689   4.488   1.295
 5108SOL    HW116223   3.722   4.573   1.254
 5108SOL    HW216224   3.605   4.506   1.347
 5109SOL     OW16225   1.541   2.872   2.742
 5109SOL    HW116226   1.638   2.893   2.758
 5109SOL    HW216227   1.505   2.821   2.820
 5110SOL     OW16228   4.178   6.654   5.174
 5110SOL    HW116229   4.093   6.655   5.226
 5110SOL    HW216230   4.252   6.621   5.233
 5111SOL     OW16231   2.061   5.696   5.853
 5111SOL    HW116232   2.012   5.745   5.781
 5111SOL    HW216233   2.036   5.600   5.850
 5112SOL     OW16234   1.261   5.667   3.070
 5112SOL    HW116235   1.267   5.676   2.971
 5112SOL    HW216236   1.320   5.593   3.101
 5113SOL     OW16237   2.002   4.027   0.816
 5113SOL    HW116238   2.102   4.032   0.807
 5113SOL    HW216239   1.965   4.119   0.827
 5114SOL     OW16240   4.371   4.506   1.304
 5114SOL    HW116241   4.286   4.486   1.353
 5114SOL    HW216242   4.349   4.540   1.213
 5115SOL     OW16243   1.670   4.255   0.366
 5115SOL    HW116244   1.584   4.206   0.351
 5115SOL    HW216245   1.733   4.195   0.416
 5116SOL     OW16246   0.307   6.827   5.216
 5116SOL    HW116247   0.386   6.770   5.191
 5116SOL    HW216248   0.224   6.788   5.176
 5117SOL     OW16249   0.134   3.333   3.114
 5117SOL    HW116250   0.087   3.334   3.203
 5117SOL    HW216251   0.095   3.260   3.058
 5118SOL     OW16252   3.981   5.504   0.092
 5118SOL    HW116253   4.036   5.546   0.019
 5118SOL    HW216254   4.037   5.439   0.143
 5119SOL     OW16255   5.804   1.524   0.220
 5119SOL    HW116256   5.873   1.525   0.148
 5119SOL    HW216257   5.828   1.454   0.287
 5120SOL     OW16258   5.337   6.225   6.489
 5120SOL    HW116259   5.405   6.296   6.511
 5120SOL    HW216260   5.313   6.175   6.571
 5121SOL     OW16261   1.560   3.094   6.562
 5121SOL    HW116262   1.532   3.120   6.469
 5121SOL    HW216263   1.609   3.007   6.560
 5122SOL     OW16264   4.633   4.762   3.127
 5122SOL    HW116265   4.732   4.746   3.132
 5122SOL    HW216266   4.608   4.831   3.195
 5123SOL     OW16267   4.784   2.396   1.753
 5123SOL    HW116268   4.745   2.485   1.730
 5123SOL    HW216269   4.729   2.352   1.824
 5124SOL     OW16270   0.863   6.267   4.552
 5124SOL    HW116271   0.921   6.201   4.599
 5124SOL    HW216272   0.789   6.296   4.614
 5125SOL     OW16273   6.286   1.907   3.717
 5125SOL    HW116274   6.379   1.931   3.687
 5125SOL    HW216275   6.250   1.981   3.774
 5126SOL     OW16276   2.229   1.117   2.069
 5126SOL    HW116277   2.255   1.121   2.166
 5126SOL    HW216278   2.240   1.023   2.036
 5127SOL     OW16279   2.214   6.186   6.909
 5127SOL    HW116280   2.276   6.193   6.831
 5127SOL    HW216281   2.265   6.207   6.993
 5128SOL     OW16282   5.018   0.018   1.412
 5128SOL    HW116283   4.985   0.022   1.506
 5128SOL    HW216284   5.118   0.015   1.412
 5129SOL     OW16285   6.351   6.083   0.595
 5129SOL    HW116286   6.406   6.162   0.570
 5129SOL    HW216287   6.292   6.106   0.673
 5130SOL     OW16288   5.596   4.782   2.414
 5130SOL    HW116289   5.571   4.846   2.341
 5130SOL    HW216290   5.627   4.696   2.373
 5131SOL     OW16291   2.368   2.678   2.544
 5131SOL    HW116292   2.414   2.627   2.617
 5131SOL    HW216293   2.417   2.665   2.458
 5132SOL     OW16294   2.652   6.111   5.361
 5132SOL    HW116295   2.642   6.112   5.460
 5132SOL    HW216296   2.693   6.024   5.332
 5133SOL     OW16297   3.475   6.313   5.646
 5133SOL    HW116298   3.386   6.268   5.642
 5133SOL    HW216299   3.462   6.412   5.642
 5134SOL     OW16300   6.376   3.958   6.239
 5134SOL    HW116301   6.448   3.923   6.178
 5134SOL    HW216302   6.343   4.045   6.205
 5135SOL     OW16303   6.513   1.849   4.310
 5135SOL    HW116304   6.570   1.789   4.254
 5135SOL    HW216305   6.519   1.942   4.276
 5136SOL     OW16306   3.688   2.368   6.338
 5136SOL    HW116307   3.717   2.302   6.407
 5136SOL    HW216308   3.686   2.324   6.249
 5137SOL     OW16309   3.491   3.330   0.172
 5137SOL    HW116310   3.535   3.333   0.261
 5137SOL    HW216311   3.557   3.356   0.101
 5138SOL     OW16312   2.035   3.335   5.849
 5138SOL    HW116313   2.026   3.289   5.760
 5138SOL    HW216314   2.031   3.434   5.836
 5139SOL     OW16315   1.060   6.920   3.552
 5139SOL    HW116316   1.150   6.954   3.579
 5139SOL    HW216317   0.994   6.941   3.624
 5140SOL     OW16318   2.877   2.830   1.729
 5140SOL    HW116319   2.919   2.919   1.746
 5140SOL    HW216320   2.777   2.838   1.737
 5141SOL     OW16321   0.767   4.240   5.840
 5141SOL    HW116322   0.764   4.145   5.871
 5141SOL    HW216323   0.681   4.263   5.794
 5142SOL     OW16324   6.068   2.990   2.917
 5142SOL    HW116325   6.108   2.901   2.940
 5142SOL    HW216326   6.103   3.060   2.978
 5143SOL     OW16327   0.194   5.123   5.088
 5143SOL    HW116328   0.160   5.030   5.078
 5143SOL    HW216329   0.140   5.184   5.029
 5144SOL     OW16330   2.198   1.757   4.740
 5144SOL    HW116331   2.222   1.806   4.655
 5144SOL    HW216332   2.122   1.695   4.722
 5145SOL     OW16333   3.241   5.279   6.128
 5145SOL    HW116334   3.326   5.248   6.170
 5145SOL    HW216335   3.260   5.356   6.066
 5146SOL     OW16336   2.676   4.777   0.200
 5146SOL    HW116337   2.678   4.726   0.285
 5146SOL    HW216338   2.581   4.801   0.177
 5147SOL     OW16339   0.236   5.356   6.631
 5147SOL    HW116340   0.162   5.353   6.564
 5147SOL    HW216341   0.200   5.332   6.722
 5148SOL     OW16342   0.401   0.852   0.469
 5148SOL    HW116343   0.322   0.913   0.464
 5148SOL    HW216344   0.444   0.846   0.380
 5149SOL     OW16345   0.368   0.453   5.797
 5149SOL    HW116346   0.393   0.484   5.889
 5149SOL    HW216347   0.418   0.370   5.775
 5150SOL     OW16348   1.923   5.551   4.931
 5150SOL    HW116349   1.980   5.483   4.977
 5150SOL    HW216350   1.956   5.564   4.838
 5151SOL     OW16351   4.317   1.276   5.717
 5151SOL    HW116352   4.372   1.342   5.667
 5151SOL    HW216353   4.291   1.201   5.656
 5152SOL     OW16354   0.214   4.815   0.186
 5152SOL    HW116355   0.275   4.844   0.112
 5152SOL    HW216356   0.191   4.894   0.243
 5153SOL     OW16357   2.054   2.229   1.160
 5153SOL    HW116358   2.001   2.151   1.128
 5153SOL    HW216359   2.020   2.259   1.249
 5154SOL     OW16360   1.860   4.580   5.171
 5154SOL    HW116361   1.909   4.649   5.224
 5154SOL    HW216362   1.867   4.602   5.074
 5155SOL     OW16363   3.557   0.605   2.748
 5155SOL    HW116364   3.504   0.536   2.797
 5155SOL    HW216365   3.650   0.571   2.734
 5156SOL     OW16366   5.390   2.820   5.984
 5156SOL    HW116367   5.409   2.780   5.894
 5156SOL    HW216368   5.417   2.754   6.055
 5157SOL     OW16369   6.347   2.236   4.391
 5157SOL    HW116370   6.279   2.166   4.369
 5157SOL    HW216371   6.300   2.320   4.419
 5158SOL     OW16372   3.332   0.379   1.002
 5158SOL    HW116373   3.425   0.404   0.976
 5158SOL    HW216374   3.335   0.325   1.087
 5159SOL     OW16375   2.166   3.324   4.691
 5159SOL    HW116376   2.243   3.349   4.750
 5159SOL    HW216377   2.080   3.347   4.737
 5160SOL     OW16378   2.774   2.318   3.877
 5160SOL    HW116379   2.762   2.281   3.785
 5160SOL    HW216380   2.764   2.418   3.874
 5161SOL     OW16381   2.257   2.888   6.369
 5161SOL    HW116382   2.219   2.977   6.342
 5161SOL    HW216383   2.341   2.872   6.316
 5162SOL     OW16384   6.683   5.253   4.578
 5162SOL    HW116385   6.743   5.237   4.500
 5162SOL    HW216386   6.620   5.177   4.588
 5163SOL     OW16387   5.454   4.426   0.751
 5163SOL    HW116388   5.457   4.421   0.651
 5163SOL    HW216389   5.365   4.463   0.779
 5164SOL     OW16390   6.427   5.845   5.481
 5164SOL    HW116391   6.476   5.887   5.557
 5164SOL    HW216392   6.472   5.759   5.456
 5165SOL     OW16393   5.548   3.776   4.514
 5165SOL    HW116394   5.602   3.730   4.443
 5165SOL    HW216395   5.492   3.709   4.562
 5166SOL     OW16396   1.872   0.251   2.089
 5166SOL    HW116397   1.836   0.336   2.128
 5166SOL    HW216398   1.968   0.241   2.115
 5167SOL     OW16399   1.888   0.005   6.103
 5167SOL    HW116400   1.903   6.930   6.063
 5167SOL    HW216401   1.973   0.058   6.098
 5168SOL     OW16402   3.833   2.102   2.701
 5168SOL    HW116403   3.745   2.081   2.743
 5168SOL    HW216404   3.823   2.109   2.602
 5169SOL     OW16405   3.988   4.394   6.693
 5169SOL    HW116406   4.021   4.332   6.622
 5169SOL    HW216407   4.045   4.476   6.695
 5170SOL     OW16408   4.370   5.112   4.438
 5170SOL    HW116409   4.304   5.170   4.484
 5170SOL    HW216410   4.364   5.126   4.339
 5171SOL     OW16411   2.453   4.603   4.660
 5171SOL    HW116412   2.526   4.625   4.724
 5171SOL    HW216413   2.368   4.648   4.688
 5172SOL     OW16414   1.647   4.807   6.988
 5172SOL    HW116415   1.558   4.789   6.945
 5172SOL    HW216416   1.685   4.721   0.006
 5173SOL     OW16417   0.234   2.325   5.576
 5173SOL    HW116418   0.238   2.321   5.676
 5173SOL    HW216419   0.151   2.374   5.548
 5174SOL     OW16420   2.174   4.960   6.036
 5174SOL    HW116421   2.250   5.025   6.029
 5174SOL    HW216422   2.141   4.957   6.131
 5175SOL     OW16423   0.114   5.840   6.320
 5175SOL    HW116424   0.051   5.869   6.392
 5175SOL    HW216425   0.119   5.740   6.319
 5176SOL     OW16426   5.259   3.977   6.090
 5176SOL    HW116427   5.327   3.920   6.044
 5176SOL    HW216428   5.272   4.072   6.061
 5177SOL     OW16429   5.287   5.686   6.376
 5177SOL    HW116430   5.356   5.614   6.385
 5177SOL    HW216431   5.305   5.738   6.292
 5178SOL     OW16432   3.019   3.276   1.262
 5178SOL    HW116433   2.952   3.284   1.189
 5178SOL    HW216434   3.111   3.279   1.223
 5179SOL     OW16435   3.182   6.766   5.638
 5179SOL    HW116436   3.191   6.754   5.737
 5179SOL    HW216437   3.114   6.701   5.604
 5180SOL     OW16438   3.688   1.900   0.205
 5180SOL    HW116439   3.741   1.833   0.152
 5180SOL    HW216440   3.751   1.957   0.257
 5181SOL     OW16441   2.911   5.910   2.959
 5181SOL    HW116442   2.906   5.892   3.057
 5181SOL    HW216443   2.863   5.837   2.910
 5182SOL     OW16444   4.423   4.055   1.419
 5182SOL    HW116445   4.472   4.070   1.505
 5182SOL    HW216446   4.483   4.079   1.343
 5183SOL     OW16447   3.980   0.823   3.817
 5183SOL    HW116448   4.036   0.883   3.759
 5183SOL    HW216449   3.884   0.833   3.792
 5184SOL     OW16450   1.438   2.024   3.036
 5184SOL    HW116451   1.446   2.118   3.002
 5184SOL    HW216452   1.342   2.005   3.056
 5185SOL     OW16453   3.962   0.023   1.079
 5185SOL    HW116454   3.970   0.047   1.176
 5185SOL    HW216455   3.878   0.063   1.042
 5186SOL     OW16456   4.798   4.300   0.437
 5186SOL    HW116457   4.792   4.220   0.376
 5186SOL    HW216458   4.883   4.350   0.418
 5187SOL     OW16459   4.932   2.057   4.224
 5187SOL    HW116460   4.912   2.017   4.313
 5187SOL    HW216461   5.030   2.051   4.206
 5188SOL     OW16462   1.262   1.982   3.646
 5188SOL    HW116463   1.362   1.988   3.651
 5188SOL    HW216464   1.227   2.061   3.595
 5189SOL     OW16465   4.114   6.389   6.554
 5189SOL    HW116466   4.054   6.454   6.600
 5189SOL    HW216467   4.090   6.296   6.582
 5190SOL     OW16468   2.114   2.588   2.018
 5190SOL    HW116469   2.159   2.499   2.012
 5190SOL    HW216470   2.170   2.651   2.072
 5191SOL     OW16471   5.112   7.003   2.428
 5191SOL    HW116472   5.131   6.950   2.345
 5191SOL    HW216473   5.144   0.081   2.417
 5192SOL     OW16474   6.106   4.097   1.373
 5192SOL    HW116475   6.008   4.077   1.366
 5192SOL    HW216476   6.148   4.087   1.283
 5193SOL     OW16477   4.271   4.697   2.242
 5193SOL    HW116478   4.274   4.686   2.143
 5193SOL    HW216479   4.181   4.731   2.270
 5194SOL     OW16480   5.170   1.304   0.313
 5194SOL    HW116481   5.237   1.329   0.383
 5194SOL    HW216482   5.086   1.273   0.357
 5195SOL     OW16483   6.300   6.718   5.479
 5195SOL    HW116484   6.202   6.729   5.463
 5195SOL    HW216485   6.337   6.802   5.517
 5196SOL     OW16486   6.443   3.652   2.508
 5196SOL    HW116487   6.393   3.588   2.450
 5196SOL    HW216488   6.396   3.662   2.596
 5197SOL     OW16489   3.546   5.637   5.808
 5197SOL    HW116490   3.546   5.734   5.836
 5197SOL    HW216491   3.559   5.631   5.709
 5198SOL     OW16492   3.968   1.350   4.718
 5198SOL    HW116493   3.885   1.396   4.749
 5198SOL    HW216494   3.951   1.251   4.713
 5199SOL     OW16495   7.012   5.803   1.424
 5199SOL    HW116496   0.077   5.849   1.462
 5199SOL    HW216497   0.019   5.765   1.334
 5200SOL     OW16498   6.757   0.345   4.877
 5200SOL    HW116499   6.800   0.255   4.868
 5200SOL    HW216500   6.660   0.333   4.898
 5201SOL     OW16501   6.026   4.636   5.505
 5201SOL    HW116502   6.025   4.562   5.438
 5201SOL    HW216503   5.986   4.718   5.464
 5202SOL     OW16504   3.880   2.631   5.986
 5202SOL    HW116505   3.844   2.657   6.075
 5202SOL    HW216506   3.823   2.558   5.947
 5203SOL     OW16507   1.737   0.627   6.112
 5203SOL    HW116508   1.666   0.652   6.046
 5203SOL    HW216509   1.699   0.559   6.176
 5204SOL     OW16510   2.373   0.835   1.538
 5204SOL    HW116511   2.398   0.738   1.541
 5204SOL    HW216512   2.338   0.857   1.448
 5205SOL     OW16513   6.666   0.397   1.943
 5205SOL    HW116514   6.664   0.298   1.927
 5205SOL    HW216515   6.578   0.427   1.980
 5206SOL     OW16516   0.956   5.078   4.048
 5206SOL    HW116517   1.038   5.113   4.002
 5206SOL    HW216518   0.879   5.139   4.030
 5207SOL     OW16519   5.433   0.209   5.095
 5207SOL    HW116520   5.417   0.125   5.147
 5207SOL    HW216521   5.528   0.239   5.108
 5208SOL     OW16522   0.141   1.931   6.993
 5208SOL    HW116523   0.042   1.948   7.000
 5208SOL    HW216524   0.185   2.008   6.947
 5209SOL     OW16525   5.825   6.808   3.725
 5209SOL    HW116526   5.810   6.709   3.731
 5209SOL    HW216527   5.752   6.855   3.774
 5210SOL     OW16528   5.529   4.578   1.009
 5210SOL    HW116529   5.497   4.485   1.026
 5210SOL    HW216530   5.586   4.579   0.927
 5211SOL     OW16531   5.084   3.096   5.202
 5211SOL    HW116532   5.077   3.001   5.171
 5211SOL    HW216533   5.181   3.121   5.207
 5212SOL     OW16534   7.000   4.234   0.085
 5212SOL    HW116535   0.056   4.200   0.146
 5212SOL    HW216536   6.931   4.284   0.138
 5213SOL     OW16537   3.755   2.925   3.112
 5213SOL    HW116538   3.711   2.888   3.031
 5213SOL    HW216539   3.854   2.933   3.095
 5214SOL     OW16540   5.709   3.370   5.912
 5214SOL    HW116541   5.631   3.380   5.851
 5214SOL    HW216542   5.745   3.277   5.906
 5215SOL     OW16543   0.382   5.469   5.296
 5215SOL    HW116544   0.328   5.502   5.219
 5215SOL    HW216545   0.331   5.398   5.345
 5216SOL     OW16546   6.392   3.912   1.398
 5216SOL    HW116547   6.460   3.879   1.333
 5216SOL    HW216548   6.375   4.009   1.381
 5217SOL     OW16549   4.483   6.996   3.069
 5217SOL    HW116550   4.453   0.003   3.162
 5217SOL    HW216551   4.443   0.044   3.004
 5218SOL     OW16552   6.040   6.668   0.588
 5218SOL    HW116553   6.108   6.723   0.540
 5218SOL    HW216554   6.084   6.586   0.625
 5219SOL     OW16555   3.476   1.805   5.224
 5219SOL    HW116556   3.465   1.717   5.178
 5219SOL    HW216557   3.388   1.852   5.227
 5220SOL     OW16558   2.165   4.904   4.589
 5220SOL    HW116559   2.230   4.945   4.653
 5220SOL    HW216560   2.100   4.846   4.640
 5221SOL     OW16561   5.222   6.082   1.334
 5221SOL    HW116562   5.128   6.055   1.355
 5221SOL    HW216563   5.222   6.172   1.290
 5222SOL     OW16564   6.852   3.364   2.248
 5222SOL    HW116565   6.793   3.375   2.169
 5222SOL    HW216566   6.865   3.453   2.292
 5223SOL     OW16567   6.748   2.890   0.781
 5223SOL    HW116568   6.691   2.814   0.749
 5223SOL    HW216569   6.844   2.863   0.778
 5224SOL     OW16570   1.403   1.533   4.782
 5224SOL    HW116571   1.339   1.484   4.842
 5224SOL    HW216572   1.470   1.468   4.745
 5225SOL     OW16573   6.986   2.463   5.544
 5225SOL    HW116574   6.888   2.453   5.526
 5225SOL    HW216575   7.005   2.553   5.584
 5226SOL     OW16576   0.264   6.416   4.272
 5226SOL    HW116577   0.204   6.363   4.213
 5226SOL    HW216578   0.358   6.383   4.262
 5227SOL     OW16579   1.007   2.945   5.879
 5227SOL    HW116580   0.957   2.945   5.792
 5227SOL    HW216581   0.945   2.974   5.952
 5228SOL     OW16582   1.481   1.962   5.246
 5228SOL    HW116583   1.512   2.040   5.190
 5228SOL    HW216584   1.556   1.930   5.302
 5229SOL     OW16585   3.710   2.064   6.347
 5229SOL    HW116586   3.640   2.094   6.411
 5229SOL    HW216587   3.712   1.965   6.342
 5230SOL     OW16588   6.646   0.105   2.156
 5230SOL    HW116589   6.593   0.107   2.071
 5230SOL    HW216590   6.624   0.022   2.208
 5231SOL     OW16591   6.535   3.684   1.954
 5231SOL    HW116592   6.585   3.686   2.040
 5231SOL    HW216593   6.551   3.769   1.904
 5232SOL     OW16594   1.552   2.159   5.736
 5232SOL    HW116595   1.649   2.170   5.716
 5232SOL    HW216596   1.534   2.064   5.760
 5233SOL     OW16597   3.564   0.139   3.605
 5233SOL    HW116598   3.617   0.174   3.682
 5233SOL    HW216599   3.468   0.163   3.618
 5234SOL     OW16600   3.078   2.594   6.309
 5234SOL    HW116601   2.980   2.584   6.291
 5234SOL    HW216602   3.125   2.623   6.226
 5235SOL     OW16603   2.588   2.044   1.751
 5235SOL    HW116604   2.636   1.981   1.813
 5235SOL    HW216605   2.623   2.137   1.765
 5236SOL     OW16606   3.314   4.980   1.999
 5236SOL    HW116607   3.385   5.039   2.035
 5236SOL    HW216608   3.252   4.954   2.073
 5237SOL     OW16609   1.678   1.417   2.257
 5237SOL    HW116610   1.614   1.472   2.203
 5237SOL    HW216611   1.759   1.472   2.277
 5238SOL     OW16612   7.000   0.364   2.582
 5238SOL    HW116613   0.041   0.336   2.505
 5238SOL    HW216614   6.978   0.462   2.574
 5239SOL     OW16615   2.536   4.141   1.059
 5239SOL    HW116616   2.554   4.175   0.966
 5239SOL    HW216617   2.615   4.089   1.091
 5240SOL     OW16618   2.204   3.900   5.931
 5240SOL    HW116619   2.261   3.934   5.856
 5240SOL    HW216620   2.124   3.959   5.941
 5241SOL     OW16621   1.861   6.572   3.232
 5241SOL    HW116622   1.770   6.561   3.192
 5241SOL    HW216623   1.859   6.646   3.299
 5242SOL     OW16624   4.144   6.684   5.891
 5242SOL    HW116625   4.104   6.593   5.879
 5242SOL    HW216626   4.239   6.683   5.861
 5243SOL     OW16627   3.249   5.586   3.641
 5243SOL    HW116628   3.208   5.649   3.708
 5243SOL    HW216629   3.347   5.603   3.635
 5244SOL     OW16630   4.243   1.210   6.806
 5244SOL    HW116631   4.195   1.270   6.869
 5244SOL    HW216632   4.193   1.124   6.796
 5245SOL     OW16633   3.013   3.974   2.142
 5245SOL    HW116634   3.051   3.948   2.230
 5245SOL    HW216635   2.936   4.037   2.156
 5246SOL     OW16636   5.916   3.883   6.241
 5246SOL    HW116637   5.984   3.822   6.199
 5246SOL    HW216638   5.890   3.954   6.175
 5247SOL     OW16639   4.965   1.243   6.177
 5247SOL    HW116640   4.917   1.212   6.095
 5247SOL    HW216641   4.997   1.337   6.165
 5248SOL     OW16642   4.904   0.993   3.934
 5248SOL    HW116643   4.937   1.085   3.957
 5248SOL    HW216644   4.892   0.985   3.835
 5249SOL     OW16645   6.689   5.119   1.192
 5249SOL    HW116646   6.613   5.150   1.249
 5249SOL    HW216647   6.744   5.052   1.243
 5250SOL     OW16648   2.121   5.146   1.023
 5250SOL    HW116649   2.085   5.070   0.969
 5250SOL    HW216650   2.131   5.227   0.966
 5251SOL     OW16651   0.445   4.352   6.443
 5251SOL    HW116652   0.365   4.336   6.384
 5251SOL    HW216653   0.463   4.450   6.448
 5252SOL     OW16654   3.895   5.545   2.773
 5252SOL    HW116655   3.824   5.602   2.732
 5252SOL    HW216656   3.985   5.585   2.755
 5253SOL     OW16657   0.450   6.178   4.912
 5253SOL    HW116658   0.399   6.195   4.827
 5253SOL    HW216659   0.502   6.093   4.903
 5254SOL     OW16660   4.312   6.063   2.796
 5254SOL    HW116661   4.356   6.053   2.706
 5254SOL    HW216662   4.379   6.100   2.861
 5255SOL     OW16663   6.930   1.607   5.697
 5255SOL    HW116664   6.990   1.663   5.639
 5255SOL    HW216665   6.934   1.512   5.667
 5256SOL     OW16666   4.994   1.354   2.554
 5256SOL    HW116667   4.921   1.286   2.547
 5256SOL    HW216668   4.957   1.440   2.589
 5257SOL     OW16669   4.748   2.200   6.661
 5257SOL    HW116670   4.705   2.110   6.656
 5257SOL    HW216671   4.685   2.269   6.627
 5258SOL     OW16672   4.787   1.820   5.281
 5258SOL    HW116673   4.806   1.733   5.235
 5258SOL    HW216674   4.819   1.896   5.223
 5259SOL     OW16675   5.461   5.681   4.067
 5259SOL    HW116676   5.377   5.651   4.022
 5259SOL    HW216677   5.485   5.618   4.141
 5260SOL     OW16678   1.974   5.830   1.577
 5260SOL    HW116679   2.057   5.857   1.625
 5260SOL    HW216680   1.910   5.789   1.641
 5261SOL     OW16681   6.200   4.833   0.052
 5261SOL    HW116682   6.248   4.762   0.002
 5261SOL    HW216683   6.143   4.792   0.123
 5262SOL     OW16684   1.598   1.762   1.720
 5262SOL    HW116685   1.642   1.742   1.632
 5262SOL    HW216686   1.518   1.704   1.732
 5263SOL     OW16687   1.957   5.973   3.260
 5263SOL    HW116688   1.943   5.898   3.195
 5263SOL    HW216689   1.932   6.059   3.217
 5264SOL     OW16690   0.083   3.060   2.039
 5264SOL    HW116691   7.011   3.020   2.012
 5264SOL    HW216692   0.067   3.141   2.096
 5265SOL     OW16693   6.810   6.311   5.286
 5265SOL    HW116694   6.873   6.379   5.248
 5265SOL    HW216695   6.761   6.350   5.364
 5266SOL     OW16696   1.407   0.032   5.917
 5266SOL    HW116697   1.369   6.954   5.917
 5266SOL    HW216698   1.446   0.051   5.827
 5267SOL     OW16699   5.566   1.502   4.468
 5267SOL    HW116700   5.525   1.439   4.402
 5267SOL    HW216701   5.496   1.565   4.501
 5268SOL     OW16702   5.164   0.285   5.971
 5268SOL    HW116703   5.240   0.312   5.912
 5268SOL    HW216704   5.078   0.314   5.929
 5269SOL     OW16705   1.150   0.152   4.381
 5269SOL    HW116706   1.178   0.079   4.443
 5269SOL    HW216707   1.061   0.130   4.342
 5270SOL     OW16708   0.895   2.086   6.065
 5270SOL    HW116709   0.912   2.090   5.967
 5270SOL    HW216710   0.966   2.139   6.114
 5271SOL     OW16711   1.469   5.684   4.527
 5271SOL    HW116712   1.407   5.760   4.549
 5271SOL    HW216713   1.520   5.658   4.609
 5272SOL     OW16714   4.397   0.665   6.375
 5272SOL    HW116715   4.430   0.756   6.348
 5272SOL    HW216716   4.317   0.641   6.321
 5273SOL     OW16717   3.089   1.494   2.897
 5273SOL    HW116718   3.104   1.580   2.848
 5273SOL    HW216719   3.162   1.481   2.964
 5274SOL     OW16720   5.710   4.840   1.383
 5274SOL    HW116721   5.669   4.753   1.357
 5274SOL    HW216722   5.787   4.860   1.322
 5275SOL     OW16723   5.311   1.793   6.071
 5275SOL    HW116724   5.228   1.848   6.067
 5275SOL    HW216725   5.385   1.842   6.025
 5276SOL     OW16726   3.813   6.384   1.492
 5276SOL    HW116727   3.764   6.347   1.414
 5276SOL    HW216728   3.833   6.311   1.558
 5277SOL     OW16729   2.159   3.238   1.809
 5277SOL    HW116730   2.187   3.290   1.889
 5277SOL    HW216731   2.059   3.230   1.808
 5278SOL     OW16732   3.727   3.294   2.459
 5278SOL    HW116733   3.770   3.302   2.369
 5278SOL    HW216734   3.661   3.220   2.458
 5279SOL     OW16735   1.862   5.977   2.793
 5279SOL    HW116736   1.789   5.939   2.736
 5279SOL    HW216737   1.950   5.951   2.755
 5280SOL     OW16738   3.903   1.089   4.431
 5280SOL    HW116739   3.901   1.100   4.530
 5280SOL    HW216740   3.811   1.101   4.394
 5281SOL     OW16741   6.633   2.210   3.681
 5281SOL    HW116742   6.697   2.195   3.605
 5281SOL    HW216743   6.557   2.144   3.673
 5282SOL     OW16744   4.765   2.336   1.252
 5282SOL    HW116745   4.805   2.427   1.265
 5282SOL    HW216746   4.737   2.325   1.157
 5283SOL     OW16747   4.801   4.536   6.155
 5283SOL    HW116748   4.820   4.440   6.177
 5283SOL    HW216749   4.847   4.560   6.070
 5284SOL     OW16750   4.707   2.691   3.719
 5284SOL    HW116751   4.744   2.771   3.766
 5284SOL    HW216752   4.695   2.616   3.784
 5285SOL     OW16753   4.176   6.282   2.564
 5285SOL    HW116754   4.110   6.350   2.535
 5285SOL    HW216755   4.230   6.317   2.640
 5286SOL     OW16756   1.984   4.902   1.746
 5286SOL    HW116757   1.910   4.835   1.737
 5286SOL    HW216758   1.961   4.967   1.819
 5287SOL     OW16759   1.141   1.113   2.337
 5287SOL    HW116760   1.101   1.199   2.303
 5287SOL    HW216761   1.106   1.095   2.429
 5288SOL     OW16762   4.369   0.191   1.344
 5288SOL    HW116763   4.430   0.132   1.397
 5288SOL    HW216764   4.275   0.160   1.356
 5289SOL     OW16765   1.268   6.337   1.126
 5289SOL    HW116766   1.235   6.332   1.032
 5289SOL    HW216767   1.367   6.350   1.127
 5290SOL     OW16768   5.658   6.010   0.247
 5290SOL    HW116769   5.682   5.915   0.229
 5290SOL    HW216770   5.679   6.033   0.343
 5291SOL     OW16771   0.829   5.975   0.021
 5291SOL    HW116772   0.914   5.949   6.991
 5291SOL    HW216773   0.752   5.929   6.992
 5292SOL     OW16774   5.422   1.853   0.696
 5292SOL    HW116775   5.416   1.953   0.692
 5292SOL    HW216776   5.331   1.815   0.715
 5293SOL     OW16777   2.054   1.285   4.146
 5293SOL    HW116778   1.964   1.242   4.149
 5293SOL    HW216779   2.046   1.376   4.105
 5294SOL     OW16780   3.857   2.598   6.419
 5294SOL    HW116781   3.837   2.502   6.396
 5294SOL    HW216782   3.842   2.612   6.517
 5295SOL     OW16783   6.723   1.311   2.506
 5295SOL    HW116784   6.713   1.308   2.606
 5295SOL    HW216785   6.660   1.379   2.468
 5296SOL     OW16786   0.354   2.712   6.371
 5296SOL    HW116787   0.422   2.649   6.335
 5296SOL    HW216788   0.317   2.676   6.457
 5297SOL     OW16789   0.991   2.322   2.107
 5297SOL    HW116790   1.065   2.288   2.049
 5297SOL    HW216791   0.910   2.340   2.052
 5298SOL     OW16792   1.292   4.510   1.652
 5298SOL    HW116793   1.322   4.597   1.690
 5298SOL    HW216794   1.195   4.516   1.628
 5299SOL     OW16795   3.298   0.192   0.143
 5299SOL    HW116796   3.374   0.254   0.126
 5299SOL    HW216797   3.310   0.146   0.231
 5300SOL     OW16798   0.154   5.014   3.641
 5300SOL    HW116799   0.061   5.042   3.617
 5300SOL    HW216800   0.175   5.044   3.734
 5301SOL     OW16801   5.155   0.419   6.611
 5301SOL    HW116802   5.134   0.323   6.626
 5301SOL    HW216803   5.249   0.428   6.579
 5302SOL     OW16804   6.604   4.166   3.947
 5302SOL    HW116805   6.527   4.218   3.910
 5302SOL    HW216806   6.686   4.185   3.893
 5303SOL     OW16807   1.590   4.816   3.288
 5303SOL    HW116808   1.564   4.766   3.371
 5303SOL    HW216809   1.676   4.863   3.303
 5304SOL     OW16810   4.306   2.872   5.602
 5304SOL    HW116811   4.268   2.896   5.514
 5304SOL    HW216812   4.390   2.924   5.618
 5305SOL     OW16813   3.440   1.597   4.555
 5305SOL    HW116814   3.395   1.685   4.569
 5305SOL    HW216815   3.429   1.568   4.460
 5306SOL     OW16816   2.502   6.620   4.183
 5306SOL    HW116817   2.463   6.693   4.238
 5306SOL    HW216818   2.429   6.575   4.131
 5307SOL     OW16819   5.120   6.976   0.127
 5307SOL    HW116820   5.128   0.042   0.185
 5307SOL    HW216821   5.097   6.897   0.184
 5308SOL     OW16822   6.209   1.778   2.043
 5308SOL    HW116823   6.302   1.748   2.065
 5308SOL    HW216824   6.169   1.716   1.976
 5309SOL     OW16825   3.935   3.507   5.188
 5309SOL    HW116826   3.919   3.444   5.264
 5309SOL    HW216827   3.990   3.462   5.118
 5310SOL     OW16828   5.254   2.782   1.036
 5310SOL    HW116829   5.206   2.800   1.122
 5310SOL    HW216830   5.293   2.690   1.038
 5311SOL     OW16831   0.084   6.410   0.158
 5311SOL    HW116832   0.135   6.337   0.114
 5311SOL    HW216833   0.138   6.450   0.232
 5312SOL     OW16834   0.302   3.115   1.356
 5312SOL    HW116835   0.270   3.180   1.424
 5312SOL    HW216836   0.400   3.096   1.372
 5313SOL     OW16837   0.347   6.089   0.575
 5313SOL    HW116838   0.256   6.106   0.611
 5313SOL    HW216839   0.363   6.147   0.495
 5314SOL     OW16840   3.552   5.161   1.521
 5314SOL    HW116841   3.547   5.112   1.608
 5314SOL    HW216842   3.464   5.203   1.500
 5315SOL     OW16843   5.785   1.446   2.022
 5315SOL    HW116844   5.783   1.485   1.930
 5315SOL    HW216845   5.868   1.476   2.069
 5316SOL     OW16846   5.516   5.464   4.198
 5316SOL    HW116847   5.491   5.367   4.201
 5316SOL    HW216848   5.599   5.479   4.251
 5317SOL     OW16849   6.616   5.151   2.014
 5317SOL    HW116850   6.533   5.197   1.984
 5317SOL    HW216851   6.696   5.195   1.973
 5318SOL     OW16852   0.460   2.487   3.742
 5318SOL    HW116853   0.399   2.465   3.818
 5318SOL    HW216854   0.426   2.443   3.659
 5319SOL     OW16855   3.129   6.533   2.997
 5319SOL    HW116856   3.151   6.510   3.092
 5319SOL    HW216857   3.040   6.492   2.973
 5320SOL     OW16858   6.886   3.125   6.485
 5320SOL    HW116859   6.796   3.081   6.496
 5320SOL    HW216860   6.875   3.224   6.489
 5321SOL     OW16861   2.742   4.202   6.185
 5321SOL    HW116862   2.682   4.126   6.209
 5321SOL    HW216863   2.828   4.194   6.236
 5322SOL     OW16864   2.142   5.886   0.871
 5322SOL    HW116865   2.197   5.866   0.952
 5322SOL    HW216866   2.118   5.983   0.870
 5323SOL     OW16867   5.419   3.212   0.264
 5323SOL    HW116868   5.358   3.184   0.339
 5323SOL    HW216869   5.513   3.218   0.298
 5324SOL     OW16870   4.392   3.420   1.174
 5324SOL    HW116871   4.345   3.444   1.259
 5324SOL    HW216872   4.331   3.364   1.118
 5325SOL     OW16873   3.144   6.293   5.625
 5325SOL    HW116874   3.180   6.357   5.693
 5325SOL    HW216875   3.070   6.337   5.574
 5326SOL     OW16876   0.381   0.491   2.297
 5326SOL    HW116877   0.464   0.438   2.316
 5326SOL    HW216878   0.404   0.589   2.292
 5327SOL     OW16879   6.309   0.401   4.026
 5327SOL    HW116880   6.307   0.457   3.944
 5327SOL    HW216881   6.332   0.458   4.105
 5328SOL     OW16882   3.701   4.992   6.924
 5328SOL    HW116883   3.772   4.937   6.880
 5328SOL    HW216884   3.620   4.996   6.865
 5329SOL     OW16885   0.405   5.983   6.479
 5329SOL    HW116886   0.404   5.912   6.408
 5329SOL    HW216887   0.465   6.058   6.450
 5330SOL     OW16888   3.960   5.017   0.542
 5330SOL    HW116889   4.025   4.965   0.598
 5330SOL    HW216890   3.937   4.965   0.460
 5331SOL     OW16891   5.651   1.610   6.501
 5331SOL    HW116892   5.636   1.699   6.545
 5331SOL    HW216893   5.623   1.615   6.405
 5332SOL     OW16894   6.461   2.931   6.825
 5332SOL    HW116895   6.486   2.859   6.890
 5332SOL    HW216896   6.507   3.016   6.850
 5333SOL     OW16897   1.385   0.215   3.914
 5333SOL    HW116898   1.339   0.233   4.002
 5333SOL    HW216899   1.374   0.294   3.854
 5334SOL     OW16900   3.056   6.125   1.487
 5334SOL    HW116901   3.114   6.053   1.447
 5334SOL    HW216902   3.025   6.186   1.414
 5335SOL     OW16903   6.982   5.173   1.861
 5335SOL    HW116904   6.894   5.220   1.858
 5335SOL    HW216905   0.038   5.230   1.819
 5336SOL     OW16906   1.751   3.695   5.091
 5336SOL    HW116907   1.701   3.720   5.008
 5336SOL    HW216908   1.707   3.616   5.134
 5337SOL     OW16909   6.738   3.290   0.689
 5337SOL    HW116910   6.827   3.261   0.723
 5337SOL    HW216911   6.748   3.369   0.629
 5338SOL     OW16912   0.136   3.674   0.812
 5338SOL    HW116913   0.213   3.696   0.751
 5338SOL    HW216914   0.162   3.599   0.872
 5339SOL     OW16915   5.581   2.870   2.991
 5339SOL    HW116916   5.663   2.887   2.936
 5339SOL    HW216917   5.501   2.873   2.932
 5340SOL     OW16918   4.896   3.271   1.309
 5340SOL    HW116919   4.981   3.323   1.318
 5340SOL    HW216920   4.819   3.333   1.298
 5341SOL     OW16921   4.836   4.604   3.450
 5341SOL    HW116922   4.791   4.690   3.475
 5341SOL    HW216923   4.885   4.616   3.364
 5342SOL     OW16924   6.091   5.849   4.948
 5342SOL    HW116925   6.131   5.884   4.862
 5342SOL    HW216926   6.033   5.920   4.988
 5343SOL     OW16927   3.501   3.211   6.790
 5343SOL    HW116928   3.426   3.187   6.851
 5343SOL    HW216929   3.546   3.128   6.758
 5344SOL     OW16930   6.645   2.144   6.670
 5344SOL    HW116931   6.550   2.121   6.692
 5344SOL    HW216932   6.705   2.070   6.701
 5345SOL     OW16933   3.251   1.842   0.390
 5345SOL    HW116934   3.220   1.827   0.484
 5345SOL    HW216935   3.345   1.810   0.381
 5346SOL     OW16936   2.665   6.637   3.430
 5346SOL    HW116937   2.616   6.557   3.394
 5346SOL    HW216938   2.620   6.669   3.513
 5347SOL     OW16939   5.882   1.551   5.465
 5347SOL    HW116940   5.912   1.477   5.525
 5347SOL    HW216941   5.951   1.568   5.394
 5348SOL     OW16942   4.690   2.801   5.469
 5348SOL    HW116943   4.634   2.861   5.412
 5348SOL    HW216944   4.674   2.821   5.565
 5349SOL     OW16945   0.579   3.952   0.812
 5349SOL    HW116946   0.639   3.876   0.837
 5349SOL    HW216947   0.605   4.034   0.863
 5350SOL     OW16948   0.986   6.494   6.085
 5350SOL    HW116949   1.081   6.523   6.080
 5350SOL    HW216950   0.927   6.567   6.051
 5351SOL     OW16951   0.291   5.822   3.696
 5351SOL    HW116952   0.370   5.872   3.660
 5351SOL    HW216953   0.269   5.745   3.636
 5352SOL     OW16954   1.069   2.546   6.175
 5352SOL    HW116955   0.999   2.503   6.118
 5352SOL    HW216956   1.046   2.532   6.272
 5353SOL     OW16957   3.023   6.837   3.917
 5353SOL    HW116958   3.090   6.909   3.901
 5353SOL    HW216959   2.992   6.841   4.012
 5354SOL     OW16960   3.874   6.017   1.992
 5354SOL    HW116961   3.949   5.964   2.033
 5354SOL    HW216962   3.807   6.039   2.063
 5355SOL     OW16963   5.188   5.348   5.531
 5355SOL    HW116964   5.163   5.406   5.454
 5355SOL    HW216965   5.252   5.397   5.590
 5356SOL     OW16966   0.698   6.998   1.522
 5356SOL    HW116967   0.764   6.925   1.539
 5356SOL    HW216968   0.703   0.050   1.595
 5357SOL     OW16969   6.320   3.222   2.449
 5357SOL    HW116970   6.289   3.175   2.532
 5357SOL    HW216971   6.264   3.303   2.434
 5358SOL     OW16972   6.073   0.986   6.668
 5358SOL    HW116973   6.097   1.000   6.764
 5358SOL    HW216974   6.112   1.059   6.612
 5359SOL     OW16975   2.382   2.580   6.683
 5359SOL    HW116976   2.421   2.653   6.628
 5359SOL    HW216977   2.453   2.540   6.741
 5360SOL     OW16978   5.926   5.864   3.537
 5360SOL    HW116979   5.900   5.956   3.565
 5360SOL    HW216980   5.868   5.834   3.461
 5361SOL     OW16981   1.825   3.571   2.940
 5361SOL    HW116982   1.891   3.593   3.012
 5361SOL    HW216983   1.865   3.593   2.851
 5362SOL     OW16984   6.282   1.199   4.207
 5362SOL    HW116985   6.231   1.190   4.122
 5362SOL    HW216986   6.219   1.228   4.280
 5363SOL     OW16987   6.305   5.353   4.327
 5363SOL    HW116988   6.269   5.288   4.260
 5363SOL    HW216989   6.248   5.436   4.328
 5364SOL     OW16990   4.473   2.362   1.705
 5364SOL    HW116991   4.436   2.298   1.771
 5364SOL    HW216992   4.518   2.438   1.752
 5365SOL     OW16993   3.312   3.827   5.376
 5365SOL    HW116994   3.284   3.915   5.335
 5365SOL    HW216995   3.329   3.840   5.474
 5366SOL     OW16996   0.446   4.404   3.261
 5366SOL    HW116997   0.501   4.451   3.331
 5366SOL    HW216998   0.400   4.326   3.303
 5367SOL     OW16999   6.152   6.162   1.303
 5367SOL    HW117000   6.203   6.181   1.386
 5367SOL    HW217001   6.211   6.117   1.236
 5368SOL     OW17002   0.532   5.451   4.649
 5368SOL    HW117003   0.567   5.372   4.599
 5368SOL    HW217004   0.495   5.421   4.737
 5369SOL     OW17005   4.441   6.626   2.766
 5369SOL    HW117006   4.485   6.682   2.836
 5369SOL    HW217007   4.379   6.682   2.712
 5370SOL     OW17008   2.625   2.754   0.795
 5370SOL    HW117009   2.637   2.662   0.759
 5370SOL    HW217010   2.689   2.768   0.871
 5371SOL     OW17011   6.084   4.937   3.533
 5371SOL    HW117012   6.124   4.986   3.455
 5371SOL    HW217013   5.989   4.965   3.545
 5372SOL     OW17014   1.489   6.965   3.869
 5372SOL    HW117015   1.414   6.921   3.819
 5372SOL    HW217016   1.480   0.049   3.863
 5373SOL     OW17017   3.754   0.304   0.050
 5373SOL    HW117018   3.828   0.360   0.088
 5373SOL    HW217019   3.716   0.349   6.984
 5374SOL     OW17020   1.343   4.071   1.513
 5374SOL    HW117021   1.406   4.035   1.445
 5374SOL    HW217022   1.261   4.106   1.468
 5375SOL     OW17023   2.525   4.590   4.952
 5375SOL    HW117024   2.526   4.659   5.024
 5375SOL    HW217025   2.597   4.523   4.969
 5376SOL     OW17026   0.969   0.895   1.535
 5376SOL    HW117027   1.012   0.984   1.522
 5376SOL    HW217028   1.038   0.823   1.522
 5377SOL     OW17029   1.027   2.397   2.353
 5377SOL    HW117030   0.948   2.392   2.414
 5377SOL    HW217031   0.998   2.376   2.259
 5378SOL     OW17032   5.506   6.588   3.093
 5378SOL    HW117033   5.423   6.631   3.056
 5378SOL    HW217034   5.540   6.520   3.027
 5379SOL     OW17035   2.447   2.284   4.254
 5379SOL    HW117036   2.420   2.205   4.199
 5379SOL    HW217037   2.485   2.253   4.341
 5380SOL     OW17038   5.086   6.445   1.753
 5380SOL    HW117039   5.033   6.479   1.675
 5380SOL    HW217040   5.105   6.521   1.815
 5381SOL     OW17041   3.496   2.082   2.750
 5381SOL    HW117042   3.508   1.984   2.766
 5381SOL    HW217043   3.431   2.119   2.816
 5382SOL     OW17044   4.621   0.473   2.953
 5382SOL    HW117045   4.641   0.543   2.884
 5382SOL    HW217046   4.635   0.512   3.044
 5383SOL     OW17047   2.671   3.823   5.286
 5383SOL    HW117048   2.576   3.838   5.260
 5383SOL    HW217049   2.725   3.904   5.264
 5384SOL     OW17050   4.929   6.633   6.223
 5384SOL    HW117051   4.901   6.560   6.162
 5384SOL    HW217052   4.934   6.598   6.317
 5385SOL     OW17053   3.480   3.717   0.499
 5385SOL    HW117054   3.554   3.680   0.444
 5385SOL    HW217055   3.485   3.680   0.592
 5386SOL     OW17056   4.305   4.604   3.428
 5386SOL    HW117057   4.337   4.511   3.441
 5386SOL    HW217058   4.304   4.626   3.330
 5387SOL     OW17059   1.135   2.358   4.014
 5387SOL    HW117060   1.095   2.271   4.042
 5387SOL    HW217061   1.063   2.420   3.983
 5388SOL     OW17062   6.945   6.197   3.620
 5388SOL    HW117063   6.965   6.105   3.655
 5388SOL    HW217064   6.950   6.196   3.520
 5389SOL     OW17065   5.324   1.738   4.416
 5389SOL    HW117066   5.311   1.650   4.462
 5389SOL    HW217067   5.391   1.727   4.342
 5390SOL     OW17068   5.747   3.026   3.463
 5390SOL    HW117069   5.682   3.039   3.538
 5390SOL    HW217070   5.840   3.046   3.495
 5391SOL     OW17071   4.347   2.775   1.339
 5391SOL    HW117072   4.436   2.737   1.364
 5391SOL    HW217073   4.334   2.861   1.388
 5392SOL     OW17074   5.247   0.823   4.438
 5392SOL    HW117075   5.269   0.778   4.352
 5392SOL    HW217076   5.179   0.769   4.488
 5393SOL     OW17077   3.983   1.880   3.121
 5393SOL    HW117078   3.994   1.979   3.124
 5393SOL    HW217079   3.900   1.853   3.171
 5394SOL     OW17080   6.978   2.476   2.793
 5394SOL    HW117081   6.880   2.466   2.810
 5394SOL    HW217082   0.010   2.391   2.814
 5395SOL     OW17083   0.065   1.196   0.926
 5395SOL    HW117084   0.046   1.287   0.890
 5395SOL    HW217085   0.089   1.202   1.023
 5396SOL     OW17086   4.705   2.649   0.176
 5396SOL    HW117087   4.711   2.591   0.095
 5396SOL    HW217088   4.609   2.670   0.195
 5397SOL     OW17089   0.160   0.223   1.855
 5397SOL    HW117090   0.185   0.276   1.936
 5397SOL    HW217091   0.214   0.139   1.853
 5398SOL     OW17092   6.034   1.982   3.262
 5398SOL    HW117093   5.950   1.998   3.209
 5398SOL    HW217094   6.097   2.058   3.248
 5399SOL     OW17095   2.938   2.971   0.152
 5399SOL    HW117096   2.875   3.041   0.118
 5399SOL    HW217097   2.893   2.881   0.147
 5400SOL     OW17098   5.655   2.519   1.017
 5400SOL    HW117099   5.646   2.614   1.046
 5400SOL    HW217100   5.585   2.463   1.063
 5401SOL     OW17101   4.939   3.591   1.497
 5401SOL    HW117102   4.884   3.649   1.437
 5401SOL    HW217103   4.887   3.508   1.520
 5402SOL     OW17104   1.203   6.312   1.773
 5402SOL    HW117105   1.214   6.212   1.778
 5402SOL    HW217106   1.151   6.343   1.852
 5403SOL     OW17107   5.955   2.183   5.669
 5403SOL    HW117108   5.892   2.184   5.592
 5403SOL    HW217109   6.007   2.269   5.670
 5404SOL     OW17110   4.678   6.787   0.586
 5404SOL    HW117111   4.726   6.852   0.526
 5404SOL    HW217112   4.638   6.837   0.662
 5405SOL     OW17113   0.063   5.392   6.433
 5405SOL    HW117114   0.044   5.343   6.348
 5405SOL    HW217115   7.013   5.466   6.445
 5406SOL     OW17116   2.127   1.036   5.561
 5406SOL    HW117117   2.133   1.043   5.661
 5406SOL    HW217118   2.127   0.940   5.534
 5407SOL     OW17119   2.687   0.653   2.705
 5407SOL    HW117120   2.641   0.620   2.623
 5407SOL    HW217121   2.618   0.679   2.773
 5408SOL     OW17122   1.387   2.102   4.457
 5408SOL    HW117123   1.391   2.194   4.496
 5408SOL    HW217124   1.369   2.036   4.530
 5409SOL     OW17125   0.661   3.611   2.726
 5409SOL    HW117126   0.697   3.520   2.707
 5409SOL    HW217127   0.567   3.617   2.693
 5410SOL     OW17128   6.345   1.891   0.255
 5410SOL    HW117129   6.271   1.824   0.249
 5410SOL    HW217130   6.310   1.981   0.229
 5411SOL     OW17131   3.274   5.184   1.536
 5411SOL    HW117132   3.247   5.262   1.479
 5411SOL    HW217133   3.194   5.149   1.584
 5412SOL     OW17134   1.339   2.322   5.814
 5412SOL    HW117135   1.427   2.276   5.799
 5412SOL    HW217136   1.346   2.380   5.895
 5413SOL     OW17137   6.667   5.424   5.546
 5413SOL    HW117138   6.700   5.419   5.641
 5413SOL    HW217139   6.706   5.504   5.502
 5414SOL     OW17140   5.580   5.561   6.322
 5414SOL    HW117141   5.592   5.608   6.409
 5414SOL    HW217142   5.606   5.621   6.246
 5415SOL     OW17143   1.815   1.488   6.397
 5415SOL    HW117144   1.852   1.506   6.306
 5415SOL    HW217145   1.891   1.474   6.461
 5416SOL     OW17146   3.548   5.663   6.483
 5416SOL    HW117147   3.635   5.619   6.502
 5416SOL    HW217148   3.495   5.607   6.419
 5417SOL     OW17149   5.631   0.275   2.073
 5417SOL    HW117150   5.619   0.188   2.026
 5417SOL    HW217151   5.705   0.266   2.141
 5418SOL     OW17152   0.618   3.693   5.222
 5418SOL    HW117153   0.713   3.704   5.194
 5418SOL    HW217154   0.566   3.774   5.194
 5419SOL     OW17155   4.004   1.591   5.894
 5419SOL    HW117156   4.095   1.550   5.902
 5419SOL    HW217157   4.004   1.656   5.818
 5420SOL     OW17158   2.344   1.972   0.928
 5420SOL    HW117159   2.345   2.034   1.006
 5420SOL    HW217160   2.422   1.992   0.868
 5421SOL     OW17161   4.267   4.995   1.561
 5421SOL    HW117162   4.269   5.086   1.521
 5421SOL    HW217163   4.323   4.933   1.506
 5422SOL     OW17164   2.934   6.351   3.603
 5422SOL    HW117165   2.863   6.418   3.579
 5422SOL    HW217166   3.017   6.399   3.630
 5423SOL     OW17167   4.139   6.874   1.905
 5423SOL    HW117168   4.051   6.834   1.929
 5423SOL    HW217169   4.126   6.944   1.835
 5424SOL     OW17170   3.702   3.662   5.303
 5424SOL    HW117171   3.618   3.611   5.318
 5424SOL    HW217172   3.760   3.614   5.237
 5425SOL     OW17173   1.222   5.076   5.408
 5425SOL    HW117174   1.275   5.001   5.449
 5425SOL    HW217175   1.267   5.163   5.428
 5426SOL     OW17176   1.035   4.301   6.881
 5426SOL    HW117177   0.965   4.290   6.812
 5426SOL    HW217178   1.092   4.219   6.886
 5427SOL     OW17179   4.116   2.044   6.680
 5427SOL    HW117180   4.124   2.135   6.641
 5427SOL    HW217181   4.158   2.043   6.771
 5428SOL     OW17182   4.096   5.877   2.739
 5428SOL    HW117183   4.170   5.922   2.788
 5428SOL    HW217184   4.009   5.895   2.785
 5429SOL     OW17185   2.545   6.284   4.158
 5429SOL    HW117186   2.490   6.201   4.156
 5429SOL    HW217187   2.488   6.362   4.130
 5430SOL     OW17188   1.604   4.498   5.219
 5430SOL    HW117189   1.691   4.539   5.193
 5430SOL    HW217190   1.618   4.403   5.248
 5431SOL     OW17191   5.171   4.779   1.434
 5431SOL    HW117192   5.199   4.869   1.466
 5431SOL    HW217193   5.241   4.712   1.458
 5432SOL     OW17194   0.306   5.226   6.192
 5432SOL    HW117195   0.331   5.145   6.139
 5432SOL    HW217196   0.207   5.240   6.186
 5433SOL     OW17197   2.549   0.391   1.512
 5433SOL    HW117198   2.546   0.490   1.499
 5433SOL    HW217199   2.644   0.360   1.517
 5434SOL     OW17200   5.228   5.801   4.434
 5434SOL    HW117201   5.191   5.868   4.499
 5434SOL    HW217202   5.153   5.751   4.392
 5435SOL     OW17203   6.495   3.904   6.498
 5435SOL    HW117204   6.490   3.928   6.401
 5435SOL    HW217205   6.455   3.814   6.513
 5436SOL     OW17206   1.555   4.224   1.790
 5436SOL    HW117207   1.465   4.263   1.770
 5436SOL    HW217208   1.610   4.291   1.839
 5437SOL     OW17209   3.595   6.372   6.741
 5437SOL    HW117210   3.499   6.345   6.729
 5437SOL    HW217211   3.599   6.466   6.775
 5438SOL     OW17212   5.872   6.806   2.703
 5438SOL    HW117213   5.972   6.799   2.695
 5438SOL    HW217214   5.833   6.839   2.618
 5439SOL     OW17215   1.612   3.790   1.492
 5439SOL    HW117216   1.699   3.741   1.493
 5439SOL    HW217217   1.601   3.841   1.578
 5440SOL     OW17218   6.323   0.148   4.257
 5440SOL    HW117219   6.397   0.215   4.267
 5440SOL    HW217220   6.263   0.176   4.182
 5441SOL     OW17221   5.613   1.495   5.085
 5441SOL    HW117222   5.559   1.419   5.048
 5441SOL    HW217223   5.661   1.464   5.168
 5442SOL     OW17224   2.428   0.241   6.580
 5442SOL    HW117225   2.359   0.177   6.615
 5442SOL    HW217226   2.516   0.195   6.572
 5443SOL     OW17227   5.672   0.494   3.800
 5443SOL    HW117228   5.666   0.553   3.720
 5443SOL    HW217229   5.582   0.455   3.820
 5444SOL     OW17230   1.272   0.922   5.978
 5444SOL    HW117231   1.201   0.933   6.048
 5444SOL    HW217232   1.296   0.825   5.970
 5445SOL     OW17233   5.808   6.721   5.115
 5445SOL    HW117234   5.763   6.780   5.182
 5445SOL    HW217235   5.760   6.728   5.027
 5446SOL     OW17236   1.535   5.299   5.708
 5446SOL    HW117237   1.512   5.284   5.804
 5446SOL    HW217238   1.580   5.218   5.670
 5447SOL     OW17239   6.409   1.988   1.392
 5447SOL    HW117240   6.494   1.959   1.347
 5447SOL    HW217241   6.411   1.962   1.488
 5448SOL     OW17242   6.563   4.761   1.456
 5448SOL    HW117243   6.581   4.674   1.410
 5448SOL    HW217244   6.578   4.750   1.554
 5449SOL     OW17245   2.069   6.969   2.400
 5449SOL    HW117246   2.039   6.989   2.307
 5449SOL    HW217247   2.112   6.879   2.403
 5450SOL     OW17248   4.544   5.566   1.852
 5450SOL    HW117249   4.488   5.648   1.859
 5450SOL    HW217250   4.623   5.585   1.794
 5451SOL     OW17251   0.666   6.123   3.892
 5451SOL    HW117252   0.645   6.185   3.967
 5451SOL    HW217253   0.617   6.037   3.906
 5452SOL     OW17254   1.899   4.062   2.987
 5452SOL    HW117255   1.814   4.019   3.017
 5452SOL    HW217256   1.922   4.029   2.895
 5453SOL     OW17257   6.080   4.837   4.537
 5453SOL    HW117258   6.041   4.862   4.626
 5453SOL    HW217259   6.098   4.920   4.484
 5454SOL     OW17260   5.764   3.869   2.372
 5454SOL    HW117261   5.777   3.858   2.471
 5454SOL    HW217262   5.803   3.790   2.325
 5455SOL     OW17263   2.463   2.074   3.347
 5455SOL    HW117264   2.535   2.006   3.363
 5455SOL    HW217265   2.487   2.129   3.267
 5456SOL     OW17266   5.368   2.508   0.717
 5456SOL    HW117267   5.439   2.468   0.661
 5456SOL    HW217268   5.282   2.460   0.702
 5457SOL     OW17269   6.591   1.776   0.179
 5457SOL    HW117270   6.507   1.815   0.218
 5457SOL    HW217271   6.665   1.843   0.188
 5458SOL     OW17272   6.178   5.235   5.719
 5458SOL    HW117273   6.115   5.303   5.682
 5458SOL    HW217274   6.262   5.234   5.665
 5459SOL     OW17275   2.412   3.510   5.324
 5459SOL    HW117276   2.504   3.546   5.332
 5459SOL    HW217277   2.412   3.413   5.348
 5460SOL     OW17278   0.646   0.656   1.360
 5460SOL    HW117279   0.558   0.694   1.333
 5460SOL    HW217280   0.632   0.583   1.427
 5461SOL     OW17281   6.026   1.883   6.762
 5461SOL    HW117282   5.987   1.884   6.670
 5461SOL    HW217283   6.119   1.847   6.758
 5462SOL     OW17284   5.304   5.350   6.181
 5462SOL    HW117285   5.223   5.403   6.156
 5462SOL    HW217286   5.384   5.386   6.133
 5463SOL     OW17287   1.749   5.412   6.461
 5463SOL    HW117288   1.839   5.416   6.418
 5463SOL    HW217289   1.694   5.491   6.433
 5464SOL     OW17290   2.063   5.676   4.198
 5464SOL    HW117291   2.057   5.576   4.196
 5464SOL    HW217292   2.092   5.709   4.109
 5465SOL     OW17293   0.776   0.693   4.848
 5465SOL    HW117294   0.709   0.763   4.872
 5465SOL    HW217295   0.793   0.635   4.928
 5466SOL     OW17296   4.772   2.469   5.085
 5466SOL    HW117297   4.810   2.476   4.993
 5466SOL    HW217298   4.837   2.506   5.151
 5467SOL     OW17299   6.379   3.150   3.966
 5467SOL    HW117300   6.312   3.183   4.032
 5467SOL    HW217301   6.400   3.223   3.901
 5468SOL     OW17302   0.335   2.368   1.510
 5468SOL    HW117303   0.356   2.330   1.420
 5468SOL    HW217304   0.394   2.324   1.578
 5469SOL     OW17305   3.887   1.810   4.015
 5469SOL    HW117306   3.805   1.792   4.070
 5469SOL    HW217307   3.955   1.857   4.071
 5470SOL     OW17308   2.938   4.913   3.490
 5470SOL    HW117309   3.023   4.918   3.437
 5470SOL    HW217310   2.957   4.937   3.585
 5471SOL     OW17311   5.619   0.491   3.398
 5471SOL    HW117312   5.684   0.545   3.452
 5471SOL    HW217313   5.534   0.480   3.449
 5472SOL     OW17314   2.423   4.178   6.614
 5472SOL    HW117315   2.340   4.162   6.561
 5472SOL    HW217316   2.459   4.091   6.648
 5473SOL     OW17317   2.733   4.761   2.145
 5473SOL    HW117318   2.791   4.719   2.076
 5473SOL    HW217319   2.662   4.695   2.173
 5474SOL     OW17320   1.123   4.900   1.834
 5474SOL    HW117321   1.044   4.887   1.775
 5474SOL    HW217322   1.189   4.961   1.789
 5475SOL     OW17323   1.289   0.747   5.168
 5475SOL    HW117324   1.320   0.828   5.118
 5475SOL    HW217325   1.214   0.773   5.230
 5476SOL     OW17326   2.235   0.780   4.843
 5476SOL    HW117327   2.178   0.758   4.922
 5476SOL    HW217328   2.224   0.876   4.819
 5477SOL     OW17329   2.081   3.122   2.687
 5477SOL    HW117330   2.100   3.026   2.668
 5477SOL    HW217331   2.073   3.173   2.601
 5478SOL     OW17332   6.372   3.574   5.965
 5478SOL    HW117333   6.410   3.556   6.055
 5478SOL    HW217334   6.424   3.648   5.921
 5479SOL     OW17335   5.387   3.008   4.220
 5479SOL    HW117336   5.381   3.022   4.121
 5479SOL    HW217337   5.481   2.986   4.245
 5480SOL     OW17338   1.357   3.596   4.625
 5480SOL    HW117339   1.418   3.596   4.546
 5480SOL    HW217340   1.338   3.690   4.653
 5481SOL     OW17341   4.581   1.401   6.505
 5481SOL    HW117342   4.586   1.470   6.577
 5481SOL    HW217343   4.612   1.440   6.418
 5482SOL     OW17344   5.508   4.145   2.881
 5482SOL    HW117345   5.488   4.131   2.784
 5482SOL    HW217346   5.577   4.079   2.910
 5483SOL     OW17347   6.580   2.771   0.023
 5483SOL    HW117348   6.544   2.691   6.991
 5483SOL    HW217349   6.579   2.753   0.122
 5484SOL     OW17350   6.257   0.620   5.395
 5484SOL    HW117351   6.228   0.646   5.303
 5484SOL    HW217352   6.238   0.522   5.409
 5485SOL     OW17353   3.249   0.987   4.258
 5485SOL    HW117354   3.189   0.980   4.337
 5485SOL    HW217355   3.337   1.025   4.285
 5486SOL     OW17356   0.883   0.345   3.767
 5486SOL    HW117357   0.950   0.378   3.834
 5486SOL    HW217358   0.797   0.323   3.814
 5487SOL     OW17359   4.510   5.557   1.298
 5487SOL    HW117360   4.495   5.535   1.202
 5487SOL    HW217361   4.501   5.656   1.312
 5488SOL     OW17362   5.366   1.343   5.795
 5488SOL    HW117363   5.321   1.425   5.759
 5488SOL    HW217364   5.324   1.318   5.882
 5489SOL     OW17365   6.916   3.939   2.291
 5489SOL    HW117366   6.995   3.986   2.332
 5489SOL    HW217367   6.854   3.907   2.362
 5490SOL     OW17368   3.502   2.165   6.515
 5490SOL    HW117369   3.436   2.145   6.443
 5490SOL    HW217370   3.504   2.089   6.580
 5491SOL     OW17371   0.011   5.559   2.702
 5491SOL    HW117372   0.071   5.512   2.767
 5491SOL    HW217373   6.948   5.597   2.750
 5492SOL     OW17374   0.998   1.290   4.791
 5492SOL    HW117375   0.998   1.383   4.827
 5492SOL    HW217376   1.062   1.283   4.715
 5493SOL     OW17377   3.508   1.946   0.799
 5493SOL    HW117378   3.525   1.987   0.709
 5493SOL    HW217379   3.557   1.859   0.805
 5494SOL     OW17380   5.797   3.139   2.613
 5494SOL    HW117381   5.810   3.057   2.668
 5494SOL    HW217382   5.817   3.220   2.668
 5495SOL     OW17383   3.850   3.174   3.881
 5495SOL    HW117384   3.777   3.224   3.833
 5495SOL    HW217385   3.852   3.079   3.848
 5496SOL     OW17386   5.088   5.590   2.005
 5496SOL    HW117387   5.019   5.556   1.941
 5496SOL    HW217388   5.178   5.557   1.978
 5497SOL     OW17389   5.456   0.475   1.011
 5497SOL    HW117390   5.508   0.408   0.959
 5497SOL    HW217391   5.423   0.547   0.950
 5498SOL     OW17392   4.727   1.254   4.607
 5498SOL    HW117393   4.711   1.232   4.511
 5498SOL    HW217394   4.745   1.169   4.658
 5499SOL     OW17395   0.602   1.020   5.370
 5499SOL    HW117396   0.525   1.067   5.327
 5499SOL    HW217397   0.674   1.005   5.303
 5500SOL     OW17398   1.606   6.696   1.102
 5500SOL    HW117399   1.673   6.695   1.176
 5500SOL    HW217400   1.569   6.603   1.090
 5501SOL     OW17401   3.010   0.720   2.586
 5501SOL    HW117402   3.093   0.777   2.582
 5501SOL    HW217403   2.988   0.687   2.495
 5502SOL     OW17404   4.453   3.556   0.316
 5502SOL    HW117405   4.354   3.550   0.324
 5502SOL    HW217406   4.493   3.583   0.403
 5503SOL     OW17407   0.077   6.614   4.112
 5503SOL    HW117408   0.081   6.514   4.123
 5503SOL    HW217409   0.022   6.636   4.032
 5504SOL     OW17410   2.757   2.269   4.373
 5504SOL    HW117411   2.750   2.241   4.278
 5504SOL    HW217412   2.839   2.327   4.384
 5505SOL     OW17413   3.423   4.785   0.317
 5505SOL    HW117414   3.449   4.757   0.224
 5505SOL    HW217415   3.371   4.870   0.313
 5506SOL     OW17416   0.129   6.630   5.676
 5506SOL    HW117417   0.100   6.541   5.710
 5506SOL    HW217418   0.228   6.629   5.658
 5507SOL     OW17419   3.223   5.099   5.441
 5507SOL    HW117420   3.258   5.020   5.491
 5507SOL    HW217421   3.132   5.078   5.405
 5508SOL     OW17422   1.283   0.919   5.565
 5508SOL    HW117423   1.316   1.003   5.522
 5508SOL    HW217424   1.358   0.855   5.575
 5509SOL     OW17425   6.332   0.253   6.544
 5509SOL    HW117426   6.252   0.237   6.487
 5509SOL    HW217427   6.341   0.180   6.611
 5510SOL     OW17428   6.443   1.190   6.239
 5510SOL    HW117429   6.443   1.146   6.329
 5510SOL    HW217430   6.447   1.121   6.168
 5511SOL     OW17431   6.656   3.004   1.643
 5511SOL    HW117432   6.626   3.096   1.669
 5511SOL    HW217433   6.671   2.949   1.726
 5512SOL     OW17434   6.930   0.193   0.316
 5512SOL    HW117435   6.977   0.262   0.371
 5512SOL    HW217436   6.855   0.154   0.369
 5513SOL     OW17437   3.088   6.150   5.208
 5513SOL    HW117438   3.168   6.198   5.171
 5513SOL    HW217439   3.092   6.053   5.183
 5514SOL     OW17440   6.095   5.814   3.930
 5514SOL    HW117441   6.181   5.766   3.950
 5514SOL    HW217442   6.036   5.754   3.876
 5515SOL     OW17443   6.792   3.617   3.002
 5515SOL    HW117444   6.797   3.528   3.047
 5515SOL    HW217445   6.847   3.615   2.919
 5516SOL     OW17446   0.962   2.285   0.053
 5516SOL    HW117447   0.947   2.338   6.984
 5516SOL    HW217448   0.903   2.205   0.053
 5517SOL     OW17449   2.645   1.235   2.180
 5517SOL    HW117450   2.689   1.150   2.210
 5517SOL    HW217451   2.572   1.258   2.244
 5518SOL     OW17452   5.453   4.187   5.222
 5518SOL    HW117453   5.455   4.225   5.315
 5518SOL    HW217454   5.394   4.243   5.164
 5519SOL     OW17455   5.349   3.847   2.988
 5519SOL    HW117456   5.266   3.792   3.000
 5519SOL    HW217457   5.325   3.943   2.976
 5520SOL     OW17458   1.897   2.724   0.633
 5520SOL    HW117459   1.863   2.639   0.674
 5520SOL    HW217460   1.997   2.724   0.632
 5521SOL     OW17461   5.221   5.240   0.055
 5521SOL    HW117462   5.181   5.265   0.143
 5521SOL    HW217463   5.162   5.272   6.996
 5522SOL     OW17464   1.957   2.619   1.781
 5522SOL    HW117465   2.023   2.620   1.855
 5522SOL    HW217466   1.926   2.525   1.764
 5523SOL     OW17467   3.631   0.429   1.582
 5523SOL    HW117468   3.693   0.450   1.658
 5523SOL    HW217469   3.538   0.418   1.616
 5524SOL     OW17470   6.045   5.904   5.894
 5524SOL    HW117471   6.050   5.995   5.852
 5524SOL    HW217472   6.086   5.908   5.986
 5525SOL     OW17473   6.606   5.560   3.791
 5525SOL    HW117474   6.638   5.487   3.850
 5525SOL    HW217475   6.625   5.649   3.833
 5526SOL     OW17476   5.214   3.068   4.600
 5526SOL    HW117477   5.289   3.065   4.667
 5526SOL    HW217478   5.239   3.131   4.526
 5527SOL     OW17479   1.965   3.455   6.998
 5527SOL    HW117480   1.898   3.526   6.974
 5527SOL    HW217481   1.926   3.395   0.052
 5528SOL     OW17482   6.630   3.473   2.663
 5528SOL    HW117483   6.601   3.489   2.757
 5528SOL    HW217484   6.550   3.476   2.602
 5529SOL     OW17485   1.285   0.896   3.916
 5529SOL    HW117486   1.192   0.868   3.893
 5529SOL    HW217487   1.313   0.854   4.002
 5530SOL     OW17488   6.652   3.127   0.196
 5530SOL    HW117489   6.566   3.174   0.176
 5530SOL    HW217490   6.684   3.153   0.287
 5531SOL     OW17491   2.231   3.218   6.847
 5531SOL    HW117492   2.133   3.195   6.844
 5531SOL    HW217493   2.285   3.134   6.843
 5532SOL     OW17494   2.304   2.134   1.171
 5532SOL    HW117495   2.205   2.152   1.175
 5532SOL    HW217496   2.340   2.131   1.264
 5533SOL     OW17497   3.510   0.312   0.522
 5533SOL    HW117498   3.519   0.390   0.460
 5533SOL    HW217499   3.600   0.288   0.559
 5534SOL     OW17500   0.153   4.263   5.262
 5534SOL    HW117501   0.105   4.284   5.176
 5534SOL    HW217502   0.226   4.330   5.276
 5535SOL     OW17503   6.348   3.533   3.696
 5535SOL    HW117504   6.434   3.482   3.691
 5535SOL    HW217505   6.296   3.501   3.775
 5536SOL     OW17506   3.068   0.663   4.291
 5536SOL    HW117507   3.106   0.570   4.286
 5536SOL    HW217508   3.142   0.727   4.312
 5537SOL     OW17509   4.159   1.216   5.031
 5537SOL    HW117510   4.085   1.151   5.012
 5537SOL    HW217511   4.175   1.220   5.130
 5538SOL     OW17512   5.451   2.038   2.668
 5538SOL    HW117513   5.485   2.120   2.621
 5538SOL    HW217514   5.417   1.973   2.600
 5539SOL     OW17515   2.568   0.074   6.907
 5539SOL    HW117516   2.507   0.099   6.982
 5539SOL    HW217517   2.634   0.148   6.893
 5540SOL     OW17518   5.772   0.025   5.620
 5540SOL    HW117519   5.682   0.058   5.592
 5540SOL    HW217520   5.823   0.100   5.662
 5541SOL     OW17521   4.363   3.430   0.071
 5541SOL    HW117522   4.409   3.368   0.007
 5541SOL    HW217523   4.332   3.511   0.022
 5542SOL     OW17524   4.564   4.531   0.274
 5542SOL    HW117525   4.546   4.448   0.327
 5542SOL    HW217526   4.634   4.512   0.205
 5543SOL     OW17527   1.395   0.516   6.338
 5543SOL    HW117528   1.395   0.615   6.323
 5543SOL    HW217529   1.359   0.497   6.430
 5544SOL     OW17530   3.940   5.182   0.867
 5544SOL    HW117531   3.855   5.229   0.841
 5544SOL    HW217532   3.922   5.084   0.877
 5545SOL     OW17533   5.101   0.913   3.604
 5545SOL    HW117534   5.056   1.001   3.624
 5545SOL    HW217535   5.173   0.927   3.536
 5546SOL     OW17536   0.465   5.052   4.208
 5546SOL    HW117537   0.504   5.000   4.285
 5546SOL    HW217538   0.504   5.019   4.123
 5547SOL     OW17539   4.842   2.531   4.842
 5547SOL    HW117540   4.816   2.625   4.864
 5547SOL    HW217541   4.941   2.521   4.848
 5548SOL     OW17542   0.377   4.392   5.192
 5548SOL    HW117543   0.366   4.406   5.094
 5548SOL    HW217544   0.474   4.397   5.215
 5549SOL     OW17545   3.995   3.029   0.721
 5549SOL    HW117546   4.005   2.976   0.805
 5549SOL    HW217547   3.899   3.051   0.706
 5550SOL     OW17548   2.517   4.146   1.724
 5550SOL    HW117549   2.493   4.233   1.766
 5550SOL    HW217550   2.439   4.083   1.729
 5551SOL     OW17551   2.227   4.928   2.614
 5551SOL    HW117552   2.214   4.833   2.642
 5551SOL    HW217553   2.267   4.931   2.522
 5552SOL     OW17554   1.061   0.325   0.235
 5552SOL    HW117555   0.982   0.295   0.182
 5552SOL    HW217556   1.138   0.343   0.173
 5553SOL     OW17557   5.324   0.281   0.158
 5553SOL    HW117558   5.344   0.372   0.194
 5553SOL    HW217559   5.320   0.284   0.058
 5554SOL     OW17560   6.779   2.104   1.449
 5554SOL    HW117561   6.707   2.156   1.494
 5554SOL    HW217562   6.806   2.149   1.365
 5555SOL     OW17563   1.120   4.956   2.144
 5555SOL    HW117564   1.120   4.925   2.049
 5555SOL    HW217565   1.055   4.901   2.196
 5556SOL     OW17566   0.040   1.009   4.519
 5556SOL    HW117567   6.994   0.937   4.490
 5556SOL    HW217568   0.135   0.978   4.509
 5557SOL     OW17569   3.866   6.330   3.243
 5557SOL    HW117570   3.914   6.418   3.245
 5557SOL    HW217571   3.872   6.292   3.151
 5558SOL     OW17572   4.221   4.094   0.117
 5558SOL    HW117573   4.264   4.177   0.154
 5558SOL    HW217574   4.230   4.019   0.182
 5559SOL     OW17575   3.478   0.687   2.496
 5559SOL    HW117576   3.469   0.675   2.595
 5559SOL    HW217577   3.574   0.703   2.472
 5560SOL     OW17578   0.403   5.216   3.566
 5560SOL    HW117579   0.416   5.126   3.608
 5560SOL    HW217580   0.439   5.287   3.628
 5561SOL     OW17581   3.878   6.652   3.068
 5561SOL    HW117582   3.926   6.650   2.981
 5561SOL    HW217583   3.883   6.745   3.106
 5562SOL     OW17584   3.505   3.837   1.142
 5562SOL    HW117585   3.543   3.876   1.058
 5562SOL    HW217586   3.485   3.740   1.127
 5563SOL     OW17587   2.525   4.493   2.270
 5563SOL    HW117588   2.606   4.440   2.295
 5563SOL    HW217589   2.477   4.447   2.195
 5564SOL     OW17590   4.703   6.918   6.478
 5564SOL    HW117591   4.759   6.864   6.415
 5564SOL    HW217592   4.762   6.964   6.544
 5565SOL     OW17593   3.521   1.543   6.513
 5565SOL    HW117594   3.558   1.464   6.562
 5565SOL    HW217595   3.476   1.513   6.430
 5566SOL     OW17596   1.543   4.241   5.929
 5566SOL    HW117597   1.592   4.328   5.926
 5566SOL    HW217598   1.512   4.217   5.837
 5567SOL     OW17599   0.410   4.491   0.327
 5567SOL    HW117600   0.317   4.527   0.314
 5567SOL    HW217601   0.450   4.531   0.409
 5568SOL     OW17602   4.913   4.751   1.536
 5568SOL    HW117603   4.896   4.826   1.600
 5568SOL    HW217604   4.995   4.770   1.483
 5569SOL     OW17605   2.430   2.539   2.782
 5569SOL    HW117606   2.392   2.550   2.874
 5569SOL    HW217607   2.526   2.513   2.788
 5570SOL     OW17608   6.878   3.743   1.949
 5570SOL    HW117609   6.881   3.751   2.049
 5570SOL    HW217610   6.886   3.834   1.908
 5571SOL     OW17611   6.542   4.824   1.146
 5571SOL    HW117612   6.520   4.728   1.166
 5571SOL    HW217613   6.620   4.852   1.202
 5572SOL     OW17614   1.982   4.010   4.896
 5572SOL    HW117615   2.010   3.916   4.915
 5572SOL    HW217616   2.036   4.073   4.952
 5573SOL     OW17617   3.299   4.925   3.810
 5573SOL    HW117618   3.311   4.862   3.734
 5573SOL    HW217619   3.348   5.010   3.790
 5574SOL     OW17620   0.537   2.366   4.915
 5574SOL    HW117621   0.548   2.282   4.863
 5574SOL    HW217622   0.601   2.435   4.880
 5575SOL     OW17623   0.036   0.028   1.663
 5575SOL    HW117624   0.086   0.022   1.577
 5575SOL    HW217625   0.073   0.103   1.718
 5576SOL     OW17626   1.357   5.147   2.913
 5576SOL    HW117627   1.279   5.119   2.970
 5576SOL    HW217628   1.442   5.134   2.965
 5577SOL     OW17629   1.797   2.449   5.883
 5577SOL    HW117630   1.849   2.505   5.949
 5577SOL    HW217631   1.813   2.484   5.791
 5578SOL     OW17632   3.102   4.008   3.556
 5578SOL    HW117633   3.136   4.046   3.642
 5578SOL    HW217634   3.036   3.935   3.575
 5579SOL     OW17635   6.697   2.825   2.058
 5579SOL    HW117636   6.728   2.889   2.128
 5579SOL    HW217637   6.773   2.804   1.997
 5580SOL     OW17638   5.741   2.222   5.474
 5580SOL    HW117639   5.701   2.298   5.525
 5580SOL    HW217640   5.827   2.251   5.433
 5581SOL     OW17641   1.508   2.634   6.615
 5581SOL    HW117642   1.558   2.560   6.660
 5581SOL    HW217643   1.573   2.692   6.566
 5582SOL     OW17644   2.993   2.735   5.813
 5582SOL    HW117645   3.019   2.639   5.813
 5582SOL    HW217646   2.894   2.743   5.809
 5583SOL     OW17647   5.565   0.093   1.017
 5583SOL    HW117648   5.599   0.184   0.991
 5583SOL    HW217649   5.473   0.081   0.982
 5584SOL     OW17650   1.791   3.206   4.055
 5584SOL    HW117651   1.699   3.231   4.088
 5584SOL    HW217652   1.784   3.170   3.962
 5585SOL     OW17653   5.216   5.294   1.704
 5585SOL    HW117654   5.312   5.299   1.679
 5585SOL    HW217655   5.208   5.263   1.799
 5586SOL     OW17656   0.495   4.533   0.062
 5586SOL    HW117657   0.463   4.481   0.141
 5586SOL    HW217658   0.560   4.478   0.010
 5587SOL     OW17659   6.447   0.896   6.079
 5587SOL    HW117660   6.402   0.806   6.082
 5587SOL    HW217661   6.546   0.883   6.068
 5588SOL     OW17662   3.819   6.775   0.998
 5588SOL    HW117663   3.863   6.861   0.971
 5588SOL    HW217664   3.888   6.704   1.012
 5589SOL     OW17665   5.978   4.916   5.874
 5589SOL    HW117666   5.952   4.830   5.830
 5589SOL    HW217667   6.030   4.896   5.957
 5590SOL     OW17668   6.172   5.176   3.398
 5590SOL    HW117669   6.162   5.195   3.300
 5590SOL    HW217670   6.268   5.183   3.424
 5591SOL     OW17671   5.176   1.070   1.817
 5591SOL    HW117672   5.128   1.063   1.905
 5591SOL    HW217673   5.252   1.005   1.815
 5592SOL     OW17674   0.803   4.028   3.142
 5592SOL    HW117675   0.730   3.963   3.164
 5592SOL    HW217676   0.763   4.116   3.116
 5593SOL     OW17677   0.476   3.962   0.553
 5593SOL    HW117678   0.495   3.915   0.639
 5593SOL    HW217679   0.456   3.895   0.481
 5594SOL     OW17680   6.388   2.201   6.072
 5594SOL    HW117681   6.473   2.177   6.024
 5594SOL    HW217682   6.361   2.294   6.048
 5595SOL     OW17683   1.237   2.389   6.707
 5595SOL    HW117684   1.294   2.429   6.779
 5595SOL    HW217685   1.142   2.388   6.737
 5596SOL     OW17686   3.260   6.095   3.363
 5596SOL    HW117687   3.164   6.124   3.363
 5596SOL    HW217688   3.304   6.127   3.447
 5597SOL     OW17689   5.150   3.437   2.718
 5597SOL    HW117690   5.077   3.395   2.772
 5597SOL    HW217691   5.219   3.368   2.695
 5598SOL     OW17692   5.220   1.437   5.260
 5598SOL    HW117693   5.309   1.483   5.259
 5598SOL    HW217694   5.233   1.342   5.288
 5599SOL     OW17695   1.233   0.279   3.425
 5599SOL    HW117696   1.143   0.263   3.464
 5599SOL    HW217697   1.228   0.277   3.326
 5600SOL     OW17698   1.807   2.539   5.100
 5600SOL    HW117699   1.761   2.461   5.059
 5600SOL    HW217700   1.798   2.619   5.041
 5601SOL     OW17701   2.666   0.920   6.229
 5601SOL    HW117702   2.677   0.821   6.228
 5601SOL    HW217703   2.669   0.955   6.136
 5602SOL     OW17704   1.672   1.023   0.264
 5602SOL    HW117705   1.740   1.050   0.332
 5602SOL    HW217706   1.586   1.002   0.309
 5603SOL     OW17707   5.887   5.168   5.909
 5603SOL    HW117708   5.933   5.083   5.882
 5603SOL    HW217709   5.789   5.158   5.895
 5604SOL     OW17710   5.910   1.326   6.183
 5604SOL    HW117711   5.991   1.375   6.149
 5604SOL    HW217712   5.891   1.248   6.124
 5605SOL     OW17713   1.476   2.391   6.248
 5605SOL    HW117714   1.436   2.355   6.332
 5605SOL    HW217715   1.537   2.467   6.269
 5606SOL     OW17716   5.677   0.171   2.999
 5606SOL    HW117717   5.674   0.081   2.956
 5606SOL    HW217718   5.764   0.181   3.047
 5607SOL     OW17719   5.750   0.424   1.192
 5607SOL    HW117720   5.824   0.422   1.259
 5607SOL    HW217721   5.668   0.461   1.234
 5608SOL     OW17722   3.980   6.602   5.387
 5608SOL    HW117723   3.883   6.627   5.385
 5608SOL    HW217724   4.011   6.600   5.482
 5609SOL     OW17725   1.357   5.316   5.481
 5609SOL    HW117726   1.415   5.308   5.562
 5609SOL    HW217727   1.320   5.409   5.476
 5610SOL     OW17728   4.698   0.270   6.380
 5610SOL    HW117729   4.698   0.369   6.371
 5610SOL    HW217730   4.748   0.230   6.303
 5611SOL     OW17731   1.969   4.519   3.677
 5611SOL    HW117732   1.926   4.522   3.587
 5611SOL    HW217733   1.981   4.613   3.712
 5612SOL     OW17734   2.707   0.175   5.298
 5612SOL    HW117735   2.804   0.170   5.319
 5612SOL    HW217736   2.694   0.173   5.199
 5613SOL     OW17737   4.090   5.298   1.656
 5613SOL    HW117738   4.177   5.306   1.703
 5613SOL    HW217739   4.015   5.316   1.720
 5614SOL     OW17740   4.659   2.199   3.511
 5614SOL    HW117741   4.732   2.231   3.451
 5614SOL    HW217742   4.667   2.244   3.600
 5615SOL     OW17743   1.608   1.323   1.434
 5615SOL    HW117744   1.542   1.255   1.401
 5615SOL    HW217745   1.661   1.357   1.356
 5616SOL     OW17746   2.256   6.979   4.519
 5616SOL    HW117747   2.201   7.015   4.595
 5616SOL    HW217748   2.322   0.033   4.490
 5617SOL     OW17749   0.959   0.534   5.134
 5617SOL    HW117750   0.960   0.463   5.205
 5617SOL    HW217751   1.021   0.608   5.159
 5618SOL     OW17752   6.785   4.390   2.956
 5618SOL    HW117753   6.687   4.376   2.971
 5618SOL    HW217754   6.826   4.428   3.039
 5619SOL     OW17755   2.133   3.771   4.890
 5619SOL    HW117756   2.197   3.836   4.930
 5619SOL    HW217757   2.182   3.712   4.825
 5620SOL     OW17758   3.809   1.872   6.894
 5620SOL    HW117759   3.807   1.867   6.794
 5620SOL    HW217760   3.806   1.968   6.923
 5621SOL     OW17761   2.556   2.157   6.308
 5621SOL    HW117762   2.598   2.097   6.376
 5621SOL    HW217763   2.559   2.252   6.340
 5622SOL     OW17764   5.372   0.763   5.425
 5622SOL    HW117765   5.405   0.759   5.519
 5622SOL    HW217766   5.304   0.690   5.410
 5623SOL     OW17767   0.303   5.920   0.062
 5623SOL    HW117768   0.212   5.948   0.094
 5623SOL    HW217769   0.317   5.953   6.984
 5624SOL     OW17770   0.517   4.167   2.165
 5624SOL    HW117771   0.584   4.110   2.117
 5624SOL    HW217772   0.450   4.202   2.100
 5625SOL     OW17773   6.361   2.302   5.693
 5625SOL    HW117774   6.319   2.354   5.618
 5625SOL    HW217775   6.333   2.206   5.687
 5626SOL     OW17776   4.939   6.466   4.333
 5626SOL    HW117777   4.920   6.380   4.381
 5626SOL    HW217778   4.972   6.446   4.241
 5627SOL     OW17779   1.112   6.635   0.977
 5627SOL    HW117780   1.173   6.612   1.053
 5627SOL    HW217781   1.020   6.651   1.013
 5628SOL     OW17782   1.644   1.706   4.436
 5628SOL    HW117783   1.580   1.687   4.362
 5628SOL    HW217784   1.736   1.718   4.399
 5629SOL     OW17785   3.797   3.190   2.890
 5629SOL    HW117786   3.834   3.126   2.823
 5629SOL    HW217787   3.835   3.170   2.980
 5630SOL     OW17788   6.908   4.207   1.641
 5630SOL    HW117789   6.814   4.174   1.643
 5630SOL    HW217790   6.952   4.178   1.556
 5631SOL     OW17791   5.031   0.650   6.539
 5631SOL    HW117792   4.988   0.633   6.450
 5631SOL    HW217793   5.076   0.567   6.571
 5632SOL     OW17794   3.224   2.939   0.113
 5632SOL    HW117795   3.241   2.840   0.117
 5632SOL    HW217796   3.127   2.957   0.127
 5633SOL     OW17797   6.735   3.335   5.051
 5633SOL    HW117798   6.829   3.303   5.061
 5633SOL    HW217799   6.697   3.300   4.965
 5634SOL     OW17800   5.287   5.673   4.683
 5634SOL    HW117801   5.300   5.694   4.586
 5634SOL    HW217802   5.272   5.758   4.734
 5635SOL     OW17803   3.218   2.036   5.398
 5635SOL    HW117804   3.173   1.988   5.322
 5635SOL    HW217805   3.225   1.975   5.477
 5636SOL     OW17806   3.952   5.904   4.519
 5636SOL    HW117807   4.010   5.984   4.533
 5636SOL    HW217808   3.987   5.851   4.442
 5637SOL     OW17809   6.523   0.024   2.720
 5637SOL    HW117810   6.476   0.051   2.803
 5637SOL    HW217811   6.580   6.959   2.738
 5638SOL     OW17812   5.567   4.120   6.806
 5638SOL    HW117813   5.521   4.121   6.717
 5638SOL    HW217814   5.652   4.068   6.798
 5639SOL     OW17815   3.501   0.828   0.179
 5639SOL    HW117816   3.566   0.892   0.138
 5639SOL    HW217817   3.524   0.813   0.275
 5640SOL     OW17818   1.911   6.965   2.722
 5640SOL    HW117819   1.911   6.916   2.810
 5640SOL    HW217820   1.891   6.901   2.649
 5641SOL     OW17821   6.300   5.601   4.810
 5641SOL    HW117822   6.255   5.577   4.896
 5641SOL    HW217823   6.277   5.534   4.740
 5642SOL     OW17824   2.113   1.669   0.177
 5642SOL    HW117825   2.054   1.601   0.220
 5642SOL    HW217826   2.112   1.753   0.231
 5643SOL     OW17827   5.542   1.891   5.939
 5643SOL    HW117828   5.629   1.935   5.917
 5643SOL    HW217829   5.506   1.845   5.858
 5644SOL     OW17830   2.856   0.086   6.358
 5644SOL    HW117831   2.766   0.119   6.387
 5644SOL    HW217832   2.926   0.151   6.388
 5645SOL     OW17833   5.620   3.976   4.654
 5645SOL    HW117834   5.597   3.885   4.620
 5645SOL    HW217835   5.709   3.973   4.701
 5646SOL     OW17836   1.272   4.310   2.749
 5646SOL    HW117837   1.179   4.275   2.740
 5646SOL    HW217838   1.293   4.325   2.846
 5647SOL     OW17839   6.140   6.692   2.706
 5647SOL    HW117840   6.085   6.630   2.762
 5647SOL    HW217841   6.220   6.722   2.758
 5648SOL     OW17842   4.767   5.989   3.761
 5648SOL    HW117843   4.799   6.072   3.715
 5648SOL    HW217844   4.741   6.010   3.855
 5649SOL     OW17845   1.187   6.476   3.890
 5649SOL    HW117846   1.146   6.407   3.949
 5649SOL    HW217847   1.269   6.439   3.847
 5650SOL     OW17848   6.188   4.234   6.227
 5650SOL    HW117849   6.230   4.229   6.136
 5650SOL    HW217850   6.254   4.273   6.292
 5651SOL     OW17851   2.976   1.245   0.462
 5651SOL    HW117852   2.940   1.307   0.531
 5651SOL    HW217853   3.071   1.270   0.440
 5652SOL     OW17854   0.258   6.220   2.636
 5652SOL    HW117855   0.183   6.287   2.636
 5652SOL    HW217856   0.341   6.262   2.672
 5653SOL     OW17857   6.975   0.406   2.252
 5653SOL    HW117858   0.047   0.400   2.301
 5653SOL    HW217859   6.992   0.400   2.153
 5654SOL     OW17860   3.317   5.885   4.895
 5654SOL    HW117861   3.267   5.970   4.910
 5654SOL    HW217862   3.346   5.880   4.799
 5655SOL     OW17863   5.332   2.728   5.207
 5655SOL    HW117864   5.261   2.746   5.139
 5655SOL    HW217865   5.408   2.792   5.192
 5656SOL     OW17866   6.706   3.433   0.129
 5656SOL    HW117867   6.623   3.426   0.184
 5656SOL    HW217868   6.714   3.526   0.093
 5657SOL     OW17869   5.220   5.387   4.849
 5657SOL    HW117870   5.271   5.467   4.819
 5657SOL    HW217871   5.283   5.322   4.892
 5658SOL     OW17872   2.590   2.890   5.603
 5658SOL    HW117873   2.540   2.848   5.527
 5658SOL    HW217874   2.619   2.982   5.577
 5659SOL     OW17875   2.569   4.008   6.283
 5659SOL    HW117876   2.591   3.915   6.310
 5659SOL    HW217877   2.471   4.015   6.263
 5660SOL     OW17878   4.573   0.557   5.550
 5660SOL    HW117879   4.521   0.482   5.589
 5660SOL    HW217880   4.566   0.554   5.450
 5661SOL     OW17881   0.828   5.885   6.108
 5661SOL    HW117882   0.905   5.923   6.056
 5661SOL    HW217883   0.820   5.787   6.089
 5662SOL     OW17884   3.123   6.511   1.014
 5662SOL    HW117885   3.074   6.549   1.092
 5662SOL    HW217886   3.208   6.468   1.046
 5663SOL     OW17887   1.433   3.137   5.803
 5663SOL    HW117888   1.463   3.044   5.825
 5663SOL    HW217889   1.333   3.142   5.808
 5664SOL     OW17890   4.832   4.616   4.532
 5664SOL    HW117891   4.879   4.705   4.528
 5664SOL    HW217892   4.890   4.546   4.492
 5665SOL     OW17893   1.498   1.469   0.806
 5665SOL    HW117894   1.594   1.484   0.827
 5665SOL    HW217895   1.445   1.469   0.891
 5666SOL     OW17896   6.055   2.551   4.784
 5666SOL    HW117897   5.968   2.573   4.740
 5666SOL    HW217898   6.073   2.618   4.857
 5667SOL     OW17899   2.565   4.779   3.899
 5667SOL    HW117900   2.638   4.769   3.832
 5667SOL    HW217901   2.605   4.793   3.990
 5668SOL     OW17902   4.913   3.878   3.624
 5668SOL    HW117903   5.013   3.879   3.628
 5668SOL    HW217904   4.879   3.971   3.641
 5669SOL     OW17905   5.071   4.321   6.087
 5669SOL    HW117906   4.991   4.305   6.145
 5669SOL    HW217907   5.040   4.352   5.996
 5670SOL     OW17908   1.563   2.594   3.592
 5670SOL    HW117909   1.658   2.595   3.624
 5670SOL    HW217910   1.502   2.613   3.669
 5671SOL     OW17911   6.945   4.997   3.888
 5671SOL    HW117912   6.868   5.000   3.952
 5671SOL    HW217913   6.944   4.910   3.839
 5672SOL     OW17914   5.427   3.553   4.625
 5672SOL    HW117915   5.501   3.545   4.691
 5672SOL    HW217916   5.427   3.475   4.563
 5673SOL     OW17917   0.635   1.789   0.576
 5673SOL    HW117918   0.628   1.840   0.662
 5673SOL    HW217919   0.714   1.728   0.580
 5674SOL     OW17920   2.592   4.937   4.871
 5674SOL    HW117921   2.586   5.027   4.914
 5674SOL    HW217922   2.657   4.880   4.923
 5675SOL     OW17923   2.738   2.318   1.077
 5675SOL    HW117924   2.643   2.298   1.053
 5675SOL    HW217925   2.777   2.380   1.010
 5676SOL     OW17926   3.339   1.418   1.990
 5676SOL    HW117927   3.361   1.326   2.023
 5676SOL    HW217928   3.240   1.433   1.998
 5677SOL     OW17929   0.315   1.477   6.453
 5677SOL    HW117930   0.364   1.531   6.521
 5677SOL    HW217931   0.245   1.421   6.499
 5678SOL     OW17932   3.451   2.049   2.028
 5678SOL    HW117933   3.391   2.062   2.107
 5678SOL    HW217934   3.499   2.135   2.008
 5679SOL     OW17935   6.705   4.359   5.241
 5679SOL    HW117936   6.677   4.436   5.299
 5679SOL    HW217937   6.625   4.320   5.196
 5680SOL     OW17938   0.944   5.650   5.163
 5680SOL    HW117939   0.914   5.651   5.259
 5680SOL    HW217940   0.917   5.564   5.120
 5681SOL     OW17941   1.148   3.797   3.695
 5681SOL    HW117942   1.168   3.704   3.662
 5681SOL    HW217943   1.224   3.857   3.672
 5682SOL     OW17944   1.772   4.426   1.140
 5682SOL    HW117945   1.729   4.337   1.160
 5682SOL    HW217946   1.868   4.423   1.166
 5683SOL     OW17947   6.514   0.357   6.192
 5683SOL    HW117948   6.499   0.446   6.235
 5683SOL    HW217949   6.562   0.369   6.105
 5684SOL     OW17950   2.203   3.058   4.747
 5684SOL    HW117951   2.248   3.072   4.835
 5684SOL    HW217952   2.170   3.146   4.713
 5685SOL     OW17953   2.449   2.059   2.043
 5685SOL    HW117954   2.429   1.967   2.008
 5685SOL    HW217955   2.547   2.066   2.061
 5686SOL     OW17956   4.673   5.362   5.501
 5686SOL    HW117957   4.661   5.358   5.402
 5686SOL    HW217958   4.758   5.316   5.526
 5687SOL     OW17959   1.862   6.616   6.332
 5687SOL    HW117960   1.819   6.692   6.381
 5687SOL    HW217961   1.823   6.530   6.364
 5688SOL     OW17962   2.007   1.871   2.958
 5688SOL    HW117963   2.085   1.911   3.005
 5688SOL    HW217964   2.032   1.849   2.864
 5689SOL     OW17965   0.340   2.585   1.149
 5689SOL    HW117966   0.419   2.568   1.207
 5689SOL    HW217967   0.280   2.505   1.150
 5690SOL     OW17968   2.574   5.073   6.826
 5690SOL    HW117969   2.490   5.038   6.783
 5690SOL    HW217970   2.635   4.997   6.846
 5691SOL     OW17971   4.585   2.030   2.955
 5691SOL    HW117972   4.521   2.004   3.027
 5691SOL    HW217973   4.592   1.955   2.888
 5692SOL     OW17974   6.165   4.528   1.812
 5692SOL    HW117975   6.257   4.560   1.791
 5692SOL    HW217976   6.170   4.438   1.857
 5693SOL     OW17977   4.437   0.381   2.007
 5693SOL    HW117978   4.451   0.427   1.919
 5693SOL    HW217979   4.429   0.283   1.992
 5694SOL     OW17980   0.908   0.310   1.504
 5694SOL    HW117981   0.957   0.349   1.582
 5694SOL    HW217982   0.818   0.279   1.534
 5695SOL     OW17983   2.765   1.259   1.664
 5695SOL    HW117984   2.861   1.236   1.647
 5695SOL    HW217985   2.760   1.345   1.714
 5696SOL     OW17986   0.670   0.271   3.923
 5696SOL    HW117987   0.597   0.311   3.979
 5696SOL    HW217988   0.678   0.174   3.944
 5697SOL     OW17989   6.841   1.945   6.685
 5697SOL    HW117990   6.875   1.895   6.605
 5697SOL    HW217991   6.861   1.892   6.767
 5698SOL     OW17992   3.311   1.833   4.583
 5698SOL    HW117993   3.229   1.776   4.584
 5698SOL    HW217994   3.285   1.928   4.566
 5699SOL     OW17995   2.185   2.744   2.234
 5699SOL    HW117996   2.271   2.790   2.255
 5699SOL    HW217997   2.116   2.812   2.207
 5700SOL     OW17998   6.671   0.214   2.556
 5700SOL    HW117999   6.623   0.160   2.626
 5700SOL    HW218000   6.646   0.181   2.465
 5701SOL     OW18001   1.195   0.614   0.544
 5701SOL    HW118002   1.264   0.545   0.521
 5701SOL    HW218003   1.197   0.632   0.642
 5702SOL     OW18004   2.101   0.106   4.693
 5702SOL    HW118005   2.019   0.131   4.642
 5702SOL    HW218006   2.076   0.077   4.786
 5703SOL     OW18007   6.982   3.135   5.998
 5703SOL    HW118008   6.898   3.094   5.964
 5703SOL    HW218009   0.044   3.073   5.982
 5704SOL     OW18010   3.997   5.231   4.149
 5704SOL    HW118011   3.903   5.207   4.175
 5704SOL    HW218012   4.024   5.314   4.198
 5705SOL     OW18013   6.230   0.874   5.557
 5705SOL    HW118014   6.309   0.907   5.609
 5705SOL    HW218015   6.253   0.787   5.514
 5706SOL     OW18016   5.083   2.055   1.252
 5706SOL    HW118017   4.999   2.065   1.304
 5706SOL    HW218018   5.104   2.141   1.206
 5707SOL     OW18019   6.220   5.218   1.135
 5707SOL    HW118020   6.263   5.304   1.163
 5707SOL    HW218021   6.230   5.151   1.208
 5708SOL     OW18022   5.093   6.064   2.192
 5708SOL    HW118023   5.188   6.073   2.161
 5708SOL    HW218024   5.054   5.980   2.155
 5709SOL     OW18025   6.991   2.433   2.457
 5709SOL    HW118026   6.986   2.473   2.548
 5709SOL    HW218027   6.980   2.334   2.464
 5710SOL     OW18028   4.604   1.494   0.345
 5710SOL    HW118029   4.660   1.418   0.312
 5710SOL    HW218030   4.635   1.522   0.436
 5711SOL     OW18031   4.880   1.598   2.608
 5711SOL    HW118032   4.838   1.609   2.519
 5711SOL    HW218033   4.956   1.663   2.617
 5712SOL     OW18034   6.049   6.017   0.044
 5712SOL    HW118035   6.008   6.049   0.129
 5712SOL    HW218036   6.141   5.983   0.062
 5713SOL     OW18037   1.426   0.934   0.366
 5713SOL    HW118038   1.387   0.929   0.458
 5713SOL    HW218039   1.442   0.842   0.331
 5714SOL     OW18040   6.517   0.124   0.384
 5714SOL    HW118041   6.533   0.188   0.309
 5714SOL    HW218042   6.496   0.176   0.467
 5715SOL     OW18043   0.309   7.002   1.811
 5715SOL    HW118044   0.339   0.011   1.903
 5715SOL    HW218045   0.284   6.905   1.809
 5716SOL     OW18046   7.015   4.498   5.514
 5716SOL    HW118047   6.968   4.512   5.601
 5716SOL    HW218048   0.007   4.400   5.496
 5717SOL     OW18049   0.752   5.320   3.425
 5717SOL    HW118050   0.715   5.238   3.382
 5717SOL    HW218051   0.681   5.365   3.479
 5718SOL     OW18052   1.308   3.811   6.595
 5718SOL    HW118053   1.241   3.788   6.666
 5718SOL    HW218054   1.400   3.802   6.633
 5719SOL     OW18055   2.863   3.601   0.757
 5719SOL    HW118056   2.897   3.507   0.768
 5719SOL    HW218057   2.936   3.660   0.723
 5720SOL     OW18058   2.848   4.586   5.926
 5720SOL    HW118059   2.856   4.641   6.009
 5720SOL    HW218060   2.847   4.489   5.951
 5721SOL     OW18061   1.950   3.200   6.858
 5721SOL    HW118062   1.887   3.145   6.914
 5721SOL    HW218063   1.901   3.279   6.821
 5722SOL     OW18064   1.121   0.221   6.818
 5722SOL    HW118065   1.175   0.141   6.843
 5722SOL    HW218066   1.173   0.278   6.754
 5723SOL     OW18067   4.037   3.316   0.884
 5723SOL    HW118068   3.988   3.303   0.970
 5723SOL    HW218069   4.047   3.227   0.838
 5724SOL     OW18070   5.617   2.271   6.061
 5724SOL    HW118071   5.687   2.256   5.992
 5724SOL    HW218072   5.572   2.183   6.083
 5725SOL     OW18073   0.318   4.644   4.838
 5725SOL    HW118074   0.235   4.690   4.806
 5725SOL    HW218075   0.369   4.705   4.898
 5726SOL     OW18076   5.214   4.239   2.231
 5726SOL    HW118077   5.159   4.189   2.299
 5726SOL    HW218078   5.155   4.269   2.156
 5727SOL     OW18079   1.264   2.942   4.956
 5727SOL    HW118080   1.206   2.965   5.035
 5727SOL    HW218081   1.326   3.018   4.938
 5728SOL     OW18082   3.729   6.688   5.405
 5728SOL    HW118083   3.657   6.620   5.421
 5728SOL    HW218084   3.701   6.775   5.446
 5729SOL     OW18085   2.769   1.888   4.980
 5729SOL    HW118086   2.674   1.905   5.006
 5729SOL    HW218087   2.804   1.965   4.926
 5730SOL     OW18088   6.601   4.078   4.869
 5730SOL    HW118089   6.533   4.072   4.796
 5730SOL    HW218090   6.631   3.986   4.894
 5731SOL     OW18091   0.700   6.747   2.866
 5731SOL    HW118092   0.735   6.840   2.853
 5731SOL    HW218093   0.777   6.685   2.884
 5732SOL     OW18094   0.528   0.790   3.352
 5732SOL    HW118095   0.625   0.775   3.338
 5732SOL    HW218096   0.477   0.709   3.324
 5733SOL     OW18097   2.749   0.697   4.929
 5733SOL    HW118098   2.764   0.762   4.854
 5733SOL    HW218099   2.750   0.745   5.016
 5734SOL     OW18100   1.746   6.717   3.474
 5734SOL    HW118101   1.840   6.701   3.501
 5734SOL    HW218102   1.698   6.765   3.548
 5735SOL     OW18103   3.186   0.566   1.265
 5735SOL    HW118104   3.138   0.621   1.333
 5735SOL    HW218105   3.265   0.617   1.230
 5736SOL     OW18106   1.613   5.418   0.736
 5736SOL    HW118107   1.605   5.332   0.787
 5736SOL    HW218108   1.638   5.492   0.800
 5737SOL     OW18109   5.527   4.006   0.054
 5737SOL    HW118110   5.455   4.053   0.105
 5737SOL    HW218111   5.532   4.044   6.977
 5738SOL     OW18112   0.973   4.650   4.798
 5738SOL    HW118113   0.973   4.653   4.898
 5738SOL    HW218114   0.880   4.640   4.765
 5739SOL     OW18115   0.580   2.565   1.310
 5739SOL    HW118116   0.612   2.484   1.359
 5739SOL    HW218117   0.517   2.617   1.368
 5740SOL     OW18118   4.135   5.301   6.798
 5740SOL    HW118119   4.071   5.333   6.728
 5740SOL    HW218120   4.089   5.300   6.887
 5741SOL     OW18121   0.449   3.667   1.707
 5741SOL    HW118122   0.432   3.643   1.803
 5741SOL    HW218123   0.497   3.755   1.704
 5742SOL     OW18124   0.308   5.574   4.421
 5742SOL    HW118125   0.349   5.581   4.331
 5742SOL    HW218126   0.380   5.582   4.491
 5743SOL     OW18127   1.832   6.121   4.905
 5743SOL    HW118128   1.757   6.055   4.893
 5743SOL    HW218129   1.919   6.075   4.890
 5744SOL     OW18130   5.809   0.179   1.466
 5744SOL    HW118131   5.728   0.232   1.489
 5744SOL    HW218132   5.891   0.229   1.491
 5745SOL     OW18133   1.526   2.873   3.088
 5745SOL    HW118134   1.428   2.872   3.106
 5745SOL    HW218135   1.552   2.790   3.040
 5746SOL     OW18136   6.250   3.841   6.834
 5746SOL    HW118137   6.207   3.751   6.818
 5746SOL    HW218138   6.344   3.839   6.803
 5747SOL     OW18139   1.169   6.379   3.559
 5747SOL    HW118140   1.104   6.443   3.599
 5747SOL    HW218141   1.248   6.369   3.619
 5748SOL     OW18142   2.288   6.484   4.100
 5748SOL    HW118143   2.227   6.451   4.028
 5748SOL    HW218144   2.245   6.469   4.189
 5749SOL     OW18145   1.607   0.976   2.917
 5749SOL    HW118146   1.572   1.051   2.974
 5749SOL    HW218147   1.632   1.012   2.827
 5750SOL     OW18148   5.617   6.037   2.594
 5750SOL    HW118149   5.678   6.079   2.527
 5750SOL    HW218150   5.523   6.043   2.561
 5751SOL     OW18151   0.823   3.043   6.098
 5751SOL    HW118152   0.804   2.962   6.153
 5751SOL    HW218153   0.750   3.110   6.110
 5752SOL     OW18154   1.163   1.365   6.651
 5752SOL    HW118155   1.200   1.339   6.740
 5752SOL    HW218156   1.109   1.291   6.614
 5753SOL     OW18157   4.672   1.766   0.207
 5753SOL    HW118158   4.703   1.834   0.274
 5753SOL    HW218159   4.663   1.677   0.252
 5754SOL     OW18160   5.862   5.338   0.499
 5754SOL    HW118161   5.896   5.321   0.407
 5754SOL    HW218162   5.814   5.256   0.532
 5755SOL     OW18163   3.226   3.719   1.591
 5755SOL    HW118164   3.155   3.680   1.649
 5755SOL    HW218165   3.266   3.800   1.635
 5756SOL     OW18166   6.827   6.288   4.216
 5756SOL    HW118167   6.797   6.286   4.121
 5756SOL    HW218168   6.832   6.383   4.248
 5757SOL     OW18169   6.528   6.172   2.038
 5757SOL    HW118170   6.553   6.216   1.952
 5757SOL    HW218171   6.483   6.085   2.019
 5758SOL     OW18172   2.779   1.375   5.544
 5758SOL    HW118173   2.822   1.465   5.554
 5758SOL    HW218174   2.722   1.356   5.623
 5759SOL     OW18175   0.802   1.723   5.484
 5759SOL    HW118176   0.734   1.655   5.456
 5759SOL    HW218177   0.855   1.688   5.561
 5760SOL     OW18178   0.390   5.579   1.123
 5760SOL    HW118179   0.388   5.661   1.180
 5760SOL    HW218180   0.435   5.505   1.174
 5761SOL     OW18181   4.791   0.337   4.948
 5761SOL    HW118182   4.808   0.430   4.981
 5761SOL    HW218183   4.813   0.331   4.851
 5762SOL     OW18184   5.928   6.281   1.388
 5762SOL    HW118185   6.014   6.250   1.349
 5762SOL    HW218186   5.852   6.235   1.342
 5763SOL     OW18187   2.142   1.235   0.573
 5763SOL    HW118188   2.236   1.265   0.560
 5763SOL    HW218189   2.123   1.226   0.671
 5764SOL     OW18190   4.455   3.361   6.230
 5764SOL    HW118191   4.376   3.317   6.188
 5764SOL    HW218192   4.435   3.385   6.324
 5765SOL     OW18193   6.333   5.036   0.253
 5765SOL    HW118194   6.331   4.996   0.162
 5765SOL    HW218195   6.323   5.135   0.246
 5766SOL     OW18196   2.815   1.088   3.278
 5766SOL    HW118197   2.720   1.102   3.252
 5766SOL    HW218198   2.819   1.028   3.358
 5767SOL     OW18199   5.568   0.178   0.574
 5767SOL    HW118200   5.629   0.251   0.544
 5767SOL    HW218201   5.594   0.092   0.530
 5768SOL     OW18202   6.197   0.695   2.421
 5768SOL    HW118203   6.289   0.655   2.423
 5768SOL    HW218204   6.132   0.631   2.462
 5769SOL     OW18205   1.979   5.018   3.037
 5769SOL    HW118206   1.928   4.934   3.019
 5769SOL    HW218207   2.076   4.997   3.043
 5770SOL     OW18208   5.354   2.155   1.303
 5770SOL    HW118209   5.267   2.107   1.294
 5770SOL    HW218210   5.383   2.153   1.399
 5771SOL     OW18211   1.186   1.045   0.939
 5771SOL    HW118212   1.140   0.966   0.980
 5771SOL    HW218213   1.118   1.112   0.908
 5772SOL     OW18214   6.585   5.068   5.751
 5772SOL    HW118215   6.539   4.981   5.767
 5772SOL    HW218216   6.605   5.113   5.838
 5773SOL     OW18217   5.245   5.776   5.054
 5773SOL    HW118218   5.163   5.795   4.999
 5773SOL    HW218219   5.236   5.685   5.096
 5774SOL     OW18220   2.363   4.924   2.364
 5774SOL    HW118221   2.389   4.846   2.307
 5774SOL    HW218222   2.444   4.958   2.412
 5775SOL     OW18223   0.717   0.987   0.441
 5775SOL    HW118224   0.715   0.888   0.435
 5775SOL    HW218225   0.632   1.025   0.405
 5776SOL     OW18226   4.582   1.064   5.852
 5776SOL    HW118227   4.518   1.127   5.896
 5776SOL    HW218228   4.565   1.061   5.754
 5777SOL     OW18229   5.401   7.007   5.294
 5777SOL    HW118230   5.302   0.003   5.290
 5777SOL    HW218231   5.427   6.917   5.259
 5778SOL     OW18232   2.910   6.917   4.161
 5778SOL    HW118233   2.858   6.835   4.185
 5778SOL    HW218234   2.901   6.984   4.234
 5779SOL     OW18235   4.062   0.195   1.314
 5779SOL    HW118236   4.041   0.230   1.405
 5779SOL    HW218237   4.064   0.270   1.248
 5780SOL     OW18238   5.989   3.944   0.502
 5780SOL    HW118239   5.975   3.884   0.581
 5780SOL    HW218240   5.954   3.900   0.420
 5781SOL     OW18241   3.291   4.196   5.166
 5781SOL    HW118242   3.283   4.161   5.073
 5781SOL    HW218243   3.200   4.220   5.200
 5782SOL     OW18244   4.222   1.355   3.041
 5782SOL    HW118245   4.246   1.411   2.962
 5782SOL    HW218246   4.124   1.361   3.058
 5783SOL     OW18247   2.711   6.313   2.572
 5783SOL    HW118248   2.724   6.298   2.474
 5783SOL    HW218249   2.668   6.232   2.612
 5784SOL     OW18250   1.540   6.348   0.413
 5784SOL    HW118251   1.542   6.303   0.502
 5784SOL    HW218252   1.538   6.448   0.426
 5785SOL     OW18253   2.278   2.294   6.523
 5785SOL    HW118254   2.273   2.378   6.470
 5785SOL    HW218255   2.226   2.222   6.477
 5786SOL     OW18256   0.709   2.168   5.630
 5786SOL    HW118257   0.770   2.095   5.663
 5786SOL    HW218258   0.734   2.254   5.673
 5787SOL     OW18259   0.622   2.614   4.748
 5787SOL    HW118260   0.680   2.581   4.674
 5787SOL    HW218261   0.537   2.650   4.711
 5788SOL     OW18262   0.323   1.743   1.658
 5788SOL    HW118263   0.284   1.820   1.608
 5788SOL    HW218264   0.253   1.703   1.717
 5789SOL     OW18265   2.779   5.954   6.658
 5789SOL    HW118266   2.708   5.902   6.610
 5789SOL    HW218267   2.869   5.924   6.626
 5790SOL     OW18268   6.869   6.526   2.441
 5790SOL    HW118269   6.907   6.610   2.400
 5790SOL    HW218270   6.796   6.491   2.383
 5791SOL     OW18271   3.818   0.624   0.801
 5791SOL    HW118272   3.874   0.704   0.819
 5791SOL    HW218273   3.878   0.545   0.783
 5792SOL     OW18274   4.907   2.531   2.166
 5792SOL    HW118275   4.826   2.584   2.141
 5792SOL    HW218276   4.989   2.578   2.131
 5793SOL     OW18277   4.085   1.613   0.203
 5793SOL    HW118278   4.135   1.654   0.127
 5793SOL    HW218279   4.149   1.581   0.272
 5794SOL     OW18280   3.142   5.652   6.906
 5794SOL    HW118281   3.161   5.565   6.951
 5794SOL    HW218282   3.220   5.677   6.849
 5795SOL     OW18283   0.845   0.170   1.020
 5795SOL    HW118284   0.904   0.203   1.093
 5795SOL    HW218285   0.870   0.216   0.934
 5796SOL     OW18286   4.928   0.450   5.870
 5796SOL    HW118287   4.915   0.445   5.771
 5796SOL    HW218288   4.856   0.399   5.916
 5797SOL     OW18289   6.833   2.632   0.178
 5797SOL    HW118290   6.851   2.729   0.188
 5797SOL    HW218291   6.742   2.619   0.138
 5798SOL     OW18292   2.093   2.692   4.272
 5798SOL    HW118293   2.068   2.723   4.181
 5798SOL    HW218294   2.142   2.605   4.265
 5799SOL     OW18295   2.642   0.509   3.522
 5799SOL    HW118296   2.567   0.560   3.479
 5799SOL    HW218297   2.619   0.490   3.618
 5800SOL     OW18298   1.099   6.361   2.039
 5800SOL    HW118299   1.114   6.459   2.053
 5800SOL    HW218300   1.108   6.314   2.127
 5801SOL     OW18301   1.737   1.838   2.834
 5801SOL    HW118302   1.815   1.888   2.872
 5801SOL    HW218303   1.671   1.819   2.907
 5802SOL     OW18304   0.177   6.938   2.852
 5802SOL    HW118305   0.096   6.978   2.895
 5802SOL    HW218306   0.237   7.010   2.818
 5803SOL     OW18307   0.484   6.593   4.021
 5803SOL    HW118308   0.516   6.552   3.936
 5803SOL    HW218309   0.548   6.572   4.095
 5804SOL     OW18310   6.103   1.705   3.773
 5804SOL    HW118311   6.133   1.612   3.748
 5804SOL    HW218312   6.171   1.771   3.740
 5805SOL     OW18313   0.672   2.456   1.550
 5805SOL    HW118314   0.630   2.394   1.616
 5805SOL    HW218315   0.740   2.512   1.596
 5806SOL     OW18316   6.844   4.012   1.836
 5806SOL    HW118317   6.780   4.016   1.760
 5806SOL    HW218318   6.914   4.083   1.826
 5807SOL     OW18319   1.096   1.573   1.863
 5807SOL    HW118320   1.045   1.658   1.856
 5807SOL    HW218321   1.048   1.501   1.813
 5808SOL     OW18322   6.652   0.267   5.396
 5808SOL    HW118323   6.661   0.245   5.299
 5808SOL    HW218324   6.606   0.355   5.407
 5809SOL     OW18325   0.203   3.237   4.137
 5809SOL    HW118326   0.158   3.289   4.065
 5809SOL    HW218327   0.246   3.155   4.099
 5810SOL     OW18328   1.519   6.990   5.404
 5810SOL    HW118329   1.455   6.967   5.332
 5810SOL    HW218330   1.490   6.947   5.490
 5811SOL     OW18331   3.189   5.225   0.029
 5811SOL    HW118332   3.180   5.279   0.113
 5811SOL    HW218333   3.274   5.249   6.997
 5812SOL     OW18334   6.434   3.625   6.234
 5812SOL    HW118335   6.361   3.630   6.302
 5812SOL    HW218336   6.504   3.560   6.264
 5813SOL     OW18337   6.084   4.832   0.928
 5813SOL    HW118338   6.033   4.788   0.854
 5813SOL    HW218339   6.119   4.920   0.897
 5814SOL     OW18340   5.209   1.061   2.399
 5814SOL    HW118341   5.181   1.139   2.342
 5814SOL    HW218342   5.213   1.090   2.495
 5815SOL     OW18343   6.137   3.727   4.596
 5815SOL    HW118344   6.081   3.749   4.517
 5815SOL    HW218345   6.081   3.725   4.679
 5816SOL     OW18346   6.636   4.290   0.865
 5816SOL    HW118347   6.680   4.317   0.779
 5816SOL    HW218348   6.538   4.277   0.848
 5817SOL     OW18349   6.886   2.882   3.658
 5817SOL    HW118350   6.942   2.809   3.618
 5817SOL    HW218351   6.828   2.845   3.730
 5818SOL     OW18352   2.415   0.024   3.888
 5818SOL    HW118353   2.435   0.037   3.985
 5818SOL    HW218354   2.339   6.975   3.878
 5819SOL     OW18355   4.002   4.385   1.025
 5819SOL    HW118356   3.947   4.424   0.952
 5819SOL    HW218357   4.019   4.454   1.096
 5820SOL     OW18358   0.164   6.560   2.315
 5820SOL    HW118359   0.229   6.613   2.369
 5820SOL    HW218360   0.073   6.602   2.321
 5821SOL     OW18361   6.451   6.693   2.108
 5821SOL    HW118362   6.434   6.656   2.200
 5821SOL    HW218363   6.477   6.790   2.115
 5822SOL     OW18364   0.988   3.987   2.908
 5822SOL    HW118365   0.948   4.020   2.994
 5822SOL    HW218366   0.990   3.887   2.908
 5823SOL     OW18367   2.256   6.674   5.070
 5823SOL    HW118368   2.344   6.651   5.028
 5823SOL    HW218369   2.265   6.759   5.122
 5824SOL     OW18370   2.112   6.031   2.071
 5824SOL    HW118371   2.176   5.956   2.055
 5824SOL    HW218372   2.129   6.069   2.162
 5825SOL     OW18373   4.183   1.749   5.356
 5825SOL    HW118374   4.091   1.724   5.385
 5825SOL    HW218375   4.220   1.676   5.297
 5826SOL     OW18376   1.557   6.232   4.634
 5826SOL    HW118377   1.493   6.237   4.558
 5826SOL    HW218378   1.575   6.324   4.669
 5827SOL     OW18379   1.984   3.649   3.159
 5827SOL    HW118380   2.053   3.721   3.156
 5827SOL    HW218381   1.941   3.648   3.249
 5828SOL     OW18382   4.551   6.680   4.864
 5828SOL    HW118383   4.619   6.743   4.900
 5828SOL    HW218384   4.517   6.622   4.938
 5829SOL     OW18385   2.284   0.902   2.578
 5829SOL    HW118386   2.294   0.809   2.615
 5829SOL    HW218387   2.212   0.950   2.628
 5830SOL     OW18388   4.815   5.505   4.542
 5830SOL    HW118389   4.913   5.509   4.563
 5830SOL    HW218390   4.800   5.440   4.467
 5831SOL     OW18391   1.925   1.772   4.422
 5831SOL    HW118392   1.945   1.682   4.461
 5831SOL    HW218393   2.010   1.820   4.402
 5832SOL     OW18394   2.029   4.754   3.762
 5832SOL    HW118395   2.015   4.852   3.772
 5832SOL    HW218396   2.119   4.729   3.798
 5833SOL     OW18397   3.281   4.647   1.118
 5833SOL    HW118398   3.356   4.592   1.154
 5833SOL    HW218399   3.203   4.643   1.181
 5834SOL     OW18400   5.834   2.372   6.545
 5834SOL    HW118401   5.836   2.287   6.599
 5834SOL    HW218402   5.830   2.450   6.608
 5835SOL     OW18403   4.085   1.391   3.641
 5835SOL    HW118404   4.079   1.434   3.731
 5835SOL    HW218405   4.171   1.341   3.634
 5836SOL     OW18406   5.008   5.453   1.306
 5836SOL    HW118407   4.920   5.419   1.339
 5836SOL    HW218408   5.043   5.392   1.235
 5837SOL     OW18409   2.639   4.187   0.001
 5837SOL    HW118410   2.612   4.246   0.077
 5837SOL    HW218411   2.733   4.207   6.990
 5838SOL     OW18412   3.341   3.109   0.292
 5838SOL    HW118413   3.413   3.142   0.231
 5838SOL    HW218414   3.287   3.039   0.245
 5839SOL     OW18415   2.117   1.417   0.891
 5839SOL    HW118416   2.148   1.491   0.833
 5839SOL    HW218417   2.104   1.450   0.984
 5840SOL     OW18418   6.896   3.598   2.764
 5840SOL    HW118419   6.808   3.585   2.718
 5840SOL    HW218420   6.968   3.613   2.697
 5841SOL     OW18421   5.091   1.973   0.492
 5841SOL    HW118422   5.011   2.033   0.490
 5841SOL    HW218423   5.062   1.877   0.494
 5842SOL     OW18424   3.489   2.003   2.480
 5842SOL    HW118425   3.507   2.058   2.562
 5842SOL    HW218426   3.574   1.962   2.449
 5843SOL     OW18427   3.291   3.251   1.174
 5843SOL    HW118428   3.359   3.195   1.128
 5843SOL    HW218429   3.331   3.292   1.256
 5844SOL     OW18430   0.197   5.955   4.902
 5844SOL    HW118431   0.122   6.010   4.864
 5844SOL    HW218432   0.256   5.923   4.828
 5845SOL     OW18433   2.253   6.422   3.024
 5845SOL    HW118434   2.239   6.324   3.011
 5845SOL    HW218435   2.169   6.471   3.001
 5846SOL     OW18436   0.313   4.793   5.718
 5846SOL    HW118437   0.267   4.757   5.637
 5846SOL    HW218438   0.287   4.738   5.798
 5847SOL     OW18439   1.994   4.070   5.936
 5847SOL    HW118440   2.067   4.133   5.962
 5847SOL    HW218441   1.938   4.112   5.865
 5848SOL     OW18442   2.718   6.272   1.510
 5848SOL    HW118443   2.636   6.290   1.565
 5848SOL    HW218444   2.724   6.174   1.490
 5849SOL     OW18445   2.915   5.899   6.260
 5849SOL    HW118446   2.890   5.837   6.335
 5849SOL    HW218447   2.858   5.879   6.181
 5850SOL     OW18448   5.670   2.021   1.537
 5850SOL    HW118449   5.729   2.006   1.617
 5850SOL    HW218450   5.726   2.045   1.458
 5851SOL     OW18451   0.717   3.522   4.554
 5851SOL    HW118452   0.667   3.608   4.570
 5851SOL    HW218453   0.678   3.450   4.610
 5852SOL     OW18454   5.125   4.454   2.903
 5852SOL    HW118455   5.215   4.424   2.871
 5852SOL    HW218456   5.054   4.405   2.854
 5853SOL     OW18457   4.215   5.189   0.063
 5853SOL    HW118458   4.200   5.102   0.109
 5853SOL    HW218459   4.292   5.180   7.015
 5854SOL     OW18460   2.766   4.563   5.377
 5854SOL    HW118461   2.828   4.584   5.453
 5854SOL    HW218462   2.819   4.555   5.293
 5855SOL     OW18463   1.699   2.258   4.693
 5855SOL    HW118464   1.665   2.167   4.716
 5855SOL    HW218465   1.664   2.325   4.759
 5856SOL     OW18466   0.587   0.176   2.208
 5856SOL    HW118467   0.578   0.244   2.281
 5856SOL    HW218468   0.641   0.099   2.241
 5857SOL     OW18469   5.754   5.105   0.025
 5857SOL    HW118470   5.791   5.120   6.948
 5857SOL    HW218471   5.655   5.112   0.023
 5858SOL     OW18472   2.765   1.578   2.522
 5858SOL    HW118473   2.836   1.559   2.455
 5858SOL    HW218474   2.701   1.645   2.485
 5859SOL     OW18475   5.614   5.441   1.947
 5859SOL    HW118476   5.629   5.373   2.018
 5859SOL    HW218477   5.655   5.528   1.975
 5860SOL     OW18478   2.091   3.316   2.437
 5860SOL    HW118479   2.047   3.333   2.349
 5860SOL    HW218480   2.182   3.357   2.437
 5861SOL     OW18481   5.439   0.383   5.430
 5861SOL    HW118482   5.340   0.398   5.423
 5861SOL    HW218483   5.479   0.456   5.486
 5862SOL     OW18484   6.529   4.954   2.931
 5862SOL    HW118485   6.557   5.041   2.891
 5862SOL    HW218486   6.452   4.969   2.993
 5863SOL     OW18487   4.096   0.166   5.762
 5863SOL    HW118488   4.074   0.170   5.664
 5863SOL    HW218489   4.194   0.150   5.773
 5864SOL     OW18490   3.572   3.314   3.187
 5864SOL    HW118491   3.509   3.320   3.264
 5864SOL    HW218492   3.522   3.327   3.102
 5865SOL     OW18493   6.083   6.933   1.328
 5865SOL    HW118494   5.993   6.905   1.362
 5865SOL    HW218495   6.107   6.879   1.247
 5866SOL     OW18496   3.347   3.101   3.628
 5866SOL    HW118497   3.257   3.136   3.652
 5866SOL    HW218498   3.353   3.005   3.654
 5867SOL     OW18499   4.249   1.473   0.720
 5867SOL    HW118500   4.260   1.564   0.760
 5867SOL    HW218501   4.312   1.409   0.763
 5868SOL     OW18502   1.251   0.934   0.635
 5868SOL    HW118503   1.312   0.944   0.714
 5868SOL    HW218504   1.172   0.878   0.661
 5869SOL     OW18505   2.136   5.341   3.098
 5869SOL    HW118506   2.125   5.440   3.099
 5869SOL    HW218507   2.098   5.304   3.013
 5870SOL     OW18508   4.416   6.874   4.488
 5870SOL    HW118509   4.444   6.853   4.394
 5870SOL    HW218510   4.416   6.973   4.502
 5871SOL     OW18511   3.703   3.603   3.497
 5871SOL    HW118512   3.686   3.595   3.595
 5871SOL    HW218513   3.767   3.532   3.468
 5872SOL     OW18514   3.329   5.970   1.209
 5872SOL    HW118515   3.412   6.011   1.246
 5872SOL    HW218516   3.326   5.982   1.110
 5873SOL     OW18517   3.925   6.344   2.029
 5873SOL    HW118518   3.829   6.326   2.008
 5873SOL    HW218519   3.945   6.310   2.121
 5874SOL     OW18520   0.377   4.381   4.918
 5874SOL    HW118521   0.364   4.293   4.873
 5874SOL    HW218522   0.339   4.454   4.861
 5875SOL     OW18523   3.893   2.380   1.171
 5875SOL    HW118524   3.955   2.382   1.249
 5875SOL    HW218525   3.944   2.357   1.088
 5876SOL     OW18526   3.570   3.076   2.470
 5876SOL    HW118527   3.589   3.017   2.391
 5876SOL    HW218528   3.474   3.069   2.494
 5877SOL     OW18529   5.397   4.667   1.557
 5877SOL    HW118530   5.453   4.649   1.477
 5877SOL    HW218531   5.428   4.751   1.602
 5878SOL     OW18532   1.247   4.007   2.396
 5878SOL    HW118533   1.299   3.941   2.342
 5878SOL    HW218534   1.310   4.062   2.452
 5879SOL     OW18535   2.166   3.865   4.166
 5879SOL    HW118536   2.199   3.944   4.114
 5879SOL    HW218537   2.179   3.882   4.264
 5880SOL     OW18538   2.944   5.501   6.566
 5880SOL    HW118539   2.934   5.546   6.655
 5880SOL    HW218540   3.026   5.443   6.567
 5881SOL     OW18541   1.802   6.544   4.451
 5881SOL    HW118542   1.844   6.475   4.510
 5881SOL    HW218543   1.860   6.560   4.371
 5882SOL     OW18544   4.728   0.135   3.024
 5882SOL    HW118545   4.724   0.198   3.101
 5882SOL    HW218546   4.662   0.061   3.039
 5883SOL     OW18547   1.247   2.946   4.634
 5883SOL    HW118548   1.247   3.045   4.648
 5883SOL    HW218549   1.173   2.905   4.687
 5884SOL     OW18550   0.121   0.660   2.811
 5884SOL    HW118551   0.177   0.732   2.851
 5884SOL    HW218552   0.089   0.598   2.882
 5885SOL     OW18553   5.495   6.699   0.637
 5885SOL    HW118554   5.528   6.684   0.730
 5885SOL    HW218555   5.571   6.730   0.579
 5886SOL     OW18556   5.962   1.912   6.490
 5886SOL    HW118557   6.031   1.965   6.441
 5886SOL    HW218558   5.872   1.955   6.479
 5887SOL     OW18559   3.783   5.842   3.139
 5887SOL    HW118560   3.772   5.745   3.121
 5887SOL    HW218561   3.853   5.879   3.077
 5888SOL     OW18562   6.620   6.231   2.285
 5888SOL    HW118563   6.586   6.187   2.202
 5888SOL    HW218564   6.689   6.173   2.328
 5889SOL     OW18565   3.111   0.042   6.615
 5889SOL    HW118566   3.018   0.007   6.603
 5889SOL    HW218567   3.170   0.008   6.542
 5890SOL     OW18568   3.962   4.985   6.212
 5890SOL    HW118569   4.019   4.914   6.169
 5890SOL    HW218570   4.011   5.023   6.290
 5891SOL     OW18571   1.624   3.334   5.656
 5891SOL    HW118572   1.577   3.263   5.708
 5891SOL    HW218573   1.716   3.347   5.693
 5892SOL     OW18574   2.248   6.187   2.660
 5892SOL    HW118575   2.208   6.159   2.747
 5892SOL    HW218576   2.268   6.285   2.662
 5893SOL     OW18577   1.508   1.983   2.682
 5893SOL    HW118578   1.470   1.947   2.768
 5893SOL    HW218579   1.593   2.032   2.701
 5894SOL     OW18580   1.512   3.840   4.318
 5894SOL    HW118581   1.420   3.876   4.306
 5894SOL    HW218582   1.569   3.867   4.240
 5895SOL     OW18583   5.806   4.337   3.386
 5895SOL    HW118584   5.774   4.262   3.443
 5895SOL    HW218585   5.785   4.424   3.431
 5896SOL     OW18586   5.176   2.979   6.055
 5896SOL    HW118587   5.248   2.929   6.005
 5896SOL    HW218588   5.145   2.925   6.133
 5897SOL     OW18589   4.390   5.371   0.717
 5897SOL    HW118590   4.292   5.367   0.700
 5897SOL    HW218591   4.434   5.429   0.648
 5898SOL     OW18592   2.548   0.004   3.216
 5898SOL    HW118593   2.560   0.078   3.150
 5898SOL    HW218594   2.453   0.001   3.246
 5899SOL     OW18595   5.293   0.700   4.049
 5899SOL    HW118596   5.232   0.779   4.062
 5899SOL    HW218597   5.385   0.723   4.083
 5900SOL     OW18598   3.847   5.164   2.001
 5900SOL    HW118599   3.751   5.139   1.989
 5900SOL    HW218600   3.905   5.102   1.948
 5901SOL     OW18601   2.714   6.181   4.704
 5901SOL    HW118602   2.737   6.278   4.714
 5901SOL    HW218603   2.725   6.136   4.792
 5902SOL     OW18604   5.950   2.372   0.245
 5902SOL    HW118605   5.999   2.385   0.158
 5902SOL    HW218606   6.014   2.341   0.315
 5903SOL     OW18607   0.098   2.800   6.143
 5903SOL    HW118608   0.001   2.800   6.169
 5903SOL    HW218609   0.146   2.873   6.191
 5904SOL     OW18610   1.543   2.875   2.019
 5904SOL    HW118611   1.624   2.870   2.078
 5904SOL    HW218612   1.527   2.971   1.993
 5905SOL     OW18613   0.405   4.629   2.641
 5905SOL    HW118614   0.449   4.556   2.588
 5905SOL    HW218615   0.359   4.590   2.721
 5906SOL     OW18616   0.692   0.231   2.977
 5906SOL    HW118617   0.762   0.212   2.909
 5906SOL    HW218618   0.622   0.160   2.975
 5907SOL     OW18619   2.251   6.830   2.697
 5907SOL    HW118620   2.170   6.774   2.716
 5907SOL    HW218621   2.226   6.927   2.702
 5908SOL     OW18622   0.859   2.562   5.974
 5908SOL    HW118623   0.792   2.633   5.954
 5908SOL    HW218624   0.943   2.580   5.922
 5909SOL     OW18625   6.054   4.659   0.197
 5909SOL    HW118626   6.054   4.560   0.182
 5909SOL    HW218627   6.072   4.679   0.293
 5910SOL     OW18628   1.116   1.776   3.445
 5910SOL    HW118629   1.112   1.761   3.347
 5910SOL    HW218630   1.037   1.831   3.473
 5911SOL     OW18631   6.356   5.945   0.030
 5911SOL    HW118632   6.424   6.009   0.066
 5911SOL    HW218633   6.383   5.915   6.954
 5912SOL     OW18634   0.456   0.116   3.773
 5912SOL    HW118635   0.427   0.151   3.861
 5912SOL    HW218636   0.493   0.024   3.784
 5913SOL     OW18637   6.911   2.647   0.953
 5913SOL    HW118638   6.816   2.674   0.937
 5913SOL    HW218639   6.970   2.727   0.948
 5914SOL     OW18640   0.628   6.673   0.824
 5914SOL    HW118641   0.656   6.758   0.870
 5914SOL    HW218642   0.686   6.598   0.855
 5915SOL     OW18643   3.981   0.848   5.744
 5915SOL    HW118644   4.062   0.800   5.711
 5915SOL    HW218645   4.000   0.887   5.835
 5916SOL     OW18646   1.066   0.292   2.692
 5916SOL    HW118647   1.154   0.249   2.673
 5916SOL    HW218648   1.010   0.293   2.608
 5917SOL     OW18649   3.329   2.534   0.343
 5917SOL    HW118650   3.346   2.439   0.318
 5917SOL    HW218651   3.245   2.565   0.297
 5918SOL     OW18652   3.332   6.743   4.228
 5918SOL    HW118653   3.423   6.707   4.247
 5918SOL    HW218654   3.265   6.697   4.286
 5919SOL     OW18655   3.011   3.058   4.599
 5919SOL    HW118656   3.004   2.960   4.620
 5919SOL    HW218657   3.064   3.103   4.671
 5920SOL     OW18658   0.773   0.641   5.765
 5920SOL    HW118659   0.756   0.558   5.712
 5920SOL    HW218660   0.751   0.721   5.710
 5921SOL     OW18661   2.746   4.538   0.039
 5921SOL    HW118662   2.748   4.556   6.956
 5921SOL    HW218663   2.755   4.625   0.088
 5922SOL     OW18664   5.402   2.362   2.535
 5922SOL    HW118665   5.325   2.388   2.475
 5922SOL    HW218666   5.486   2.404   2.501
 5923SOL     OW18667   5.803   0.592   3.084
 5923SOL    HW118668   5.855   0.523   3.135
 5923SOL    HW218669   5.738   0.637   3.145
 5924SOL     OW18670   6.637   6.702   3.391
 5924SOL    HW118671   6.732   6.713   3.360
 5924SOL    HW218672   6.611   6.605   3.386
 5925SOL     OW18673   4.903   1.100   0.806
 5925SOL    HW118674   4.930   1.156   0.728
 5925SOL    HW218675   4.894   1.158   0.887
 5926SOL     OW18676   5.571   3.533   3.238
 5926SOL    HW118677   5.655   3.579   3.211
 5926SOL    HW218678   5.593   3.445   3.279
 5927SOL     OW18679   0.533   5.882   1.674
 5927SOL    HW118680   0.458   5.948   1.673
 5927SOL    HW218681   0.519   5.815   1.747
 5928SOL     OW18682   2.880   0.011   6.922
 5928SOL    HW118683   2.867   0.020   0.005
 5928SOL    HW218684   2.903   6.931   6.900
 5929SOL     OW18685   1.303   0.556   0.896
 5929SOL    HW118686   1.220   0.597   0.859
 5929SOL    HW218687   1.354   0.512   0.822
 5930SOL     OW18688   1.185   4.042   1.958
 5930SOL    HW118689   1.169   4.135   1.925
 5930SOL    HW218690   1.283   4.026   1.964
 5931SOL     OW18691   4.846   6.196   3.608
 5931SOL    HW118692   4.863   6.171   3.513
 5931SOL    HW218693   4.768   6.258   3.613
 5932SOL     OW18694   3.028   6.269   0.282
 5932SOL    HW118695   2.943   6.222   0.306
 5932SOL    HW218696   3.073   6.220   0.207
 5933SOL     OW18697   6.620   5.675   4.457
 5933SOL    HW118698   6.561   5.611   4.506
 5933SOL    HW218699   6.654   5.631   4.374
 5934SOL     OW18700   3.006   3.473   0.519
 5934SOL    HW118701   3.002   3.573   0.530
 5934SOL    HW218702   3.055   3.433   0.596
 5935SOL     OW18703   1.020   0.357   5.337
 5935SOL    HW118704   1.099   0.305   5.304
 5935SOL    HW218705   0.940   0.298   5.341
 5936SOL     OW18706   3.617   2.844   2.249
 5936SOL    HW118707   3.598   2.746   2.263
 5936SOL    HW218708   3.608   2.866   2.152
 5937SOL     OW18709   0.338   3.050   0.302
 5937SOL    HW118710   0.347   2.977   0.369
 5937SOL    HW218711   0.264   3.112   0.329
 5938SOL     OW18712   0.798   3.324   3.947
 5938SOL    HW118713   0.745   3.403   3.916
 5938SOL    HW218714   0.879   3.314   3.889
 5939SOL     OW18715   4.450   1.493   5.574
 5939SOL    HW118716   4.388   1.571   5.583
 5939SOL    HW218717   4.439   1.452   5.484
 5940SOL     OW18718   4.997   5.081   2.047
 5940SOL    HW118719   5.094   5.098   2.062
 5940SOL    HW218720   4.971   4.995   2.090
 5941SOL     OW18721   0.374   1.854   2.945
 5941SOL    HW118722   0.314   1.827   3.020
 5941SOL    HW218723   0.438   1.924   2.977
 5942SOL     OW18724   5.416   2.571   6.554
 5942SOL    HW118725   5.329   2.547   6.510
 5942SOL    HW218726   5.484   2.501   6.533
 5943SOL     OW18727   1.431   4.366   1.004
 5943SOL    HW118728   1.463   4.329   1.091
 5943SOL    HW218729   1.409   4.463   1.015
 5944SOL     OW18730   6.419   3.822   5.827
 5944SOL    HW118731   6.363   3.898   5.798
 5944SOL    HW218732   6.467   3.783   5.748
 5945SOL     OW18733   6.455   6.312   4.354
 5945SOL    HW118734   6.553   6.335   4.361
 5945SOL    HW218735   6.431   6.246   4.425
 5946SOL     OW18736   2.097   3.448   6.716
 5946SOL    HW118737   2.146   3.362   6.732
 5946SOL    HW218738   2.042   3.470   6.797
 5947SOL     OW18739   3.888   3.529   4.543
 5947SOL    HW118740   3.800   3.551   4.584
 5947SOL    HW218741   3.895   3.430   4.532
 5948SOL     OW18742   4.920   4.133   1.577
 5948SOL    HW118743   4.877   4.072   1.510
 5948SOL    HW218744   4.901   4.228   1.552
 5949SOL     OW18745   0.573   3.844   3.203
 5949SOL    HW118746   0.567   3.902   3.284
 5949SOL    HW218747   0.649   3.779   3.214
 5950SOL     OW18748   2.744   6.874   4.680
 5950SOL    HW118749   2.832   6.918   4.695
 5950SOL    HW218750   2.701   6.856   4.769
 5951SOL     OW18751   6.802   3.538   6.429
 5951SOL    HW118752   6.791   3.629   6.469
 5951SOL    HW218753   6.866   3.543   6.352
 5952SOL     OW18754   3.728   4.049   1.999
 5952SOL    HW118755   3.654   4.096   2.047
 5952SOL    HW218756   3.693   3.964   1.959
 5953SOL     OW18757   6.605   3.252   5.777
 5953SOL    HW118758   6.574   3.199   5.699
 5953SOL    HW218759   6.650   3.336   5.746
 5954SOL     OW18760   2.407   5.577   3.816
 5954SOL    HW118761   2.435   5.482   3.819
 5954SOL    HW218762   2.336   5.590   3.746
 5955SOL     OW18763   4.207   3.289   0.443
 5955SOL    HW118764   4.253   3.225   0.381
 5955SOL    HW218765   4.204   3.250   0.535
 5956SOL     OW18766   4.627   2.982   5.940
 5956SOL    HW118767   4.696   2.924   5.984
 5956SOL    HW218768   4.653   3.078   5.950
 5957SOL     OW18769   6.618   1.675   3.636
 5957SOL    HW118770   6.718   1.669   3.633
 5957SOL    HW218771   6.579   1.601   3.582
 5958SOL     OW18772   2.605   6.271   3.325
 5958SOL    HW118773   2.594   6.252   3.423
 5958SOL    HW218774   2.695   6.312   3.308
 5959SOL     OW18775   5.561   3.495   2.945
 5959SOL    HW118776   5.592   3.550   3.023
 5959SOL    HW218777   5.502   3.421   2.977
 5960SOL     OW18778   5.313   0.352   6.237
 5960SOL    HW118779   5.275   0.277   6.183
 5960SOL    HW218780   5.315   0.435   6.183
 5961SOL     OW18781   3.041   1.924   3.668
 5961SOL    HW118782   3.048   1.865   3.588
 5961SOL    HW218783   3.010   2.015   3.640
 5962SOL     OW18784   4.553   4.993   0.545
 5962SOL    HW118785   4.580   4.906   0.587
 5962SOL    HW218786   4.629   5.058   0.551
 5963SOL     OW18787   1.756   3.676   0.445
 5963SOL    HW118788   1.838   3.699   0.496
 5963SOL    HW218789   1.781   3.629   0.360
 5964SOL     OW18790   2.025   0.351   2.883
 5964SOL    HW118791   1.934   0.310   2.878
 5964SOL    HW218792   2.044   0.400   2.798
 5965SOL     OW18793   2.517   0.676   1.009
 5965SOL    HW118794   2.426   0.711   0.987
 5965SOL    HW218795   2.520   0.578   0.992
 5966SOL     OW18796   2.936   1.759   5.192
 5966SOL    HW118797   3.027   1.799   5.180
 5966SOL    HW218798   2.870   1.808   5.135
 5967SOL     OW18799   4.728   2.192   5.191
 5967SOL    HW118800   4.678   2.173   5.107
 5967SOL    HW218801   4.826   2.177   5.176
 5968SOL     OW18802   5.823   1.859   2.837
 5968SOL    HW118803   5.781   1.842   2.747
 5968SOL    HW218804   5.751   1.885   2.902
 5969SOL     OW18805   4.957   6.954   0.966
 5969SOL    HW118806   5.009   0.023   0.962
 5969SOL    HW218807   4.971   6.909   1.054
 5970SOL     OW18808   6.543   2.979   0.541
 5970SOL    HW118809   6.634   2.939   0.554
 5970SOL    HW218810   6.483   2.952   0.615
 5971SOL     OW18811   6.889   5.118   3.523
 5971SOL    HW118812   6.916   5.030   3.483
 5971SOL    HW218813   6.798   5.108   3.565
 5972SOL     OW18814   5.903   5.283   1.095
 5972SOL    HW118815   5.834   5.226   1.049
 5972SOL    HW218816   5.986   5.229   1.110
 5973SOL     OW18817   2.820   1.016   2.266
 5973SOL    HW118818   2.754   0.971   2.326
 5973SOL    HW218819   2.913   0.995   2.296
 5974SOL     OW18820   5.628   1.205   4.980
 5974SOL    HW118821   5.716   1.217   5.024
 5974SOL    HW218822   5.641   1.201   4.880
 5975SOL     OW18823   4.544   5.210   1.504
 5975SOL    HW118824   4.462   5.259   1.476
 5975SOL    HW218825   4.566   5.233   1.599
 5976SOL     OW18826   1.740   4.329   5.536
 5976SOL    HW118827   1.771   4.262   5.469
 5976SOL    HW218828   1.641   4.332   5.537
 5977SOL     OW18829   6.563   5.404   1.106
 5977SOL    HW118830   6.553   5.318   1.155
 5977SOL    HW218831   6.485   5.463   1.124
 5978SOL     OW18832   2.943   3.825   6.486
 5978SOL    HW118833   3.035   3.815   6.447
 5978SOL    HW218834   2.908   3.735   6.510
 5979SOL     OW18835   6.507   6.631   1.008
 5979SOL    HW118836   6.587   6.623   0.950
 5979SOL    HW218837   6.526   6.697   1.082
 5980SOL     OW18838   3.094   2.535   0.780
 5980SOL    HW118839   3.179   2.566   0.740
 5980SOL    HW218840   3.095   2.435   0.789
 5981SOL     OW18841   2.962   2.615   1.084
 5981SOL    HW118842   2.934   2.567   1.001
 5981SOL    HW218843   3.006   2.551   1.146
 5982SOL     OW18844   5.302   2.736   1.508
 5982SOL    HW118845   5.362   2.754   1.586
 5982SOL    HW218846   5.320   2.644   1.473
 5983SOL     OW18847   6.931   1.224   3.483
 5983SOL    HW118848   6.964   1.317   3.501
 5983SOL    HW218849   6.956   1.165   3.560
 5984SOL     OW18850   6.149   6.119   3.461
 5984SOL    HW118851   6.173   6.132   3.557
 5984SOL    HW218852   6.218   6.061   3.417
 5985SOL     OW18853   0.253   3.780   2.860
 5985SOL    HW118854   0.348   3.764   2.887
 5985SOL    HW218855   0.195   3.705   2.891
 5986SOL     OW18856   3.563   3.536   3.774
 5986SOL    HW118857   3.590   3.450   3.730
 5986SOL    HW218858   3.464   3.536   3.790
 5987SOL     OW18859   6.984   5.589   4.745
 5987SOL    HW118860   0.062   5.564   4.771
 5987SOL    HW218861   6.962   5.678   4.786
 5988SOL     OW18862   0.979   3.233   6.778
 5988SOL    HW118863   1.026   3.145   6.778
 5988SOL    HW218864   0.881   3.218   6.787
 5989SOL     OW18865   1.790   6.941   5.374
 5989SOL    HW118866   1.710   6.970   5.427
 5989SOL    HW218867   1.802   7.002   5.296
 5990SOL     OW18868   1.751   4.641   1.574
 5990SOL    HW118869   1.776   4.544   1.563
 5990SOL    HW218870   1.821   4.697   1.530
 5991SOL     OW18871   5.625   1.196   0.930
 5991SOL    HW118872   5.625   1.102   0.894
 5991SOL    HW218873   5.642   1.194   1.028
 5992SOL     OW18874   3.162   5.144   3.221
 5992SOL    HW118875   3.120   5.122   3.132
 5992SOL    HW218876   3.094   5.134   3.293
 5993SOL     OW18877   5.726   2.108   0.535
 5993SOL    HW118878   5.709   2.204   0.557
 5993SOL    HW218879   5.820   2.097   0.503
 5994SOL     OW18880   6.810   3.846   0.069
 5994SOL    HW118881   6.871   3.853   0.148
 5994SOL    HW218882   6.787   3.938   0.037
 5995SOL     OW18883   5.280   3.563   1.343
 5995SOL    HW118884   5.220   3.589   1.419
 5995SOL    HW218885   5.313   3.470   1.358
 5996SOL     OW18886   2.419   0.311   1.735
 5996SOL    HW118887   2.469   0.358   1.662
 5996SOL    HW218888   2.472   0.231   1.765
 5997SOL     OW18889   6.063   0.295   4.073
 5997SOL    HW118890   5.982   0.353   4.066
 5997SOL    HW218891   6.142   0.343   4.035
 5998SOL     OW18892   6.141   6.152   6.818
 5998SOL    HW118893   6.138   6.230   6.880
 5998SOL    HW218894   6.124   6.067   6.869
 5999SOL     OW18895   5.515   3.669   1.377
 5999SOL    HW118896   5.505   3.742   1.445
 5999SOL    HW218897   5.428   3.621   1.366
 6000SOL     OW18898   1.189   4.486   0.863
 6000SOL    HW118899   1.240   4.435   0.795
 6000SOL    HW218900   1.247   4.556   0.904
 6001SOL     OW18901   6.290   5.458   5.559
 6001SOL    HW118902   6.270   5.471   5.462
 6001SOL    HW218903   6.359   5.386   5.570
 6002SOL     OW18904   5.325   4.564   5.023
 6002SOL    HW118905   5.258   4.534   4.955
 6002SOL    HW218906   5.279   4.585   5.109
 6003SOL     OW18907   2.638   2.169   5.293
 6003SOL    HW118908   2.586   2.227   5.355
 6003SOL    HW218909   2.708   2.224   5.246
 6004SOL     OW18910   5.344   3.445   5.187
 6004SOL    HW118911   5.301   3.413   5.271
 6004SOL    HW218912   5.436   3.406   5.180
 6005SOL     OW18913   3.957   4.122   0.368
 6005SOL    HW118914   3.965   4.060   0.290
 6005SOL    HW218915   4.048   4.157   0.392
 6006SOL     OW18916   3.017   6.407   6.926
 6006SOL    HW118917   2.957   6.456   6.863
 6006SOL    HW218918   3.064   6.473   6.984
 6007SOL     OW18919   2.077   6.615   5.333
 6007SOL    HW118920   2.080   6.704   5.379
 6007SOL    HW218921   2.128   6.621   5.248
 6008SOL     OW18922   2.222   4.093   6.462
 6008SOL    HW118923   2.165   4.011   6.466
 6008SOL    HW218924   2.177   4.162   6.406
 6009SOL     OW18925   3.724   5.260   2.837
 6009SOL    HW118926   3.706   5.172   2.792
 6009SOL    HW218927   3.820   5.285   2.824
 6010SOL     OW18928   0.419   4.864   5.016
 6010SOL    HW118929   0.479   4.886   5.093
 6010SOL    HW218930   0.324   4.881   5.043
 6011SOL     OW18931   5.199   1.763   3.224
 6011SOL    HW118932   5.181   1.797   3.132
 6011SOL    HW218933   5.215   1.665   3.221
 6012SOL     OW18934   6.661   0.873   5.791
 6012SOL    HW118935   6.659   0.821   5.877
 6012SOL    HW218936   6.756   0.891   5.766
 6013SOL     OW18937   5.517   1.340   2.331
 6013SOL    HW118938   5.526   1.267   2.397
 6013SOL    HW218939   5.473   1.419   2.374
 6014SOL     OW18940   3.412   3.546   4.324
 6014SOL    HW118941   3.325   3.508   4.353
 6014SOL    HW218942   3.435   3.513   4.232
 6015SOL     OW18943   6.251   6.690   4.456
 6015SOL    HW118944   6.187   6.631   4.407
 6015SOL    HW218945   6.313   6.734   4.391
 6016SOL     OW18946   4.205   2.213   4.702
 6016SOL    HW118947   4.135   2.179   4.764
 6016SOL    HW218948   4.162   2.268   4.630
 6017SOL     OW18949   1.633   1.641   5.435
 6017SOL    HW118950   1.624   1.713   5.504
 6017SOL    HW218951   1.542   1.608   5.409
 6018SOL     OW18952   2.586   1.088   3.991
 6018SOL    HW118953   2.657   1.152   3.963
 6018SOL    HW218954   2.611   1.047   4.078
 6019SOL     OW18955   6.580   4.517   6.717
 6019SOL    HW118956   6.606   4.527   6.621
 6019SOL    HW218957   6.543   4.425   6.732
 6020SOL     OW18958   0.537   5.161   5.531
 6020SOL    HW118959   0.604   5.091   5.506
 6020SOL    HW218960   0.535   5.232   5.461
 6021SOL     OW18961   5.521   0.281   3.230
 6021SOL    HW118962   5.556   0.359   3.282
 6021SOL    HW218963   5.574   0.271   3.146
 6022SOL     OW18964   6.066   2.775   1.562
 6022SOL    HW118965   5.999   2.848   1.577
 6022SOL    HW218966   6.024   2.700   1.512
 6023SOL     OW18967   4.709   6.699   2.099
 6023SOL    HW118968   4.742   6.604   2.095
 6023SOL    HW218969   4.680   6.720   2.193
 6024SOL     OW18970   0.309   6.240   6.218
 6024SOL    HW118971   0.397   6.222   6.262
 6024SOL    HW218972   0.274   6.155   6.179
 6025SOL     OW18973   2.845   0.800   5.862
 6025SOL    HW118974   2.869   0.897   5.857
 6025SOL    HW218975   2.780   0.779   5.789
 6026SOL     OW18976   6.098   5.650   3.557
 6026SOL    HW118977   6.069   5.580   3.623
 6026SOL    HW218978   6.032   5.725   3.557
 6027SOL     OW18979   6.085   5.190   6.136
 6027SOL    HW118980   6.011   5.205   6.071
 6027SOL    HW218981   6.093   5.093   6.155
 6028SOL     OW18982   6.000   6.197   5.977
 6028SOL    HW118983   6.052   6.221   5.894
 6028SOL    HW218984   6.055   6.217   6.058
 6029SOL     OW18985   3.585   1.382   2.421
 6029SOL    HW118986   3.676   1.384   2.381
 6029SOL    HW218987   3.560   1.474   2.453
 6030SOL     OW18988   6.339   3.272   4.419
 6030SOL    HW118989   6.340   3.363   4.461
 6030SOL    HW218990   6.329   3.203   4.491
 6031SOL     OW18991   0.169   6.353   4.531
 6031SOL    HW118992   0.213   6.408   4.460
 6031SOL    HW218993   0.071   6.347   4.512
 6032SOL     OW18994   3.559   6.661   3.185
 6032SOL    HW118995   3.511   6.702   3.107
 6032SOL    HW218996   3.512   6.577   3.212
 6033SOL     OW18997   0.493   1.399   2.364
 6033SOL    HW118998   0.551   1.469   2.406
 6033SOL    HW218999   0.474   1.327   2.431
 6034SOL     OW19000   0.577   0.401   0.598
 6034SOL    HW119001   0.560   0.498   0.613
 6034SOL    HW219002   0.655   0.390   0.536
 6035SOL     OW19003   2.474   0.338   2.601
 6035SOL    HW119004   2.546   0.339   2.532
 6035SOL    HW219005   2.515   0.352   2.691
 6036SOL     OW19006   6.185   3.508   0.604
 6036SOL    HW119007   6.263   3.448   0.623
 6036SOL    HW219008   6.100   3.457   0.618
 6037SOL     OW19009   4.837   1.112   5.976
 6037SOL    HW119010   4.892   1.163   5.911
 6037SOL    HW219011   4.746   1.096   5.937
 6038SOL     OW19012   1.842   1.289   5.966
 6038SOL    HW119013   1.841   1.267   5.868
 6038SOL    HW219014   1.784   1.224   6.015
 6039SOL     OW19015   4.087   3.337   3.879
 6039SOL    HW119016   4.143   3.366   3.956
 6039SOL    HW219017   4.013   3.278   3.912
 6040SOL     OW19018   0.746   2.118   0.014
 6040SOL    HW119019   0.687   2.199   0.011
 6040SOL    HW219020   0.696   2.040   0.049
 6041SOL     OW19021   0.404   3.508   5.122
 6041SOL    HW119022   0.480   3.532   5.062
 6041SOL    HW219023   0.435   3.444   5.193
 6042SOL     OW19024   2.895   5.921   3.813
 6042SOL    HW119025   2.959   5.848   3.838
 6042SOL    HW219026   2.931   5.970   3.733
 6043SOL     OW19027   2.496   7.009   2.580
 6043SOL    HW119028   2.416   6.980   2.633
 6043SOL    HW219029   2.470   0.065   2.516
 6044SOL     OW19030   0.261   3.449   0.297
 6044SOL    HW119031   0.199   3.524   0.319
 6044SOL    HW219032   0.235   3.368   0.351
 6045SOL     OW19033   5.315   1.054   4.007
 6045SOL    HW119034   5.390   1.058   4.073
 6045SOL    HW219035   5.350   1.024   3.918
 6046SOL     OW19036   3.566   3.323   2.757
 6046SOL    HW119037   3.634   3.343   2.686
 6046SOL    HW219038   3.604   3.256   2.821
 6047SOL     OW19039   0.210   1.833   0.265
 6047SOL    HW119040   0.143   1.763   0.289
 6047SOL    HW219041   0.197   1.859   0.169
 6048SOL     OW19042   5.773   5.734   3.336
 6048SOL    HW119043   5.689   5.682   3.352
 6048SOL    HW219044   5.832   5.683   3.273
 6049SOL     OW19045   4.879   4.752   6.295
 6049SOL    HW119046   4.953   4.736   6.359
 6049SOL    HW219047   4.871   4.675   6.232
 6050SOL     OW19048   2.598   5.358   2.562
 6050SOL    HW119049   2.684   5.397   2.594
 6050SOL    HW219050   2.612   5.313   2.474
 6051SOL     OW19051   0.632   0.872   2.601
 6051SOL    HW119052   0.638   0.945   2.670
 6051SOL    HW219053   0.698   0.800   2.622
 6052SOL     OW19054   5.362   5.129   0.563
 6052SOL    HW119055   5.396   5.073   0.638
 6052SOL    HW219056   5.289   5.081   0.515
 6053SOL     OW19057   4.367   2.430   6.664
 6053SOL    HW119058   4.280   2.394   6.629
 6053SOL    HW219059   4.378   2.404   6.760
 6054SOL     OW19060   4.164   3.913   0.657
 6054SOL    HW119061   4.241   3.974   0.680
 6054SOL    HW219062   4.123   3.879   0.741
 6055SOL     OW19063   3.267   3.564   1.360
 6055SOL    HW119064   3.251   3.586   1.456
 6055SOL    HW219065   3.199   3.610   1.303
 6056SOL     OW19066   5.444   5.689   3.522
 6056SOL    HW119067   5.494   5.765   3.564
 6056SOL    HW219068   5.392   5.724   3.443
 6057SOL     OW19069   5.318   0.893   3.415
 6057SOL    HW119070   5.304   0.936   3.326
 6057SOL    HW219071   5.413   0.903   3.443
 6058SOL     OW19072   0.110   2.598   5.808
 6058SOL    HW119073   0.104   2.673   5.875
 6058SOL    HW219074   0.165   2.627   5.730
 6059SOL     OW19075   4.111   2.801   0.041
 6059SOL    HW119076   4.151   2.741   6.988
 6059SOL    HW219077   4.107   2.895   0.005
 6060SOL     OW19078   2.161   2.766   0.370
 6060SOL    HW119079   2.179   2.692   0.435
 6060SOL    HW219080   2.103   2.732   0.296
 6061SOL     OW19081   3.334   4.172   0.117
 6061SOL    HW119082   3.325   4.216   0.028
 6061SOL    HW219083   3.351   4.075   0.105
 6062SOL     OW19084   2.190   2.173   6.274
 6062SOL    HW119085   2.258   2.196   6.205
 6062SOL    HW219086   2.100   2.163   6.231
 6063SOL     OW19087   4.545   4.025   6.677
 6063SOL    HW119088   4.595   4.111   6.682
 6063SOL    HW219089   4.476   4.022   6.749
 6064SOL     OW19090   5.751   6.056   0.791
 6064SOL    HW119091   5.696   6.086   0.868
 6064SOL    HW219092   5.691   6.022   0.718
 6065SOL     OW19093   2.288   6.118   1.542
 6065SOL    HW119094   2.233   6.078   1.615
 6065SOL    HW219095   2.319   6.046   1.480
 6066SOL     OW19096   5.805   5.270   2.741
 6066SOL    HW119097   5.739   5.319   2.798
 6066SOL    HW219098   5.827   5.324   2.661
 6067SOL     OW19099   0.063   6.149   5.943
 6067SOL    HW119100   0.064   6.151   6.043
 6067SOL    HW219101   0.118   6.071   5.912
 6068SOL     OW19102   4.301   2.008   4.313
 6068SOL    HW119103   4.292   2.099   4.273
 6068SOL    HW219104   4.353   2.014   4.398
 6069SOL     OW19105   0.245   4.806   6.074
 6069SOL    HW119106   0.250   4.718   6.027
 6069SOL    HW219107   0.311   4.869   6.034
 6070SOL     OW19108   2.544   1.554   0.887
 6070SOL    HW119109   2.516   1.471   0.936
 6070SOL    HW219110   2.550   1.630   0.951
 6071SOL     OW19111   5.590   0.702   6.228
 6071SOL    HW119112   5.562   0.776   6.289
 6071SOL    HW219113   5.513   0.641   6.213
 6072SOL     OW19114   6.919   3.271   0.219
 6072SOL    HW119115   6.903   3.228   0.308
 6072SOL    HW219116   6.837   3.321   0.190
 6073SOL     OW19117   4.741   3.763   0.709
 6073SOL    HW119118   4.731   3.723   0.618
 6073SOL    HW219119   4.733   3.691   0.778
 6074SOL     OW19120   0.601   6.640   2.620
 6074SOL    HW119121   0.627   6.671   2.711
 6074SOL    HW219122   0.662   6.680   2.552
 6075SOL     OW19123   5.972   0.578   0.073
 6075SOL    HW119124   6.003   0.483   0.075
 6075SOL    HW219125   6.041   0.634   0.027
 6076SOL     OW19126   0.573   6.355   3.554
 6076SOL    HW119127   0.642   6.290   3.585
 6076SOL    HW219128   0.556   6.341   3.456
 6077SOL     OW19129   5.211   5.916   2.917
 6077SOL    HW119130   5.255   5.886   2.832
 6077SOL    HW219131   5.115   5.889   2.916
 6078SOL     OW19132   4.974   4.460   0.710
 6078SOL    HW119133   4.931   4.370   0.702
 6078SOL    HW219134   4.919   4.528   0.663
 6079SOL     OW19135   3.380   2.081   0.306
 6079SOL    HW119136   3.288   2.043   0.319
 6079SOL    HW219137   3.380   2.140   0.224
 6080SOL     OW19138   6.915   3.856   5.711
 6080SOL    HW119139   6.872   3.937   5.671
 6080SOL    HW219140   6.874   3.773   5.672
 6081SOL     OW19141   1.732   3.561   3.576
 6081SOL    HW119142   1.668   3.486   3.564
 6081SOL    HW219143   1.771   3.558   3.668
 6082SOL     OW19144   5.341   1.359   1.480
 6082SOL    HW119145   5.317   1.333   1.386
 6082SOL    HW219146   5.269   1.416   1.518
 6083SOL     OW19147   5.115   6.757   6.465
 6083SOL    HW119148   5.115   6.679   6.527
 6083SOL    HW219149   5.142   6.726   6.373
 6084SOL     OW19150   5.954   5.291   3.104
 6084SOL    HW119151   5.875   5.286   3.164
 6084SOL    HW219152   5.939   5.361   3.034
 6085SOL     OW19153   0.481   6.672   0.575
 6085SOL    HW119154   0.447   6.695   0.666
 6085SOL    HW219155   0.517   6.579   0.574
 6086SOL     OW19156   3.295   3.629   6.916
 6086SOL    HW119157   3.199   3.651   6.935
 6086SOL    HW219158   3.333   3.698   6.855
 6087SOL     OW19159   4.230   0.046   0.655
 6087SOL    HW119160   4.215   0.037   0.753
 6087SOL    HW219161   4.308   7.004   0.628
 6088SOL     OW19162   4.709   5.894   2.720
 6088SOL    HW119163   4.681   5.841   2.799
 6088SOL    HW219164   4.628   5.925   2.669
 6089SOL     OW19165   6.254   3.887   2.892
 6089SOL    HW119166   6.215   3.978   2.875
 6089SOL    HW219167   6.235   3.859   2.986
 6090SOL     OW19168   3.690   5.790   4.799
 6090SOL    HW119169   3.654   5.806   4.707
 6090SOL    HW219170   3.766   5.853   4.816
 6091SOL     OW19171   6.934   1.746   1.693
 6091SOL    HW119172   6.924   1.845   1.694
 6091SOL    HW219173   7.006   1.719   1.758
 6092SOL     OW19174   2.569   6.745   1.421
 6092SOL    HW119175   2.528   6.758   1.330
 6092SOL    HW219176   2.567   6.831   1.471
 6093SOL     OW19177   2.458   2.532   1.994
 6093SOL    HW119178   2.400   2.453   2.013
 6093SOL    HW219179   2.524   2.509   1.923
 6094SOL     OW19180   0.730   6.527   5.332
 6094SOL    HW119181   0.659   6.582   5.289
 6094SOL    HW219182   0.759   6.455   5.269
 6095SOL     OW19183   5.247   5.013   2.218
 6095SOL    HW119184   5.231   4.933   2.277
 6095SOL    HW219185   5.334   5.002   2.171
 6096SOL     OW19186   5.216   5.999   3.188
 6096SOL    HW119187   5.157   6.078   3.172
 6096SOL    HW219188   5.228   5.948   3.103
 6097SOL     OW19189   2.966   5.203   2.385
 6097SOL    HW119190   2.980   5.263   2.307
 6097SOL    HW219191   2.868   5.196   2.405
 6098SOL     OW19192   6.218   0.995   5.009
 6098SOL    HW119193   6.255   1.083   4.979
 6098SOL    HW219194   6.160   1.008   5.089
 6099SOL     OW19195   4.351   0.397   5.630
 6099SOL    HW119196   4.337   0.334   5.706
 6099SOL    HW219197   4.272   0.394   5.570
 6100SOL     OW19198   0.868   5.713   5.418
 6100SOL    HW119199   0.847   5.676   5.508
 6100SOL    HW219200   0.871   5.813   5.423
 6101SOL     OW19201   6.966   2.893   1.623
 6101SOL    HW119202   6.983   2.803   1.664
 6101SOL    HW219203   6.870   2.918   1.635
 6102SOL     OW19204   3.511   6.913   3.003
 6102SOL    HW119205   3.605   6.924   3.034
 6102SOL    HW219206   3.457   6.993   3.031
 6103SOL     OW19207   5.963   1.189   3.066
 6103SOL    HW119208   6.017   1.106   3.051
 6103SOL    HW219209   5.999   1.263   3.010
 6104SOL     OW19210   6.675   1.559   4.715
 6104SOL    HW119211   6.646   1.648   4.678
 6104SOL    HW219212   6.748   1.573   4.781
 6105SOL     OW19213   3.915   4.416   6.073
 6105SOL    HW119214   3.997   4.361   6.092
 6105SOL    HW219215   3.886   4.402   5.979
 6106SOL     OW19216   6.320   4.433   4.770
 6106SOL    HW119217   6.238   4.413   4.824
 6106SOL    HW219218   6.402   4.416   4.825
 6107SOL     OW19219   5.478   5.034   5.661
 6107SOL    HW119220   5.514   5.013   5.570
 6107SOL    HW219221   5.396   4.980   5.678
 6108SOL     OW19222   2.398   1.121   6.366
 6108SOL    HW119223   2.492   1.153   6.356
 6108SOL    HW219224   2.386   1.037   6.314
 6109SOL     OW19225   0.464   6.208   4.245
 6109SOL    HW119226   0.515   6.156   4.314
 6109SOL    HW219227   0.522   6.224   4.166
 6110SOL     OW19228   1.423   1.284   4.417
 6110SOL    HW119229   1.407   1.213   4.349
 6110SOL    HW219230   1.498   1.343   4.387
 6111SOL     OW19231   2.195   3.416   0.440
 6111SOL    HW119232   2.279   3.418   0.494
 6111SOL    HW219233   2.214   3.449   0.347
 6112SOL     OW19234   4.600   6.344   3.674
 6112SOL    HW119235   4.503   6.357   3.691
 6112SOL    HW219236   4.641   6.431   3.647
 6113SOL     OW19237   3.059   5.608   1.082
 6113SOL    HW119238   3.006   5.617   1.167
 6113SOL    HW219239   2.999   5.624   1.004
 6114SOL     OW19240   4.756   2.794   0.799
 6114SOL    HW119241   4.805   2.708   0.783
 6114SOL    HW219242   4.706   2.819   0.716
 6115SOL     OW19243   0.900   1.031   5.196
 6115SOL    HW119244   0.959   1.074   5.127
 6115SOL    HW219245   0.941   1.042   5.286
 6116SOL     OW19246   5.581   3.718   0.082
 6116SOL    HW119247   5.568   3.817   0.074
 6116SOL    HW219248   5.655   3.700   0.147
 6117SOL     OW19249   1.902   2.268   1.409
 6117SOL    HW119250   1.810   2.305   1.421
 6117SOL    HW219251   1.901   2.170   1.429
 6118SOL     OW19252   5.550   0.834   2.075
 6118SOL    HW119253   5.639   0.879   2.080
 6118SOL    HW219254   5.563   0.738   2.049
 6119SOL     OW19255   0.131   1.347   6.601
 6119SOL    HW119256   0.115   1.441   6.630
 6119SOL    HW219257   0.043   1.301   6.586
 6120SOL     OW19258   3.339   0.454   4.213
 6120SOL    HW119259   3.395   0.531   4.182
 6120SOL    HW219260   3.358   0.435   4.309
 6121SOL     OW19261   2.239   2.060   5.109
 6121SOL    HW119262   2.259   2.136   5.048
 6121SOL    HW219263   2.151   2.019   5.084
 6122SOL     OW19264   5.028   4.758   4.709
 6122SOL    HW119265   4.940   4.719   4.737
 6122SOL    HW219266   5.019   4.856   4.697
 6123SOL     OW19267   6.015   1.071   5.213
 6123SOL    HW119268   6.091   1.084   5.276
 6123SOL    HW219269   5.981   1.160   5.182
 6124SOL     OW19270   2.845   5.540   3.797
 6124SOL    HW119271   2.855   5.450   3.755
 6124SOL    HW219272   2.812   5.530   3.890
 6125SOL     OW19273   3.439   1.530   5.713
 6125SOL    HW119274   3.437   1.463   5.787
 6125SOL    HW219275   3.391   1.494   5.633
 6126SOL     OW19276   6.287   3.261   6.087
 6126SOL    HW119277   6.242   3.214   6.011
 6126SOL    HW219278   6.386   3.247   6.081
 6127SOL     OW19279   5.175   1.869   2.906
 6127SOL    HW119280   5.076   1.882   2.905
 6127SOL    HW219281   5.195   1.773   2.885
 6128SOL     OW19282   5.870   5.800   6.766
 6128SOL    HW119283   5.815   5.829   6.844
 6128SOL    HW219284   5.907   5.880   6.719
 6129SOL     OW19285   3.147   5.976   2.858
 6129SOL    HW119286   3.062   5.925   2.874
 6129SOL    HW219287   3.149   6.057   2.917
 6130SOL     OW19288   5.834   3.164   0.149
 6130SOL    HW119289   5.792   3.193   0.235
 6130SOL    HW219290   5.861   3.244   0.096
 6131SOL     OW19291   6.526   2.275   3.011
 6131SOL    HW119292   6.464   2.334   2.960
 6131SOL    HW219293   6.521   2.182   2.975
 6132SOL     OW19294   4.440   6.987   6.427
 6132SOL    HW119295   4.419   6.967   6.331
 6132SOL    HW219296   4.536   6.967   6.445
 6133SOL     OW19297   0.496   2.196   2.919
 6133SOL    HW119298   0.416   2.151   2.960
 6133SOL    HW219299   0.490   2.295   2.937
 6134SOL     OW19300   0.461   6.887   5.619
 6134SOL    HW119301   0.433   6.791   5.627
 6134SOL    HW219302   0.431   6.937   5.700
 6135SOL     OW19303   6.884   0.139   0.684
 6135SOL    HW119304   6.842   0.104   0.601
 6135SOL    HW219305   6.862   0.236   0.694
 6136SOL     OW19306   1.059   2.294   3.683
 6136SOL    HW119307   1.075   2.281   3.586
 6136SOL    HW219308   1.142   2.325   3.728
 6137SOL     OW19309   6.970   4.504   1.120
 6137SOL    HW119310   6.953   4.480   1.024
 6137SOL    HW219311   0.048   4.476   1.144
 6138SOL     OW19312   4.910   0.589   2.372
 6138SOL    HW119313   4.931   0.686   2.385
 6138SOL    HW219314   4.921   0.541   2.459
 6139SOL     OW19315   1.608   1.197   4.946
 6139SOL    HW119316   1.701   1.166   4.964
 6139SOL    HW219317   1.564   1.136   4.880
 6140SOL     OW19318   1.682   6.816   2.859
 6140SOL    HW119319   1.721   6.850   2.945
 6140SOL    HW219320   1.715   6.872   2.783
 6141SOL     OW19321   1.056   1.175   6.517
 6141SOL    HW119322   1.126   1.110   6.488
 6141SOL    HW219323   0.977   1.169   6.456
 6142SOL     OW19324   5.890   0.463   1.462
 6142SOL    HW119325   5.986   0.488   1.477
 6142SOL    HW219326   5.832   0.518   1.522
 6143SOL     OW19327   0.145   3.413   5.526
 6143SOL    HW119328   0.194   3.330   5.499
 6143SOL    HW219329   0.201   3.493   5.506
 6144SOL     OW19330   3.825   5.402   2.250
 6144SOL    HW119331   3.888   5.440   2.318
 6144SOL    HW219332   3.836   5.451   2.164
 6145SOL     OW19333   4.890   3.402   3.982
 6145SOL    HW119334   4.848   3.371   3.897
 6145SOL    HW219335   4.910   3.500   3.976
 6146SOL     OW19336   6.232   0.354   5.427
 6146SOL    HW119337   6.243   0.357   5.327
 6146SOL    HW219338   6.307   0.301   5.467
 6147SOL     OW19339   1.092   2.541   5.266
 6147SOL    HW119340   1.019   2.501   5.322
 6147SOL    HW219341   1.061   2.629   5.230
 6148SOL     OW19342   3.640   5.018   0.159
 6148SOL    HW119343   3.678   5.012   0.067
 6148SOL    HW219344   3.638   5.113   0.188
 6149SOL     OW19345   3.716   1.437   1.776
 6149SOL    HW119346   3.757   1.349   1.798
 6149SOL    HW219347   3.664   1.471   1.855
 6150SOL     OW19348   0.311   4.294   4.556
 6150SOL    HW119349   0.230   4.252   4.515
 6150SOL    HW219350   0.342   4.239   4.633
 6151SOL     OW19351   4.289   4.987   3.017
 6151SOL    HW119352   4.265   4.890   3.025
 6151SOL    HW219353   4.268   5.019   2.924
 6152SOL     OW19354   1.587   4.409   3.434
 6152SOL    HW119355   1.528   4.338   3.472
 6152SOL    HW219356   1.676   4.369   3.411
 6153SOL     OW19357   4.913   5.927   0.911
 6153SOL    HW119358   4.992   5.956   0.857
 6153SOL    HW219359   4.831   5.927   0.854
 6154SOL     OW19360   5.039   3.814   2.336
 6154SOL    HW119361   4.948   3.842   2.369
 6154SOL    HW219362   5.031   3.726   2.288
 6155SOL     OW19363   1.964   1.269   3.684
 6155SOL    HW119364   1.865   1.269   3.695
 6155SOL    HW219365   2.007   1.231   3.766
 6156SOL     OW19366   5.427   4.460   2.087
 6156SOL    HW119367   5.341   4.485   2.131
 6156SOL    HW219368   5.426   4.362   2.066
 6157SOL     OW19369   0.414   2.961   1.034
 6157SOL    HW119370   0.498   2.983   0.985
 6157SOL    HW219371   0.429   2.970   1.133
 6158SOL     OW19372   2.970   2.179   4.762
 6158SOL    HW119373   2.879   2.154   4.796
 6158SOL    HW219374   3.029   2.203   4.840
 6159SOL     OW19375   6.200   2.762   0.257
 6159SOL    HW119376   6.136   2.836   0.236
 6159SOL    HW219377   6.153   2.693   0.312
 6160SOL     OW19378   1.101   0.564   1.253
 6160SOL    HW119379   1.108   0.618   1.336
 6160SOL    HW219380   1.005   0.555   1.227
 6161SOL     OW19381   4.611   3.927   0.062
 6161SOL    HW119382   4.534   3.921   7.015
 6161SOL    HW219383   4.578   3.950   0.154
 6162SOL     OW19384   6.531   5.567   2.522
 6162SOL    HW119385   6.587   5.538   2.445
 6162SOL    HW219386   6.490   5.657   2.502
 6163SOL     OW19387   5.966   6.104   2.919
 6163SOL    HW119388   6.031   6.133   2.849
 6163SOL    HW219389   6.016   6.077   3.001
 6164SOL     OW19390   2.910   3.560   4.523
 6164SOL    HW119391   2.874   3.583   4.613
 6164SOL    HW219392   2.924   3.644   4.470
 6165SOL     OW19393   3.222   1.698   0.120
 6165SOL    HW119394   3.275   1.613   0.124
 6165SOL    HW219395   3.244   1.755   0.199
 6166SOL     OW19396   2.929   2.264   6.638
 6166SOL    HW119397   2.991   2.314   6.578
 6166SOL    HW219398   2.850   2.320   6.660
 6167SOL     OW19399   1.536   3.570   2.996
 6167SOL    HW119400   1.502   3.657   2.961
 6167SOL    HW219401   1.634   3.563   2.977
 6168SOL     OW19402   0.540   3.472   3.469
 6168SOL    HW119403   0.607   3.456   3.541
 6168SOL    HW219404   0.510   3.385   3.430
 6169SOL     OW19405   2.121   0.602   6.736
 6169SOL    HW119406   2.220   0.589   6.736
 6169SOL    HW219407   2.097   0.679   6.676
 6170SOL     OW19408   2.913   3.746   1.005
 6170SOL    HW119409   2.999   3.765   0.957
 6170SOL    HW219410   2.866   3.671   0.958
 6171SOL     OW19411   2.043   3.548   1.769
 6171SOL    HW119412   2.079   3.546   1.862
 6171SOL    HW219413   1.944   3.559   1.772
 6172SOL     OW19414   2.694   5.754   2.531
 6172SOL    HW119415   2.629   5.817   2.488
 6172SOL    HW219416   2.780   5.802   2.547
 6173SOL     OW19417   1.416   5.746   2.391
 6173SOL    HW119418   1.464   5.832   2.375
 6173SOL    HW219419   1.481   5.670   2.388
 6174SOL     OW19420   5.945   4.918   2.204
 6174SOL    HW119421   5.949   4.981   2.127
 6174SOL    HW219422   6.039   4.892   2.230
 6175SOL     OW19423   5.097   0.082   3.438
 6175SOL    HW119424   5.148   0.167   3.428
 6175SOL    HW219425   5.053   0.059   3.351
 6176SOL     OW19426   5.258   3.082   6.543
 6176SOL    HW119427   5.259   3.083   6.643
 6176SOL    HW219428   5.168   3.112   6.510
 6177SOL     OW19429   6.783   3.450   1.749
 6177SOL    HW119430   6.849   3.506   1.698
 6177SOL    HW219431   6.806   3.452   1.846
 6178SOL     OW19432   5.564   3.507   1.877
 6178SOL    HW119433   5.556   3.448   1.957
 6178SOL    HW219434   5.633   3.470   1.815
 6179SOL     OW19435   0.276   2.188   4.981
 6179SOL    HW119436   0.329   2.224   5.058
 6179SOL    HW219437   0.180   2.178   5.009
 6180SOL     OW19438   3.237   0.071   6.066
 6180SOL    HW119439   3.328   0.060   6.106
 6180SOL    HW219440   3.227   0.164   6.031
 6181SOL     OW19441   4.471   5.798   6.897
 6181SOL    HW119442   4.400   5.736   6.864
 6181SOL    HW219443   4.433   5.890   6.909
 6182SOL     OW19444   5.179   6.345   6.303
 6182SOL    HW119445   5.106   6.281   6.281
 6182SOL    HW219446   5.244   6.301   6.366
 6183SOL     OW19447   3.268   0.704   3.019
 6183SOL    HW119448   3.290   0.672   3.111
 6183SOL    HW219449   3.175   0.673   2.995
 6184SOL     OW19450   6.092   0.651   6.671
 6184SOL    HW119451   6.043   0.720   6.618
 6184SOL    HW219452   6.031   0.574   6.688
 6185SOL     OW19453   0.909   3.216   5.578
 6185SOL    HW119454   0.949   3.125   5.570
 6185SOL    HW219455   0.936   3.272   5.499
 6186SOL     OW19456   5.365   6.816   4.929
 6186SOL    HW119457   5.323   6.899   4.968
 6186SOL    HW219458   5.436   6.783   4.991
 6187SOL     OW19459   2.820   4.751   4.428
 6187SOL    HW119460   2.829   4.745   4.527
 6187SOL    HW219461   2.910   4.759   4.386
 6188SOL     OW19462   3.118   0.250   1.615
 6188SOL    HW119463   3.143   0.253   1.518
 6188SOL    HW219464   3.144   0.335   1.659
 6189SOL     OW19465   5.429   4.696   3.227
 6189SOL    HW119466   5.443   4.661   3.319
 6189SOL    HW219467   5.427   4.620   3.162
 6190SOL     OW19468   5.085   2.670   5.567
 6190SOL    HW119469   5.033   2.706   5.489
 6190SOL    HW219470   5.183   2.678   5.548
 6191SOL     OW19471   6.582   2.784   6.629
 6191SOL    HW119472   6.554   2.688   6.631
 6191SOL    HW219473   6.524   2.837   6.689
 6192SOL     OW19474   2.918   2.260   0.547
 6192SOL    HW119475   2.884   2.166   0.539
 6192SOL    HW219476   2.971   2.269   0.631
 6193SOL     OW19477   5.931   6.917   1.037
 6193SOL    HW119478   5.921   7.005   1.083
 6193SOL    HW219479   6.017   6.874   1.065
 6194SOL     OW19480   1.727   0.639   0.556
 6194SOL    HW119481   1.750   0.546   0.528
 6194SOL    HW219482   1.697   0.639   0.652
 6195SOL     OW19483   2.396   6.635   6.118
 6195SOL    HW119484   2.314   6.590   6.082
 6195SOL    HW219485   2.405   6.615   6.215
 6196SOL     OW19486   0.270   1.211   5.932
 6196SOL    HW119487   0.180   1.254   5.942
 6196SOL    HW219488   0.272   1.126   5.983
 6197SOL     OW19489   2.475   3.099   0.501
 6197SOL    HW119490   2.396   3.043   0.526
 6197SOL    HW219491   2.460   3.140   0.411
 6198SOL     OW19492   4.199   5.255   2.361
 6198SOL    HW119493   4.210   5.204   2.446
 6198SOL    HW219494   4.164   5.346   2.380
 6199SOL     OW19495   1.004   0.559   6.206
 6199SOL    HW119496   0.997   0.471   6.161
 6199SOL    HW219497   1.001   0.546   6.305
 6200SOL     OW19498   3.654   0.537   5.941
 6200SOL    HW119499   3.656   0.615   6.004
 6200SOL    HW219500   3.560   0.514   5.920
 6201SOL     OW19501   2.328   4.270   3.786
 6201SOL    HW119502   2.304   4.196   3.724
 6201SOL    HW219503   2.293   4.249   3.878
 6202SOL     OW19504   3.126   2.652   1.492
 6202SOL    HW119505   3.117   2.562   1.449
 6202SOL    HW219506   3.086   2.650   1.584
 6203SOL     OW19507   5.237   2.166   5.295
 6203SOL    HW119508   5.333   2.139   5.293
 6203SOL    HW219509   5.186   2.102   5.352
 6204SOL     OW19510   1.620   6.556   5.874
 6204SOL    HW119511   1.561   6.577   5.797
 6204SOL    HW219512   1.608   6.625   5.945
 6205SOL     OW19513   5.380   6.410   0.181
 6205SOL    HW119514   5.469   6.399   0.136
 6205SOL    HW219515   5.318   6.459   0.120
 6206SOL     OW19516   5.464   0.030   3.217
 6206SOL    HW119517   5.543   6.995   3.185
 6206SOL    HW219518   5.481   0.128   3.210
 6207SOL     OW19519   1.784   4.325   4.363
 6207SOL    HW119520   1.789   4.375   4.276
 6207SOL    HW219521   1.876   4.307   4.397
 6208SOL     OW19522   5.336   6.182   6.128
 6208SOL    HW119523   5.425   6.225   6.111
 6208SOL    HW219524   5.291   6.229   6.204
 6209SOL     OW19525   3.052   5.311   1.136
 6209SOL    HW119526   3.074   5.375   1.063
 6209SOL    HW219527   2.972   5.345   1.186
 6210SOL     OW19528   6.800   4.947   3.179
 6210SOL    HW119529   6.852   4.914   3.257
 6210SOL    HW219530   6.702   4.936   3.197
 6211SOL     OW19531   2.453   0.326   5.070
 6211SOL    HW119532   2.446   0.386   4.990
 6211SOL    HW219533   2.537   0.271   5.062
 6212SOL     OW19534   6.974   6.622   3.862
 6212SOL    HW119535   6.978   6.563   3.781
 6212SOL    HW219536   0.039   6.681   3.863
 6213SOL     OW19537   6.587   0.289   0.145
 6213SOL    HW119538   6.537   0.340   0.074
 6213SOL    HW219539   6.631   0.210   0.104
 6214SOL     OW19540   5.775   5.068   2.405
 6214SOL    HW119541   5.767   5.002   2.330
 6214SOL    HW219542   5.868   5.102   2.410
 6215SOL     OW19543   2.577   5.000   1.105
 6215SOL    HW119544   2.553   4.904   1.118
 6215SOL    HW219545   2.668   5.017   1.143
 6216SOL     OW19546   6.316   1.814   2.452
 6216SOL    HW119547   6.229   1.773   2.423
 6216SOL    HW219548   6.359   1.755   2.520
 6217SOL     OW19549   5.360   3.198   2.008
 6217SOL    HW119550   5.290   3.252   1.960
 6217SOL    HW219551   5.374   3.237   2.099
 6218SOL     OW19552   4.026   5.043   4.431
 6218SOL    HW119553   3.999   5.035   4.527
 6218SOL    HW219554   4.022   5.139   4.403
 6219SOL     OW19555   1.158   1.532   4.105
 6219SOL    HW119556   1.064   1.548   4.136
 6219SOL    HW219557   1.218   1.602   4.142
 6220SOL     OW19558   1.533   3.844   5.319
 6220SOL    HW119559   1.612   3.897   5.350
 6220SOL    HW219560   1.499   3.882   5.233
 6221SOL     OW19561   4.572   4.982   4.554
 6221SOL    HW119562   4.644   5.048   4.577
 6221SOL    HW219563   4.504   5.026   4.496
 6222SOL     OW19564   0.108   1.684   1.083
 6222SOL    HW119565   0.035   1.660   1.146
 6222SOL    HW219566   0.085   1.769   1.035
 6223SOL     OW19567   5.185   3.982   4.757
 6223SOL    HW119568   5.173   3.963   4.660
 6223SOL    HW219569   5.184   3.896   4.808
 6224SOL     OW19570   2.881   0.484   4.854
 6224SOL    HW119571   2.974   0.496   4.890
 6224SOL    HW219572   2.824   0.559   4.885
 6225SOL     OW19573   4.485   2.710   6.694
 6225SOL    HW119574   4.532   2.692   6.608
 6225SOL    HW219575   4.440   2.627   6.726
 6226SOL     OW19576   6.614   6.646   4.557
 6226SOL    HW119577   6.529   6.638   4.610
 6226SOL    HW219578   6.594   6.675   4.464
 6227SOL     OW19579   2.709   4.515   6.780
 6227SOL    HW119580   2.714   4.428   6.731
 6227SOL    HW219581   2.671   4.585   6.720
 6228SOL     OW19582   0.287   1.026   2.654
 6228SOL    HW119583   0.248   1.094   2.716
 6228SOL    HW219584   0.215   0.961   2.628
 6229SOL     OW19585   1.488   2.291   1.934
 6229SOL    HW119586   1.572   2.332   1.970
 6229SOL    HW219587   1.432   2.363   1.892
 6230SOL     OW19588   1.839   2.014   3.252
 6230SOL    HW119589   1.756   1.962   3.271
 6230SOL    HW219590   1.896   2.018   3.334
 6231SOL     OW19591   6.619   5.418   1.486
 6231SOL    HW119592   6.539   5.410   1.545
 6231SOL    HW219593   6.676   5.494   1.517
 6232SOL     OW19594   0.788   1.752   6.872
 6232SOL    HW119595   0.797   1.845   6.838
 6232SOL    HW219596   0.739   1.696   6.804
 6233SOL     OW19597   4.318   1.849   6.613
 6233SOL    HW119598   4.329   1.783   6.687
 6233SOL    HW219599   4.235   1.903   6.628
 6234SOL     OW19600   1.918   2.503   2.899
 6234SOL    HW119601   1.942   2.523   2.994
 6234SOL    HW219602   1.818   2.498   2.890
 6235SOL     OW19603   1.890   6.217   3.202
 6235SOL    HW119604   1.916   6.284   3.271
 6235SOL    HW219605   1.813   6.253   3.149
 6236SOL     OW19606   6.646   4.111   6.913
 6236SOL    HW119607   6.655   4.118   7.012
 6236SOL    HW219608   6.737   4.112   6.871
 6237SOL     OW19609   4.012   6.484   0.083
 6237SOL    HW119610   4.042   6.569   0.127
 6237SOL    HW219611   3.976   6.504   7.008
 6238SOL     OW19612   4.552   4.137   1.182
 6238SOL    HW119613   4.492   4.204   1.138
 6238SOL    HW219614   4.605   4.088   1.113
 6239SOL     OW19615   2.307   1.019   3.601
 6239SOL    HW119616   2.296   1.053   3.507
 6239SOL    HW219617   2.235   0.952   3.620
 6240SOL     OW19618   2.310   3.820   0.331
 6240SOL    HW119619   2.383   3.879   0.295
 6240SOL    HW219620   2.305   3.737   0.275
 6241SOL     OW19621   4.650   0.112   1.773
 6241SOL    HW119622   4.582   0.039   1.769
 6241SOL    HW219623   4.644   0.159   1.861
 6242SOL     OW19624   3.737   2.103   3.774
 6242SOL    HW119625   3.666   2.115   3.705
 6242SOL    HW219626   3.697   2.069   3.858
 6243SOL     OW19627   5.383   5.391   3.291
 6243SOL    HW119628   5.380   5.395   3.391
 6243SOL    HW219629   5.356   5.300   3.260
 6244SOL     OW19630   1.977   2.311   2.147
 6244SOL    HW119631   2.069   2.349   2.138
 6244SOL    HW219632   1.975   2.246   2.223
 6245SOL     OW19633   2.084   3.918   0.433
 6245SOL    HW119634   2.174   3.878   0.415
 6245SOL    HW219635   2.022   3.894   0.358
 6246SOL     OW19636   4.122   0.958   6.824
 6246SOL    HW119637   4.142   0.860   6.816
 6246SOL    HW219638   4.144   0.989   6.916
 6247SOL     OW19639   6.606   6.092   2.837
 6247SOL    HW119640   6.582   6.179   2.879
 6247SOL    HW219641   6.575   6.017   2.896
 6248SOL     OW19642   1.048   4.896   1.052
 6248SOL    HW119643   0.971   4.846   1.094
 6248SOL    HW219644   1.065   4.979   1.104
 6249SOL     OW19645   5.216   4.180   6.353
 6249SOL    HW119646   5.117   4.166   6.351
 6249SOL    HW219647   5.262   4.093   6.369
 6250SOL     OW19648   5.864   5.425   5.879
 6250SOL    HW119649   5.876   5.326   5.869
 6250SOL    HW219650   5.946   5.472   5.847
 6251SOL     OW19651   4.677   1.723   1.111
 6251SOL    HW119652   4.587   1.755   1.083
 6251SOL    HW219653   4.747   1.789   1.083
 6252SOL     OW19654   1.592   6.173   5.349
 6252SOL    HW119655   1.673   6.118   5.369
 6252SOL    HW219656   1.600   6.261   5.396
 6253SOL     OW19657   1.966   4.130   1.589
 6253SOL    HW119658   1.958   4.050   1.530
 6253SOL    HW219659   2.061   4.140   1.620
 6254SOL     OW19660   5.272   0.622   0.423
 6254SOL    HW119661   5.312   0.598   0.335
 6254SOL    HW219662   5.314   0.566   0.495
 6255SOL     OW19663   6.475   1.963   2.787
 6255SOL    HW119664   6.559   1.919   2.756
 6255SOL    HW219665   6.471   1.960   2.887
 6256SOL     OW19666   3.618   5.029   3.566
 6256SOL    HW119667   3.566   5.013   3.482
 6256SOL    HW219668   3.561   5.080   3.631
 6257SOL     OW19669   4.494   2.892   0.197
 6257SOL    HW119670   4.520   2.976   0.245
 6257SOL    HW219671   4.399   2.869   0.219
 6258SOL     OW19672   5.179   2.576   2.855
 6258SOL    HW119673   5.187   2.478   2.869
 6258SOL    HW219674   5.095   2.597   2.806
 6259SOL     OW19675   2.968   2.208   1.752
 6259SOL    HW119676   2.964   2.285   1.816
 6259SOL    HW219677   2.895   2.217   1.684
 6260SOL     OW19678   3.507   3.603   0.766
 6260SOL    HW119679   3.451   3.525   0.796
 6260SOL    HW219680   3.566   3.631   0.842
 6261SOL     OW19681   4.710   0.577   6.529
 6261SOL    HW119682   4.800   0.572   6.486
 6261SOL    HW219683   4.678   0.672   6.528
 6262SOL     OW19684   0.159   5.769   5.529
 6262SOL    HW119685   0.250   5.727   5.528
 6262SOL    HW219686   0.167   5.868   5.517
 6263SOL     OW19687   6.498   1.192   0.805
 6263SOL    HW119688   6.462   1.192   0.712
 6263SOL    HW219689   6.560   1.270   0.816
 6264SOL     OW19690   2.087   1.318   6.774
 6264SOL    HW119691   2.149   1.387   6.811
 6264SOL    HW219692   2.053   1.347   6.684
 6265SOL     OW19693   4.770   3.757   1.383
 6265SOL    HW119694   4.772   3.856   1.366
 6265SOL    HW219695   4.732   3.711   1.303
 6266SOL     OW19696   2.377   6.840   2.006
 6266SOL    HW119697   2.476   6.845   2.021
 6266SOL    HW219698   2.359   6.827   1.908
 6267SOL     OW19699   2.632   6.900   6.724
 6267SOL    HW119700   2.625   6.806   6.758
 6267SOL    HW219701   2.637   6.963   6.802
 6268SOL     OW19702   3.088   5.275   2.653
 6268SOL    HW119703   3.078   5.278   2.553
 6268SOL    HW219704   3.099   5.368   2.688
 6269SOL     OW19705   6.055   4.972   0.280
 6269SOL    HW119706   6.145   4.949   0.243
 6269SOL    HW219707   6.057   4.965   0.380
 6270SOL     OW19708   0.632   1.352   4.438
 6270SOL    HW119709   0.679   1.424   4.490
 6270SOL    HW219710   0.699   1.298   4.388
 6271SOL     OW19711   6.101   1.735   0.947
 6271SOL    HW119712   6.181   1.791   0.967
 6271SOL    HW219713   6.117   1.641   0.978
 6272SOL     OW19714   1.474   2.250   3.318
 6272SOL    HW119715   1.524   2.274   3.236
 6272SOL    HW219716   1.387   2.208   3.293
 6273SOL     OW19717   4.186   0.459   2.093
 6273SOL    HW119718   4.214   0.520   2.167
 6273SOL    HW219719   4.266   0.413   2.056
 6274SOL     OW19720   2.819   6.229   6.571
 6274SOL    HW119721   2.744   6.286   6.604
 6274SOL    HW219722   2.794   6.132   6.581
 6275SOL     OW19723   2.839   0.332   4.287
 6275SOL    HW119724   2.869   0.385   4.208
 6275SOL    HW219725   2.740   0.340   4.298
 6276SOL     OW19726   1.353   5.056   3.889
 6276SOL    HW119727   1.422   5.021   3.826
 6276SOL    HW219728   1.299   5.126   3.844
 6277SOL     OW19729   5.654   3.167   3.893
 6277SOL    HW119730   5.655   3.104   3.971
 6277SOL    HW219731   5.727   3.234   3.904
 6278SOL     OW19732   4.705   0.913   4.361
 6278SOL    HW119733   4.797   0.951   4.360
 6278SOL    HW219734   4.703   0.828   4.309
 6279SOL     OW19735   4.611   1.562   6.712
 6279SOL    HW119736   4.577   1.541   6.804
 6279SOL    HW219737   4.641   1.657   6.709
 6280SOL     OW19738   0.661   5.405   5.909
 6280SOL    HW119739   0.647   5.325   5.851
 6280SOL    HW219740   0.609   5.483   5.872
 6281SOL     OW19741   2.570   6.917   5.024
 6281SOL    HW119742   2.523   6.884   5.105
 6281SOL    HW219743   2.505   6.923   4.948
 6282SOL     OW19744   1.419   0.038   3.418
 6282SOL    HW119745   1.450   6.999   3.496
 6282SOL    HW219746   1.343   0.096   3.446
 6283SOL     OW19747   0.603   3.019   5.157
 6283SOL    HW119748   0.547   2.991   5.079
 6283SOL    HW219749   0.647   2.938   5.197
 6284SOL     OW19750   1.809   4.911   6.313
 6284SOL    HW119751   1.811   4.861   6.400
 6284SOL    HW219752   1.803   4.846   6.237
 6285SOL     OW19753   1.929   4.598   2.539
 6285SOL    HW119754   1.928   4.582   2.440
 6285SOL    HW219755   2.021   4.622   2.569
 6286SOL     OW19756   6.095   0.197   5.081
 6286SOL    HW119757   6.144   0.280   5.107
 6286SOL    HW219758   6.062   0.150   5.163
 6287SOL     OW19759   4.056   4.887   2.177
 6287SOL    HW119760   4.021   4.955   2.242
 6287SOL    HW219761   3.979   4.838   2.137
 6288SOL     OW19762   5.086   3.894   1.354
 6288SOL    HW119763   5.063   3.981   1.311
 6288SOL    HW219764   5.034   3.820   1.311
 6289SOL     OW19765   1.215   0.109   2.558
 6289SOL    HW119766   1.288   0.053   2.520
 6289SOL    HW219767   1.195   0.184   2.495
 6290SOL     OW19768   6.160   2.933   3.388
 6290SOL    HW119769   6.254   2.969   3.389
 6290SOL    HW219770   6.160   2.843   3.347
 6291SOL     OW19771   3.840   3.972   3.165
 6291SOL    HW119772   3.802   3.930   3.247
 6291SOL    HW219773   3.770   4.029   3.121
 6292SOL     OW19774   6.845   1.721   2.064
 6292SOL    HW119775   6.917   1.789   2.056
 6292SOL    HW219776   6.796   1.714   1.977
 6293SOL     OW19777   5.127   5.128   0.814
 6293SOL    HW119778   5.221   5.123   0.780
 6293SOL    HW219779   5.125   5.178   0.900
 6294SOL     OW19780   3.647   5.468   2.604
 6294SOL    HW119781   3.560   5.442   2.561
 6294SOL    HW219782   3.681   5.392   2.659
 6295SOL     OW19783   6.826   6.207   5.914
 6295SOL    HW119784   6.921   6.180   5.898
 6295SOL    HW219785   6.771   6.188   5.832
 6296SOL     OW19786   6.895   0.924   2.444
 6296SOL    HW119787   6.832   0.853   2.411
 6296SOL    HW219788   6.898   0.998   2.377
 6297SOL     OW19789   5.775   0.888   5.986
 6297SOL    HW119790   5.841   0.814   6.001
 6297SOL    HW219791   5.737   0.881   5.894
 6298SOL     OW19792   0.258   1.648   4.117
 6298SOL    HW119793   0.319   1.586   4.164
 6298SOL    HW219794   0.170   1.652   4.165
 6299SOL     OW19795   5.987   2.917   0.627
 6299SOL    HW119796   6.024   2.925   0.720
 6299SOL    HW219797   6.054   2.952   0.561
 6300SOL     OW19798   4.972   1.447   3.794
 6300SOL    HW119799   4.943   1.495   3.711
 6300SOL    HW219800   5.007   1.514   3.860
 6301SOL     OW19801   3.328   0.654   0.907
 6301SOL    HW119802   3.422   0.673   0.935
 6301SOL    HW219803   3.303   0.561   0.933
 6302SOL     OW19804   0.079   1.211   2.805
 6302SOL    HW119805   0.113   1.214   2.899
 6302SOL    HW219806   0.062   1.116   2.778
 6303SOL     OW19807   1.959   5.836   5.296
 6303SOL    HW119808   2.037   5.896   5.279
 6303SOL    HW219809   1.898   5.879   5.364
 6304SOL     OW19810   4.178   1.185   5.299
 6304SOL    HW119811   4.147   1.280   5.305
 6304SOL    HW219812   4.174   1.142   5.389
 6305SOL     OW19813   5.599   1.241   2.078
 6305SOL    HW119814   5.661   1.306   2.033
 6305SOL    HW219815   5.583   1.271   2.172
 6306SOL     OW19816   5.916   2.884   4.504
 6306SOL    HW119817   5.947   2.915   4.593
 6306SOL    HW219818   5.995   2.860   4.447
 6307SOL     OW19819   2.342   4.571   0.312
 6307SOL    HW119820   2.419   4.527   0.358
 6307SOL    HW219821   2.292   4.628   0.377
 6308SOL     OW19822   3.686   2.204   5.710
 6308SOL    HW119823   3.601   2.164   5.741
 6308SOL    HW219824   3.763   2.159   5.755
 6309SOL     OW19825   5.842   2.041   5.062
 6309SOL    HW119826   5.833   1.943   5.079
 6309SOL    HW219827   5.784   2.091   5.126
 6310SOL     OW19828   1.030   5.244   4.556
 6310SOL    HW119829   0.990   5.163   4.599
 6310SOL    HW219830   0.961   5.314   4.545
 6311SOL     OW19831   6.096   6.157   4.291
 6311SOL    HW119832   6.173   6.208   4.252
 6311SOL    HW219833   6.043   6.115   4.217
 6312SOL     OW19834   4.976   4.807   5.639
 6312SOL    HW119835   4.906   4.809   5.567
 6312SOL    HW219836   4.946   4.863   5.716
 6313SOL     OW19837   2.780   5.271   3.673
 6313SOL    HW119838   2.808   5.293   3.580
 6313SOL    HW219839   2.718   5.192   3.671
 6314SOL     OW19840   2.489   6.673   3.641
 6314SOL    HW119841   2.403   6.694   3.686
 6314SOL    HW219842   2.554   6.638   3.709
 6315SOL     OW19843   2.455   4.093   0.626
 6315SOL    HW119844   2.441   4.098   0.527
 6315SOL    HW219845   2.538   4.041   0.646
 6316SOL     OW19846   5.036   1.655   5.890
 6316SOL    HW119847   5.113   1.637   5.828
 6316SOL    HW219848   5.037   1.751   5.918
 6317SOL     OW19849   6.144   5.578   4.284
 6317SOL    HW119850   6.157   5.677   4.282
 6317SOL    HW219851   6.142   5.543   4.190
 6318SOL     OW19852   1.984   2.389   4.580
 6318SOL    HW119853   2.029   2.476   4.559
 6318SOL    HW219854   1.957   2.388   4.676
 6319SOL     OW19855   0.695   1.818   2.786
 6319SOL    HW119856   0.794   1.806   2.776
 6319SOL    HW219857   0.659   1.751   2.851
 6320SOL     OW19858   0.013   1.718   3.289
 6320SOL    HW119859   0.023   1.652   3.214
 6320SOL    HW219860   0.098   1.722   3.341
 6321SOL     OW19861   2.487   3.521   5.971
 6321SOL    HW119862   2.467   3.557   5.880
 6321SOL    HW219863   2.510   3.596   6.033
 6322SOL     OW19864   1.288   0.551   6.591
 6322SOL    HW119865   1.317   0.610   6.667
 6322SOL    HW219866   1.216   0.598   6.538
 6323SOL     OW19867   4.559   1.464   1.167
 6323SOL    HW119868   4.480   1.496   1.219
 6323SOL    HW219869   4.611   1.542   1.134
 6324SOL     OW19870   4.124   2.612   6.311
 6324SOL    HW119871   4.032   2.601   6.351
 6324SOL    HW219872   4.167   2.522   6.302
 6325SOL     OW19873   1.409   2.575   2.518
 6325SOL    HW119874   1.474   2.650   2.511
 6325SOL    HW219875   1.341   2.583   2.445
 6326SOL     OW19876   4.337   6.196   1.170
 6326SOL    HW119877   4.403   6.271   1.160
 6326SOL    HW219878   4.252   6.232   1.209
 6327SOL     OW19879   3.754   5.243   6.071
 6327SOL    HW119880   3.659   5.232   6.045
 6327SOL    HW219881   3.795   5.153   6.085
 6328SOL     OW19882   3.052   4.309   6.748
 6328SOL    HW119883   3.042   4.408   6.757
 6328SOL    HW219884   3.022   4.265   6.833
 6329SOL     OW19885   1.347   1.446   2.560
 6329SOL    HW119886   1.359   1.484   2.469
 6329SOL    HW219887   1.416   1.483   2.622
 6330SOL     OW19888   3.850   1.022   0.259
 6330SOL    HW119889   3.808   1.023   0.169
 6330SOL    HW219890   3.780   1.029   0.330
 6331SOL     OW19891   5.440   2.947   2.343
 6331SOL    HW119892   5.466   3.014   2.412
 6331SOL    HW219893   5.512   2.939   2.275
 6332SOL     OW19894   4.877   6.642   2.356
 6332SOL    HW119895   4.910   6.597   2.439
 6332SOL    HW219896   4.829   6.575   2.300
 6333SOL     OW19897   2.358   5.191   2.982
 6333SOL    HW119898   2.450   5.229   2.993
 6333SOL    HW219899   2.295   5.243   3.039
 6334SOL     OW19900   2.593   1.747   2.386
 6334SOL    HW119901   2.575   1.713   2.294
 6334SOL    HW219902   2.518   1.807   2.415
 6335SOL     OW19903   0.413   1.646   0.124
 6335SOL    HW119904   0.356   1.572   0.087
 6335SOL    HW219905   0.354   1.715   0.167
 6336SOL     OW19906   0.870   3.198   4.736
 6336SOL    HW119907   0.922   3.197   4.650
 6336SOL    HW219908   0.931   3.219   4.812
 6337SOL     OW19909   6.828   4.800   4.871
 6337SOL    HW119910   6.797   4.893   4.855
 6337SOL    HW219911   6.847   4.787   4.968
 6338SOL     OW19912   3.702   1.161   4.234
 6338SOL    HW119913   3.754   1.178   4.150
 6338SOL    HW219914   3.649   1.243   4.257
 6339SOL     OW19915   0.238   3.035   4.932
 6339SOL    HW119916   0.328   3.015   4.894
 6339SOL    HW219917   0.176   3.063   4.858
 6340SOL     OW19918   2.508   5.333   3.798
 6340SOL    HW119919   2.502   5.270   3.876
 6340SOL    HW219920   2.484   5.285   3.714
 6341SOL     OW19921   6.379   5.079   2.435
 6341SOL    HW119922   6.383   5.123   2.345
 6341SOL    HW219923   6.470   5.047   2.460
 6342SOL     OW19924   1.298   3.466   0.880
 6342SOL    HW119925   1.375   3.432   0.824
 6342SOL    HW219926   1.327   3.549   0.928
 6343SOL     OW19927   4.386   0.984   0.313
 6343SOL    HW119928   4.444   0.965   0.233
 6343SOL    HW219929   4.355   1.079   0.309
 6344SOL     OW19930   6.860   4.727   4.512
 6344SOL    HW119931   6.776   4.685   4.544
 6344SOL    HW219932   6.937   4.665   4.528
 6345SOL     OW19933   2.653   2.384   2.182
 6345SOL    HW119934   2.664   2.483   2.193
 6345SOL    HW219935   2.741   2.344   2.154
 6346SOL     OW19936   0.735   5.682   4.376
 6346SOL    HW119937   0.723   5.643   4.285
 6346SOL    HW219938   0.816   5.740   4.377
 6347SOL     OW19939   2.650   7.007   1.186
 6347SOL    HW119940   2.564   0.036   1.214
 6347SOL    HW219941   2.725   0.056   1.195
 6348SOL     OW19942   1.033   2.813   4.765
 6348SOL    HW119943   1.039   2.824   4.864
 6348SOL    HW219944   1.030   2.715   4.742
 6349SOL     OW19945   1.930   0.784   0.435
 6349SOL    HW119946   1.854   0.744   0.487
 6349SOL    HW219947   1.948   0.729   0.354
 6350SOL     OW19948   0.377   5.304   3.306
 6350SOL    HW119949   0.392   5.278   3.401
 6350SOL    HW219950   0.286   5.276   3.277
 6351SOL     OW19951   6.961   1.322   3.195
 6351SOL    HW119952   6.976   1.271   3.280
 6351SOL    HW219953   6.985   1.418   3.209
 6352SOL     OW19954   0.027   5.760   2.497
 6352SOL    HW119955   0.040   5.676   2.550
 6352SOL    HW219956   0.100   5.824   2.520
 6353SOL     OW19957   0.219   6.653   1.942
 6353SOL    HW119958   0.284   6.681   1.871
 6353SOL    HW219959   0.127   6.650   1.902
 6354SOL     OW19960   0.057   6.964   4.590
 6354SOL    HW119961   0.068   6.872   4.552
 6354SOL    HW219962   6.975   6.984   4.601
 6355SOL     OW19963   0.708   2.490   2.263
 6355SOL    HW119964   0.758   2.487   2.349
 6355SOL    HW219965   0.659   2.404   2.250
 6356SOL     OW19966   3.292   2.852   0.672
 6356SOL    HW119967   3.319   2.880   0.765
 6356SOL    HW219968   3.330   2.762   0.653
 6357SOL     OW19969   4.870   1.800   0.766
 6357SOL    HW119970   4.951   1.828   0.714
 6357SOL    HW219971   4.871   1.701   0.778
 6358SOL     OW19972   0.898   3.142   3.595
 6358SOL    HW119973   0.928   3.090   3.675
 6358SOL    HW219974   0.865   3.232   3.624
 6359SOL     OW19975   0.396   1.664   6.629
 6359SOL    HW119976   0.323   1.717   6.674
 6359SOL    HW219977   0.459   1.726   6.584
 6360SOL     OW19978   3.280   5.455   4.211
 6360SOL    HW119979   3.335   5.389   4.261
 6360SOL    HW219980   3.194   5.412   4.183
 6361SOL     OW19981   3.153   6.589   6.144
 6361SOL    HW119982   3.094   6.574   6.065
 6361SOL    HW219983   3.131   6.676   6.187
 6362SOL     OW19984   6.401   5.252   6.283
 6362SOL    HW119985   6.342   5.331   6.264
 6362SOL    HW219986   6.367   5.204   6.363
 6363SOL     OW19987   1.021   5.847   4.273
 6363SOL    HW119988   1.108   5.892   4.256
 6363SOL    HW219989   0.971   5.896   4.345
 6364SOL     OW19990   1.871   2.473   6.432
 6364SOL    HW119991   1.937   2.419   6.484
 6364SOL    HW219992   1.879   2.569   6.457
 6365SOL     OW19993   4.722   5.421   2.847
 6365SOL    HW119994   4.633   5.376   2.855
 6365SOL    HW219995   4.741   5.438   2.750
 6366SOL     OW19996   0.182   4.779   5.465
 6366SOL    HW119997   0.097   4.742   5.427
 6366SOL    HW219998   0.259   4.725   5.432
 6367SOL     OW19999   5.983   5.878   2.586
 6367SOL    HW120000   5.893   5.875   2.629
 6367SOL    HW220001   6.045   5.816   2.634
 6368SOL     OW20002   3.589   0.469   3.487
 6368SOL    HW120003   3.591   0.489   3.585
 6368SOL    HW220004   3.612   0.552   3.436
 6369SOL     OW20005   2.159   5.164   5.605
 6369SOL    HW120006   2.181   5.214   5.521
 6369SOL    HW220007   2.225   5.188   5.676
 6370SOL     OW20008   5.506   2.750   2.079
 6370SOL    HW120009   5.578   2.748   2.010
 6370SOL    HW220010   5.432   2.811   2.049
 6371SOL     OW20011   4.325   1.814   3.816
 6371SOL    HW120012   4.387   1.853   3.884
 6371SOL    HW220013   4.247   1.877   3.802
 6372SOL     OW20014   3.074   6.228   2.194
 6372SOL    HW120015   3.108   6.138   2.224
 6372SOL    HW220016   3.082   6.293   2.269
 6373SOL     OW20017   3.352   4.941   0.556
 6373SOL    HW120018   3.337   5.012   0.487
 6373SOL    HW220019   3.428   4.882   0.529
 6374SOL     OW20020   2.994   3.171   2.828
 6374SOL    HW120021   3.063   3.157   2.899
 6374SOL    HW220022   2.913   3.213   2.868
 6375SOL     OW20023   1.568   5.969   2.327
 6375SOL    HW120024   1.552   5.983   2.229
 6375SOL    HW220025   1.662   5.939   2.341
 6376SOL     OW20026   0.665   2.747   5.179
 6376SOL    HW120027   0.572   2.712   5.185
 6376SOL    HW220028   0.695   2.747   5.084
 6377SOL     OW20029   0.914   1.925   3.553
 6377SOL    HW120030   0.829   1.901   3.505
 6377SOL    HW220031   0.893   1.953   3.647
 6378SOL     OW20032   4.463   4.956   3.230
 6378SOL    HW120033   4.401   4.972   3.307
 6378SOL    HW220034   4.410   4.952   3.146
 6379SOL     OW20035   2.388   4.814   1.908
 6379SOL    HW120036   2.477   4.799   1.864
 6379SOL    HW220037   2.344   4.895   1.868
 6380SOL     OW20038   1.226   0.640   6.030
 6380SOL    HW120039   1.174   0.610   6.109
 6380SOL    HW220040   1.182   0.607   5.946
 6381SOL     OW20041   2.824   3.350   2.061
 6381SOL    HW120042   2.854   3.256   2.044
 6381SOL    HW220043   2.757   3.350   2.135
 6382SOL     OW20044   0.888   4.449   5.091
 6382SOL    HW120045   0.872   4.523   5.156
 6382SOL    HW220046   0.810   4.442   5.029
 6383SOL     OW20047   4.085   1.562   3.856
 6383SOL    HW120048   3.989   1.553   3.883
 6383SOL    HW220049   4.140   1.588   3.935
 6384SOL     OW20050   6.774   4.569   2.706
 6384SOL    HW120051   6.748   4.510   2.783
 6384SOL    HW220052   6.692   4.588   2.651
 6385SOL     OW20053   0.528   5.713   4.533
 6385SOL    HW120054   0.611   5.733   4.479
 6385SOL    HW220055   0.541   5.627   4.582
 6386SOL     OW20056   2.451   5.385   1.954
 6386SOL    HW120057   2.492   5.308   1.906
 6386SOL    HW220058   2.377   5.353   2.012
 6387SOL     OW20059   6.793   1.458   5.323
 6387SOL    HW120060   6.795   1.406   5.237
 6387SOL    HW220061   6.844   1.409   5.393
 6388SOL     OW20062   2.164   4.688   2.670
 6388SOL    HW120063   2.236   4.627   2.636
 6388SOL    HW220064   2.124   4.650   2.754
 6389SOL     OW20065   0.991   4.906   1.604
 6389SOL    HW120066   0.942   4.992   1.592
 6389SOL    HW220067   1.068   4.902   1.540
 6390SOL     OW20068   0.664   2.735   4.164
 6390SOL    HW120069   0.671   2.792   4.246
 6390SOL    HW220070   0.592   2.770   4.105
 6391SOL     OW20071   3.707   1.028   0.026
 6391SOL    HW120072   3.714   0.960   6.968
 6391SOL    HW220073   3.639   1.097   0.001
 6392SOL     OW20074   1.534   5.956   4.160
 6392SOL    HW120075   1.435   5.963   4.176
 6392SOL    HW220076   1.564   5.863   4.180
 6393SOL     OW20077   5.472   1.411   0.891
 6393SOL    HW120078   5.521   1.324   0.885
 6393SOL    HW220079   5.517   1.479   0.833
 6394SOL     OW20080   3.290   4.762   1.793
 6394SOL    HW120081   3.373   4.708   1.779
 6394SOL    HW220082   3.304   4.827   1.867
 6395SOL     OW20083   6.143   1.713   0.608
 6395SOL    HW120084   6.051   1.749   0.592
 6395SOL    HW220085   6.186   1.691   0.520
 6396SOL     OW20086   6.527   3.656   5.604
 6396SOL    HW120087   6.448   3.600   5.579
 6396SOL    HW220088   6.603   3.596   5.629
 6397SOL     OW20089   6.728   0.966   0.127
 6397SOL    HW120090   6.747   0.872   0.098
 6397SOL    HW220091   6.770   0.981   0.217
 6398SOL     OW20092   3.856   0.776   1.114
 6398SOL    HW120093   3.930   0.823   1.163
 6398SOL    HW220094   3.874   0.779   1.016
 6399SOL     OW20095   2.370   6.219   6.689
 6399SOL    HW120096   2.438   6.150   6.714
 6399SOL    HW220097   2.336   6.200   6.597
 6400SOL     OW20098   3.034   5.188   4.342
 6400SOL    HW120099   2.956   5.157   4.286
 6400SOL    HW220100   3.086   5.256   4.290
 6401SOL     OW20101   1.024   4.232   4.996
 6401SOL    HW120102   0.993   4.316   5.042
 6401SOL    HW220103   1.050   4.254   4.902
 6402SOL     OW20104   1.714   2.171   3.029
 6402SOL    HW120105   1.705   2.142   2.934
 6402SOL    HW220106   1.767   2.102   3.080
 6403SOL     OW20107   1.061   6.779   1.267
 6403SOL    HW120108   1.120   6.698   1.258
 6403SOL    HW220109   1.081   6.825   1.353
 6404SOL     OW20110   4.861   1.088   3.368
 6404SOL    HW120111   4.933   1.070   3.301
 6404SOL    HW220112   4.773   1.063   3.329
 6405SOL     OW20113   3.081   0.910   1.243
 6405SOL    HW120114   3.130   0.920   1.157
 6405SOL    HW220115   3.058   1.001   1.279
 6406SOL     OW20116   2.675   2.008   3.638
 6406SOL    HW120117   2.719   2.097   3.626
 6406SOL    HW220118   2.656   1.968   3.548
 6407SOL     OW20119   4.952   5.731   5.934
 6407SOL    HW120120   4.977   5.795   6.007
 6407SOL    HW220121   4.877   5.769   5.880
 6408SOL     OW20122   5.952   2.030   0.396
 6408SOL    HW120123   5.917   2.038   0.303
 6408SOL    HW220124   5.949   1.935   0.425
 6409SOL     OW20125   0.785   4.749   1.711
 6409SOL    HW120126   0.860   4.782   1.654
 6409SOL    HW220127   0.816   4.673   1.768
 6410SOL     OW20128   1.337   1.212   2.017
 6410SOL    HW120129   1.417   1.227   1.960
 6410SOL    HW220130   1.366   1.185   2.109
 6411SOL     OW20131   1.241   1.151   3.690
 6411SOL    HW120132   1.171   1.086   3.660
 6411SOL    HW220133   1.332   1.113   3.672
 6412SOL     OW20134   6.166   2.766   4.299
 6412SOL    HW120135   6.191   2.726   4.387
 6412SOL    HW220136   6.248   2.779   4.244
 6413SOL     OW20137   0.470   4.626   0.563
 6413SOL    HW120138   0.441   4.706   0.616
 6413SOL    HW220139   0.561   4.644   0.524
 6414SOL     OW20140   6.349   6.797   2.829
 6414SOL    HW120141   6.355   6.896   2.841
 6414SOL    HW220142   6.388   6.751   2.908
 6415SOL     OW20143   1.398   1.510   2.289
 6415SOL    HW120144   1.334   1.454   2.237
 6415SOL    HW220145   1.401   1.603   2.250
 6416SOL     OW20146   2.244   6.372   6.242
 6416SOL    HW120147   2.233   6.313   6.322
 6416SOL    HW220148   2.216   6.465   6.266
 6417SOL     OW20149   0.591   6.808   3.570
 6417SOL    HW120150   0.568   6.787   3.475
 6417SOL    HW220151   0.690   6.803   3.582
 6418SOL     OW20152   6.835   5.973   2.722
 6418SOL    HW120153   6.815   5.875   2.719
 6418SOL    HW220154   6.752   6.024   2.745
 6419SOL     OW20155   2.519   3.344   1.239
 6419SOL    HW120156   2.543   3.399   1.159
 6419SOL    HW220157   2.573   3.373   1.318
 6420SOL     OW20158   0.926   3.068   6.366
 6420SOL    HW120159   0.831   3.057   6.395
 6420SOL    HW220160   0.939   3.028   6.276
 6421SOL     OW20161   6.093   2.268   0.453
 6421SOL    HW120162   6.132   2.297   0.540
 6421SOL    HW220163   6.038   2.186   0.467
 6422SOL     OW20164   5.858   2.688   3.288
 6422SOL    HW120165   5.942   2.742   3.286
 6422SOL    HW220166   5.844   2.650   3.380
 6423SOL     OW20167   4.746   4.341   1.031
 6423SOL    HW120168   4.731   4.252   0.989
 6423SOL    HW220169   4.702   4.412   0.976
 6424SOL     OW20170   6.560   4.396   4.900
 6424SOL    HW120171   6.572   4.297   4.904
 6424SOL    HW220172   6.649   4.441   4.912
 6425SOL     OW20173   0.667   5.154   1.249
 6425SOL    HW120174   0.591   5.110   1.201
 6425SOL    HW220175   0.717   5.086   1.302
 6426SOL     OW20176   6.853   3.086   3.418
 6426SOL    HW120177   6.815   3.014   3.359
 6426SOL    HW220178   6.890   3.044   3.501
 6427SOL     OW20179   1.161   2.798   6.067
 6427SOL    HW120180   1.114   2.713   6.088
 6427SOL    HW220181   1.104   2.855   6.009
 6428SOL     OW20182   6.578   2.999   4.102
 6428SOL    HW120183   6.514   3.063   4.059
 6428SOL    HW220184   6.659   3.049   4.135
 6429SOL     OW20185   1.026   1.174   5.021
 6429SOL    HW120186   1.003   1.212   4.931
 6429SOL    HW220187   1.037   1.248   5.087
 6430SOL     OW20188   6.279   3.420   6.979
 6430SOL    HW120189   6.374   3.445   6.964
 6430SOL    HW220190   6.273   3.353   0.038
 6431SOL     OW20191   5.579   0.981   3.153
 6431SOL    HW120192   5.586   0.881   3.150
 6431SOL    HW220193   5.596   1.013   3.246
 6432SOL     OW20194   5.792   3.599   0.270
 6432SOL    HW120195   5.825   3.578   0.363
 6432SOL    HW220196   5.855   3.663   0.226
 6433SOL     OW20197   2.361   3.578   1.567
 6433SOL    HW120198   2.343   3.603   1.472
 6433SOL    HW220199   2.441   3.628   1.600
 6434SOL     OW20200   1.916   5.087   0.342
 6434SOL    HW120201   1.889   5.042   0.257
 6434SOL    HW220202   2.007   5.125   0.332
 6435SOL     OW20203   4.708   3.758   0.402
 6435SOL    HW120204   4.709   3.723   0.308
 6435SOL    HW220205   4.678   3.854   0.402
 6436SOL     OW20206   1.712   2.403   2.081
 6436SOL    HW120207   1.803   2.372   2.107
 6436SOL    HW220208   1.647   2.381   2.155
 6437SOL     OW20209   0.211   0.543   6.769
 6437SOL    HW120210   0.180   0.535   6.674
 6437SOL    HW220211   0.290   0.603   6.773
 6438SOL     OW20212   0.940   3.728   4.226
 6438SOL    HW120213   0.962   3.664   4.299
 6438SOL    HW220214   0.841   3.740   4.221
 6439SOL     OW20215   0.474   6.454   2.370
 6439SOL    HW120216   0.497   6.413   2.458
 6439SOL    HW220217   0.376   6.446   2.354
 6440SOL     OW20218   0.571   0.748   1.667
 6440SOL    HW120219   0.483   0.772   1.626
 6440SOL    HW220220   0.557   0.678   1.737
 6441SOL     OW20221   3.924   1.741   2.907
 6441SOL    HW120222   3.987   1.759   2.832
 6441SOL    HW220223   3.956   1.787   2.990
 6442SOL     OW20224   3.344   0.368   3.382
 6442SOL    HW120225   3.429   0.402   3.423
 6442SOL    HW220226   3.299   0.305   3.446
 6443SOL     OW20227   2.368   0.989   0.639
 6443SOL    HW120228   2.291   0.941   0.682
 6443SOL    HW220229   2.424   1.031   0.710
 6444SOL     OW20230   0.434   1.021   3.101
 6444SOL    HW120231   0.384   1.003   3.186
 6444SOL    HW220232   0.502   1.092   3.117
 6445SOL     OW20233   3.649   4.172   5.661
 6445SOL    HW120234   3.638   4.077   5.691
 6445SOL    HW220235   3.607   4.233   5.728
 6446SOL     OW20236   6.827   2.204   0.827
 6446SOL    HW120237   6.766   2.228   0.752
 6446SOL    HW220238   6.906   2.266   0.827
 6447SOL     OW20239   1.638   0.245   2.911
 6447SOL    HW120240   1.617   0.199   2.997
 6447SOL    HW220241   1.630   0.180   2.835
 6448SOL     OW20242   6.736   2.045   2.425
 6448SOL    HW120243   6.794   2.045   2.344
 6448SOL    HW220244   6.677   2.126   2.425
 6449SOL     OW20245   3.756   2.615   1.234
 6449SOL    HW120246   3.794   2.523   1.239
 6449SOL    HW220247   3.694   2.621   1.156
 6450SOL     OW20248   6.890   3.552   6.945
 6450SOL    HW120249   6.956   3.626   6.929
 6450SOL    HW220250   6.876   3.539   0.027
 6451SOL     OW20251   2.369   6.025   4.071
 6451SOL    HW120252   2.373   6.045   4.168
 6451SOL    HW220253   2.380   5.926   4.057
 6452SOL     OW20254   4.434   5.912   4.174
 6452SOL    HW120255   4.520   5.957   4.198
 6452SOL    HW220256   4.394   5.956   4.094
 6453SOL     OW20257   1.966   5.112   6.568
 6453SOL    HW120258   2.063   5.131   6.554
 6453SOL    HW220259   1.955   5.021   6.608
 6454SOL     OW20260   3.573   1.073   4.949
 6454SOL    HW120261   3.564   0.981   4.909
 6454SOL    HW220262   3.590   1.064   5.047
 6455SOL     OW20263   6.171   3.122   5.860
 6455SOL    HW120264   6.116   3.056   5.911
 6455SOL    HW220265   6.141   3.123   5.765
 6456SOL     OW20266   0.012   1.142   4.812
 6456SOL    HW120267   7.010   1.113   4.718
 6456SOL    HW220268   6.954   1.110   4.872
 6457SOL     OW20269   6.143   2.381   2.694
 6457SOL    HW120270   6.206   2.308   2.668
 6457SOL    HW220271   6.049   2.352   2.676
 6458SOL     OW20272   1.558   6.437   3.423
 6458SOL    HW120273   1.654   6.410   3.435
 6458SOL    HW220274   1.508   6.362   3.379
 6459SOL     OW20275   5.136   4.671   0.556
 6459SOL    HW120276   5.189   4.653   0.473
 6459SOL    HW220277   5.182   4.630   0.635
 6460SOL     OW20278   2.794   4.775   1.308
 6460SOL    HW120279   2.844   4.700   1.352
 6460SOL    HW220280   2.857   4.851   1.290
 6461SOL     OW20281   3.281   6.084   5.531
 6461SOL    HW120282   3.223   6.164   5.546
 6461SOL    HW220283   3.232   6.017   5.476
 6462SOL     OW20284   2.138   3.113   3.346
 6462SOL    HW120285   2.046   3.152   3.354
 6462SOL    HW220286   2.188   3.158   3.272
 6463SOL     OW20287   0.844   4.126   5.371
 6463SOL    HW120288   0.775   4.053   5.375
 6463SOL    HW220289   0.934   4.085   5.361
 6464SOL     OW20290   1.367   5.417   2.850
 6464SOL    HW120291   1.384   5.328   2.892
 6464SOL    HW220292   1.405   5.418   2.758
 6465SOL     OW20293   6.050   0.934   3.071
 6465SOL    HW120294   6.142   0.938   3.032
 6465SOL    HW220295   5.995   0.868   3.020
 6466SOL     OW20296   7.005   2.723   5.219
 6466SOL    HW120297   6.942   2.697   5.292
 6466SOL    HW220298   7.009   2.651   5.150
 6467SOL     OW20299   3.281   0.933   5.933
 6467SOL    HW120300   3.241   0.948   6.023
 6467SOL    HW220301   3.244   0.849   5.893
 6468SOL     OW20302   5.224   4.447   1.618
 6468SOL    HW120303   5.295   4.513   1.597
 6468SOL    HW220304   5.261   4.375   1.677
 6469SOL     OW20305   6.476   1.192   5.735
 6469SOL    HW120306   6.455   1.098   5.708
 6469SOL    HW220307   6.489   1.248   5.653
 6470SOL     OW20308   6.434   5.821   4.773
 6470SOL    HW120309   6.377   5.747   4.807
 6470SOL    HW220310   6.397   5.909   4.803
 6471SOL     OW20311   5.713   5.649   5.707
 6471SOL    HW120312   5.648   5.577   5.683
 6471SOL    HW220313   5.802   5.609   5.728
 6472SOL     OW20314   1.511   6.005   1.156
 6472SOL    HW120315   1.548   5.914   1.174
 6472SOL    HW220316   1.490   6.050   1.243
 6473SOL     OW20317   2.514   0.836   5.239
 6473SOL    HW120318   2.531   0.739   5.221
 6473SOL    HW220319   2.472   0.877   5.158
 6474SOL     OW20320   2.720   3.473   5.733
 6474SOL    HW120321   2.746   3.557   5.685
 6474SOL    HW220322   2.620   3.462   5.727
 6475SOL     OW20323   4.664   5.503   3.678
 6475SOL    HW120324   4.633   5.417   3.637
 6475SOL    HW220325   4.620   5.579   3.631
 6476SOL     OW20326   5.213   4.598   2.262
 6476SOL    HW120327   5.230   4.520   2.322
 6476SOL    HW220328   5.179   4.675   2.317
 6477SOL     OW20329   6.752   6.439   0.620
 6477SOL    HW120330   6.746   6.485   0.531
 6477SOL    HW220331   6.848   6.422   0.643
 6478SOL     OW20332   5.326   6.265   1.863
 6478SOL    HW120333   5.341   6.351   1.912
 6478SOL    HW220334   5.320   6.282   1.765
 6479SOL     OW20335   3.863   6.347   2.710
 6479SOL    HW120336   3.806   6.274   2.673
 6479SOL    HW220337   3.814   6.434   2.706
 6480SOL     OW20338   2.559   1.046   1.333
 6480SOL    HW120339   2.648   1.030   1.290
 6480SOL    HW220340   2.490   0.990   1.288
 6481SOL     OW20341   4.529   0.824   1.305
 6481SOL    HW120342   4.547   0.909   1.355
 6481SOL    HW220343   4.571   0.747   1.354
 6482SOL     OW20344   6.733   0.542   6.626
 6482SOL    HW120345   6.728   0.515   6.722
 6482SOL    HW220346   6.715   0.640   6.618
 6483SOL     OW20347   1.772   5.735   1.988
 6483SOL    HW120348   1.823   5.821   1.981
 6483SOL    HW220349   1.819   5.673   2.051
 6484SOL     OW20350   5.411   6.804   3.592
 6484SOL    HW120351   5.385   6.816   3.688
 6484SOL    HW220352   5.450   6.890   3.558
 6485SOL     OW20353   0.980   2.798   3.089
 6485SOL    HW120354   0.924   2.762   3.164
 6485SOL    HW220355   0.958   2.749   3.005
 6486SOL     OW20356   1.820   3.053   3.330
 6486SOL    HW120357   1.735   3.013   3.364
 6486SOL    HW220358   1.802   3.141   3.288
 6487SOL     OW20359   5.728   5.302   3.491
 6487SOL    HW120360   5.735   5.320   3.393
 6487SOL    HW220361   5.705   5.387   3.539
 6488SOL     OW20362   3.088   4.877   5.681
 6488SOL    HW120363   3.082   4.835   5.771
 6488SOL    HW220364   3.169   4.935   5.676
 6489SOL     OW20365   2.706   2.185   6.028
 6489SOL    HW120366   2.667   2.224   6.112
 6489SOL    HW220367   2.662   2.097   6.009
 6490SOL     OW20368   4.861   1.540   0.817
 6490SOL    HW120369   4.845   1.498   0.906
 6490SOL    HW220370   4.854   1.471   0.745
 6491SOL     OW20371   4.312   1.090   6.334
 6491SOL    HW120372   4.327   1.126   6.425
 6491SOL    HW220373   4.258   1.155   6.280
 6492SOL     OW20374   5.710   6.212   6.352
 6492SOL    HW120375   5.734   6.231   6.257
 6492SOL    HW220376   5.764   6.271   6.412
 6493SOL     OW20377   1.236   6.382   5.269
 6493SOL    HW120378   1.267   6.301   5.318
 6493SOL    HW220379   1.201   6.449   5.335
 6494SOL     OW20380   1.568   0.213   3.655
 6494SOL    HW120381   1.657   0.177   3.627
 6494SOL    HW220382   1.577   0.309   3.680
 6495SOL     OW20383   5.638   4.490   2.339
 6495SOL    HW120384   5.605   4.517   2.248
 6495SOL    HW220385   5.664   4.394   2.338
 6496SOL     OW20386   0.822   6.092   3.259
 6496SOL    HW120387   0.887   6.131   3.324
 6496SOL    HW220388   0.865   6.084   3.169
 6497SOL     OW20389   0.431   5.494   0.056
 6497SOL    HW120390   0.432   5.397   0.080
 6497SOL    HW220391   0.353   5.512   7.011
 6498SOL     OW20392   1.283   4.390   3.727
 6498SOL    HW120393   1.231   4.314   3.689
 6498SOL    HW220394   1.242   4.419   3.813
 6499SOL     OW20395   5.768   0.979   3.627
 6499SOL    HW120396   5.802   0.993   3.720
 6499SOL    HW220397   5.845   0.960   3.565
 6500SOL     OW20398   5.494   4.926   3.602
 6500SOL    HW120399   5.413   4.937   3.544
 6500SOL    HW220400   5.559   4.866   3.556
 6501SOL     OW20401   0.197   3.377   0.870
 6501SOL    HW120402   0.229   3.283   0.884
 6501SOL    HW220403   0.275   3.440   0.875
 6502SOL     OW20404   1.451   5.262   2.380
 6502SOL    HW120405   1.459   5.247   2.479
 6502SOL    HW220406   1.363   5.229   2.348
 6503SOL     OW20407   4.695   0.140   4.518
 6503SOL    HW120408   4.756   0.172   4.445
 6503SOL    HW220409   4.744   0.073   4.575
 6504SOL     OW20410   1.644   0.905   0.625
 6504SOL    HW120411   1.648   0.840   0.549
 6504SOL    HW220412   1.578   0.873   0.693
 6505SOL     OW20413   5.444   5.489   0.655
 6505SOL    HW120414   5.494   5.564   0.612
 6505SOL    HW220415   5.363   5.467   0.600
 6506SOL     OW20416   2.064   1.692   0.549
 6506SOL    HW120417   2.067   1.748   0.466
 6506SOL    HW220418   2.007   1.612   0.534
 6507SOL     OW20419   2.883   0.516   1.964
 6507SOL    HW120420   2.859   0.541   1.870
 6507SOL    HW220421   2.881   0.417   1.974
 6508SOL     OW20422   2.201   1.597   2.010
 6508SOL    HW120423   2.205   1.625   2.106
 6508SOL    HW220424   2.285   1.548   1.986
 6509SOL     OW20425   0.982   2.561   3.873
 6509SOL    HW120426   1.018   2.570   3.780
 6509SOL    HW220427   0.883   2.550   3.870
 6510SOL     OW20428   5.902   5.113   6.497
 6510SOL    HW120429   5.982   5.173   6.500
 6510SOL    HW220430   5.920   5.034   6.438
 6511SOL     OW20431   6.752   6.646   5.766
 6511SOL    HW120432   6.662   6.610   5.792
 6511SOL    HW220433   6.749   6.682   5.673
 6512SOL     OW20434   5.305   6.000   3.795
 6512SOL    HW120435   5.243   6.078   3.789
 6512SOL    HW220436   5.278   5.943   3.873
 6513SOL     OW20437   1.928   6.965   3.370
 6513SOL    HW120438   1.848   6.968   3.309
 6513SOL    HW220439   1.960   6.871   3.378
 6514SOL     OW20440   3.387   0.192   4.096
 6514SOL    HW120441   3.375   0.289   4.118
 6514SOL    HW220442   3.471   0.181   4.043
 6515SOL     OW20443   0.891   1.061   3.733
 6515SOL    HW120444   0.968   1.066   3.797
 6515SOL    HW220445   0.838   0.979   3.751
 6516SOL     OW20446   1.518   1.681   5.975
 6516SOL    HW120447   1.606   1.658   5.934
 6516SOL    HW220448   1.450   1.613   5.948
 6517SOL     OW20449   1.663   1.822   0.511
 6517SOL    HW120450   1.636   1.726   0.515
 6517SOL    HW220451   1.754   1.833   0.552
 6518SOL     OW20452   5.996   6.289   1.005
 6518SOL    HW120453   5.969   6.199   1.040
 6518SOL    HW220454   6.095   6.294   0.999
 6519SOL     OW20455   1.189   2.385   3.061
 6519SOL    HW120456   1.183   2.286   3.058
 6519SOL    HW220457   1.268   2.412   3.117
 6520SOL     OW20458   5.924   5.714   1.941
 6520SOL    HW120459   5.850   5.695   2.005
 6520SOL    HW220460   5.915   5.656   1.861
 6521SOL     OW20461   1.517   2.333   5.460
 6521SOL    HW120462   1.522   2.363   5.555
 6521SOL    HW220463   1.439   2.377   5.416
 6522SOL     OW20464   2.719   5.242   4.829
 6522SOL    HW120465   2.761   5.171   4.885
 6522SOL    HW220466   2.620   5.243   4.845
 6523SOL     OW20467   1.985   2.736   6.990
 6523SOL    HW120468   1.953   2.650   0.015
 6523SOL    HW220469   1.948   2.813   0.027
 6524SOL     OW20470   4.017   3.711   5.048
 6524SOL    HW120471   4.037   3.685   4.954
 6524SOL    HW220472   3.979   3.633   5.097
 6525SOL     OW20473   0.211   2.620   4.200
 6525SOL    HW120474   0.123   2.628   4.152
 6525SOL    HW220475   0.268   2.699   4.178
 6526SOL     OW20476   1.571   5.349   3.712
 6526SOL    HW120477   1.646   5.301   3.757
 6526SOL    HW220478   1.557   5.311   3.621
 6527SOL     OW20479   2.363   1.005   4.224
 6527SOL    HW120480   2.463   0.999   4.232
 6527SOL    HW220481   2.333   1.095   4.256
 6528SOL     OW20482   0.301   6.832   3.484
 6528SOL    HW120483   0.356   6.780   3.549
 6528SOL    HW220484   0.267   6.770   3.413
 6529SOL     OW20485   6.456   2.694   1.992
 6529SOL    HW120486   6.458   2.685   1.893
 6529SOL    HW220487   6.535   2.747   2.023
 6530SOL     OW20488   0.425   1.974   0.306
 6530SOL    HW120489   0.395   2.046   0.370
 6530SOL    HW220490   0.359   1.898   0.309
 6531SOL     OW20491   5.051   2.838   4.693
 6531SOL    HW120492   5.113   2.914   4.676
 6531SOL    HW220493   4.984   2.865   4.761
 6532SOL     OW20494   1.367   2.508   6.980
 6532SOL    HW120495   1.365   2.593   6.927
 6532SOL    HW220496   1.461   2.486   7.006
 6533SOL     OW20497   4.275   0.734   0.927
 6533SOL    HW120498   4.362   0.752   0.972
 6533SOL    HW220499   4.245   0.641   0.949
 6534SOL     OW20500   2.261   3.450   6.989
 6534SOL    HW120501   2.176   3.496   7.014
 6534SOL    HW220502   2.241   3.375   6.925
 6535SOL     OW20503   2.227   3.531   5.532
 6535SOL    HW120504   2.288   3.540   5.453
 6535SOL    HW220505   2.138   3.496   5.501
 6536SOL     OW20506   6.565   2.406   6.727
 6536SOL    HW120507   6.551   2.444   6.635
 6536SOL    HW220508   6.604   2.314   6.719
 6537SOL     OW20509   0.837   0.247   0.116
 6537SOL    HW120510   0.786   0.164   0.140
 6537SOL    HW220511   0.838   0.257   0.016
 6538SOL     OW20512   1.807   2.881   6.094
 6538SOL    HW120513   1.713   2.909   6.118
 6538SOL    HW220514   1.836   2.931   6.013
 6539SOL     OW20515   3.011   1.852   6.408
 6539SOL    HW120516   2.992   1.768   6.358
 6539SOL    HW220517   3.107   1.852   6.437
 6540SOL     OW20518   3.385   1.959   4.031
 6540SOL    HW120519   3.474   1.999   4.012
 6540SOL    HW220520   3.374   1.946   4.130
 6541SOL     OW20521   2.946   2.867   5.324
 6541SOL    HW120522   2.876   2.938   5.322
 6541SOL    HW220523   2.954   2.831   5.417
 6542SOL     OW20524   6.176   4.157   3.616
 6542SOL    HW120525   6.223   4.245   3.627
 6542SOL    HW220526   6.240   4.083   3.637
 6543SOL     OW20527   0.541   5.857   6.167
 6543SOL    HW120528   0.522   5.777   6.225
 6543SOL    HW220529   0.639   5.877   6.169
 6544SOL     OW20530   6.940   6.221   2.806
 6544SOL    HW120531   6.897   6.297   2.757
 6544SOL    HW220532   6.927   6.136   2.754
 6545SOL     OW20533   5.562   3.003   5.992
 6545SOL    HW120534   5.600   2.996   6.084
 6545SOL    HW220535   5.495   2.931   5.977
 6546SOL     OW20536   3.437   4.676   5.903
 6546SOL    HW120537   3.433   4.774   5.921
 6546SOL    HW220538   3.390   4.627   5.976
 6547SOL     OW20539   5.080   0.700   6.980
 6547SOL    HW120540   5.077   0.764   6.904
 6547SOL    HW220541   5.090   0.751   0.051
 6548SOL     OW20542   5.818   4.090   5.100
 6548SOL    HW120543   5.779   4.079   5.191
 6548SOL    HW220544   5.912   4.122   5.107
 6549SOL     OW20545   3.015   1.921   2.572
 6549SOL    HW120546   3.084   1.994   2.568
 6549SOL    HW220547   2.931   1.957   2.611
 6550SOL     OW20548   1.159   5.053   3.069
 6550SOL    HW120549   1.144   4.956   3.048
 6550SOL    HW220550   1.071   5.100   3.076
 6551SOL     OW20551   2.809   5.003   1.997
 6551SOL    HW120552   2.808   4.929   2.064
 6551SOL    HW220553   2.824   4.965   1.906
 6552SOL     OW20554   4.844   5.493   6.492
 6552SOL    HW120555   4.792   5.567   6.449
 6552SOL    HW220556   4.939   5.522   6.502
 6553SOL     OW20557   6.924   2.963   2.756
 6553SOL    HW120558   6.839   2.950   2.807
 6553SOL    HW220559   6.960   3.054   2.774
 6554SOL     OW20560   0.294   3.583   4.655
 6554SOL    HW120561   0.264   3.558   4.563
 6554SOL    HW220562   0.372   3.646   4.648
 6555SOL     OW20563   0.746   0.971   2.053
 6555SOL    HW120564   0.750   1.027   1.970
 6555SOL    HW220565   0.716   1.027   2.130
 6556SOL     OW20566   3.667   0.220   4.262
 6556SOL    HW120567   3.682   0.161   4.183
 6556SOL    HW220568   3.583   0.272   4.249
 6557SOL     OW20569   5.301   5.992   0.563
 6557SOL    HW120570   5.222   6.003   0.623
 6557SOL    HW220571   5.299   6.064   0.493
 6558SOL     OW20572   6.786   6.374   6.115
 6558SOL    HW120573   6.792   6.315   6.034
 6558SOL    HW220574   6.700   6.424   6.114
 6559SOL     OW20575   3.265   3.207   1.592
 6559SOL    HW120576   3.305   3.261   1.518
 6559SOL    HW220577   3.194   3.147   1.555
 6560SOL     OW20578   3.914   1.700   0.735
 6560SOL    HW120579   3.895   1.699   0.637
 6560SOL    HW220580   4.005   1.661   0.751
 6561SOL     OW20581   3.411   3.860   4.246
 6561SOL    HW120582   3.419   3.763   4.222
 6561SOL    HW220583   3.419   3.916   4.163
 6562SOL     OW20584   6.615   4.070   5.395
 6562SOL    HW120585   6.625   3.986   5.343
 6562SOL    HW220586   6.618   4.149   5.333
 6563SOL     OW20587   0.632   5.225   2.487
 6563SOL    HW120588   0.587   5.273   2.562
 6563SOL    HW220589   0.710   5.173   2.523
 6564SOL     OW20590   1.662   5.816   2.663
 6564SOL    HW120591   1.576   5.866   2.650
 6564SOL    HW220592   1.648   5.745   2.732
 6565SOL     OW20593   6.355   3.794   4.950
 6565SOL    HW120594   6.454   3.805   4.956
 6565SOL    HW220595   6.325   3.722   5.013
 6566SOL     OW20596   3.573   6.955   0.742
 6566SOL    HW120597   3.480   6.920   0.747
 6566SOL    HW220598   3.580   0.025   0.794
 6567SOL     OW20599   6.189   2.742   1.114
 6567SOL    HW120600   6.114   2.724   1.177
 6567SOL    HW220601   6.246   2.815   1.150
 6568SOL     OW20602   4.205   3.918   1.537
 6568SOL    HW120603   4.209   3.985   1.611
 6568SOL    HW220604   4.272   3.941   1.467
 6569SOL     OW20605   0.777   5.007   6.281
 6569SOL    HW120606   0.764   5.090   6.228
 6569SOL    HW220607   0.693   4.984   6.330
 6570SOL     OW20608   6.287   3.522   1.475
 6570SOL    HW120609   6.191   3.550   1.482
 6570SOL    HW220610   6.345   3.584   1.527
 6571SOL     OW20611   2.717   6.265   3.796
 6571SOL    HW120612   2.698   6.337   3.863
 6571SOL    HW220613   2.807   6.280   3.755
 6572SOL     OW20614   1.037   4.514   6.041
 6572SOL    HW120615   1.052   4.613   6.038
 6572SOL    HW220616   1.032   4.483   6.136
 6573SOL     OW20617   1.869   2.149   1.949
 6573SOL    HW120618   1.922   2.197   2.019
 6573SOL    HW220619   1.807   2.084   1.994
 6574SOL     OW20620   1.564   4.617   4.352
 6574SOL    HW120621   1.637   4.572   4.301
 6574SOL    HW220622   1.574   4.596   4.450
 6575SOL     OW20623   2.087   1.331   2.722
 6575SOL    HW120624   2.032   1.410   2.692
 6575SOL    HW220625   2.164   1.363   2.778
 6576SOL     OW20626   1.161   6.036   3.993
 6576SOL    HW120627   1.125   6.127   4.012
 6576SOL    HW220628   1.088   5.977   3.959
 6577SOL     OW20629   6.648   3.229   4.816
 6577SOL    HW120630   6.586   3.302   4.785
 6577SOL    HW220631   6.651   3.157   4.748
 6578SOL     OW20632   6.607   5.380   3.587
 6578SOL    HW120633   6.563   5.444   3.650
 6578SOL    HW220634   6.706   5.380   3.602
 6579SOL     OW20635   1.241   3.907   3.053
 6579SOL    HW120636   1.319   3.863   3.008
 6579SOL    HW220637   1.261   4.004   3.066
 6580SOL     OW20638   5.760   2.390   1.508
 6580SOL    HW120639   5.673   2.432   1.481
 6580SOL    HW220640   5.778   2.310   1.452
 6581SOL     OW20641   2.695   2.537   5.613
 6581SOL    HW120642   2.633   2.569   5.685
 6581SOL    HW220643   2.766   2.606   5.597
 6582SOL     OW20644   6.427   0.458   2.262
 6582SOL    HW120645   6.515   0.411   2.261
 6582SOL    HW220646   6.432   0.539   2.320
 6583SOL     OW20647   5.758   2.019   5.841
 6583SOL    HW120648   5.806   2.061   5.765
 6583SOL    HW220649   5.806   2.038   5.927
 6584SOL     OW20650   5.561   2.551   0.092
 6584SOL    HW120651   5.525   2.458   0.093
 6584SOL    HW220652   5.520   2.603   0.017
 6585SOL     OW20653   3.018   1.132   1.395
 6585SOL    HW120654   3.028   1.150   1.493
 6585SOL    HW220655   2.986   1.216   1.350
 6586SOL     OW20656   0.016   1.557   6.689
 6586SOL    HW120657   0.063   1.637   6.727
 6586SOL    HW220658   6.941   1.585   6.655
 6587SOL     OW20659   1.689   6.368   2.674
 6587SOL    HW120660   1.723   6.444   2.729
 6587SOL    HW220661   1.591   6.355   2.692
 6588SOL     OW20662   2.872   2.732   0.047
 6588SOL    HW120663   2.933   2.662   0.011
 6588SOL    HW220664   2.778   2.698   0.046
 6589SOL     OW20665   5.486   1.682   5.683
 6589SOL    HW120666   5.559   1.637   5.734
 6589SOL    HW220667   5.526   1.751   5.623
 6590SOL     OW20668   6.927   0.947   5.786
 6590SOL    HW120669   6.927   0.993   5.875
 6590SOL    HW220670   7.005   0.884   5.782
 6591SOL     OW20671   5.357   0.547   2.698
 6591SOL    HW120672   5.398   0.564   2.787
 6591SOL    HW220673   5.426   0.556   2.626
 6592SOL     OW20674   5.867   5.758   4.572
 6592SOL    HW120675   5.772   5.780   4.551
 6592SOL    HW220676   5.903   5.822   4.639
 6593SOL     OW20677   4.682   0.799   2.540
 6593SOL    HW120678   4.722   0.881   2.581
 6593SOL    HW220679   4.706   0.796   2.443
 6594SOL     OW20680   5.584   1.212   6.854
 6594SOL    HW120681   5.615   1.132   6.905
 6594SOL    HW220682   5.492   1.237   6.883
 6595SOL     OW20683   1.636   3.615   6.999
 6595SOL    HW120684   1.656   3.693   0.043
 6595SOL    HW220685   1.540   3.590   7.007
 6596SOL     OW20686   2.961   6.598   5.562
 6596SOL    HW120687   2.951   6.578   5.465
 6596SOL    HW220688   2.880   6.566   5.611
 6597SOL     OW20689   6.539   3.884   6.776
 6597SOL    HW120690   6.545   3.928   6.687
 6597SOL    HW220691   6.554   3.951   6.848
 6598SOL     OW20692   2.434   5.372   4.966
 6598SOL    HW120693   2.357   5.404   4.911
 6598SOL    HW220694   2.510   5.437   4.960
 6599SOL     OW20695   4.503   3.031   5.689
 6599SOL    HW120696   4.551   2.980   5.760
 6599SOL    HW220697   4.567   3.088   5.639
 6600SOL     OW20698   4.017   5.315   4.442
 6600SOL    HW120699   4.062   5.369   4.513
 6600SOL    HW220700   3.933   5.360   4.413
 6601SOL     OW20701   1.062   0.176   1.176
 6601SOL    HW120702   1.055   0.194   1.274
 6601SOL    HW220703   1.109   0.252   1.131
 6602SOL     OW20704   6.398   1.514   1.783
 6602SOL    HW120705   6.456   1.593   1.798
 6602SOL    HW220706   6.427   1.439   1.844
 6603SOL     OW20707   2.441   2.246   2.259
 6603SOL    HW120708   2.438   2.178   2.186
 6603SOL    HW220709   2.511   2.314   2.238
 6604SOL     OW20710   4.137   5.881   3.742
 6604SOL    HW120711   4.122   5.962   3.685
 6604SOL    HW220712   4.231   5.850   3.733
 6605SOL     OW20713   5.278   6.219   0.378
 6605SOL    HW120714   5.327   6.244   0.294
 6605SOL    HW220715   5.193   6.271   0.385
 6606SOL     OW20716   6.319   1.164   3.263
 6606SOL    HW120717   6.329   1.065   3.267
 6606SOL    HW220718   6.231   1.190   3.303
 6607SOL     OW20719   1.072   1.570   2.961
 6607SOL    HW120720   1.039   1.639   2.896
 6607SOL    HW220721   1.140   1.512   2.917
 6608SOL     OW20722   5.385   4.775   4.869
 6608SOL    HW120723   5.369   4.681   4.897
 6608SOL    HW220724   5.451   4.777   4.794
 6609SOL     OW20725   5.979   1.586   6.985
 6609SOL    HW120726   5.961   1.501   6.935
 6609SOL    HW220727   5.912   1.656   6.958
 6610SOL     OW20728   3.290   1.545   0.414
 6610SOL    HW120729   3.370   1.606   0.421
 6610SOL    HW220730   3.305   1.480   0.339
 6611SOL     OW20731   5.824   2.979   3.169
 6611SOL    HW120732   5.855   2.886   3.149
 6611SOL    HW220733   5.811   2.988   3.268
 6612SOL     OW20734   1.077   5.985   6.941
 6612SOL    HW120735   1.120   5.911   6.889
 6612SOL    HW220736   1.148   6.040   6.985
 6613SOL     OW20737   4.904   5.112   1.382
 6613SOL    HW120738   4.813   5.138   1.349
 6613SOL    HW220739   4.973   5.138   1.315
 6614SOL     OW20740   5.362   5.309   5.765
 6614SOL    HW120741   5.414   5.225   5.775
 6614SOL    HW220742   5.266   5.292   5.789
 6615SOL     OW20743   0.475   3.921   5.103
 6615SOL    HW120744   0.520   4.000   5.061
 6615SOL    HW220745   0.426   3.951   5.186
 6616SOL     OW20746   5.051   1.181   4.045
 6616SOL    HW120747   5.151   1.178   4.038
 6616SOL    HW220748   5.025   1.202   4.139
 6617SOL     OW20749   4.203   0.317   5.201
 6617SOL    HW120750   4.171   0.277   5.287
 6617SOL    HW220751   4.160   0.407   5.188
 6618SOL     OW20752   0.420   5.047   1.174
 6618SOL    HW120753   0.369   4.973   1.217
 6618SOL    HW220754   0.454   5.016   1.085
 6619SOL     OW20755   6.917   6.227   1.682
 6619SOL    HW120756   6.870   6.315   1.687
 6619SOL    HW220757   6.854   6.157   1.649
 6620SOL     OW20758   4.087   3.221   5.773
 6620SOL    HW120759   4.097   3.139   5.829
 6620SOL    HW220760   4.168   3.279   5.784
 6621SOL     OW20761   2.730   3.945   0.063
 6621SOL    HW120762   2.702   4.040   0.059
 6621SOL    HW220763   2.662   3.892   0.115
 6622SOL     OW20764   6.287   5.775   1.012
 6622SOL    HW120765   6.233   5.749   0.932
 6622SOL    HW220766   6.377   5.731   1.008
 6623SOL     OW20767   3.534   3.937   2.642
 6623SOL    HW120768   3.515   3.840   2.652
 6623SOL    HW220769   3.506   3.986   2.725
 6624SOL     OW20770   4.570   5.260   4.031
 6624SOL    HW120771   4.477   5.237   4.001
 6624SOL    HW220772   4.577   5.359   4.044
 6625SOL     OW20773   5.785   0.174   6.964
 6625SOL    HW120774   5.700   0.214   6.998
 6625SOL    HW220775   5.811   0.096   0.007
 6626SOL     OW20776   2.835   5.131   3.318
 6626SOL    HW120777   2.837   5.221   3.363
 6626SOL    HW220778   2.872   5.062   3.379
 6627SOL     OW20779   1.801   6.283   1.941
 6627SOL    HW120780   1.813   6.290   2.040
 6627SOL    HW220781   1.710   6.247   1.921
 6628SOL     OW20782   4.175   6.474   3.560
 6628SOL    HW120783   4.103   6.539   3.538
 6628SOL    HW220784   4.225   6.449   3.477
 6629SOL     OW20785   3.400   3.915   0.088
 6629SOL    HW120786   3.334   3.844   0.114
 6629SOL    HW220787   3.471   3.922   0.158
 6630SOL     OW20788   3.242   1.898   6.556
 6630SOL    HW120789   3.242   1.820   6.619
 6630SOL    HW220790   3.300   1.877   6.477
 6631SOL     OW20791   4.210   0.687   1.721
 6631SOL    HW120792   4.125   0.696   1.670
 6631SOL    HW220793   4.279   0.748   1.682
 6632SOL     OW20794   6.552   2.682   2.641
 6632SOL    HW120795   6.536   2.585   2.655
 6632SOL    HW220796   6.650   2.700   2.636
 6633SOL     OW20797   0.657   0.101   1.947
 6633SOL    HW120798   0.630   0.133   2.038
 6633SOL    HW220799   0.650   0.001   1.944
 6634SOL     OW20800   6.651   2.620   5.508
 6634SOL    HW120801   6.700   2.703   5.480
 6634SOL    HW220802   6.673   2.599   5.603
 6635SOL     OW20803   4.387   4.556   2.838
 6635SOL    HW120804   4.444   4.483   2.800
 6635SOL    HW220805   4.311   4.574   2.776
 6636SOL     OW20806   1.720   2.806   3.877
 6636SOL    HW120807   1.784   2.861   3.932
 6636SOL    HW220808   1.659   2.867   3.826
 6637SOL     OW20809   6.467   1.965   1.814
 6637SOL    HW120810   6.384   1.996   1.862
 6637SOL    HW220811   6.444   1.890   1.752
 6638SOL     OW20812   2.534   6.671   6.825
 6638SOL    HW120813   2.554   6.579   6.858
 6638SOL    HW220814   2.464   6.666   6.753
 6639SOL     OW20815   4.673   5.714   6.402
 6639SOL    HW120816   4.638   5.737   6.493
 6639SOL    HW220817   4.598   5.716   6.336
 6640SOL     OW20818   6.213   2.515   3.385
 6640SOL    HW120819   6.155   2.472   3.454
 6640SOL    HW220820   6.298   2.545   3.428
 6641SOL     OW20821   2.088   4.848   6.939
 6641SOL    HW120822   2.136   4.770   6.978
 6641SOL    HW220823   2.011   4.816   6.885
 6642SOL     OW20824   6.297   6.407   0.275
 6642SOL    HW120825   6.242   6.335   0.317
 6642SOL    HW220826   6.238   6.468   0.222
 6643SOL     OW20827   3.846   5.692   0.415
 6643SOL    HW120828   3.793   5.636   0.351
 6643SOL    HW220829   3.821   5.788   0.404
 6644SOL     OW20830   2.205   3.994   2.177
 6644SOL    HW120831   2.208   4.054   2.257
 6644SOL    HW220832   2.113   3.957   2.167
 6645SOL     OW20833   6.308   4.813   5.129
 6645SOL    HW120834   6.270   4.721   5.136
 6645SOL    HW220835   6.315   4.839   5.033
 6646SOL     OW20836   1.725   6.339   3.714
 6646SOL    HW120837   1.682   6.255   3.680
 6646SOL    HW220838   1.766   6.321   3.804
 6647SOL     OW20839   4.227   1.733   1.848
 6647SOL    HW120840   4.146   1.790   1.835
 6647SOL    HW220841   4.225   1.657   1.783
 6648SOL     OW20842   4.394   5.814   1.821
 6648SOL    HW120843   4.322   5.763   1.774
 6648SOL    HW220844   4.453   5.858   1.753
 6649SOL     OW20845   4.270   2.366   6.282
 6649SOL    HW120846   4.368   2.371   6.261
 6649SOL    HW220847   4.220   2.340   6.200
 6650SOL     OW20848   3.047   1.108   3.770
 6650SOL    HW120849   3.062   1.092   3.672
 6650SOL    HW220850   3.021   1.023   3.814
 6651SOL     OW20851   1.311   1.891   0.108
 6651SOL    HW120852   1.358   1.879   0.195
 6651SOL    HW220853   1.229   1.946   0.121
 6652SOL     OW20854   1.009   5.425   3.388
 6652SOL    HW120855   1.023   5.508   3.442
 6652SOL    HW220856   0.926   5.379   3.418
 6653SOL     OW20857   3.294   3.545   3.759
 6653SOL    HW120858   3.238   3.462   3.750
 6653SOL    HW220859   3.287   3.599   3.675
 6654SOL     OW20860   1.767   3.589   1.762
 6654SOL    HW120861   1.691   3.536   1.800
 6654SOL    HW220862   1.776   3.675   1.813
 6655SOL     OW20863   1.998   0.247   0.685
 6655SOL    HW120864   1.923   0.262   0.748
 6655SOL    HW220865   2.009   0.149   0.668
 6656SOL     OW20866   0.018   2.468   1.664
 6656SOL    HW120867   0.064   2.433   1.583
 6656SOL    HW220868   6.935   2.456   1.654
 6657SOL     OW20869   2.788   4.722   6.147
 6657SOL    HW120870   2.825   4.810   6.176
 6657SOL    HW220871   2.721   4.690   6.214
 6658SOL     OW20872   6.062   0.083   5.360
 6658SOL    HW120873   6.058   0.086   5.460
 6658SOL    HW220874   5.972   0.059   5.324
 6659SOL     OW20875   1.864   2.801   6.341
 6659SOL    HW120876   1.866   2.844   6.251
 6659SOL    HW220877   1.937   2.840   6.398
 6660SOL     OW20878   0.430   6.761   2.114
 6660SOL    HW120879   0.381   6.848   2.104
 6660SOL    HW220880   0.394   6.695   2.049
 6661SOL     OW20881   0.042   5.934   3.742
 6661SOL    HW120882   0.121   5.883   3.706
 6661SOL    HW220883   6.991   5.871   3.781
 6662SOL     OW20884   1.337   3.435   5.260
 6662SOL    HW120885   1.243   3.461   5.280
 6662SOL    HW220886   1.339   3.348   5.210
 6663SOL     OW20887   0.408   5.105   2.362
 6663SOL    HW120888   0.464   5.153   2.429
 6663SOL    HW220889   0.399   5.009   2.389
 6664SOL     OW20890   0.545   1.619   2.907
 6664SOL    HW120891   0.505   1.548   2.965
 6664SOL    HW220892   0.474   1.684   2.879
 6665SOL     OW20893   2.791   6.644   2.780
 6665SOL    HW120894   2.872   6.610   2.733
 6665SOL    HW220895   2.759   6.728   2.735
 6666SOL     OW20896   6.112   0.677   0.452
 6666SOL    HW120897   6.148   0.764   0.418
 6666SOL    HW220898   6.180   0.605   0.438
 6667SOL     OW20899   6.422   5.127   4.466
 6667SOL    HW120900   6.388   5.221   4.454
 6667SOL    HW220901   6.357   5.075   4.521
 6668SOL     OW20902   0.256   6.559   1.406
 6668SOL    HW120903   0.305   6.643   1.381
 6668SOL    HW220904   0.317   6.481   1.398
 6669SOL     OW20905   1.202   5.320   3.222
 6669SOL    HW120906   1.126   5.335   3.286
 6669SOL    HW220907   1.183   5.238   3.167
 6670SOL     OW20908   3.988   4.704   1.024
 6670SOL    HW120909   4.050   4.669   0.954
 6670SOL    HW220910   3.909   4.748   0.981
 6671SOL     OW20911   0.303   3.159   5.437
 6671SOL    HW120912   0.244   3.082   5.414
 6671SOL    HW220913   0.360   3.183   5.358
 6672SOL     OW20914   0.661   0.813   5.564
 6672SOL    HW120915   0.577   0.759   5.563
 6672SOL    HW220916   0.648   0.895   5.509
 6673SOL     OW20917   5.053   5.480   1.584
 6673SOL    HW120918   5.120   5.408   1.602
 6673SOL    HW220919   5.033   5.483   1.486
 6674SOL     OW20920   0.636   6.783   4.940
 6674SOL    HW120921   0.708   6.743   4.883
 6674SOL    HW220922   0.562   6.816   4.882
 6675SOL     OW20923   0.140   5.974   0.414
 6675SOL    HW120924   0.129   5.979   0.315
 6675SOL    HW220925   0.055   6.004   0.458
 6676SOL     OW20926   1.165   1.727   0.464
 6676SOL    HW120927   1.189   1.689   0.375
 6676SOL    HW220928   1.131   1.820   0.453
 6677SOL     OW20929   6.374   3.869   0.132
 6677SOL    HW120930   6.294   3.914   0.171
 6677SOL    HW220931   6.422   3.933   0.071
 6678SOL     OW20932   0.807   2.811   3.867
 6678SOL    HW120933   0.762   2.736   3.915
 6678SOL    HW220934   0.801   2.894   3.922
 6679SOL     OW20935   1.911   1.069   4.705
 6679SOL    HW120936   1.901   1.102   4.611
 6679SOL    HW220937   1.820   1.057   4.745
 6680SOL     OW20938   2.646   0.356   6.353
 6680SOL    HW120939   2.689   0.422   6.415
 6680SOL    HW220940   2.597   0.287   6.407
 6681SOL     OW20941   5.302   5.538   0.203
 6681SOL    HW120942   5.294   5.627   0.248
 6681SOL    HW220943   5.396   5.505   0.211
 6682SOL     OW20944   6.658   5.033   2.417
 6682SOL    HW120945   6.673   4.979   2.500
 6682SOL    HW220946   6.736   5.093   2.402
 6683SOL     OW20947   5.209   1.931   4.231
 6683SOL    HW120948   5.218   1.859   4.299
 6683SOL    HW220949   5.195   1.890   4.141
 6684SOL     OW20950   2.311   1.019   2.316
 6684SOL    HW120951   2.335   0.945   2.253
 6684SOL    HW220952   2.323   0.986   2.410
 6685SOL     OW20953   5.451   3.178   6.269
 6685SOL    HW120954   5.437   3.091   6.315
 6685SOL    HW220955   5.408   3.175   6.178
 6686SOL     OW20956   5.157   3.449   4.189
 6686SOL    HW120957   5.240   3.394   4.201
 6686SOL    HW220958   5.077   3.392   4.207
 6687SOL     OW20959   0.864   1.025   0.077
 6687SOL    HW120960   0.927   1.056   0.006
 6687SOL    HW220961   0.908   1.029   0.166
 6688SOL     OW20962   0.492   5.289   2.718
 6688SOL    HW120963   0.571   5.328   2.766
 6688SOL    HW220964   0.460   5.208   2.766
 6689SOL     OW20965   4.328   4.902   0.436
 6689SOL    HW120966   4.409   4.951   0.469
 6689SOL    HW220967   4.246   4.944   0.474
 6690SOL     OW20968   1.567   1.573   0.507
 6690SOL    HW120969   1.552   1.544   0.412
 6690SOL    HW220970   1.495   1.534   0.565
 6691SOL     OW20971   1.238   5.401   0.916
 6691SOL    HW120972   1.151   5.447   0.899
 6691SOL    HW220973   1.244   5.318   0.861
 6692SOL     OW20974   3.501   4.316   6.064
 6692SOL    HW120975   3.497   4.408   6.103
 6692SOL    HW220976   3.575   4.265   6.109
 6693SOL     OW20977   4.269   3.643   5.245
 6693SOL    HW120978   4.257   3.670   5.149
 6693SOL    HW220979   4.182   3.656   5.293
 6694SOL     OW20980   2.755   6.568   0.256
 6694SOL    HW120981   2.671   6.535   0.299
 6694SOL    HW220982   2.801   6.491   0.211
 6695SOL     OW20983   1.380   1.682   6.334
 6695SOL    HW120984   1.385   1.600   6.276
 6695SOL    HW220985   1.398   1.657   6.429
 6696SOL     OW20986   2.016   2.987   1.501
 6696SOL    HW120987   2.108   2.948   1.499
 6696SOL    HW220988   1.997   3.033   1.414
 6697SOL     OW20989   5.138   2.495   3.919
 6697SOL    HW120990   5.235   2.515   3.905
 6697SOL    HW220991   5.084   2.577   3.901
 6698SOL     OW20992   3.329   4.459   0.397
 6698SOL    HW120993   3.335   4.473   0.496
 6698SOL    HW220994   3.286   4.538   0.355
 6699SOL     OW20995   1.780   3.539   6.558
 6699SOL    HW120996   1.788   3.638   6.564
 6699SOL    HW220997   1.825   3.507   6.474
 6700SOL     OW20998   6.697   6.862   6.116
 6700SOL    HW120999   6.718   6.931   6.184
 6700SOL    HW221000   6.707   6.900   6.024
 6701SOL     OW21001   0.661   2.450   1.036
 6701SOL    HW121002   0.631   2.363   1.075
 6701SOL    HW221003   0.650   2.522   1.105
 6702SOL     OW21004   1.482   3.311   0.723
 6702SOL    HW121005   1.551   3.383   0.726
 6702SOL    HW221006   1.481   3.269   0.632
 6703SOL     OW21007   0.223   2.290   6.641
 6703SOL    HW121008   0.305   2.286   6.699
 6703SOL    HW221009   0.158   2.354   6.681
 6704SOL     OW21010   5.034   2.430   3.255
 6704SOL    HW121011   5.064   2.465   3.166
 6704SOL    HW221012   4.953   2.480   3.285
 6705SOL     OW21013   5.969   1.123   0.795
 6705SOL    HW121014   5.926   1.213   0.787
 6705SOL    HW221015   6.067   1.133   0.807
 6706SOL     OW21016   0.621   5.770   0.015
 6706SOL    HW121017   0.679   5.694   7.000
 6706SOL    HW221018   0.534   5.734   0.049
 6707SOL     OW21019   1.583   5.512   2.359
 6707SOL    HW121020   1.563   5.541   2.265
 6707SOL    HW221021   1.548   5.420   2.374
 6708SOL     OW21022   2.142   6.012   1.748
 6708SOL    HW121023   2.043   6.018   1.760
 6708SOL    HW221024   2.178   5.938   1.804
 6709SOL     OW21025   5.155   1.569   2.778
 6709SOL    HW121026   5.231   1.524   2.826
 6709SOL    HW221027   5.072   1.515   2.788
 6710SOL     OW21028   1.945   2.093   0.626
 6710SOL    HW121029   1.914   2.001   0.654
 6710SOL    HW221030   1.928   2.105   0.529
 6711SOL     OW21031   5.243   3.617   0.224
 6711SOL    HW121032   5.157   3.638   0.178
 6711SOL    HW221033   5.226   3.553   0.299
 6712SOL     OW21034   3.469   6.210   1.570
 6712SOL    HW121035   3.406   6.219   1.648
 6712SOL    HW221036   3.468   6.295   1.518
 6713SOL     OW21037   1.670   1.423   2.886
 6713SOL    HW121038   1.741   1.485   2.919
 6713SOL    HW221039   1.599   1.476   2.840
 6714SOL     OW21040   6.596   0.207   4.620
 6714SOL    HW121041   6.548   0.162   4.695
 6714SOL    HW221042   6.558   0.298   4.605
 6715SOL     OW21043   6.859   1.983   0.533
 6715SOL    HW121044   6.789   1.914   0.550
 6715SOL    HW221045   6.825   2.073   0.563
 6716SOL     OW21046   2.740   5.795   0.655
 6716SOL    HW121047   2.741   5.849   0.571
 6716SOL    HW221048   2.798   5.715   0.644
 6717SOL     OW21049   3.984   1.327   6.502
 6717SOL    HW121050   3.932   1.244   6.522
 6717SOL    HW221051   3.961   1.398   6.569
 6718SOL     OW21052   3.127   6.791   0.326
 6718SOL    HW121053   3.224   6.812   0.337
 6718SOL    HW221054   3.115   6.692   0.322
 6719SOL     OW21055   0.950   0.804   5.540
 6719SOL    HW121056   0.984   0.824   5.632
 6719SOL    HW221057   0.855   0.835   5.533
 6720SOL     OW21058   1.921   4.847   1.400
 6720SOL    HW121059   1.842   4.872   1.343
 6720SOL    HW221060   2.003   4.844   1.343
 6721SOL     OW21061   6.509   6.208   3.100
 6721SOL    HW121062   6.581   6.264   3.140
 6721SOL    HW221063   6.487   6.133   3.162
 6722SOL     OW21064   5.174   4.758   6.976
 6722SOL    HW121065   5.227   4.762   6.892
 6722SOL    HW221066   5.141   4.850   6.999
 6723SOL     OW21067   4.397   0.823   2.985
 6723SOL    HW121068   4.367   0.918   2.995
 6723SOL    HW221069   4.492   0.821   2.953
 6724SOL     OW21070   3.730   4.561   5.451
 6724SOL    HW121071   3.634   4.574   5.474
 6724SOL    HW221072   3.786   4.581   5.531
 6725SOL     OW21073   6.853   5.230   1.443
 6725SOL    HW121074   6.773   5.273   1.484
 6725SOL    HW221075   6.831   5.135   1.417
 6726SOL     OW21076   2.217   2.685   1.705
 6726SOL    HW121077   2.228   2.673   1.606
 6726SOL    HW221078   2.124   2.658   1.731
 6727SOL     OW21079   3.328   3.932   0.484
 6727SOL    HW121080   3.368   4.020   0.462
 6727SOL    HW221081   3.399   3.862   0.490
 6728SOL     OW21082   4.800   1.499   4.649
 6728SOL    HW121083   4.762   1.406   4.645
 6728SOL    HW221084   4.735   1.560   4.692
 6729SOL     OW21085   5.400   6.474   3.439
 6729SOL    HW121086   5.461   6.399   3.415
 6729SOL    HW221087   5.385   6.532   3.360
 6730SOL     OW21088   1.150   0.342   2.390
 6730SOL    HW121089   1.073   0.382   2.340
 6730SOL    HW221090   1.229   0.403   2.384
 6731SOL     OW21091   2.188   4.205   1.899
 6731SOL    HW121092   2.156   4.113   1.919
 6731SOL    HW221093   2.209   4.213   1.801
 6732SOL     OW21094   2.458   5.247   0.621
 6732SOL    HW121095   2.368   5.230   0.582
 6732SOL    HW221096   2.469   5.194   0.705
 6733SOL     OW21097   6.211   5.992   4.748
 6733SOL    HW121098   6.178   6.025   4.659
 6733SOL    HW221099   6.238   6.070   4.804
 6734SOL     OW21100   2.815   3.941   5.701
 6734SOL    HW121101   2.892   4.004   5.703
 6734SOL    HW221102   2.742   3.979   5.644
 6735SOL     OW21103   0.619   6.002   6.787
 6735SOL    HW121104   0.672   5.930   6.742
 6735SOL    HW221105   0.522   5.978   6.784
 6736SOL     OW21106   2.238   4.393   2.304
 6736SOL    HW121107   2.140   4.393   2.322
 6736SOL    HW221108   2.286   4.349   2.380
 6737SOL     OW21109   2.286   0.228   1.218
 6737SOL    HW121110   2.319   0.313   1.177
 6737SOL    HW221111   2.189   0.237   1.238
 6738SOL     OW21112   4.453   1.323   1.527
 6738SOL    HW121113   4.519   1.297   1.456
 6738SOL    HW221114   4.500   1.374   1.599
 6739SOL     OW21115   4.664   0.335   5.264
 6739SOL    HW121116   4.686   0.243   5.295
 6739SOL    HW221117   4.680   0.343   5.166
 6740SOL     OW21118   5.763   3.078   5.371
 6740SOL    HW121119   5.830   3.145   5.339
 6740SOL    HW221120   5.763   3.077   5.471
 6741SOL     OW21121   0.094   6.912   6.010
 6741SOL    HW121122   0.166   6.846   6.034
 6741SOL    HW221123   0.025   6.866   5.954
 6742SOL     OW21124   6.248   5.979   5.171
 6742SOL    HW121125   6.314   6.045   5.136
 6742SOL    HW221126   6.199   5.938   5.094
 6743SOL     OW21127   5.859   2.372   1.061
 6743SOL    HW121128   5.846   2.352   1.158
 6743SOL    HW221129   5.784   2.430   1.028
 6744SOL     OW21130   5.355   5.953   4.840
 6744SOL    HW121131   5.316   5.882   4.897
 6744SOL    HW221132   5.448   5.927   4.814
 6745SOL     OW21133   0.790   3.310   2.889
 6745SOL    HW121134   0.771   3.291   2.792
 6745SOL    HW221135   0.706   3.299   2.942
 6746SOL     OW21136   0.126   0.819   1.300
 6746SOL    HW121137   0.141   0.837   1.397
 6746SOL    HW221138   0.036   0.776   1.288
 6747SOL     OW21139   4.733   6.095   6.411
 6747SOL    HW121140   4.721   5.999   6.433
 6747SOL    HW221141   4.645   6.136   6.387
 6748SOL     OW21142   7.015   6.483   2.051
 6748SOL    HW121143   0.020   6.406   1.991
 6748SOL    HW221144   0.075   6.549   2.048
 6749SOL     OW21145   3.211   5.744   0.909
 6749SOL    HW121146   3.165   5.707   0.990
 6749SOL    HW221147   3.246   5.669   0.854
 6750SOL     OW21148   2.121   3.082   5.121
 6750SOL    HW121149   2.116   3.181   5.138
 6750SOL    HW221150   2.211   3.060   5.083
 6751SOL     OW21151   3.712   1.874   6.024
 6751SOL    HW121152   3.756   1.788   6.051
 6751SOL    HW221153   3.740   1.898   5.931
 6752SOL     OW21154   6.885   1.917   6.984
 6752SOL    HW121155   6.881   1.913   0.068
 6752SOL    HW221156   6.860   1.827   6.946
 6753SOL     OW21157   5.822   1.353   6.894
 6753SOL    HW121158   5.734   1.308   6.874
 6753SOL    HW221159   5.837   1.427   6.828
 6754SOL     OW21160   4.876   1.586   6.553
 6754SOL    HW121161   4.946   1.592   6.624
 6754SOL    HW221162   4.787   1.571   6.596
 6755SOL     OW21163   4.878   1.983   3.622
 6755SOL    HW121164   4.892   2.082   3.618
 6755SOL    HW221165   4.792   1.959   3.576
 6756SOL     OW21166   4.834   3.947   3.307
 6756SOL    HW121167   4.813   4.045   3.303
 6756SOL    HW221168   4.835   3.917   3.403
 6757SOL     OW21169   5.904   4.982   1.602
 6757SOL    HW121170   5.839   4.907   1.587
 6757SOL    HW221171   5.952   4.968   1.688
 6758SOL     OW21172   5.712   1.246   3.163
 6758SOL    HW121173   5.678   1.154   3.146
 6758SOL    HW221174   5.807   1.252   3.134
 6759SOL     OW21175   1.228   4.829   2.866
 6759SOL    HW121176   1.275   4.817   2.778
 6759SOL    HW221177   1.132   4.849   2.850
 6760SOL     OW21178   0.208   4.079   4.939
 6760SOL    HW121179   0.171   4.007   4.997
 6760SOL    HW221180   0.148   4.159   4.942
 6761SOL     OW21181   6.216   3.180   6.600
 6761SOL    HW121182   6.151   3.184   6.677
 6761SOL    HW221183   6.166   3.178   6.514
 6762SOL     OW21184   6.898   3.805   3.155
 6762SOL    HW121185   6.857   3.740   3.090
 6762SOL    HW221186   6.841   3.887   3.160
 6763SOL     OW21187   6.033   6.813   4.974
 6763SOL    HW121188   5.947   6.803   5.025
 6763SOL    HW221189   6.040   6.741   4.905
 6764SOL     OW21190   2.109   3.100   6.295
 6764SOL    HW121191   2.071   3.165   6.229
 6764SOL    HW221192   2.109   3.141   6.386
 6765SOL     OW21193   5.276   5.166   2.635
 6765SOL    HW121194   5.321   5.077   2.631
 6765SOL    HW221195   5.213   5.169   2.712
 6766SOL     OW21196   1.832   2.177   5.745
 6766SOL    HW121197   1.816   2.242   5.819
 6766SOL    HW221198   1.926   2.187   5.711
 6767SOL     OW21199   0.445   2.590   6.120
 6767SOL    HW121200   0.464   2.494   6.100
 6767SOL    HW221201   0.347   2.607   6.114
 6768SOL     OW21202   6.541   1.401   6.103
 6768SOL    HW121203   6.637   1.381   6.082
 6768SOL    HW221204   6.507   1.336   6.171
 6769SOL     OW21205   1.023   2.933   6.571
 6769SOL    HW121206   0.943   2.910   6.628
 6769SOL    HW221207   0.994   2.992   6.495
 6770SOL     OW21208   6.871   1.672   4.442
 6770SOL    HW121209   6.795   1.730   4.471
 6770SOL    HW221210   6.904   1.619   4.520
 6771SOL     OW21211   6.117   1.506   2.395
 6771SOL    HW121212   6.103   1.570   2.471
 6771SOL    HW221213   6.033   1.502   2.339
 6772SOL     OW21214   1.360   0.502   2.388
 6772SOL    HW121215   1.316   0.590   2.370
 6772SOL    HW221216   1.410   0.473   2.306
 6773SOL     OW21217   1.771   0.561   2.507
 6773SOL    HW121218   1.785   0.510   2.422
 6773SOL    HW221219   1.811   0.652   2.499
 6774SOL     OW21220   3.972   1.372   5.514
 6774SOL    HW121221   3.998   1.377   5.610
 6774SOL    HW221222   3.879   1.335   5.507
 6775SOL     OW21223   0.908   2.670   4.332
 6775SOL    HW121224   0.867   2.704   4.247
 6775SOL    HW221225   1.007   2.679   4.327
 6776SOL     OW21226   3.167   3.834   3.945
 6776SOL    HW121227   3.127   3.897   4.011
 6776SOL    HW221228   3.096   3.771   3.913
 6777SOL     OW21229   0.456   6.556   5.891
 6777SOL    HW121230   0.525   6.490   5.861
 6777SOL    HW221231   0.398   6.514   5.961
 6778SOL     OW21232   6.765   5.943   2.366
 6778SOL    HW121233   6.852   5.974   2.406
 6778SOL    HW221234   6.690   5.962   2.429
 6779SOL     OW21235   4.630   4.826   6.765
 6779SOL    HW121236   4.666   4.858   6.678
 6779SOL    HW221237   4.652   4.892   6.837
 6780SOL     OW21238   4.358   0.353   3.089
 6780SOL    HW121239   4.337   0.289   3.014
 6780SOL    HW221240   4.435   0.411   3.062
 6781SOL     OW21241   6.509   3.301   3.078
 6781SOL    HW121242   6.521   3.374   3.012
 6781SOL    HW221243   6.467   3.337   3.161
 6782SOL     OW21244   0.717   0.821   3.807
 6782SOL    HW121245   0.724   0.779   3.898
 6782SOL    HW221246   0.699   0.750   3.739
 6783SOL     OW21247   0.044   6.150   6.776
 6783SOL    HW121248   0.092   6.125   6.692
 6783SOL    HW221249   0.011   6.068   6.821
 6784SOL     OW21250   1.304   4.905   0.557
 6784SOL    HW121251   1.261   4.836   0.615
 6784SOL    HW221252   1.398   4.919   0.585
 6785SOL     OW21253   5.482   4.876   1.739
 6785SOL    HW121254   5.552   4.819   1.782
 6785SOL    HW221255   5.393   4.855   1.779
 6786SOL     OW21256   6.559   1.807   5.377
 6786SOL    HW121257   6.585   1.882   5.316
 6786SOL    HW221258   6.633   1.789   5.442
 6787SOL     OW21259   3.881   1.949   1.181
 6787SOL    HW121260   3.907   1.901   1.097
 6787SOL    HW221261   3.856   2.043   1.159
 6788SOL     OW21262   1.058   4.043   1.011
 6788SOL    HW121263   1.106   4.030   1.097
 6788SOL    HW221264   0.997   4.122   1.019
 6789SOL     OW21265   5.533   3.488   2.571
 6789SOL    HW121266   5.472   3.564   2.548
 6789SOL    HW221267   5.479   3.414   2.612
 6790SOL     OW21268   0.475   5.319   0.983
 6790SOL    HW121269   0.458   5.271   1.069
 6790SOL    HW221270   0.388   5.345   0.941
 6791SOL     OW21271   2.698   6.589   3.779
 6791SOL    HW121272   2.715   6.529   3.858
 6791SOL    HW221273   2.779   6.644   3.761
 6792SOL     OW21274   3.319   5.563   6.691
 6792SOL    HW121275   3.260   5.533   6.616
 6792SOL    HW221276   3.399   5.611   6.654
 6793SOL     OW21277   2.557   4.397   6.286
 6793SOL    HW121278   2.551   4.367   6.381
 6793SOL    HW221279   2.618   4.335   6.236
 6794SOL     OW21280   4.907   2.590   4.217
 6794SOL    HW121281   4.907   2.645   4.301
 6794SOL    HW221282   4.966   2.511   4.229
 6795SOL     OW21283   0.897   0.783   2.200
 6795SOL    HW121284   0.997   0.783   2.200
 6795SOL    HW221285   0.864   0.846   2.130
 6796SOL     OW21286   0.084   2.743   2.165
 6796SOL    HW121287   7.015   2.698   2.197
 6796SOL    HW221288   0.119   2.803   2.236
 6797SOL     OW21289   2.050   3.848   1.205
 6797SOL    HW121290   2.078   3.940   1.178
 6797SOL    HW221291   1.982   3.814   1.140
 6798SOL     OW21292   4.417   0.951   2.156
 6798SOL    HW121293   4.336   0.961   2.098
 6798SOL    HW221294   4.499   0.949   2.099
 6799SOL     OW21295   6.036   6.616   3.050
 6799SOL    HW121296   5.938   6.606   3.064
 6799SOL    HW221297   6.058   6.712   3.032
 6800SOL     OW21298   6.791   2.964   2.274
 6800SOL    HW121299   6.859   2.984   2.344
 6800SOL    HW221300   6.707   3.014   2.293
 6801SOL     OW21301   1.906   5.093   5.062
 6801SOL    HW121302   1.898   5.095   4.962
 6801SOL    HW221303   1.875   5.181   5.099
 6802SOL     OW21304   2.740   4.290   1.633
 6802SOL    HW121305   2.679   4.225   1.680
 6802SOL    HW221306   2.779   4.353   1.700
 6803SOL     OW21307   5.879   5.155   6.785
 6803SOL    HW121308   5.875   5.118   6.692
 6803SOL    HW221309   5.969   5.194   6.801
 6804SOL     OW21310   3.187   5.283   2.113
 6804SOL    HW121311   3.228   5.202   2.153
 6804SOL    HW221312   3.218   5.294   2.019
 6805SOL     OW21313   0.793   4.646   3.822
 6805SOL    HW121314   0.844   4.719   3.867
 6805SOL    HW221315   0.768   4.576   3.888
 6806SOL     OW21316   5.785   3.496   2.472
 6806SOL    HW121317   5.694   3.470   2.504
 6806SOL    HW221318   5.788   3.594   2.453
 6807SOL     OW21319   3.119   3.412   2.663
 6807SOL    HW121320   3.111   3.408   2.563
 6807SOL    HW221321   3.155   3.325   2.697
 6808SOL     OW21322   3.762   6.870   3.245
 6808SOL    HW121323   3.709   6.785   3.240
 6808SOL    HW221324   3.699   6.947   3.254
 6809SOL     OW21325   5.577   2.376   0.561
 6809SOL    HW121326   5.575   2.436   0.482
 6809SOL    HW221327   5.639   2.414   0.630
 6810SOL     OW21328   3.005   0.076   4.615
 6810SOL    HW121329   3.066   0.148   4.584
 6810SOL    HW221330   3.059   0.006   4.663
 6811SOL     OW21331   6.611   1.422   0.846
 6811SOL    HW121332   6.581   1.487   0.777
 6811SOL    HW221333   6.557   1.434   0.929
 6812SOL     OW21334   3.412   4.621   5.458
 6812SOL    HW121335   3.378   4.658   5.372
 6812SOL    HW221336   3.347   4.641   5.531
 6813SOL     OW21337   0.369   3.596   1.986
 6813SOL    HW121338   0.327   3.667   2.044
 6813SOL    HW221339   0.308   3.518   1.980
 6814SOL     OW21340   4.694   2.322   2.065
 6814SOL    HW121341   4.629   2.388   2.102
 6814SOL    HW221342   4.787   2.348   2.090
 6815SOL     OW21343   0.583   6.091   0.414
 6815SOL    HW121344   0.632   6.015   0.372
 6815SOL    HW221345   0.530   6.058   0.492
 6816SOL     OW21346   6.706   6.994   4.386
 6816SOL    HW121347   6.787   0.026   4.422
 6816SOL    HW221348   6.624   0.033   4.405
 6817SOL     OW21349   5.115   0.982   2.106
 6817SOL    HW121350   5.189   0.936   2.155
 6817SOL    HW221351   5.134   1.080   2.102
 6818SOL     OW21352   0.287   0.258   5.397
 6818SOL    HW121353   0.329   0.167   5.387
 6818SOL    HW221354   0.359   0.328   5.394
 6819SOL     OW21355   5.708   4.267   1.037
 6819SOL    HW121356   5.679   4.179   1.002
 6819SOL    HW221357   5.632   4.309   1.088
 6820SOL     OW21358   2.606   4.059   1.385
 6820SOL    HW121359   2.526   4.012   1.346
 6820SOL    HW221360   2.602   4.156   1.362
 6821SOL     OW21361   3.272   2.960   5.704
 6821SOL    HW121362   3.221   2.961   5.618
 6821SOL    HW221363   3.344   2.891   5.700
 6822SOL     OW21364   6.279   3.992   5.124
 6822SOL    HW121365   6.297   3.941   5.040
 6822SOL    HW221366   6.315   3.941   5.202
 6823SOL     OW21367   6.484   3.109   5.570
 6823SOL    HW121368   6.390   3.075   5.574
 6823SOL    HW221369   6.520   3.099   5.477
 6824SOL     OW21370   1.154   0.644   4.134
 6824SOL    HW121371   1.173   0.741   4.122
 6824SOL    HW221372   1.172   0.618   4.229
 6825SOL     OW21373   4.630   4.388   1.357
 6825SOL    HW121374   4.656   4.361   1.264
 6825SOL    HW221375   4.536   4.421   1.358
 6826SOL     OW21376   5.586   1.032   3.430
 6826SOL    HW121377   5.662   1.033   3.496
 6826SOL    HW221378   5.544   1.123   3.427
 6827SOL     OW21379   4.743   5.596   5.690
 6827SOL    HW121380   4.702   5.530   5.627
 6827SOL    HW221381   4.810   5.652   5.641
 6828SOL     OW21382   2.641   2.270   2.591
 6828SOL    HW121383   2.553   2.228   2.569
 6828SOL    HW221384   2.701   2.264   2.511
 6829SOL     OW21385   5.155   6.250   4.509
 6829SOL    HW121386   5.175   6.153   4.518
 6829SOL    HW221387   5.201   6.286   4.427
 6830SOL     OW21388   4.308   6.244   2.317
 6830SOL    HW121389   4.380   6.303   2.279
 6830SOL    HW221390   4.276   6.283   2.403
 6831SOL     OW21391   1.721   0.993   6.906
 6831SOL    HW121392   1.729   1.092   6.914
 6831SOL    HW221393   1.804   0.950   6.941
 6832SOL     OW21394   2.828   3.387   0.104
 6832SOL    HW121395   2.789   3.296   0.088
 6832SOL    HW221396   2.911   3.379   0.158
 6833SOL     OW21397   4.592   5.112   6.675
 6833SOL    HW121398   4.572   5.031   6.621
 6833SOL    HW221399   4.607   5.191   6.615
 6834SOL     OW21400   5.952   5.563   5.272
 6834SOL    HW121401   6.021   5.633   5.252
 6834SOL    HW221402   5.959   5.489   5.205
 6835SOL     OW21403   3.720   0.240   3.408
 6835SOL    HW121404   3.767   0.190   3.481
 6835SOL    HW221405   3.647   0.296   3.448
 6836SOL     OW21406   0.591   4.374   6.890
 6836SOL    HW121407   0.577   4.358   6.792
 6836SOL    HW221408   0.600   4.287   6.937
 6837SOL     OW21409   6.363   1.823   1.633
 6837SOL    HW121410   6.267   1.840   1.654
 6837SOL    HW221411   6.375   1.729   1.602
 6838SOL     OW21412   2.559   3.960   5.851
 6838SOL    HW121413   2.564   4.054   5.884
 6838SOL    HW221414   2.633   3.943   5.786
 6839SOL     OW21415   5.672   2.670   5.425
 6839SOL    HW121416   5.740   2.657   5.353
 6839SOL    HW221417   5.615   2.588   5.431
 6840SOL     OW21418   3.513   6.681   4.792
 6840SOL    HW121419   3.600   6.730   4.790
 6840SOL    HW221420   3.465   6.695   4.706
 6841SOL     OW21421   4.438   6.824   0.450
 6841SOL    HW121422   4.507   6.792   0.516
 6841SOL    HW221423   4.352   6.776   0.466
 6842SOL     OW21424   1.250   3.185   3.229
 6842SOL    HW121425   1.349   3.191   3.220
 6842SOL    HW221426   1.227   3.145   3.318
 6843SOL     OW21427   4.926   3.096   2.064
 6843SOL    HW121428   4.837   3.056   2.084
 6843SOL    HW221429   4.995   3.024   2.060
 6844SOL     OW21430   3.823   6.783   5.128
 6844SOL    HW121431   3.782   6.738   5.207
 6844SOL    HW221432   3.824   6.720   5.050
 6845SOL     OW21433   3.728   3.981   0.058
 6845SOL    HW121434   3.827   3.976   0.076
 6845SOL    HW221435   3.679   3.991   0.144
 6846SOL     OW21436   4.081   3.590   3.708
 6846SOL    HW121437   4.070   3.666   3.771
 6846SOL    HW221438   4.086   3.504   3.759
 6847SOL     OW21439   5.518   2.744   2.612
 6847SOL    HW121440   5.457   2.768   2.688
 6847SOL    HW221441   5.479   2.777   2.526
 6848SOL     OW21442   0.767   5.875   5.116
 6848SOL    HW121443   0.840   5.806   5.111
 6848SOL    HW221444   0.797   5.950   5.176
 6849SOL     OW21445   3.392   0.592   5.288
 6849SOL    HW121446   3.415   0.499   5.261
 6849SOL    HW221447   3.405   0.603   5.386
 6850SOL     OW21448   6.604   3.592   1.564
 6850SOL    HW121449   6.666   3.542   1.624
 6850SOL    HW221450   6.548   3.654   1.618
 6851SOL     OW21451   1.445   5.895   6.480
 6851SOL    HW121452   1.346   5.887   6.465
 6851SOL    HW221453   1.462   5.915   6.576
 6852SOL     OW21454   6.367   5.233   2.206
 6852SOL    HW121455   6.435   5.305   2.211
 6852SOL    HW221456   6.358   5.202   2.111
 6853SOL     OW21457   5.979   4.515   4.664
 6853SOL    HW121458   5.952   4.606   4.695
 6853SOL    HW221459   6.013   4.462   4.741
 6854SOL     OW21460   6.511   1.440   6.495
 6854SOL    HW121461   6.501   1.447   6.594
 6854SOL    HW221462   6.424   1.461   6.451
 6855SOL     OW21463   3.162   6.425   2.394
 6855SOL    HW121464   3.131   6.512   2.354
 6855SOL    HW221465   3.261   6.429   2.410
 6856SOL     OW21466   0.534   5.572   5.729
 6856SOL    HW121467   0.461   5.527   5.678
 6856SOL    HW221468   0.496   5.643   5.788
 6857SOL     OW21469   4.888   1.331   6.843
 6857SOL    HW121470   4.821   1.298   6.777
 6857SOL    HW221471   4.966   1.269   6.845
 6858SOL     OW21472   3.641   2.975   6.811
 6858SOL    HW121473   3.592   2.942   6.731
 6858SOL    HW221474   3.587   2.956   6.893
 6859SOL     OW21475   4.077   0.871   0.315
 6859SOL    HW121476   3.988   0.918   0.310
 6859SOL    HW221477   4.083   0.804   0.241
 6860SOL     OW21478   5.030   3.688   0.107
 6860SOL    HW121479   5.015   3.733   0.019
 6860SOL    HW221480   4.943   3.683   0.157
 6861SOL     OW21481   5.625   3.704   0.777
 6861SOL    HW121482   5.642   3.620   0.725
 6861SOL    HW221483   5.539   3.745   0.747
 6862SOL     OW21484   2.558   5.286   4.253
 6862SOL    HW121485   2.602   5.361   4.304
 6862SOL    HW221486   2.510   5.226   4.317
 6863SOL     OW21487   1.171   3.101   3.477
 6863SOL    HW121488   1.079   3.141   3.489
 6863SOL    HW221489   1.174   3.011   3.520
 6864SOL     OW21490   3.801   5.569   6.461
 6864SOL    HW121491   3.868   5.614   6.521
 6864SOL    HW221492   3.792   5.621   6.376
 6865SOL     OW21493   7.009   3.088   4.311
 6865SOL    HW121494   0.059   3.148   4.267
 6865SOL    HW221495   6.943   3.055   4.244
 6866SOL     OW21496   1.187   3.360   2.062
 6866SOL    HW121497   1.161   3.434   2.123
 6866SOL    HW221498   1.213   3.398   1.973
 6867SOL     OW21499   2.248   5.188   2.730
 6867SOL    HW121500   2.286   5.156   2.817
 6867SOL    HW221501   2.213   5.110   2.678
 6868SOL     OW21502   2.156   5.191   4.957
 6868SOL    HW121503   2.229   5.124   4.969
 6868SOL    HW221504   2.079   5.168   5.017
 6869SOL     OW21505   0.173   3.638   5.156
 6869SOL    HW121506   0.108   3.588   5.098
 6869SOL    HW221507   0.266   3.622   5.123
 6870SOL     OW21508   5.980   3.350   2.182
 6870SOL    HW121509   6.035   3.293   2.121
 6870SOL    HW221510   6.000   3.326   2.277
 6871SOL     OW21511   5.005   5.886   1.632
 6871SOL    HW121512   5.073   5.814   1.626
 6871SOL    HW221513   5.046   5.967   1.674
 6872SOL     OW21514   3.373   3.988   0.792
 6872SOL    HW121515   3.457   4.022   0.833
 6872SOL    HW221516   3.387   3.972   0.694
 6873SOL     OW21517   5.629   4.684   4.701
 6873SOL    HW121518   5.672   4.615   4.643
 6873SOL    HW221519   5.689   4.706   4.778
 6874SOL     OW21520   0.675   1.745   5.807
 6874SOL    HW121521   0.667   1.765   5.905
 6874SOL    HW221522   0.671   1.646   5.793
 6875SOL     OW21523   4.216   0.869   4.527
 6875SOL    HW121524   4.125   0.859   4.486
 6875SOL    HW221525   4.249   0.963   4.514
 6876SOL     OW21526   3.576   5.871   5.041
 6876SOL    HW121527   3.618   5.823   4.964
 6876SOL    HW221528   3.485   5.903   5.014
 6877SOL     OW21529   1.469   3.622   5.736
 6877SOL    HW121530   1.525   3.684   5.682
 6877SOL    HW221531   1.500   3.528   5.720
 6878SOL     OW21532   1.500   1.693   4.161
 6878SOL    HW121533   1.475   1.744   4.079
 6878SOL    HW221534   1.419   1.683   4.219
 6879SOL     OW21535   7.014   0.930   5.461
 6879SOL    HW121536   6.941   0.958   5.524
 6879SOL    HW221537   0.088   0.950   5.501
 6880SOL     OW21538   1.643   4.154   4.544
 6880SOL    HW121539   1.702   4.224   4.504
 6880SOL    HW221540   1.567   4.198   4.592
 6881SOL     OW21541   5.632   5.743   1.691
 6881SOL    HW121542   5.688   5.661   1.703
 6881SOL    HW221543   5.535   5.718   1.691
 6882SOL     OW21544   2.322   5.983   5.513
 6882SOL    HW121545   2.268   6.063   5.539
 6882SOL    HW221546   2.321   5.973   5.414
 6883SOL     OW21547   3.171   6.082   1.792
 6883SOL    HW121548   3.133   5.991   1.777
 6883SOL    HW221549   3.112   6.133   1.854
 6884SOL     OW21550   1.929   5.013   2.589
 6884SOL    HW121551   1.944   5.107   2.561
 6884SOL    HW221552   2.017   4.965   2.594
 6885SOL     OW21553   3.921   5.024   4.691
 6885SOL    HW121554   3.967   5.090   4.751
 6885SOL    HW221555   3.823   5.025   4.710
 6886SOL     OW21556   5.498   1.165   1.828
 6886SOL    HW121557   5.533   1.191   1.918
 6886SOL    HW221558   5.487   1.066   1.823
 6887SOL     OW21559   5.681   0.758   5.350
 6887SOL    HW121560   5.643   0.827   5.412
 6887SOL    HW221561   5.614   0.737   5.279
 6888SOL     OW21562   5.878   0.034   4.470
 6888SOL    HW121563   5.787   0.074   4.484
 6888SOL    HW221564   5.943   0.107   4.449
 6889SOL     OW21565   1.708   4.950   5.931
 6889SOL    HW121566   1.667   4.877   5.877
 6889SOL    HW221567   1.805   4.960   5.906
 6890SOL     OW21568   2.081   0.502   0.993
 6890SOL    HW121569   2.011   0.454   0.940
 6890SOL    HW221570   2.170   0.463   0.973
 6891SOL     OW21571   3.766   5.355   5.739
 6891SOL    HW121572   3.753   5.365   5.640
 6891SOL    HW221573   3.766   5.445   5.782
 6892SOL     OW21574   3.204   1.543   5.198
 6892SOL    HW121575   3.107   1.564   5.205
 6892SOL    HW221576   3.222   1.496   5.111
 6893SOL     OW21577   5.566   0.714   1.338
 6893SOL    HW121578   5.492   0.708   1.271
 6893SOL    HW221579   5.540   0.664   1.421
 6894SOL     OW21580   6.068   4.668   6.409
 6894SOL    HW121581   6.075   4.662   6.509
 6894SOL    HW221582   6.055   4.577   6.371
 6895SOL     OW21583   3.901   5.698   6.209
 6895SOL    HW121584   3.875   5.636   6.135
 6895SOL    HW221585   3.903   5.792   6.174
 6896SOL     OW21586   4.663   1.305   2.628
 6896SOL    HW121587   4.741   1.300   2.691
 6896SOL    HW221588   4.578   1.311   2.681
 6897SOL     OW21589   3.579   0.482   0.855
 6897SOL    HW121590   3.515   0.488   0.779
 6897SOL    HW221591   3.650   0.552   0.844
 6898SOL     OW21592   3.776   1.054   2.760
 6898SOL    HW121593   3.806   1.148   2.776
 6898SOL    HW221594   3.820   0.994   2.827
 6899SOL     OW21595   5.752   6.053   6.576
 6899SOL    HW121596   5.786   5.965   6.541
 6899SOL    HW221597   5.719   6.108   6.499
 6900SOL     OW21598   4.690   1.352   6.253
 6900SOL    HW121599   4.757   1.292   6.295
 6900SOL    HW221600   4.731   1.442   6.235
 6901SOL     OW21601   1.587   0.772   6.940
 6901SOL    HW121602   1.624   0.858   6.905
 6901SOL    HW221603   1.628   0.752   0.014
 6902SOL     OW21604   6.470   5.820   2.444
 6902SOL    HW121605   6.498   5.902   2.493
 6902SOL    HW221606   6.431   5.845   2.355
 6903SOL     OW21607   4.537   4.320   0.465
 6903SOL    HW121608   4.534   4.325   0.565
 6903SOL    HW221609   4.632   4.319   0.434
 6904SOL     OW21610   0.635   0.679   2.837
 6904SOL    HW121611   0.581   0.760   2.860
 6904SOL    HW221612   0.732   0.704   2.837
 6905SOL     OW21613   3.776   5.784   1.029
 6905SOL    HW121614   3.696   5.733   1.058
 6905SOL    HW221615   3.772   5.877   1.065
 6906SOL     OW21616   6.335   6.357   3.318
 6906SOL    HW121617   6.288   6.352   3.229
 6906SOL    HW221618   6.338   6.266   3.359
 6907SOL     OW21619   3.457   0.662   1.197
 6907SOL    HW121620   3.473   0.749   1.150
 6907SOL    HW221621   3.503   0.663   1.286
 6908SOL     OW21622   6.086   6.777   6.898
 6908SOL    HW121623   6.154   6.734   6.958
 6908SOL    HW221624   5.999   6.786   6.948
 6909SOL     OW21625   1.942   2.238   6.631
 6909SOL    HW121626   1.937   2.177   6.552
 6909SOL    HW221627   1.963   2.184   6.713
 6910SOL     OW21628   5.269   1.100   1.528
 6910SOL    HW121629   5.223   1.062   1.609
 6910SOL    HW221630   5.301   1.192   1.548
 6911SOL     OW21631   4.159   0.867   4.799
 6911SOL    HW121632   4.184   0.876   4.703
 6911SOL    HW221633   4.168   0.772   4.827
 6912SOL     OW21634   4.385   4.593   1.985
 6912SOL    HW121635   4.323   4.573   1.910
 6912SOL    HW221636   4.420   4.508   2.024
 6913SOL     OW21637   4.436   5.665   5.482
 6913SOL    HW121638   4.487   5.749   5.464
 6913SOL    HW221639   4.485   5.587   5.443
 6914SOL     OW21640   6.285   5.127   6.491
 6914SOL    HW121641   6.209   5.130   6.557
 6914SOL    HW221642   6.371   5.142   6.539
 6915SOL     OW21643   0.640   5.736   1.049
 6915SOL    HW121644   0.686   5.821   1.024
 6915SOL    HW221645   0.548   5.735   1.009
 6916SOL     OW21646   6.085   0.296   5.774
 6916SOL    HW121647   6.178   0.330   5.760
 6916SOL    HW221648   6.028   0.370   5.809
 6917SOL     OW21649   4.803   0.137   6.621
 6917SOL    HW121650   4.777   0.174   6.710
 6917SOL    HW221651   4.765   0.194   6.549
 6918SOL     OW21652   2.122   2.876   3.848
 6918SOL    HW121653   2.117   2.780   3.820
 6918SOL    HW221654   2.127   2.934   3.767
 6919SOL     OW21655   1.238   6.127   3.473
 6919SOL    HW121656   1.180   6.199   3.513
 6919SOL    HW221657   1.192   6.039   3.481
 6920SOL     OW21658   5.622   5.838   4.403
 6920SOL    HW121659   5.603   5.741   4.388
 6920SOL    HW221660   5.546   5.893   4.367
 6921SOL     OW21661   1.309   5.941   3.753
 6921SOL    HW121662   1.271   5.864   3.804
 6921SOL    HW221663   1.235   6.003   3.726
 6922SOL     OW21664   1.702   6.779   0.853
 6922SOL    HW121665   1.693   6.875   0.830
 6922SOL    HW221666   1.685   6.766   0.951
 6923SOL     OW21667   5.070   6.051   4.133
 6923SOL    HW121668   5.154   6.000   4.119
 6923SOL    HW221669   5.042   6.093   4.046
 6924SOL     OW21670   6.579   6.115   1.586
 6924SOL    HW121671   6.604   6.033   1.638
 6924SOL    HW221672   6.651   6.137   1.521
 6925SOL     OW21673   5.455   5.388   2.593
 6925SOL    HW121674   5.415   5.311   2.643
 6925SOL    HW221675   5.429   5.474   2.637
 6926SOL     OW21676   2.648   4.403   5.547
 6926SOL    HW121677   2.675   4.460   5.469
 6926SOL    HW221678   2.618   4.461   5.622
 6927SOL     OW21679   4.217   3.492   0.751
 6927SOL    HW121680   4.160   3.417   0.785
 6927SOL    HW221681   4.284   3.518   0.821
 6928SOL     OW21682   6.758   0.286   6.473
 6928SOL    HW121683   6.743   0.374   6.518
 6928SOL    HW221684   6.672   0.236   6.469
 6929SOL     OW21685   3.036   4.997   1.315
 6929SOL    HW121686   3.027   5.043   1.403
 6929SOL    HW221687   3.131   5.004   1.283
 6930SOL     OW21688   0.973   0.290   3.488
 6930SOL    HW121689   0.941   0.306   3.581
 6930SOL    HW221690   0.920   0.347   3.424
 6931SOL     OW21691   2.239   0.038   0.312
 6931SOL    HW121692   2.272   6.963   0.338
 6931SOL    HW221693   2.140   0.043   0.325
 6932SOL     OW21694   2.222   2.422   0.215
 6932SOL    HW121695   2.256   2.384   0.301
 6932SOL    HW221696   2.130   2.458   0.228
 6933SOL     OW21697   2.637   5.691   5.474
 6933SOL    HW121698   2.603   5.672   5.566
 6933SOL    HW221699   2.563   5.679   5.408
 6934SOL     OW21700   5.625   5.081   6.514
 6934SOL    HW121701   5.724   5.088   6.522
 6934SOL    HW221702   5.588   5.167   6.480
 6935SOL     OW21703   4.289   5.651   3.011
 6935SOL    HW121704   4.191   5.643   2.989
 6935SOL    HW221705   4.307   5.606   3.098
 6936SOL     OW21706   0.954   4.354   0.723
 6936SOL    HW121707   0.880   4.419   0.706
 6936SOL    HW221708   0.940   4.273   0.667
 6937SOL     OW21709   4.479   6.734   5.519
 6937SOL    HW121710   4.516   6.646   5.548
 6937SOL    HW221711   4.468   6.794   5.598
 6938SOL     OW21712   5.501   2.539   4.905
 6938SOL    HW121713   5.444   2.496   4.975
 6938SOL    HW221714   5.584   2.575   4.948
 6939SOL     OW21715   6.754   4.746   1.966
 6939SOL    HW121716   6.706   4.805   2.031
 6939SOL    HW221717   6.826   4.799   1.921
 6940SOL     OW21718   4.471   0.276   4.763
 6940SOL    HW121719   4.545   0.211   4.746
 6940SOL    HW221720   4.480   0.313   4.856
 6941SOL     OW21721   4.103   3.605   4.800
 6941SOL    HW121722   4.095   3.519   4.850
 6941SOL    HW221723   4.097   3.588   4.702
 6942SOL     OW21724   6.281   1.740   6.800
 6942SOL    HW121725   6.276   1.644   6.770
 6942SOL    HW221726   6.371   1.758   6.839
 6943SOL     OW21727   6.098   5.668   6.846
 6943SOL    HW121728   6.098   5.639   6.942
 6943SOL    HW221729   6.019   5.726   6.828
 6944SOL     OW21730   1.323   6.226   0.299
 6944SOL    HW121731   1.416   6.241   0.333
 6944SOL    HW221732   1.300   6.129   0.305
 6945SOL     OW21733   4.772   2.115   5.888
 6945SOL    HW121734   4.716   2.182   5.838
 6945SOL    HW221735   4.798   2.041   5.826
 6946SOL     OW21736   6.100   3.540   3.501
 6946SOL    HW121737   6.138   3.455   3.466
 6946SOL    HW221738   6.132   3.555   3.595
 6947SOL     OW21739   3.784   0.065   1.567
 6947SOL    HW121740   3.695   0.089   1.528
 6947SOL    HW221741   3.826   7.009   1.512
 6948SOL     OW21742   3.914   2.393   5.312
 6948SOL    HW121743   3.993   2.333   5.297
 6948SOL    HW221744   3.943   2.489   5.302
 6949SOL     OW21745   4.622   1.064   2.442
 6949SOL    HW121746   4.608   1.160   2.466
 6949SOL    HW221747   4.596   1.049   2.347
 6950SOL     OW21748   3.004   1.615   3.777
 6950SOL    HW121749   3.096   1.635   3.809
 6950SOL    HW221750   2.974   1.527   3.815
 6951SOL     OW21751   4.814   5.118   5.292
 6951SOL    HW121752   4.718   5.095   5.281
 6951SOL    HW221753   4.870   5.043   5.256
 6952SOL     OW21754   6.970   4.603   5.060
 6952SOL    HW121755   6.914   4.572   4.983
 6952SOL    HW221756   0.029   4.539   5.075
 6953SOL     OW21757   5.322   2.404   5.098
 6953SOL    HW121758   5.252   2.420   5.029
 6953SOL    HW221759   5.281   2.412   5.189
 6954SOL     OW21760   0.334   4.454   1.797
 6954SOL    HW121761   0.395   4.469   1.875
 6954SOL    HW221762   0.321   4.539   1.748
 6955SOL     OW21763   6.919   6.813   2.942
 6955SOL    HW121764   6.966   6.799   2.855
 6955SOL    HW221765   6.935   6.907   2.974
 6956SOL     OW21766   2.431   4.367   1.190
 6956SOL    HW121767   2.430   4.291   1.124
 6956SOL    HW221768   2.525   4.387   1.217
 6957SOL     OW21769   1.061   4.232   6.456
 6957SOL    HW121770   0.977   4.246   6.509
 6957SOL    HW221771   1.109   4.319   6.446
 6958SOL     OW21772   2.506   3.250   6.016
 6958SOL    HW121773   2.431   3.210   5.965
 6958SOL    HW221774   2.509   3.349   6.001
 6959SOL     OW21775   3.864   1.137   4.010
 6959SOL    HW121776   3.910   1.064   4.060
 6959SOL    HW221777   3.806   1.097   3.939
 6960SOL     OW21778   0.637   4.763   0.191
 6960SOL    HW121779   0.711   4.787   0.128
 6960SOL    HW221780   0.593   4.679   0.160
 6961SOL     OW21781   6.505   1.319   3.128
 6961SOL    HW121782   6.591   1.284   3.091
 6961SOL    HW221783   6.446   1.243   3.153
 6962SOL     OW21784   3.878   3.291   1.103
 6962SOL    HW121785   3.792   3.338   1.120
 6962SOL    HW221786   3.951   3.335   1.155
 6963SOL     OW21787   6.068   6.066   2.420
 6963SOL    HW121788   6.037   6.159   2.441
 6963SOL    HW221789   6.023   6.001   2.480
 6964SOL     OW21790   3.577   5.706   5.517
 6964SOL    HW121791   3.529   5.727   5.432
 6964SOL    HW221792   3.655   5.768   5.528
 6965SOL     OW21793   6.490   1.827   5.708
 6965SOL    HW121794   6.475   1.740   5.756
 6965SOL    HW221795   6.577   1.824   5.659
 6966SOL     OW21796   5.371   2.562   4.140
 6966SOL    HW121797   5.406   2.558   4.047
 6966SOL    HW221798   5.287   2.509   4.147
 6967SOL     OW21799   2.682   2.508   5.960
 6967SOL    HW121800   2.765   2.471   5.919
 6967SOL    HW221801   2.626   2.551   5.890
 6968SOL     OW21802   4.447   6.822   4.213
 6968SOL    HW121803   4.355   6.861   4.213
 6968SOL    HW221804   4.458   6.763   4.133
 6969SOL     OW21805   3.070   2.885   1.080
 6969SOL    HW121806   3.048   2.788   1.070
 6969SOL    HW221807   3.004   2.939   1.028
 6970SOL     OW21808   4.258   4.324   0.831
 6970SOL    HW121809   4.353   4.328   0.862
 6970SOL    HW221810   4.197   4.356   0.904
 6971SOL     OW21811   5.736   1.015   2.112
 6971SOL    HW121812   5.831   1.036   2.133
 6971SOL    HW221813   5.682   1.100   2.113
 6972SOL     OW21814   5.569   5.065   4.704
 6972SOL    HW121815   5.481   5.071   4.658
 6972SOL    HW221816   5.643   5.073   4.637
 6973SOL     OW21817   1.763   4.028   2.711
 6973SOL    HW121818   1.718   3.959   2.655
 6973SOL    HW221819   1.794   4.103   2.654
 6974SOL     OW21820   3.508   4.248   5.336
 6974SOL    HW121821   3.431   4.244   5.271
 6974SOL    HW221822   3.479   4.296   5.419
 6975SOL     OW21823   3.342   0.302   6.338
 6975SOL    HW121824   3.408   0.328   6.409
 6975SOL    HW221825   3.374   0.219   6.292
 6976SOL     OW21826   1.094   6.649   0.518
 6976SOL    HW121827   1.044   6.624   0.435
 6976SOL    HW221828   1.042   6.717   0.569
 6977SOL     OW21829   4.805   2.776   2.384
 6977SOL    HW121830   4.728   2.716   2.409
 6977SOL    HW221831   4.802   2.794   2.286
 6978SOL     OW21832   4.240   1.786   3.096
 6978SOL    HW121833   4.143   1.806   3.102
 6978SOL    HW221834   4.292   1.870   3.115
 6979SOL     OW21835   0.565   4.547   3.721
 6979SOL    HW121836   0.520   4.491   3.791
 6979SOL    HW221837   0.658   4.569   3.750
 6980SOL     OW21838   4.357   1.118   4.543
 6980SOL    HW121839   4.342   1.122   4.642
 6980SOL    HW221840   4.359   1.211   4.506
 6981SOL     OW21841   3.044   3.942   0.128
 6981SOL    HW121842   3.129   3.899   0.157
 6981SOL    HW221843   2.969   3.876   0.137
 6982SOL     OW21844   0.718   6.939   5.163
 6982SOL    HW121845   0.700   6.862   5.103
 6982SOL    HW221846   0.710   6.910   5.258
 6983SOL     OW21847   6.741   0.679   2.889
 6983SOL    HW121848   6.833   0.645   2.865
 6983SOL    HW221849   6.706   0.735   2.815
 6984SOL     OW21850   2.371   1.381   5.739
 6984SOL    HW121851   2.289   1.369   5.795
 6984SOL    HW221852   2.345   1.378   5.642
 6985SOL     OW21853   5.308   0.045   4.054
 6985SOL    HW121854   5.385   0.012   4.108
 6985SOL    HW221855   5.309   0.145   4.053
 6986SOL     OW21856   1.649   6.887   4.847
 6986SOL    HW121857   1.728   6.829   4.829
 6986SOL    HW221858   1.608   6.916   4.760
 6987SOL     OW21859   6.714   3.369   6.619
 6987SOL    HW121860   6.745   3.410   6.534
 6987SOL    HW221861   6.700   3.441   6.688
 6988SOL     OW21862   5.670   1.528   5.859
 6988SOL    HW121863   5.695   1.473   5.779
 6988SOL    HW221864   5.624   1.470   5.926
 6989SOL     OW21865   2.190   3.077   3.634
 6989SOL    HW121866   2.181   3.074   3.534
 6989SOL    HW221867   2.147   3.160   3.669
 6990SOL     OW21868   4.256   3.250   1.032
 6990SOL    HW121869   4.167   3.269   0.990
 6990SOL    HW221870   4.252   3.161   1.078
 6991SOL     OW21871   4.473   4.505   5.479
 6991SOL    HW121872   4.463   4.535   5.384
 6991SOL    HW221873   4.552   4.444   5.487
 6992SOL     OW21874   6.365   6.712   4.697
 6992SOL    HW121875   6.318   6.741   4.614
 6992SOL    HW221876   6.402   6.792   4.744
 6993SOL     OW21877   0.239   6.600   3.679
 6993SOL    HW121878   0.335   6.574   3.672
 6993SOL    HW221879   0.229   6.678   3.741
 6994SOL     OW21880   1.222   2.828   0.368
 6994SOL    HW121881   1.155   2.762   0.331
 6994SOL    HW221882   1.189   2.864   0.455
 6995SOL     OW21883   1.183   5.287   4.095
 6995SOL    HW121884   1.101   5.281   4.152
 6995SOL    HW221885   1.245   5.212   4.118
 6996SOL     OW21886   2.036   0.024   6.507
 6996SOL    HW121887   1.946   0.041   6.468
 6996SOL    HW221888   2.106   0.061   6.446
 6997SOL     OW21889   4.872   5.697   4.054
 6997SOL    HW121890   4.945   5.638   4.021
 6997SOL    HW221891   4.894   5.729   4.147
 6998SOL     OW21892   2.606   1.848   3.427
 6998SOL    HW121893   2.657   1.768   3.396
 6998SOL    HW221894   2.509   1.826   3.436
 6999SOL     OW21895   5.258   2.285   6.967
 6999SOL    HW121896   5.231   2.206   0.007
 6999SOL    HW221897   5.197   2.292   6.888
 7000SOL     OW21898   6.641   0.347   1.660
 7000SOL    HW121899   6.641   0.380   1.566
 7000SOL    HW221900   6.584   0.406   1.716
 7001SOL     OW21901   2.637   1.625   6.103
 7001SOL    HW121902   2.543   1.653   6.085
 7001SOL    HW221903   2.698   1.671   6.039
 7002SOL     OW21904   2.008   4.471   1.905
 7002SOL    HW121905   2.055   4.385   1.924
 7002SOL    HW221906   2.052   4.545   1.955
 7003SOL     OW21907   1.465   6.050   6.047
 7003SOL    HW121908   1.520   6.016   5.970
 7003SOL    HW221909   1.373   6.073   6.015
 7004SOL     OW21910   1.414   4.077   6.532
 7004SOL    HW121911   1.366   3.990   6.539
 7004SOL    HW221912   1.358   4.150   6.573
 7005SOL     OW21913   6.418   6.885   6.103
 7005SOL    HW121914   6.346   6.903   6.170
 7005SOL    HW221915   6.502   6.859   6.150
 7006SOL     OW21916   4.499   4.843   3.873
 7006SOL    HW121917   4.455   4.774   3.930
 7006SOL    HW221918   4.492   4.817   3.777
 7007SOL     OW21919   4.672   5.345   2.551
 7007SOL    HW121920   4.745   5.295   2.505
 7007SOL    HW221921   4.645   5.423   2.496
 7008SOL     OW21922   0.965   4.878   4.628
 7008SOL    HW121923   0.981   4.838   4.538
 7008SOL    HW221924   0.969   4.805   4.697
 7009SOL     OW21925   0.525   4.155   2.743
 7009SOL    HW121926   0.613   4.109   2.732
 7009SOL    HW221927   0.463   4.097   2.796
 7010SOL     OW21928   5.055   4.689   6.482
 7010SOL    HW121929   5.017   4.654   6.568
 7010SOL    HW221930   5.119   4.623   6.444
 7011SOL     OW21931   0.972   1.080   5.440
 7011SOL    HW121932   1.034   1.014   5.484
 7011SOL    HW221933   0.898   1.103   5.503
 7012SOL     OW21934   1.223   1.681   1.573
 7012SOL    HW121935   1.286   1.663   1.649
 7012SOL    HW221936   1.238   1.773   1.537
 7013SOL     OW21937   6.706   1.597   1.331
 7013SOL    HW121938   6.667   1.519   1.379
 7013SOL    HW221939   6.796   1.573   1.295
 7014SOL     OW21940   2.197   5.195   0.578
 7014SOL    HW121941   2.198   5.097   0.598
 7014SOL    HW221942   2.142   5.213   0.497
 7015SOL     OW21943   4.794   2.010   2.335
 7015SOL    HW121944   4.794   2.069   2.415
 7015SOL    HW221945   4.885   2.012   2.293
 7016SOL     OW21946   4.159   4.449   1.480
 7016SOL    HW121947   4.188   4.426   1.573
 7016SOL    HW221948   4.064   4.423   1.467
 7017SOL     OW21949   4.788   2.193   4.702
 7017SOL    HW121950   4.747   2.181   4.612
 7017SOL    HW221951   4.802   2.103   4.744
 7018SOL     OW21952   0.799   3.231   3.249
 7018SOL    HW121953   0.718   3.279   3.213
 7018SOL    HW221954   0.828   3.161   3.184
 7019SOL     OW21955   1.078   5.642   1.242
 7019SOL    HW121956   0.982   5.615   1.249
 7019SOL    HW221957   1.085   5.742   1.244
 7020SOL     OW21958   6.803   6.256   6.812
 7020SOL    HW121959   6.897   6.225   6.806
 7020SOL    HW221960   6.746   6.183   6.848
 7021SOL     OW21961   4.115   0.093   6.227
 7021SOL    HW121962   4.043   0.027   6.246
 7021SOL    HW221963   4.173   0.060   6.153
 7022SOL     OW21964   4.151   5.753   6.324
 7022SOL    HW121965   4.073   5.727   6.268
 7022SOL    HW221966   4.156   5.692   6.403
 7023SOL     OW21967   5.498   3.941   2.296
 7023SOL    HW121968   5.574   3.920   2.358
 7023SOL    HW221969   5.421   3.975   2.349
 7024SOL     OW21970   6.541   6.165   1.270
 7024SOL    HW121971   6.630   6.123   1.251
 7024SOL    HW221972   6.546   6.263   1.253
 7025SOL     OW21973   2.330   0.797   0.264
 7025SOL    HW121974   2.371   0.883   0.296
 7025SOL    HW221975   2.259   0.817   0.197
 7026SOL     OW21976   3.576   1.503   1.326
 7026SOL    HW121977   3.520   1.421   1.338
 7026SOL    HW221978   3.566   1.563   1.405
 7027SOL     OW21979   5.135   5.708   3.683
 7027SOL    HW121980   5.215   5.752   3.642
 7027SOL    HW221981   5.164   5.651   3.760
 7028SOL     OW21982   3.138   0.318   4.539
 7028SOL    HW121983   3.208   0.340   4.471
 7028SOL    HW221984   3.074   0.395   4.547
 7029SOL     OW21985   4.643   1.604   4.859
 7029SOL    HW121986   4.570   1.669   4.881
 7029SOL    HW221987   4.602   1.519   4.826
 7030SOL     OW21988   1.950   2.941   4.052
 7030SOL    HW121989   1.998   3.021   4.087
 7030SOL    HW221990   2.004   2.898   3.979
 7031SOL     OW21991   1.570   1.343   4.669
 7031SOL    HW121992   1.584   1.275   4.741
 7031SOL    HW221993   1.511   1.304   4.598
 7032SOL     OW21994   5.840   2.125   3.847
 7032SOL    HW121995   5.886   2.178   3.776
 7032SOL    HW221996   5.830   2.181   3.929
 7033SOL     OW21997   0.603   0.075   4.632
 7033SOL    HW121998   0.510   0.051   4.659
 7033SOL    HW221999   0.619   0.172   4.646
 7034SOL     OW22000   0.143   5.200   2.941
 7034SOL    HW122001   0.164   5.298   2.935
 7034SOL    HW222002   0.130   5.175   3.037
 7035SOL     OW22003   6.256   4.892   2.228
 7035SOL    HW122004   6.238   4.810   2.282
 7035SOL    HW222005   6.298   4.962   2.286
 7036SOL     OW22006   6.257   4.448   0.755
 7036SOL    HW122007   6.316   4.515   0.710
 7036SOL    HW222008   6.186   4.496   0.807
 7037SOL     OW22009   1.064   0.773   6.471
 7037SOL    HW122010   1.119   0.854   6.451
 7037SOL    HW222011   0.968   0.793   6.452
 7038SOL     OW22012   2.060   3.199   4.146
 7038SOL    HW122013   1.962   3.205   4.128
 7038SOL    HW222014   2.080   3.232   4.238
 7039SOL     OW22015   3.542   2.605   6.738
 7039SOL    HW122016   3.481   2.683   6.723
 7039SOL    HW222017   3.632   2.625   6.698
 7040SOL     OW22018   5.252   3.027   6.834
 7040SOL    HW122019   5.304   3.073   6.906
 7040SOL    HW222020   5.280   2.931   6.828
 7041SOL     OW22021   2.049   1.106   3.298
 7041SOL    HW122022   2.001   1.101   3.210
 7041SOL    HW222023   2.048   1.016   3.341
 7042SOL     OW22024   1.505   0.675   5.946
 7042SOL    HW122025   1.411   0.641   5.953
 7042SOL    HW222026   1.523   0.706   5.853
 7043SOL     OW22027   1.430   1.834   2.375
 7043SOL    HW122028   1.509   1.778   2.402
 7043SOL    HW222029   1.364   1.838   2.450
 7044SOL     OW22030   5.943   6.400   1.892
 7044SOL    HW122031   5.999   6.318   1.884
 7044SOL    HW222032   5.970   6.466   1.823
 7045SOL     OW22033   6.759   4.829   6.989
 7045SOL    HW122034   6.756   4.768   0.053
 7045SOL    HW222035   6.698   4.906   7.004
 7046SOL     OW22036   2.807   1.225   3.929
 7046SOL    HW122037   2.881   1.181   3.878
 7046SOL    HW222038   2.843   1.303   3.980
 7047SOL     OW22039   1.468   0.486   2.803
 7047SOL    HW122040   1.406   0.505   2.726
 7047SOL    HW222041   1.534   0.415   2.776
 7048SOL     OW22042   6.910   5.501   0.425
 7048SOL    HW122043   6.873   5.593   0.413
 7048SOL    HW222044   6.838   5.440   0.459
 7049SOL     OW22045   2.136   0.855   6.618
 7049SOL    HW122046   2.096   0.922   6.555
 7049SOL    HW222047   2.235   0.850   6.603
 7050SOL     OW22048   3.900   4.012   4.866
 7050SOL    HW122049   3.858   3.925   4.892
 7050SOL    HW222050   3.855   4.086   4.914
 7051SOL     OW22051   6.573   6.430   3.396
 7051SOL    HW122052   6.483   6.398   3.366
 7051SOL    HW222053   6.583   6.414   3.494
 7052SOL     OW22054   0.070   0.729   4.474
 7052SOL    HW122055   0.125   0.728   4.558
 7052SOL    HW222056   0.025   0.640   4.462
 7053SOL     OW22057   6.595   4.610   6.178
 7053SOL    HW122058   6.550   4.650   6.098
 7053SOL    HW222059   6.531   4.550   6.226
 7054SOL     OW22060   6.256   1.630   1.216
 7054SOL    HW122061   6.300   1.601   1.301
 7054SOL    HW222062   6.220   1.723   1.227
 7055SOL     OW22063   4.596   1.584   4.222
 7055SOL    HW122064   4.539   1.649   4.271
 7055SOL    HW222065   4.564   1.576   4.127
 7056SOL     OW22066   4.046   5.256   3.561
 7056SOL    HW122067   4.006   5.262   3.652
 7056SOL    HW222068   4.145   5.269   3.566
 7057SOL     OW22069   6.182   5.723   2.728
 7057SOL    HW122070   6.222   5.798   2.781
 7057SOL    HW222071   6.206   5.636   2.770
 7058SOL     OW22072   0.082   4.518   4.480
 7058SOL    HW122073   0.158   4.558   4.428
 7058SOL    HW222074   0.095   4.539   4.577
 7059SOL     OW22075   2.368   0.663   2.390
 7059SOL    HW122076   2.318   0.598   2.447
 7059SOL    HW222077   2.303   0.718   2.336
 7060SOL     OW22078   3.047   6.714   0.848
 7060SOL    HW122079   3.135   6.756   0.823
 7060SOL    HW222080   3.064   6.634   0.906
 7061SOL     OW22081   0.237   0.853   2.976
 7061SOL    HW122082   0.184   0.894   3.051
 7061SOL    HW222083   0.328   0.894   2.974
 7062SOL     OW22084   0.068   1.201   5.194
 7062SOL    HW122085   0.003   1.258   5.142
 7062SOL    HW222086   0.103   1.253   5.272
 7063SOL     OW22087   2.140   6.744   2.094
 7063SOL    HW122088   2.226   6.787   2.065
 7063SOL    HW222089   2.147   6.720   2.191
 7064SOL     OW22090   4.289   2.754   0.699
 7064SOL    HW122091   4.233   2.814   0.640
 7064SOL    HW222092   4.237   2.730   0.780
 7065SOL     OW22093   3.788   3.283   2.197
 7065SOL    HW122094   3.853   3.343   2.150
 7065SOL    HW222095   3.808   3.188   2.174
 7066SOL     OW22096   2.554   5.401   1.184
 7066SOL    HW122097   2.550   5.456   1.101
 7066SOL    HW222098   2.474   5.340   1.187
 7067SOL     OW22099   0.241   3.727   4.104
 7067SOL    HW122100   0.181   3.714   4.025
 7067SOL    HW222101   0.289   3.642   4.124
 7068SOL     OW22102   1.179   6.917   3.084
 7068SOL    HW122103   1.166   6.859   3.004
 7068SOL    HW222104   1.097   6.914   3.142
 7069SOL     OW22105   1.078   4.516   5.361
 7069SOL    HW122106   1.069   4.587   5.291
 7069SOL    HW222107   1.112   4.556   5.446
 7070SOL     OW22108   5.391   5.361   3.590
 7070SOL    HW122109   5.350   5.271   3.601
 7070SOL    HW222110   5.485   5.360   3.622
 7071SOL     OW22111   1.427   0.278   5.142
 7071SOL    HW122112   1.499   0.215   5.171
 7071SOL    HW222113   1.374   0.236   5.069
 7072SOL     OW22114   0.605   6.830   0.021
 7072SOL    HW122115   0.509   6.803   0.020
 7072SOL    HW222116   0.662   6.752   7.010
 7073SOL     OW22117   1.645   1.679   6.228
 7073SOL    HW122118   1.597   1.675   6.140
 7073SOL    HW222119   1.580   1.704   6.300
 7074SOL     OW22120   2.825   1.570   0.300
 7074SOL    HW122121   2.787   1.662   0.292
 7074SOL    HW222122   2.886   1.566   0.379
 7075SOL     OW22123   0.745   5.602   2.375
 7075SOL    HW122124   0.745   5.512   2.418
 7075SOL    HW222125   0.722   5.593   2.278
 7076SOL     OW22126   3.604   1.835   6.365
 7076SOL    HW122127   3.536   1.864   6.298
 7076SOL    HW222128   3.602   1.735   6.373
 7077SOL     OW22129   1.772   4.692   6.138
 7077SOL    HW122130   1.786   4.594   6.153
 7077SOL    HW222131   1.774   4.711   6.040
 7078SOL     OW22132   6.457   0.622   2.473
 7078SOL    HW122133   6.548   0.591   2.501
 7078SOL    HW222134   6.426   0.696   2.533
 7079SOL     OW22135   5.486   5.945   5.565
 7079SOL    HW122136   5.437   5.912   5.484
 7079SOL    HW222137   5.572   5.987   5.536
 7080SOL     OW22138   5.934   0.063   4.131
 7080SOL    HW122139   5.994   0.141   4.113
 7080SOL    HW222140   5.969   0.011   4.208
 7081SOL     OW22141   4.853   1.054   5.447
 7081SOL    HW122142   4.765   1.072   5.491
 7081SOL    HW222143   4.836   1.016   5.355
 7082SOL     OW22144   5.567   1.352   6.604
 7082SOL    HW122145   5.560   1.317   6.698
 7082SOL    HW222146   5.565   1.452   6.606
 7083SOL     OW22147   3.226   0.337   5.894
 7083SOL    HW122148   3.316   0.377   5.874
 7083SOL    HW222149   3.175   0.326   5.809
 7084SOL     OW22150   6.513   5.913   0.446
 7084SOL    HW122151   6.458   5.972   0.505
 7084SOL    HW222152   6.472   5.822   0.442
 7085SOL     OW22153   3.510   1.478   0.778
 7085SOL    HW122154   3.582   1.511   0.840
 7085SOL    HW222155   3.438   1.547   0.770
 7086SOL     OW22156   0.845   1.527   5.905
 7086SOL    HW122157   0.909   1.480   5.966
 7086SOL    HW222158   0.800   1.601   5.955
 7087SOL     OW22159   2.338   2.777   4.903
 7087SOL    HW122160   2.320   2.868   4.941
 7087SOL    HW222161   2.357   2.785   4.805
 7088SOL     OW22162   0.563   2.140   5.391
 7088SOL    HW122163   0.471   2.113   5.420
 7088SOL    HW222164   0.617   2.164   5.471
 7089SOL     OW22165   2.743   1.721   1.492
 7089SOL    HW122166   2.683   1.800   1.498
 7089SOL    HW222167   2.833   1.749   1.458
 7090SOL     OW22168   2.353   2.506   4.809
 7090SOL    HW122169   2.270   2.465   4.846
 7090SOL    HW222170   2.372   2.592   4.856
 7091SOL     OW22171   0.196   6.612   1.081
 7091SOL    HW122172   0.233   6.547   1.147
 7091SOL    HW222173   0.104   6.584   1.055
 7092SOL     OW22174   2.797   2.648   0.457
 7092SOL    HW122175   2.863   2.723   0.451
 7092SOL    HW222176   2.705   2.686   0.462
 7093SOL     OW22177   4.325   3.342   5.857
 7093SOL    HW122178   4.284   3.313   5.944
 7093SOL    HW222179   4.417   3.378   5.874
 7094SOL     OW22180   6.695   0.705   6.319
 7094SOL    HW122181   6.599   0.679   6.308
 7094SOL    HW222182   6.703   0.778   6.387
 7095SOL     OW22183   0.595   4.211   6.616
 7095SOL    HW122184   0.585   4.115   6.592
 7095SOL    HW222185   0.529   4.266   6.565
 7096SOL     OW22186   4.919   0.431   2.608
 7096SOL    HW122187   4.874   0.341   2.616
 7096SOL    HW222188   5.013   0.424   2.642
 7097SOL     OW22189   1.697   1.022   1.730
 7097SOL    HW122190   1.634   0.949   1.703
 7097SOL    HW222191   1.731   1.068   1.648
 7098SOL     OW22192   1.179   0.149   6.043
 7098SOL    HW122193   1.257   0.134   5.982
 7098SOL    HW222194   1.205   0.212   6.116
 7099SOL     OW22195   0.313   1.037   5.283
 7099SOL    HW122196   0.245   1.100   5.246
 7099SOL    HW222197   0.294   1.020   5.380
 7100SOL     OW22198   5.561   2.084   0.894
 7100SOL    HW122199   5.511   2.112   0.813
 7100SOL    HW222200   5.541   1.987   0.913
 7101SOL     OW22201   1.324   0.651   4.457
 7101SOL    HW122202   1.382   0.570   4.469
 7101SOL    HW222203   1.228   0.623   4.459
 7102SOL     OW22204   5.167   3.294   0.900
 7102SOL    HW122205   5.171   3.211   0.957
 7102SOL    HW222206   5.079   3.296   0.852
 7103SOL     OW22207   2.740   0.082   5.947
 7103SOL    HW122208   2.830   0.082   5.990
 7103SOL    HW222209   2.750   0.099   5.849
 7104SOL     OW22210   0.390   2.290   1.239
 7104SOL    HW122211   0.311   2.235   1.211
 7104SOL    HW222212   0.473   2.251   1.199
 7105SOL     OW22213   2.028   3.803   5.418
 7105SOL    HW122214   2.065   3.853   5.496
 7105SOL    HW222215   2.099   3.790   5.349
 7106SOL     OW22216   3.274   2.560   5.362
 7106SOL    HW122217   3.354   2.509   5.393
 7106SOL    HW222218   3.231   2.511   5.285
 7107SOL     OW22219   2.093   0.993   0.276
 7107SOL    HW122220   2.087   0.928   0.352
 7107SOL    HW222221   2.174   1.051   0.288
 7108SOL     OW22222   4.316   6.634   2.064
 7108SOL    HW122223   4.338   6.730   2.046
 7108SOL    HW222224   4.216   6.623   2.062
 7109SOL     OW22225   3.499   6.238   6.090
 7109SOL    HW122226   3.407   6.221   6.057
 7109SOL    HW222227   3.498   6.243   6.190
 7110SOL     OW22228   3.126   4.873   3.319
 7110SOL    HW122229   3.185   4.802   3.357
 7110SOL    HW222230   3.133   4.873   3.219
 7111SOL     OW22231   1.675   2.349   3.469
 7111SOL    HW122232   1.601   2.306   3.417
 7111SOL    HW222233   1.639   2.431   3.515
 7112SOL     OW22234   1.709   6.267   2.215
 7112SOL    HW122235   1.731   6.248   2.311
 7112SOL    HW222236   1.609   6.275   2.204
 7113SOL     OW22237   3.909   3.933   5.162
 7113SOL    HW122238   3.968   3.866   5.118
 7113SOL    HW222239   3.947   4.025   5.150
 7114SOL     OW22240   3.972   6.692   0.649
 7114SOL    HW122241   3.898   6.635   0.616
 7114SOL    HW222242   4.047   6.634   0.681
 7115SOL     OW22243   4.177   1.323   1.486
 7115SOL    HW122244   4.148   1.371   1.403
 7115SOL    HW222245   4.276   1.309   1.484
 7116SOL     OW22246   6.119   3.569   2.546
 7116SOL    HW122247   6.102   3.478   2.585
 7116SOL    HW222248   6.065   3.580   2.462
 7117SOL     OW22249   6.180   6.688   2.404
 7117SOL    HW122250   6.275   6.717   2.392
 7117SOL    HW222251   6.167   6.657   2.498
 7118SOL     OW22252   6.480   2.893   2.266
 7118SOL    HW122253   6.534   2.811   2.249
 7118SOL    HW222254   6.534   2.959   2.318
 7119SOL     OW22255   1.151   2.021   2.836
 7119SOL    HW122256   1.229   1.994   2.779
 7119SOL    HW222257   1.116   2.109   2.804
 7120SOL     OW22258   4.827   6.214   3.313
 7120SOL    HW122259   4.876   6.130   3.288
 7120SOL    HW222260   4.887   6.293   3.301
 7121SOL     OW22261   3.045   6.862   1.683
 7121SOL    HW122262   3.034   6.763   1.670
 7121SOL    HW222263   3.099   6.879   1.766
 7122SOL     OW22264   6.505   6.718   0.241
 7122SOL    HW122265   6.591   6.691   0.199
 7122SOL    HW222266   6.523   6.762   0.328
 7123SOL     OW22267   2.137   5.289   0.340
 7123SOL    HW122268   2.203   5.267   0.269
 7123SOL    HW222269   2.135   5.388   0.354
 7124SOL     OW22270   0.377   5.527   0.605
 7124SOL    HW122271   0.373   5.622   0.575
 7124SOL    HW222272   0.340   5.519   0.697
 7125SOL     OW22273   6.939   6.767   3.199
 7125SOL    HW122274   6.924   6.779   3.101
 7125SOL    HW222275   6.983   6.849   3.236
 7126SOL     OW22276   1.575   4.724   0.761
 7126SOL    HW122277   1.631   4.783   0.703
 7126SOL    HW222278   1.499   4.686   0.708
 7127SOL     OW22279   2.880   0.057   4.369
 7127SOL    HW122280   2.871   0.151   4.339
 7127SOL    HW222281   2.939   0.053   4.450
 7128SOL     OW22282   3.317   4.210   1.798
 7128SOL    HW122283   3.222   4.226   1.773
 7128SOL    HW222284   3.320   4.173   1.891
 7129SOL     OW22285   2.582   1.930   1.527
 7129SOL    HW122286   2.533   2.001   1.477
 7129SOL    HW222287   2.593   1.958   1.623
 7130SOL     OW22288   2.861   6.786   2.224
 7130SOL    HW122289   2.945   6.759   2.177
 7130SOL    HW222290   2.827   6.709   2.278
 7131SOL     OW22291   2.863   1.468   3.580
 7131SOL    HW122292   2.885   1.551   3.632
 7131SOL    HW222293   2.933   1.452   3.511
 7132SOL     OW22294   3.228   3.896   2.891
 7132SOL    HW122295   3.220   3.802   2.857
 7132SOL    HW222296   3.218   3.960   2.815
 7133SOL     OW22297   5.754   4.354   2.023
 7133SOL    HW122298   5.834   4.318   1.974
 7133SOL    HW222299   5.694   4.278   2.049
 7134SOL     OW22300   5.641   4.556   2.907
 7134SOL    HW122301   5.625   4.515   2.817
 7134SOL    HW222302   5.590   4.505   2.976
 7135SOL     OW22303   0.832   2.372   5.761
 7135SOL    HW122304   0.812   2.431   5.839
 7135SOL    HW222305   0.925   2.389   5.729
 7136SOL     OW22306   2.492   1.903   0.001
 7136SOL    HW122307   2.531   1.976   6.959
 7136SOL    HW222308   2.546   1.819   7.003
 7137SOL     OW22309   4.243   1.615   5.099
 7137SOL    HW122310   4.161   1.663   5.067
 7137SOL    HW222311   4.266   1.541   5.036
 7138SOL     OW22312   2.100   3.839   6.425
 7138SOL    HW122313   2.046   3.804   6.349
 7138SOL    HW222314   2.174   3.775   6.446
 7139SOL     OW22315   2.971   1.668   0.025
 7139SOL    HW122316   3.061   1.680   0.068
 7139SOL    HW222317   2.918   1.600   0.076
 7140SOL     OW22318   6.924   4.302   5.090
 7140SOL    HW122319   6.932   4.296   4.991
 7140SOL    HW222320   6.829   4.323   5.114
 7141SOL     OW22321   1.286   6.980   2.151
 7141SOL    HW122322   1.329   6.893   2.175
 7141SOL    HW222323   1.354   0.038   2.157
 7142SOL     OW22324   3.839   6.694   4.081
 7142SOL    HW122325   3.869   6.635   4.006
 7142SOL    HW222326   3.792   6.774   4.044
 7143SOL     OW22327   2.478   1.991   3.834
 7143SOL    HW122328   2.415   1.920   3.802
 7143SOL    HW222329   2.547   2.008   3.764
 7144SOL     OW22330   1.419   3.193   3.662
 7144SOL    HW122331   1.353   3.156   3.597
 7144SOL    HW222332   1.373   3.214   3.748
 7145SOL     OW22333   4.341   6.549   6.207
 7145SOL    HW122334   4.265   6.610   6.187
 7145SOL    HW222335   4.423   6.603   6.228
 7146SOL     OW22336   2.611   5.182   1.865
 7146SOL    HW122337   2.691   5.127   1.890
 7146SOL    HW222338   2.582   5.156   1.773
 7147SOL     OW22339   0.647   1.207   3.438
 7147SOL    HW122340   0.631   1.296   3.394
 7147SOL    HW222341   0.637   1.218   3.537
 7148SOL     OW22342   0.115   1.266   0.227
 7148SOL    HW122343   0.082   1.273   0.321
 7148SOL    HW222344   0.153   1.175   0.211
 7149SOL     OW22345   6.890   0.761   4.284
 7149SOL    HW122346   6.962   0.785   4.349
 7149SOL    HW222347   6.919   0.682   4.230
 7150SOL     OW22348   6.252   4.103   6.606
 7150SOL    HW122349   6.178   4.055   6.559
 7150SOL    HW222350   6.274   4.054   6.690
 7151SOL     OW22351   2.022   6.378   1.234
 7151SOL    HW122352   2.109   6.426   1.236
 7151SOL    HW222353   1.977   6.386   1.323
 7152SOL     OW22354   1.124   2.586   3.644
 7152SOL    HW122355   1.123   2.585   3.544
 7152SOL    HW222356   1.218   2.584   3.677
 7153SOL     OW22357   3.350   1.983   3.384
 7153SOL    HW122358   3.332   1.892   3.421
 7153SOL    HW222359   3.379   1.975   3.288
 7154SOL     OW22360   4.171   6.060   4.630
 7154SOL    HW122361   4.196   6.137   4.689
 7154SOL    HW222362   4.244   5.992   4.632
 7155SOL     OW22363   2.262   0.919   3.106
 7155SOL    HW122364   2.231   0.826   3.123
 7155SOL    HW222365   2.189   0.972   3.064
 7156SOL     OW22366   1.490   5.257   4.767
 7156SOL    HW122367   1.556   5.324   4.800
 7156SOL    HW222368   1.454   5.205   4.844
 7157SOL     OW22369   5.168   4.342   0.959
 7157SOL    HW122370   5.188   4.425   0.907
 7157SOL    HW222371   5.116   4.366   1.041
 7158SOL     OW22372   4.939   6.917   4.366
 7158SOL    HW122373   5.018   6.940   4.309
 7158SOL    HW222374   4.856   6.919   4.309
 7159SOL     OW22375   1.014   5.252   0.158
 7159SOL    HW122376   0.936   5.275   0.215
 7159SOL    HW222377   1.074   5.189   0.207
 7160SOL     OW22378   6.530   1.288   1.938
 7160SOL    HW122379   6.610   1.267   1.881
 7160SOL    HW222380   6.452   1.232   1.909
 7161SOL     OW22381   3.349   4.144   4.182
 7161SOL    HW122382   3.433   4.132   4.235
 7161SOL    HW222383   3.282   4.194   4.236
 7162SOL     OW22384   3.455   4.930   4.052
 7162SOL    HW122385   3.384   4.923   3.982
 7162SOL    HW222386   3.545   4.915   4.011
 7163SOL     OW22387   1.651   6.381   3.052
 7163SOL    HW122388   1.558   6.411   3.075
 7163SOL    HW222389   1.684   6.433   2.973
 7164SOL     OW22390   2.729   1.942   3.982
 7164SOL    HW122391   2.698   2.030   4.018
 7164SOL    HW222392   2.649   1.886   3.960
 7165SOL     OW22393   5.439   6.381   2.582
 7165SOL    HW122394   5.359   6.385   2.641
 7165SOL    HW222395   5.493   6.464   2.592
 7166SOL     OW22396   5.035   5.552   2.301
 7166SOL    HW122397   5.057   5.565   2.204
 7166SOL    HW222398   5.005   5.639   2.340
 7167SOL     OW22399   5.204   3.116   5.792
 7167SOL    HW122400   5.179   3.140   5.698
 7167SOL    HW222401   5.142   3.047   5.828
 7168SOL     OW22402   0.919   1.602   4.247
 7168SOL    HW122403   0.988   1.672   4.264
 7168SOL    HW222404   0.910   1.543   4.327
 7169SOL     OW22405   1.841   2.666   6.734
 7169SOL    HW122406   1.862   2.707   6.823
 7169SOL    HW222407   1.923   2.666   6.677
 7170SOL     OW22408   5.896   5.023   3.814
 7170SOL    HW122409   5.828   5.052   3.746
 7170SOL    HW222410   5.889   4.924   3.827
 7171SOL     OW22411   4.318   2.960   6.097
 7171SOL    HW122412   4.330   2.874   6.147
 7171SOL    HW222413   4.388   2.966   6.026
 7172SOL     OW22414   0.602   0.435   1.504
 7172SOL    HW122415   0.546   0.353   1.499
 7172SOL    HW222416   0.616   0.460   1.600
 7173SOL     OW22417   6.113   6.388   5.403
 7173SOL    HW122418   6.098   6.296   5.438
 7173SOL    HW222419   6.029   6.423   5.362
 7174SOL     OW22420   0.800   6.099   6.287
 7174SOL    HW122421   0.798   6.065   6.381
 7174SOL    HW222422   0.812   6.023   6.223
 7175SOL     OW22423   6.133   3.293   5.616
 7175SOL    HW122424   6.209   3.356   5.632
 7175SOL    HW222425   6.071   3.295   5.694
 7176SOL     OW22426   0.013   3.492   1.306
 7176SOL    HW122427   0.095   3.511   1.359
 7176SOL    HW222428   7.006   3.572   1.250
 7177SOL     OW22429   1.021   5.373   2.207
 7177SOL    HW122430   1.022   5.460   2.255
 7177SOL    HW222431   0.939   5.367   2.150
 7178SOL     OW22432   0.158   2.022   6.173
 7178SOL    HW122433   0.131   2.021   6.077
 7178SOL    HW222434   0.083   2.056   6.229
 7179SOL     OW22435   1.789   4.408   6.178
 7179SOL    HW122436   1.843   4.344   6.233
 7179SOL    HW222437   1.797   4.385   6.081
 7180SOL     OW22438   0.327   0.132   3.115
 7180SOL    HW122439   0.420   0.141   3.150
 7180SOL    HW222440   0.286   0.049   3.154
 7181SOL     OW22441   5.525   6.384   2.884
 7181SOL    HW122442   5.592   6.379   2.809
 7181SOL    HW222443   5.527   6.299   2.936
 7182SOL     OW22444   3.724   3.691   5.913
 7182SOL    HW122445   3.802   3.674   5.851
 7182SOL    HW222446   3.649   3.630   5.888
 7183SOL     OW22447   1.825   3.993   3.749
 7183SOL    HW122448   1.888   3.936   3.801
 7183SOL    HW222449   1.875   4.067   3.704
 7184SOL     OW22450   2.812   5.674   2.862
 7184SOL    HW122451   2.865   5.601   2.905
 7184SOL    HW222452   2.723   5.683   2.908
 7185SOL     OW22453   4.414   3.199   6.918
 7185SOL    HW122454   4.497   3.144   6.927
 7185SOL    HW222455   4.334   3.139   6.924
 7186SOL     OW22456   0.351   0.071   4.135
 7186SOL    HW122457   0.334   0.117   4.222
 7186SOL    HW222458   0.359   6.988   4.150
 7187SOL     OW22459   1.379   5.003   1.183
 7187SOL    HW122460   1.311   5.062   1.140
 7187SOL    HW222461   1.407   5.042   1.270
 7188SOL     OW22462   5.246   0.213   1.807
 7188SOL    HW122463   5.229   0.247   1.714
 7188SOL    HW222464   5.159   0.210   1.857
 7189SOL     OW22465   6.889   0.544   5.104
 7189SOL    HW122466   6.901   0.446   5.090
 7189SOL    HW222467   6.795   0.562   5.133
 7190SOL     OW22468   4.606   4.739   2.839
 7190SOL    HW122469   4.522   4.686   2.827
 7190SOL    HW222470   4.624   4.750   2.937
 7191SOL     OW22471   0.830   2.949   1.372
 7191SOL    HW122472   0.843   2.989   1.462
 7191SOL    HW222473   0.901   2.983   1.310
 7192SOL     OW22474   3.806   5.136   6.641
 7192SOL    HW122475   3.852   5.216   6.602
 7192SOL    HW222476   3.866   5.056   6.632
 7193SOL     OW22477   5.274   1.839   3.957
 7193SOL    HW122478   5.351   1.776   3.962
 7193SOL    HW222479   5.293   1.910   3.889
 7194SOL     OW22480   3.206   1.647   1.326
 7194SOL    HW122481   3.230   1.554   1.356
 7194SOL    HW222482   3.263   1.713   1.374
 7195SOL     OW22483   0.336   6.084   1.742
 7195SOL    HW122484   0.336   6.178   1.706
 7195SOL    HW222485   0.315   6.086   1.839
 7196SOL     OW22486   3.754   2.963   1.635
 7196SOL    HW122487   3.660   2.997   1.645
 7196SOL    HW222488   3.759   2.869   1.667
 7197SOL     OW22489   1.284   1.460   3.836
 7197SOL    HW122490   1.216   1.416   3.777
 7197SOL    HW222491   1.250   1.461   3.930
 7198SOL     OW22492   0.233   6.440   6.077
 7198SOL    HW122493   0.269   6.363   6.129
 7198SOL    HW222494   0.135   6.450   6.097
 7199SOL     OW22495   5.666   6.859   3.152
 7199SOL    HW122496   5.630   6.775   3.111
 7199SOL    HW222497   5.713   6.912   3.081
 7200SOL     OW22498   2.132   2.008   2.036
 7200SOL    HW122499   2.101   2.000   1.942
 7200SOL    HW222500   2.197   2.084   2.043
 7201SOL     OW22501   2.535   4.849   2.907
 7201SOL    HW122502   2.445   4.814   2.931
 7201SOL    HW222503   2.526   4.924   2.841
 7202SOL     OW22504   3.452   0.120   5.482
 7202SOL    HW122505   3.371   0.116   5.540
 7202SOL    HW222506   3.501   0.033   5.487
 7203SOL     OW22507   6.164   6.877   6.660
 7203SOL    HW122508   6.077   6.919   6.637
 7203SOL    HW222509   6.155   6.827   6.747
 7204SOL     OW22510   6.126   1.372   2.909
 7204SOL    HW122511   6.165   1.304   2.847
 7204SOL    HW222512   6.044   1.411   2.867
 7205SOL     OW22513   1.294   4.252   1.744
 7205SOL    HW122514   1.271   4.176   1.684
 7205SOL    HW222515   1.291   4.337   1.691
 7206SOL     OW22516   5.483   1.800   1.474
 7206SOL    HW122517   5.524   1.890   1.488
 7206SOL    HW222518   5.389   1.810   1.442
 7207SOL     OW22519   4.040   6.589   2.097
 7207SOL    HW122520   3.996   6.504   2.069
 7207SOL    HW222521   3.990   6.667   2.058
 7208SOL     OW22522   3.087   0.415   5.119
 7208SOL    HW122523   3.036   0.500   5.133
 7208SOL    HW222524   3.047   0.343   5.176
 7209SOL     OW22525   3.165   3.226   4.249
 7209SOL    HW122526   3.087   3.229   4.312
 7209SOL    HW222527   3.151   3.293   4.176
 7210SOL     OW22528   4.811   0.204   4.276
 7210SOL    HW122529   4.905   0.191   4.245
 7210SOL    HW222530   4.750   0.145   4.224
 7211SOL     OW22531   1.174   5.099   2.531
 7211SOL    HW122532   1.246   5.125   2.595
 7211SOL    HW222533   1.162   5.000   2.533
 7212SOL     OW22534   4.712   6.819   3.566
 7212SOL    HW122535   4.806   6.810   3.601
 7212SOL    HW222536   4.683   6.914   3.574
 7213SOL     OW22537   5.459   6.743   5.224
 7213SOL    HW122538   5.536   6.700   5.270
 7213SOL    HW222539   5.394   6.673   5.194
 7214SOL     OW22540   0.243   5.042   5.557
 7214SOL    HW122541   0.343   5.036   5.560
 7214SOL    HW222542   0.204   4.950   5.556
 7215SOL     OW22543   1.206   3.092   2.116
 7215SOL    HW122544   1.194   3.050   2.026
 7215SOL    HW222545   1.195   3.191   2.108
 7216SOL     OW22546   2.692   1.397   1.948
 7216SOL    HW122547   2.768   1.453   1.981
 7216SOL    HW222548   2.657   1.341   2.024
 7217SOL     OW22549   0.659   2.962   2.122
 7217SOL    HW122550   0.664   3.061   2.134
 7217SOL    HW222551   0.589   2.925   2.183
 7218SOL     OW22552   6.240   2.575   5.586
 7218SOL    HW122553   6.286   2.655   5.547
 7218SOL    HW222554   6.158   2.554   5.533
 7219SOL     OW22555   3.212   0.935   1.003
 7219SOL    HW122556   3.235   0.868   0.932
 7219SOL    HW222557   3.181   1.019   0.960
 7220SOL     OW22558   6.817   0.966   3.076
 7220SOL    HW122559   6.909   0.950   3.112
 7220SOL    HW222560   6.785   0.883   3.030
 7221SOL     OW22561   6.033   4.427   5.352
 7221SOL    HW122562   5.957   4.403   5.292
 7221SOL    HW222563   6.021   4.381   5.441
 7222SOL     OW22564   6.554   6.896   3.560
 7222SOL    HW122565   6.589   6.821   3.504
 7222SOL    HW222566   6.458   6.881   3.580
 7223SOL     OW22567   4.537   0.908   5.157
 7223SOL    HW122568   4.629   0.875   5.180
 7223SOL    HW222569   4.526   0.907   5.057
 7224SOL     OW22570   5.639   1.199   3.880
 7224SOL    HW122571   5.721   1.227   3.830
 7224SOL    HW222572   5.573   1.274   3.880
 7225SOL     OW22573   2.610   0.684   1.545
 7225SOL    HW122574   2.604   0.781   1.570
 7225SOL    HW222575   2.674   0.672   1.469
 7226SOL     OW22576   5.707   6.445   5.741
 7226SOL    HW122577   5.778   6.503   5.701
 7226SOL    HW222578   5.664   6.494   5.817
 7227SOL     OW22579   6.774   2.570   5.757
 7227SOL    HW122580   6.824   2.492   5.794
 7227SOL    HW222581   6.790   2.650   5.815
 7228SOL     OW22582   2.648   0.539   3.143
 7228SOL    HW122583   2.674   0.444   3.126
 7228SOL    HW222584   2.605   0.577   3.061
 7229SOL     OW22585   6.841   0.040   3.470
 7229SOL    HW122586   6.858   6.961   3.499
 7229SOL    HW222587   6.763   0.042   3.407
 7230SOL     OW22588   6.326   5.471   1.265
 7230SOL    HW122589   6.371   5.452   1.353
 7230SOL    HW222590   6.285   5.562   1.268
 7231SOL     OW22591   6.155   0.800   6.933
 7231SOL    HW122592   6.169   0.764   6.841
 7231SOL    HW222593   6.238   0.848   6.963
 7232SOL     OW22594   3.609   4.043   1.000
 7232SOL    HW122595   3.677   4.051   1.073
 7232SOL    HW222596   3.655   4.051   0.912
 7233SOL     OW22597   0.483   2.282   5.174
 7233SOL    HW122598   0.542   2.324   5.105
 7233SOL    HW222599   0.539   2.240   5.245
 7234SOL     OW22600   4.926   1.991   2.974
 7234SOL    HW122601   4.957   2.084   2.994
 7234SOL    HW222602   4.872   1.957   3.050
 7235SOL     OW22603   6.171   2.731   4.566
 7235SOL    HW122604   6.150   2.810   4.623
 7235SOL    HW222605   6.108   2.656   4.587
 7236SOL     OW22606   1.861   1.194   3.084
 7236SOL    HW122607   1.870   1.293   3.074
 7236SOL    HW222608   1.779   1.173   3.139
 7237SOL     OW22609   5.672   5.170   4.917
 7237SOL    HW122610   5.636   5.112   4.844
 7237SOL    HW222611   5.703   5.257   4.879
 7238SOL     OW22612   1.554   0.796   1.626
 7238SOL    HW122613   1.455   0.783   1.627
 7238SOL    HW222614   1.581   0.848   1.545
 7239SOL     OW22615   4.045   1.162   1.651
 7239SOL    HW122616   4.098   1.080   1.673
 7239SOL    HW222617   4.102   1.226   1.599
 7240SOL     OW22618   2.964   3.115   2.210
 7240SOL    HW122619   2.973   3.121   2.111
 7240SOL    HW222620   3.012   3.034   2.243
 7241SOL     OW22621   4.919   7.003   4.643
 7241SOL    HW122622   4.941   6.969   4.551
 7241SOL    HW222623   4.976   6.957   4.710
 7242SOL     OW22624   6.129   5.105   0.858
 7242SOL    HW122625   6.079   5.182   0.819
 7242SOL    HW222626   6.172   5.133   0.944
 7243SOL     OW22627   0.335   5.416   0.338
 7243SOL    HW122628   0.344   5.475   0.258
 7243SOL    HW222629   0.347   5.471   0.421
 7244SOL     OW22630   5.194   1.713   0.742
 7244SOL    HW122631   5.219   1.631   0.795
 7244SOL    HW222632   5.132   1.687   0.668
 7245SOL     OW22633   6.047   2.213   4.177
 7245SOL    HW122634   6.076   2.151   4.249
 7245SOL    HW222635   6.101   2.195   4.094
 7246SOL     OW22636   1.152   5.638   5.452
 7246SOL    HW122637   1.056   5.656   5.429
 7246SOL    HW222638   1.165   5.646   5.550
 7247SOL     OW22639   3.625   5.617   4.249
 7247SOL    HW122640   3.646   5.639   4.154
 7247SOL    HW222641   3.535   5.653   4.272
 7248SOL     OW22642   3.563   0.927   4.132
 7248SOL    HW122643   3.543   0.964   4.041
 7248SOL    HW222644   3.634   0.982   4.176
 7249SOL     OW22645   5.206   3.470   5.658
 7249SOL    HW122646   5.280   3.519   5.704
 7249SOL    HW222647   5.135   3.447   5.724
 7250SOL     OW22648   2.881   3.580   6.617
 7250SOL    HW122649   2.861   3.622   6.706
 7250SOL    HW222650   2.839   3.489   6.613
 7251SOL     OW22651   5.391   0.986   5.287
 7251SOL    HW122652   5.366   0.899   5.330
 7251SOL    HW222653   5.329   1.057   5.318
 7252SOL     OW22654   4.615   3.478   5.462
 7252SOL    HW122655   4.675   3.477   5.382
 7252SOL    HW222656   4.542   3.412   5.450
 7253SOL     OW22657   5.163   4.855   1.177
 7253SOL    HW122658   5.176   4.818   1.269
 7253SOL    HW222659   5.224   4.932   1.163
 7254SOL     OW22660   5.709   6.423   4.947
 7254SOL    HW122661   5.611   6.440   4.958
 7254SOL    HW222662   5.743   6.370   5.025
 7255SOL     OW22663   4.057   3.186   2.750
 7255SOL    HW122664   4.114   3.236   2.685
 7255SOL    HW222665   4.027   3.100   2.709
 7256SOL     OW22666   3.459   5.447   3.911
 7256SOL    HW122667   3.367   5.422   3.879
 7256SOL    HW222668   3.472   5.546   3.902
 7257SOL     OW22669   6.263   4.564   2.534
 7257SOL    HW122670   6.200   4.604   2.466
 7257SOL    HW222671   6.250   4.609   2.622
 7258SOL     OW22672   2.689   0.127   5.669
 7258SOL    HW122673   2.658   0.189   5.596
 7258SOL    HW222674   2.670   0.033   5.643
 7259SOL     OW22675   3.275   5.035   6.543
 7259SOL    HW122676   3.265   4.936   6.536
 7259SOL    HW222677   3.210   5.071   6.610
 7260SOL     OW22678   4.262   2.079   2.482
 7260SOL    HW122679   4.217   2.168   2.494
 7260SOL    HW222680   4.230   2.037   2.398
 7261SOL     OW22681   1.412   4.876   0.915
 7261SOL    HW122682   1.484   4.822   0.871
 7261SOL    HW222683   1.447   4.915   1.000
 7262SOL     OW22684   6.292   0.859   4.761
 7262SOL    HW122685   6.311   0.935   4.697
 7262SOL    HW222686   6.274   0.896   4.852
 7263SOL     OW22687   4.879   6.307   1.463
 7263SOL    HW122688   4.900   6.215   1.429
 7263SOL    HW222689   4.815   6.301   1.540
 7264SOL     OW22690   0.946   6.507   4.430
 7264SOL    HW122691   0.910   6.425   4.474
 7264SOL    HW222692   1.034   6.486   4.387
 7265SOL     OW22693   4.798   3.729   6.321
 7265SOL    HW122694   4.712   3.779   6.330
 7265SOL    HW222695   4.862   3.762   6.390
 7266SOL     OW22696   3.989   1.569   2.149
 7266SOL    HW122697   3.912   1.512   2.120
 7266SOL    HW222698   4.044   1.593   2.070
 7267SOL     OW22699   5.656   2.962   4.302
 7267SOL    HW122700   5.691   2.935   4.391
 7267SOL    HW222701   5.730   2.965   4.236
 7268SOL     OW22702   3.872   0.645   0.410
 7268SOL    HW122703   3.872   0.556   0.458
 7268SOL    HW222704   3.929   0.710   0.461
 7269SOL     OW22705   1.471   0.359   1.707
 7269SOL    HW122706   1.531   0.439   1.703
 7269SOL    HW222707   1.450   0.338   1.802
 7270SOL     OW22708   3.294   2.052   2.298
 7270SOL    HW122709   3.256   1.960   2.314
 7270SOL    HW222710   3.385   2.058   2.339
 7271SOL     OW22711   6.028   5.454   3.805
 7271SOL    HW122712   5.946   5.469   3.860
 7271SOL    HW222713   6.005   5.397   3.727
 7272SOL     OW22714   6.536   2.419   0.896
 7272SOL    HW122715   6.501   2.489   0.959
 7272SOL    HW222716   6.631   2.439   0.873
 7273SOL     OW22717   5.435   5.534   5.534
 7273SOL    HW122718   5.392   5.571   5.617
 7273SOL    HW222719   5.461   5.439   5.551
 7274SOL     OW22720   5.552   4.477   4.490
 7274SOL    HW122721   5.460   4.489   4.452
 7274SOL    HW222722   5.619   4.519   4.429
 7275SOL     OW22723   5.547   6.316   1.517
 7275SOL    HW122724   5.449   6.328   1.528
 7275SOL    HW222725   5.594   6.347   1.599
 7276SOL     OW22726   3.099   2.207   3.628
 7276SOL    HW122727   3.170   2.273   3.602
 7276SOL    HW222728   3.101   2.194   3.727
 7277SOL     OW22729   6.322   1.656   4.074
 7277SOL    HW122730   6.411   1.700   4.083
 7277SOL    HW222731   6.318   1.608   3.986
 7278SOL     OW22732   3.648   2.019   4.002
 7278SOL    HW122733   3.696   2.072   4.073
 7278SOL    HW222734   3.652   1.922   4.026
 7279SOL     OW22735   4.087   3.462   1.222
 7279SOL    HW122736   4.101   3.553   1.182
 7279SOL    HW222737   4.140   3.455   1.307
 7280SOL     OW22738   6.903   1.882   5.164
 7280SOL    HW122739   6.917   1.920   5.072
 7280SOL    HW222740   6.810   1.903   5.195
 7281SOL     OW22741   3.316   6.268   2.782
 7281SOL    HW122742   3.256   6.274   2.862
 7281SOL    HW222743   3.287   6.334   2.713
 7282SOL     OW22744   0.084   3.149   1.190
 7282SOL    HW122745   0.154   3.201   1.238
 7282SOL    HW222746   0.013   3.211   1.157
 7283SOL     OW22747   3.482   5.804   2.675
 7283SOL    HW122748   3.393   5.826   2.637
 7283SOL    HW222749   3.474   5.724   2.735
 7284SOL     OW22750   0.460   0.528   2.620
 7284SOL    HW122751   0.401   0.462   2.667
 7284SOL    HW222752   0.498   0.592   2.686
 7285SOL     OW22753   5.077   2.859   2.026
 7285SOL    HW122754   5.013   2.841   1.952
 7285SOL    HW222755   5.118   2.773   2.058
 7286SOL     OW22756   6.055   1.574   4.153
 7286SOL    HW122757   6.130   1.591   4.088
 7286SOL    HW222758   5.969   1.606   4.113
 7287SOL     OW22759   3.383   1.292   4.407
 7287SOL    HW122760   3.286   1.315   4.416
 7287SOL    HW222761   3.413   1.312   4.314
 7288SOL     OW22762   3.072   1.646   1.828
 7288SOL    HW122763   3.051   1.738   1.797
 7288SOL    HW222764   3.160   1.617   1.792
 7289SOL     OW22765   6.142   2.407   1.845
 7289SOL    HW122766   6.068   2.370   1.902
 7289SOL    HW222767   6.230   2.385   1.886
 7290SOL     OW22768   3.727   1.883   4.879
 7290SOL    HW122769   3.667   1.805   4.861
 7290SOL    HW222770   3.681   1.967   4.848
 7291SOL     OW22771   1.188   1.208   0.596
 7291SOL    HW122772   1.182   1.112   0.622
 7291SOL    HW222773   1.097   1.241   0.570
 7292SOL     OW22774   3.479   1.037   2.692
 7292SOL    HW122775   3.441   0.964   2.749
 7292SOL    HW222776   3.578   1.038   2.701
 7293SOL     OW22777   6.341   1.012   4.513
 7293SOL    HW122778   6.417   0.982   4.455
 7293SOL    HW222779   6.320   1.108   4.493
 7294SOL     OW22780   3.699   0.329   3.117
 7294SOL    HW122781   3.647   0.246   3.140
 7294SOL    HW222782   3.758   0.353   3.194
 7295SOL     OW22783   5.311   4.039   1.459
 7295SOL    HW122784   5.261   3.974   1.402
 7295SOL    HW222785   5.285   4.026   1.555
 7296SOL     OW22786   3.331   6.291   2.056
 7296SOL    HW122787   3.340   6.214   1.993
 7296SOL    HW222788   3.381   6.271   2.140
 7297SOL     OW22789   3.858   6.995   0.427
 7297SOL    HW122790   3.939   0.032   0.402
 7297SOL    HW222791   3.844   6.999   0.526
 7298SOL     OW22792   4.008   5.308   1.138
 7298SOL    HW122793   3.968   5.259   1.060
 7298SOL    HW222794   3.938   5.324   1.207
 7299SOL     OW22795   0.642   3.398   6.431
 7299SOL    HW122796   0.724   3.366   6.382
 7299SOL    HW222797   0.561   3.358   6.389
 7300SOL     OW22798   0.775   3.725   1.563
 7300SOL    HW122799   0.781   3.802   1.627
 7300SOL    HW222800   0.824   3.647   1.601
 7301SOL     OW22801   4.180   2.190   0.327
 7301SOL    HW122802   4.272   2.150   0.319
 7301SOL    HW222803   4.186   2.276   0.378
 7302SOL     OW22804   5.512   2.056   6.198
 7302SOL    HW122805   5.522   1.989   6.124
 7302SOL    HW222806   5.434   2.116   6.178
 7303SOL     OW22807   2.777   2.241   1.551
 7303SOL    HW122808   2.836   2.220   1.473
 7303SOL    HW222809   2.719   2.319   1.529
 7304SOL     OW22810   2.345   6.947   0.731
 7304SOL    HW122811   2.298   6.875   0.782
 7304SOL    HW222812   2.441   6.950   0.757
 7305SOL     OW22813   5.865   0.390   6.417
 7305SOL    HW122814   5.812   0.375   6.501
 7305SOL    HW222815   5.905   0.481   6.419
 7306SOL     OW22816   1.383   3.247   1.474
 7306SOL    HW122817   1.322   3.324   1.496
 7306SOL    HW222818   1.328   3.165   1.460
 7307SOL     OW22819   3.463   6.701   1.621
 7307SOL    HW122820   3.419   6.611   1.629
 7307SOL    HW222821   3.552   6.691   1.577
 7308SOL     OW22822   3.677   1.483   3.068
 7308SOL    HW122823   3.663   1.521   2.977
 7308SOL    HW222824   3.775   1.475   3.087
 7309SOL     OW22825   2.111   5.047   3.731
 7309SOL    HW122826   2.195   5.036   3.679
 7309SOL    HW222827   2.126   5.109   3.807
 7310SOL     OW22828   2.717   3.116   0.046
 7310SOL    HW122829   2.742   3.054   6.986
 7310SOL    HW222830   2.619   3.135   0.042
 7311SOL     OW22831   0.483   6.815   5.962
 7311SOL    HW122832   0.478   6.720   5.933
 7311SOL    HW222833   0.417   6.869   5.910
 7312SOL     OW22834   6.247   2.105   4.728
 7312SOL    HW122835   6.153   2.071   4.738
 7312SOL    HW222836   6.302   2.037   4.680
 7313SOL     OW22837   3.166   0.993   2.722
 7313SOL    HW122838   3.073   1.029   2.710
 7313SOL    HW222839   3.191   0.998   2.819
 7314SOL     OW22840   2.280   5.451   5.188
 7314SOL    HW122841   2.197   5.502   5.164
 7314SOL    HW222842   2.321   5.413   5.105
 7315SOL     OW22843   3.257   5.612   2.900
 7315SOL    HW122844   3.333   5.672   2.922
 7315SOL    HW222845   3.268   5.524   2.947
 7316SOL     OW22846   3.801   0.986   1.618
 7316SOL    HW122847   3.861   1.063   1.640
 7316SOL    HW222848   3.756   0.953   1.701
 7317SOL     OW22849   5.427   2.126   0.668
 7317SOL    HW122850   5.517   2.153   0.633
 7317SOL    HW222851   5.359   2.195   0.641
 7318SOL     OW22852   5.211   6.376   1.263
 7318SOL    HW122853   5.301   6.389   1.222
 7318SOL    HW222854   5.160   6.462   1.261
 7319SOL     OW22855   5.046   5.886   6.782
 7319SOL    HW122856   4.961   5.838   6.761
 7319SOL    HW222857   5.062   5.885   6.880
 7320SOL     OW22858   0.850   3.330   0.015
 7320SOL    HW122859   0.907   3.259   0.057
 7320SOL    HW222860   0.871   3.337   6.933
 7321SOL     OW22861   2.067   2.163   5.613
 7321SOL    HW122862   2.100   2.181   5.521
 7321SOL    HW222863   2.099   2.073   5.643
 7322SOL     OW22864   1.720   1.882   4.144
 7322SOL    HW122865   1.697   1.954   4.209
 7322SOL    HW222866   1.646   1.815   4.140
 7323SOL     OW22867   1.721   1.991   0.883
 7323SOL    HW122868   1.638   1.997   0.828
 7323SOL    HW222869   1.709   2.042   0.968
 7324SOL     OW22870   4.913   3.718   4.589
 7324SOL    HW122871   4.927   3.619   4.591
 7324SOL    HW222872   4.907   3.752   4.683
 7325SOL     OW22873   3.881   1.423   6.266
 7325SOL    HW122874   3.931   1.395   6.348
 7325SOL    HW222875   3.874   1.345   6.204
 7326SOL     OW22876   3.792   6.503   0.527
 7326SOL    HW122877   3.773   6.416   0.572
 7326SOL    HW222878   3.799   6.490   0.428
 7327SOL     OW22879   1.363   4.580   3.363
 7327SOL    HW122880   1.434   4.526   3.319
 7327SOL    HW222881   1.403   4.661   3.405
 7328SOL     OW22882   5.015   5.231   6.198
 7328SOL    HW122883   5.039   5.236   6.295
 7328SOL    HW222884   5.005   5.324   6.162
 7329SOL     OW22885   2.626   3.434   0.999
 7329SOL    HW122886   2.572   3.374   0.940
 7329SOL    HW222887   2.651   3.517   0.948
 7330SOL     OW22888   3.048   3.345   0.820
 7330SOL    HW122889   3.026   3.267   0.760
 7330SOL    HW222890   3.001   3.334   0.908
 7331SOL     OW22891   5.055   1.489   2.059
 7331SOL    HW122892   5.108   1.405   2.075
 7331SOL    HW222893   4.975   1.467   2.003
 7332SOL     OW22894   2.545   6.676   5.380
 7332SOL    HW122895   2.514   6.764   5.343
 7332SOL    HW222896   2.470   6.635   5.433
 7333SOL     OW22897   5.885   0.893   0.912
 7333SOL    HW122898   5.800   0.873   0.961
 7333SOL    HW222899   5.900   0.992   0.910
 7334SOL     OW22900   1.377   4.319   5.042
 7334SOL    HW122901   1.477   4.325   5.048
 7334SOL    HW222902   1.351   4.230   5.005
 7335SOL     OW22903   0.687   3.330   2.620
 7335SOL    HW122904   0.740   3.318   2.536
 7335SOL    HW222905   0.596   3.291   2.609
 7336SOL     OW22906   2.616   0.425   0.932
 7336SOL    HW122907   2.704   0.465   0.960
 7336SOL    HW222908   2.623   0.326   0.933
 7337SOL     OW22909   3.345   0.983   3.638
 7337SOL    HW122910   3.394   0.986   3.551
 7337SOL    HW222911   3.261   1.036   3.630
 7338SOL     OW22912   5.013   4.121   1.210
 7338SOL    HW122913   5.081   4.184   1.248
 7338SOL    HW222914   5.015   4.126   1.110
 7339SOL     OW22915   0.082   6.760   4.387
 7339SOL    HW122916   0.117   6.697   4.318
 7339SOL    HW222917   0.031   6.708   4.456
 7340SOL     OW22918   2.439   6.034   0.162
 7340SOL    HW122919   2.420   6.129   0.139
 7340SOL    HW222920   2.411   6.016   0.256
 7341SOL     OW22921   6.285   5.247   3.687
 7341SOL    HW122922   6.187   5.261   3.674
 7341SOL    HW222923   6.323   5.202   3.606
 7342SOL     OW22924   0.564   5.291   0.432
 7342SOL    HW122925   0.479   5.304   0.381
 7342SOL    HW222926   0.552   5.323   0.526
 7343SOL     OW22927   6.865   2.437   3.327
 7343SOL    HW122928   6.940   2.444   3.261
 7343SOL    HW222929   6.815   2.352   3.312
 7344SOL     OW22930   2.419   0.892   6.611
 7344SOL    HW122931   2.445   0.813   6.556
 7344SOL    HW222932   2.462   0.974   6.573
 7345SOL     OW22933   1.943   6.788   6.610
 7345SOL    HW122934   1.845   6.788   6.588
 7345SOL    HW222935   1.981   6.879   6.594
 7346SOL     OW22936   3.615   5.102   3.158
 7346SOL    HW122937   3.548   5.120   3.230
 7346SOL    HW222938   3.666   5.186   3.138
 7347SOL     OW22939   6.394   2.944   2.923
 7347SOL    HW122940   6.367   2.894   2.841
 7347SOL    HW222941   6.336   3.025   2.933
 7348SOL     OW22942   6.340   1.320   5.961
 7348SOL    HW122943   6.371   1.284   5.873
 7348SOL    HW222944   6.417   1.357   6.012
 7349SOL     OW22945   3.556   1.718   1.163
 7349SOL    HW122946   3.487   1.782   1.198
 7349SOL    HW222947   3.562   1.639   1.223
 7350SOL     OW22948   2.569   0.938   3.243
 7350SOL    HW122949   2.647   0.893   3.199
 7350SOL    HW222950   2.490   0.935   3.181
 7351SOL     OW22951   4.367   4.619   0.614
 7351SOL    HW122952   4.386   4.705   0.565
 7351SOL    HW222953   4.435   4.550   0.588
 7352SOL     OW22954   6.891   0.622   3.506
 7352SOL    HW122955   6.915   0.713   3.538
 7352SOL    HW222956   6.817   0.585   3.562
 7353SOL     OW22957   5.617   1.317   5.651
 7353SOL    HW122958   5.531   1.328   5.701
 7353SOL    HW222959   5.599   1.273   5.563
 7354SOL     OW22960   5.894   4.584   5.053
 7354SOL    HW122961   5.974   4.620   5.100
 7354SOL    HW222962   5.818   4.576   5.118
 7355SOL     OW22963   0.157   5.868   1.159
 7355SOL    HW122964   0.144   5.769   1.157
 7355SOL    HW222965   0.236   5.893   1.103
 7356SOL     OW22966   0.223   2.082   5.838
 7356SOL    HW122967   0.131   2.085   5.876
 7356SOL    HW222968   0.262   2.174   5.838
 7357SOL     OW22969   0.969   1.323   0.511
 7357SOL    HW122970   0.881   1.345   0.552
 7357SOL    HW222971   0.979   1.372   0.424
 7358SOL     OW22972   3.715   0.843   3.783
 7358SOL    HW122973   3.625   0.840   3.826
 7358SOL    HW222974   3.712   0.904   3.704
 7359SOL     OW22975   2.984   3.241   3.950
 7359SOL    HW122976   3.082   3.249   3.972
 7359SOL    HW222977   2.939   3.329   3.964
 7360SOL     OW22978   0.780   3.933   6.614
 7360SOL    HW122979   0.847   3.861   6.598
 7360SOL    HW222980   0.713   3.933   6.540
 7361SOL     OW22981   4.510   6.489   1.531
 7361SOL    HW122982   4.556   6.496   1.443
 7361SOL    HW222983   4.557   6.546   1.598
 7362SOL     OW22984   1.795   6.082   6.406
 7362SOL    HW122985   1.790   6.152   6.477
 7362SOL    HW222986   1.703   6.065   6.369
 7363SOL     OW22987   4.651   3.013   6.469
 7363SOL    HW122988   4.645   3.110   6.491
 7363SOL    HW222989   4.567   2.967   6.498
 7364SOL     OW22990   4.598   0.228   1.153
 7364SOL    HW122991   4.617   0.138   1.113
 7364SOL    HW222992   4.540   0.217   1.234
 7365SOL     OW22993   4.568   0.037   1.458
 7365SOL    HW122994   4.594   6.974   1.403
 7365SOL    HW222995   4.649   0.093   1.477
 7366SOL     OW22996   1.403   0.015   0.409
 7366SOL    HW122997   1.380   6.933   0.402
 7366SOL    HW222998   1.318   0.069   0.412
 7367SOL     OW22999   4.608   3.028   6.976
 7367SOL    HW123000   4.571   2.946   0.003
 7367SOL    HW223001   4.708   3.022   6.972
 7368SOL     OW23002   3.267   2.980   4.250
 7368SOL    HW123003   3.258   2.935   4.339
 7368SOL    HW223004   3.238   3.075   4.258
 7369SOL     OW23005   5.924   0.709   6.368
 7369SOL    HW123006   5.953   0.804   6.360
 7369SOL    HW223007   5.846   0.692   6.308
 7370SOL     OW23008   0.788   6.099   0.853
 7370SOL    HW123009   0.733   6.182   0.845
 7370SOL    HW223010   0.732   6.020   0.828
 7371SOL     OW23011   1.505   4.670   4.902
 7371SOL    HW123012   1.497   4.769   4.892
 7371SOL    HW223013   1.426   4.636   4.953
 7372SOL     OW23014   2.967   0.693   5.182
 7372SOL    HW123015   2.885   0.750   5.175
 7372SOL    HW223016   3.043   0.738   5.134
 7373SOL     OW23017   3.739   0.502   1.121
 7373SOL    HW123018   3.660   0.470   1.068
 7373SOL    HW223019   3.767   0.592   1.088
 7374SOL     OW23020   2.532   3.475   6.412
 7374SOL    HW123021   2.488   3.394   6.373
 7374SOL    HW223022   2.585   3.449   6.492
 7375SOL     OW23023   2.778   6.454   3.180
 7375SOL    HW123024   2.778   6.553   3.168
 7375SOL    HW223025   2.711   6.413   3.119
 7376SOL     OW23026   3.224   3.844   6.415
 7376SOL    HW123027   3.322   3.863   6.415
 7376SOL    HW223028   3.209   3.746   6.423
 7377SOL     OW23029   6.283   5.887   1.653
 7377SOL    HW123030   6.286   5.987   1.650
 7377SOL    HW223031   6.191   5.856   1.631
 7378SOL     OW23032   0.387   2.438   5.380
 7378SOL    HW123033   0.405   2.368   5.312
 7378SOL    HW223034   0.328   2.401   5.452
 7379SOL     OW23035   4.382   0.685   0.668
 7379SOL    HW123036   4.478   0.713   0.671
 7379SOL    HW223037   4.339   0.705   0.757
 7380SOL     OW23038   6.577   2.913   6.372
 7380SOL    HW123039   6.573   3.004   6.413
 7380SOL    HW223040   6.588   2.845   6.444
 7381SOL     OW23041   4.874   2.147   0.400
 7381SOL    HW123042   4.915   2.220   0.455
 7381SOL    HW223043   4.901   2.157   0.305
 7382SOL     OW23044   1.186   5.266   3.803
 7382SOL    HW123045   1.141   5.297   3.887
 7382SOL    HW223046   1.214   5.345   3.748
 7383SOL     OW23047   1.520   4.446   3.027
 7383SOL    HW123048   1.594   4.513   3.026
 7383SOL    HW223049   1.437   4.488   3.063
 7384SOL     OW23050   6.477   2.045   0.714
 7384SOL    HW123051   6.397   2.013   0.665
 7384SOL    HW223052   6.538   2.095   0.652
 7385SOL     OW23053   4.820   0.899   2.215
 7385SOL    HW123054   4.917   0.879   2.227
 7385SOL    HW223055   4.778   0.830   2.158
 7386SOL     OW23056   6.944   2.013   5.956
 7386SOL    HW123057   6.900   2.062   5.881
 7386SOL    HW223058   6.914   1.918   5.955
 7387SOL     OW23059   5.169   6.426   3.839
 7387SOL    HW123060   5.266   6.448   3.831
 7387SOL    HW223061   5.149   6.344   3.785
 7388SOL     OW23062   5.349   3.948   5.239
 7388SOL    HW123063   5.390   3.865   5.201
 7388SOL    HW223064   5.394   4.028   5.200
 7389SOL     OW23065   0.627   3.271   4.667
 7389SOL    HW123066   0.722   3.246   4.680
 7389SOL    HW223067   0.580   3.274   4.756
 7390SOL     OW23068   3.790   0.564   6.422
 7390SOL    HW123069   3.785   0.516   6.335
 7390SOL    HW223070   3.738   0.650   6.416
 7391SOL     OW23071   0.278   4.901   6.805
 7391SOL    HW123072   0.299   4.810   6.842
 7391SOL    HW223073   0.363   4.950   6.788
 7392SOL     OW23074   2.128   4.697   2.165
 7392SOL    HW123075   2.091   4.790   2.172
 7392SOL    HW223076   2.224   4.697   2.193
 7393SOL     OW23077   0.992   3.890   6.945
 7393SOL    HW123078   1.051   3.948   6.889
 7393SOL    HW223079   1.026   3.796   6.942
 7394SOL     OW23080   2.730   2.822   5.817
 7394SOL    HW123081   2.700   2.878   5.895
 7394SOL    HW223082   2.685   2.854   5.734
 7395SOL     OW23083   2.475   0.591   0.181
 7395SOL    HW123084   2.392   0.536   0.169
 7395SOL    HW223085   2.453   0.675   0.230
 7396SOL     OW23086   6.765   6.705   1.733
 7396SOL    HW123087   6.680   6.707   1.787
 7396SOL    HW223088   6.773   6.790   1.681
 7397SOL     OW23089   6.379   3.985   4.323
 7397SOL    HW123090   6.477   3.984   4.303
 7397SOL    HW223091   6.339   3.897   4.299
 7398SOL     OW23092   4.541   6.600   3.212
 7398SOL    HW123093   4.555   6.501   3.210
 7398SOL    HW223094   4.566   6.640   3.124
 7399SOL     OW23095   5.314   4.434   4.691
 7399SOL    HW123096   5.261   4.364   4.645
 7399SOL    HW223097   5.412   4.422   4.671
 7400SOL     OW23098   2.762   4.222   0.417
 7400SOL    HW123099   2.814   4.256   0.338
 7400SOL    HW223100   2.816   4.152   0.464
 7401SOL     OW23101   5.837   2.369   5.010
 7401SOL    HW123102   5.757   2.319   5.044
 7401SOL    HW223103   5.814   2.411   4.922
 7402SOL     OW23104   2.491   5.997   4.322
 7402SOL    HW123105   2.572   6.028   4.372
 7402SOL    HW223106   2.423   5.964   4.387
 7403SOL     OW23107   2.595   2.876   1.719
 7403SOL    HW123108   2.606   2.903   1.623
 7403SOL    HW223109   2.511   2.918   1.755
 7404SOL     OW23110   0.973   1.784   2.793
 7404SOL    HW123111   1.007   1.878   2.796
 7404SOL    HW223112   1.023   1.733   2.724
 7405SOL     OW23113   4.220   4.807   6.278
 7405SOL    HW123114   4.298   4.840   6.332
 7405SOL    HW223115   4.235   4.712   6.252
 7406SOL     OW23116   0.327   6.656   2.561
 7406SOL    HW123117   0.292   6.652   2.654
 7406SOL    HW223118   0.424   6.631   2.560
 7407SOL     OW23119   2.690   0.619   6.215
 7407SOL    HW123120   2.653   0.538   6.261
 7407SOL    HW223121   2.775   0.594   6.167
 7408SOL     OW23122   0.903   3.711   5.176
 7408SOL    HW123123   0.891   3.796   5.124
 7408SOL    HW223124   0.938   3.732   5.267
 7409SOL     OW23125   2.417   6.875   5.240
 7409SOL    HW123126   2.370   6.932   5.173
 7409SOL    HW223127   2.363   6.872   5.324
 7410SOL     OW23128   4.426   5.703   6.298
 7410SOL    HW123129   4.446   5.674   6.205
 7410SOL    HW223130   4.327   5.705   6.313
 7411SOL     OW23131   5.060   4.423   5.811
 7411SOL    HW123132   5.024   4.380   5.729
 7411SOL    HW223133   5.138   4.481   5.787
 7412SOL     OW23134   1.638   1.293   6.343
 7412SOL    HW123135   1.705   1.366   6.353
 7412SOL    HW223136   1.546   1.332   6.345
 7413SOL     OW23137   0.097   3.715   3.859
 7413SOL    HW123138   0.113   3.810   3.832
 7413SOL    HW223139   0.000   3.693   3.846
 7414SOL     OW23140   0.704   4.903   1.398
 7414SOL    HW123141   0.782   4.929   1.455
 7414SOL    HW223142   0.639   4.850   1.452
 7415SOL     OW23143   3.276   1.680   3.337
 7415SOL    HW123144   3.351   1.613   3.339
 7415SOL    HW223145   3.251   1.698   3.242
 7416SOL     OW23146   6.646   0.015   3.152
 7416SOL    HW123147   6.710   7.002   3.081
 7416SOL    HW223148   6.596   6.951   3.187
 7417SOL     OW23149   0.603   4.957   0.946
 7417SOL    HW123150   0.618   4.995   0.855
 7417SOL    HW223151   0.568   4.863   0.937
 7418SOL     OW23152   1.064   3.618   0.030
 7418SOL    HW123153   1.134   3.606   0.101
 7418SOL    HW223154   0.975   3.588   0.065
 7419SOL     OW23155   6.148   1.929   5.350
 7419SOL    HW123156   6.125   2.005   5.290
 7419SOL    HW223157   6.075   1.916   5.417
 7420SOL     OW23158   6.749   5.668   2.712
 7420SOL    HW123159   6.666   5.677   2.766
 7420SOL    HW223160   6.726   5.632   2.621
 7421SOL     OW23161   4.284   1.706   1.442
 7421SOL    HW123162   4.218   1.669   1.376
 7421SOL    HW223163   4.250   1.793   1.478
 7422SOL     OW23164   0.789   1.627   0.394
 7422SOL    HW123165   0.858   1.578   0.341
 7422SOL    HW223166   0.753   1.567   0.466
 7423SOL     OW23167   2.024   4.505   0.147
 7423SOL    HW123168   1.976   4.556   0.219
 7423SOL    HW223169   2.114   4.477   0.181
 7424SOL     OW23170   5.254   0.410   4.624
 7424SOL    HW123171   5.311   0.390   4.703
 7424SOL    HW223172   5.189   0.483   4.648
 7425SOL     OW23173   3.571   6.957   4.959
 7425SOL    HW123174   3.625   0.019   4.991
 7425SOL    HW223175   3.631   6.888   4.920
 7426SOL     OW23176   0.161   1.419   6.249
 7426SOL    HW123177   0.126   1.499   6.201
 7426SOL    HW223178   0.220   1.449   6.324
 7427SOL     OW23179   5.428   5.338   5.029
 7427SOL    HW123180   5.454   5.407   5.097
 7427SOL    HW223181   5.502   5.326   4.963
 7428SOL     OW23182   4.615   1.137   5.572
 7428SOL    HW123183   4.546   1.186   5.519
 7428SOL    HW223184   4.654   1.199   5.641
 7429SOL     OW23185   6.260   6.379   4.178
 7429SOL    HW123186   6.276   6.449   4.109
 7429SOL    HW223187   6.345   6.361   4.228
 7430SOL     OW23188   0.132   4.146   4.217
 7430SOL    HW123189   0.211   4.093   4.185
 7430SOL    HW223190   0.075   4.170   4.139
 7431SOL     OW23191   0.707   3.890   2.473
 7431SOL    HW123192   0.627   3.913   2.417
 7431SOL    HW223193   0.691   3.920   2.567
 7432SOL     OW23194   1.865   6.613   5.169
 7432SOL    HW123195   1.928   6.615   5.246
 7432SOL    HW223196   1.774   6.584   5.200
 7433SOL     OW23197   0.452   6.381   1.062
 7433SOL    HW123198   0.546   6.409   1.044
 7433SOL    HW223199   0.404   6.367   0.975
 7434SOL     OW23200   3.844   6.744   0.297
 7434SOL    HW123201   3.827   6.825   0.354
 7434SOL    HW223202   3.936   6.749   0.258
 7435SOL     OW23203   1.775   6.239   0.281
 7435SOL    HW123204   1.701   6.284   0.331
 7435SOL    HW223205   1.738   6.189   0.203
 7436SOL     OW23206   4.026   3.701   0.067
 7436SOL    HW123207   4.073   3.670   7.000
 7436SOL    HW223208   3.947   3.643   0.084
 7437SOL     OW23209   0.017   6.618   5.402
 7437SOL    HW123210   0.084   6.579   5.465
 7437SOL    HW223211   0.060   6.689   5.346
 7438SOL     OW23212   5.813   4.048   1.338
 7438SOL    HW123213   5.833   4.145   1.323
 7438SOL    HW223214   5.776   4.035   1.429
 7439SOL     OW23215   1.409   5.976   2.656
 7439SOL    HW123216   1.445   6.025   2.736
 7439SOL    HW223217   1.312   5.958   2.669
 7440SOL     OW23218   0.758   1.295   3.761
 7440SOL    HW123219   0.674   1.254   3.727
 7440SOL    HW223220   0.836   1.241   3.730
 7441SOL     OW23221   6.232   0.445   3.592
 7441SOL    HW123222   6.153   0.447   3.653
 7441SOL    HW223223   6.314   0.426   3.646
 7442SOL     OW23224   2.010   0.673   6.065
 7442SOL    HW123225   2.031   0.639   5.973
 7442SOL    HW223226   1.920   0.639   6.094
 7443SOL     OW23227   6.405   2.367   2.000
 7443SOL    HW123228   6.470   2.302   2.040
 7443SOL    HW223229   6.442   2.460   2.008
 7444SOL     OW23230   0.507   2.947   4.889
 7444SOL    HW123231   0.458   2.865   4.860
 7444SOL    HW223232   0.595   2.952   4.841
 7445SOL     OW23233   5.821   2.935   1.564
 7445SOL    HW123234   5.749   2.969   1.625
 7445SOL    HW223235   5.817   2.984   1.477
 7446SOL     OW23236   5.776   3.652   3.097
 7446SOL    HW123237   5.827   3.738   3.107
 7446SOL    HW223238   5.840   3.578   3.078
 7447SOL     OW23239   0.246   3.888   6.222
 7447SOL    HW123240   0.311   3.853   6.156
 7447SOL    HW223241   0.292   3.954   6.282
 7448SOL     OW23242   0.257   6.784   6.431
 7448SOL    HW123243   0.352   6.767   6.455
 7448SOL    HW223244   0.202   6.703   6.452
 7449SOL     OW23245   4.138   0.100   1.728
 7449SOL    HW123246   4.218   0.057   1.685
 7449SOL    HW223247   4.081   0.141   1.657
 7450SOL     OW23248   3.877   1.229   1.840
 7450SOL    HW123249   3.860   1.150   1.900
 7450SOL    HW223250   3.943   1.204   1.769
 7451SOL     OW23251   1.378   0.371   3.046
 7451SOL    HW123252   1.417   0.406   2.961
 7451SOL    HW223253   1.447   0.377   3.119
 7452SOL     OW23254   1.960   6.387   3.403
 7452SOL    HW123255   1.922   6.415   3.491
 7452SOL    HW223256   1.946   6.460   3.336
 7453SOL     OW23257   6.568   4.823   5.496
 7453SOL    HW123258   6.481   4.853   5.458
 7453SOL    HW223259   6.632   4.900   5.499
 7454SOL     OW23260   1.059   3.469   6.664
 7454SOL    HW123261   1.097   3.423   6.583
 7454SOL    HW223262   1.008   3.402   6.718
 7455SOL     OW23263   5.079   0.841   0.946
 7455SOL    HW123264   5.145   0.910   0.975
 7455SOL    HW223265   5.097   0.815   0.851
 7456SOL     OW23266   1.059   3.659   5.942
 7456SOL    HW123267   0.968   3.662   5.898
 7456SOL    HW223268   1.099   3.569   5.930
 7457SOL     OW23269   6.486   6.874   5.845
 7457SOL    HW123270   6.578   6.909   5.832
 7457SOL    HW223271   6.452   6.901   5.936
 7458SOL     OW23272   2.404   0.479   1.185
 7458SOL    HW123273   2.488   0.507   1.230
 7458SOL    HW223274   2.342   0.558   1.179
 7459SOL     OW23275   4.247   6.422   4.739
 7459SOL    HW123276   4.243   6.502   4.799
 7459SOL    HW223277   4.263   6.451   4.645
 7460SOL     OW23278   1.205   5.644   0.075
 7460SOL    HW123279   1.227   5.549   0.094
 7460SOL    HW223280   1.117   5.668   0.115
 7461SOL     OW23281   4.395   0.975   4.309
 7461SOL    HW123282   4.386   1.045   4.380
 7461SOL    HW223283   4.490   0.944   4.305
 7462SOL     OW23284   2.090   1.041   2.962
 7462SOL    HW123285   2.089   1.039   2.862
 7462SOL    HW223286   2.011   1.093   2.995
 7463SOL     OW23287   3.687   3.674   2.260
 7463SOL    HW123288   3.720   3.655   2.352
 7463SOL    HW223289   3.764   3.670   2.196
 7464SOL     OW23290   4.580   6.759   0.051
 7464SOL    HW123291   4.639   6.802   0.120
 7464SOL    HW223292   4.633   6.690   0.001
 7465SOL     OW23293   3.801   0.498   2.745
 7465SOL    HW123294   3.835   0.417   2.791
 7465SOL    HW223295   3.861   0.575   2.764
 7466SOL     OW23296   6.158   6.979   0.290
 7466SOL    HW123297   6.071   6.962   0.337
 7466SOL    HW223298   6.164   0.060   0.266
 7467SOL     OW23299   4.874   1.922   1.035
 7467SOL    HW123300   4.953   1.966   1.077
 7467SOL    HW223301   4.903   1.871   0.955
 7468SOL     OW23302   5.807   3.740   4.164
 7468SOL    HW123303   5.715   3.706   4.149
 7468SOL    HW223304   5.817   3.830   4.122
 7469SOL     OW23305   5.409   0.908   1.853
 7469SOL    HW123306   5.466   0.893   1.934
 7469SOL    HW223307   5.383   0.819   1.815
 7470SOL     OW23308   6.920   3.277   2.868
 7470SOL    HW123309   6.829   3.286   2.828
 7470SOL    HW223310   6.987   3.324   2.811
 7471SOL     OW23311   6.301   4.644   5.548
 7471SOL    HW123312   6.203   4.627   5.540
 7471SOL    HW223313   6.324   4.730   5.503
 7472SOL     OW23314   4.079   5.111   3.147
 7472SOL    HW123315   4.158   5.072   3.099
 7472SOL    HW223316   4.010   5.040   3.160
 7473SOL     OW23317   1.055   3.220   4.941
 7473SOL    HW123318   1.061   3.139   5.000
 7473SOL    HW223319   1.081   3.301   4.994
 7474SOL     OW23320   3.022   1.442   3.375
 7474SOL    HW123321   2.961   1.489   3.312
 7474SOL    HW223322   3.069   1.367   3.327
 7475SOL     OW23323   4.872   0.995   6.526
 7475SOL    HW123324   4.886   0.930   6.601
 7475SOL    HW223325   4.843   1.083   6.563
 7476SOL     OW23326   2.095   6.592   4.872
 7476SOL    HW123327   2.042   6.512   4.899
 7476SOL    HW223328   2.126   6.640   4.953
 7477SOL     OW23329   4.928   3.807   4.119
 7477SOL    HW123330   4.916   3.760   4.032
 7477SOL    HW223331   4.849   3.867   4.135
 7478SOL     OW23332   0.644   4.440   1.594
 7478SOL    HW123333   0.691   4.372   1.538
 7478SOL    HW223334   0.566   4.477   1.543
 7479SOL     OW23335   3.992   0.481   5.206
 7479SOL    HW123336   3.920   0.515   5.267
 7479SOL    HW223337   3.979   0.384   5.190
 7480SOL     OW23338   6.679   5.367   0.566
 7480SOL    HW123339   6.584   5.352   0.537
 7480SOL    HW223340   6.682   5.381   0.665
 7481SOL     OW23341   5.994   6.029   0.344
 7481SOL    HW123342   5.941   5.992   0.420
 7481SOL    HW223343   6.059   6.097   0.379
 7482SOL     OW23344   5.283   0.085   4.769
 7482SOL    HW123345   5.318   7.011   4.740
 7482SOL    HW223346   5.359   0.149   4.779
 7483SOL     OW23347   3.474   0.778   6.080
 7483SOL    HW123348   3.408   0.805   6.009
 7483SOL    HW223349   3.429   0.719   6.147
 7484SOL     OW23350   3.824   0.459   1.763
 7484SOL    HW123351   3.873   0.372   1.767
 7484SOL    HW223352   3.889   0.534   1.779
 7485SOL     OW23353   1.073   0.008   5.082
 7485SOL    HW123354   1.039   0.083   5.140
 7485SOL    HW223355   1.009   7.008   5.007
 7486SOL     OW23356   0.994   1.845   5.337
 7486SOL    HW123357   0.928   1.792   5.391
 7486SOL    HW223358   0.994   1.811   5.242
 7487SOL     OW23359   3.834   5.592   3.226
 7487SOL    HW123360   3.737   5.592   3.246
 7487SOL    HW223361   3.886   5.595   3.311
 7488SOL     OW23362   4.262   0.647   5.241
 7488SOL    HW123363   4.271   0.743   5.265
 7488SOL    HW223364   4.347   0.599   5.264
 7489SOL     OW23365   6.862   3.659   3.809
 7489SOL    HW123366   6.797   3.583   3.811
 7489SOL    HW223367   6.858   3.705   3.720
 7490SOL     OW23368   5.477   0.640   2.930
 7490SOL    HW123369   5.488   0.648   3.029
 7490SOL    HW223370   5.517   0.720   2.886
 7491SOL     OW23371   0.519   6.527   0.230
 7491SOL    HW123372   0.465   6.461   0.178
 7491SOL    HW223373   0.463   6.606   0.252
 7492SOL     OW23374   2.230   1.993   3.471
 7492SOL    HW123375   2.315   2.022   3.426
 7492SOL    HW223376   2.252   1.928   3.544
 7493SOL     OW23377   5.460   5.049   6.734
 7493SOL    HW123378   5.515   5.064   6.652
 7493SOL    HW223379   5.374   5.004   6.709
 7494SOL     OW23380   4.879   2.133   1.400
 7494SOL    HW123381   4.861   2.199   1.328
 7494SOL    HW223382   4.921   2.179   1.478
 7495SOL     OW23383   0.712   2.082   2.419
 7495SOL    HW123384   0.652   2.025   2.476
 7495SOL    HW223385   0.807   2.068   2.446
 7496SOL     OW23386   0.276   5.341   5.897
 7496SOL    HW123387   0.252   5.244   5.890
 7496SOL    HW223388   0.291   5.365   5.992
 7497SOL     OW23389   1.569   4.920   2.394
 7497SOL    HW123390   1.597   4.982   2.467
 7497SOL    HW223391   1.650   4.893   2.341
 7498SOL     OW23392   5.434   2.058   4.513
 7498SOL    HW123393   5.464   2.037   4.420
 7498SOL    HW223394   5.511   2.049   4.575
 7499SOL     OW23395   3.899   4.930   3.957
 7499SOL    HW123396   3.932   4.931   4.051
 7499SOL    HW223397   3.975   4.905   3.896
 7500SOL     OW23398   4.776   4.506   2.051
 7500SOL    HW123399   4.867   4.547   2.065
 7500SOL    HW223400   4.751   4.514   1.955
 7501SOL     OW23401   0.537   4.779   3.564
 7501SOL    HW123402   0.528   4.720   3.644
 7501SOL    HW223403   0.610   4.744   3.506
 7502SOL     OW23404   1.915   2.270   3.918
 7502SOL    HW123405   1.995   2.321   3.888
 7502SOL    HW223406   1.938   2.215   3.998
 7503SOL     OW23407   2.350   2.963   6.823
 7503SOL    HW123408   2.438   2.958   6.775
 7503SOL    HW223409   2.289   2.892   6.789
 7504SOL     OW23410   4.027   5.344   3.849
 7504SOL    HW123411   4.054   5.327   3.944
 7504SOL    HW223412   3.961   5.419   3.847
 7505SOL     OW23413   1.658   1.093   4.321
 7505SOL    HW123414   1.597   1.027   4.365
 7505SOL    HW223415   1.708   1.143   4.391
 7506SOL     OW23416   3.546   1.209   3.410
 7506SOL    HW123417   3.448   1.220   3.398
 7506SOL    HW223418   3.591   1.211   3.320
 7507SOL     OW23419   1.829   6.741   5.770
 7507SOL    HW123420   1.780   6.654   5.778
 7507SOL    HW223421   1.771   6.815   5.804
 7508SOL     OW23422   5.203   5.166   3.738
 7508SOL    HW123423   5.169   5.174   3.832
 7508SOL    HW223424   5.192   5.071   3.708
 7509SOL     OW23425   4.165   3.598   6.196
 7509SOL    HW123426   4.095   3.627   6.131
 7509SOL    HW223427   4.255   3.624   6.163
 7510SOL     OW23428   3.696   3.749   4.990
 7510SOL    HW123429   3.606   3.710   5.008
 7510SOL    HW223430   3.756   3.678   4.952
 7511SOL     OW23431   1.176   0.855   2.222
 7511SOL    HW123432   1.140   0.943   2.250
 7511SOL    HW223433   1.201   0.801   2.303
 7512SOL     OW23434   1.894   2.756   1.539
 7512SOL    HW123435   1.961   2.829   1.537
 7512SOL    HW223436   1.904   2.703   1.623
 7513SOL     OW23437   1.475   3.532   6.264
 7513SOL    HW123438   1.563   3.486   6.270
 7513SOL    HW223439   1.413   3.493   6.333
 7514SOL     OW23440   3.532   5.473   3.601
 7514SOL    HW123441   3.500   5.423   3.521
 7514SOL    HW223442   3.520   5.417   3.683
 7515SOL     OW23443   0.231   4.939   2.766
 7515SOL    HW123444   0.228   4.843   2.794
 7515SOL    HW223445   0.297   4.988   2.823
 7516SOL     OW23446   1.261   2.114   1.647
 7516SOL    HW123447   1.357   2.135   1.633
 7516SOL    HW223448   1.205   2.193   1.622
 7517SOL     OW23449   0.811   4.815   1.141
 7517SOL    HW123450   0.764   4.831   1.228
 7517SOL    HW223451   0.745   4.781   1.074
 7518SOL     OW23452   5.115   4.356   3.404
 7518SOL    HW123453   5.126   4.263   3.439
 7518SOL    HW223454   5.074   4.414   3.475
 7519SOL     OW23455   1.786   0.227   4.065
 7519SOL    HW123456   1.732   0.231   3.982
 7519SOL    HW223457   1.762   0.304   4.125
 7520SOL     OW23458   2.589   0.099   3.641
 7520SOL    HW123459   2.531   0.116   3.561
 7520SOL    HW223460   2.534   0.054   3.712
 7521SOL     OW23461   4.135   3.183   5.411
 7521SOL    HW123462   4.122   3.283   5.410
 7521SOL    HW223463   4.106   3.147   5.500
 7522SOL     OW23464   1.495   0.306   2.546
 7522SOL    HW123465   1.438   0.361   2.484
 7522SOL    HW223466   1.590   0.307   2.513
 7523SOL     OW23467   6.256   6.663   6.408
 7523SOL    HW123468   6.210   6.609   6.338
 7523SOL    HW223469   6.354   6.645   6.406
 7524SOL     OW23470   5.923   0.885   4.673
 7524SOL    HW123471   5.980   0.813   4.711
 7524SOL    HW223472   5.880   0.936   4.748
 7525SOL     OW23473   0.901   7.000   0.689
 7525SOL    HW123474   0.992   7.012   0.728
 7525SOL    HW223475   0.896   0.033   0.602
 7526SOL     OW23476   3.416   3.375   4.940
 7526SOL    HW123477   3.419   3.436   4.861
 7526SOL    HW223478   3.341   3.310   4.929
 7527SOL     OW23479   4.509   5.996   1.988
 7527SOL    HW123480   4.451   5.947   1.922
 7527SOL    HW223481   4.584   6.041   1.940
 7528SOL     OW23482   5.590   3.315   6.847
 7528SOL    HW123483   5.541   3.258   6.912
 7528SOL    HW223484   5.582   3.411   6.874
 7529SOL     OW23485   2.414   6.905   4.780
 7529SOL    HW123486   2.451   6.969   4.712
 7529SOL    HW223487   2.446   6.813   4.759
 7530SOL     OW23488   6.691   2.931   2.896
 7530SOL    HW123489   6.700   2.878   2.981
 7530SOL    HW223490   6.594   2.952   2.880
 7531SOL     OW23491   2.588   1.655   4.744
 7531SOL    HW123492   2.632   1.732   4.698
 7531SOL    HW223493   2.545   1.686   4.828
 7532SOL     OW23494   4.896   4.924   2.401
 7532SOL    HW123495   4.901   5.022   2.417
 7532SOL    HW223496   4.856   4.879   2.481
 7533SOL     OW23497   3.632   0.681   4.983
 7533SOL    HW123498   3.597   0.710   5.073
 7533SOL    HW223499   3.728   0.654   4.992
 7534SOL     OW23500   5.449   6.624   4.390
 7534SOL    HW123501   5.431   6.694   4.459
 7534SOL    HW223502   5.491   6.544   4.433
 7535SOL     OW23503   2.948   4.709   0.646
 7535SOL    HW123504   2.909   4.698   0.737
 7535SOL    HW223505   3.016   4.783   0.648
 7536SOL     OW23506   3.543   5.411   5.505
 7536SOL    HW123507   3.450   5.400   5.472
 7536SOL    HW223508   3.558   5.505   5.533
 7537SOL     OW23509   2.122   4.573   5.485
 7537SOL    HW123510   2.119   4.481   5.446
 7537SOL    HW223511   2.036   4.621   5.465
 7538SOL     OW23512   3.002   3.602   3.891
 7538SOL    HW123513   2.952   3.553   3.820
 7538SOL    HW223514   2.964   3.577   3.981
 7539SOL     OW23515   1.165   2.278   4.681
 7539SOL    HW123516   1.114   2.193   4.666
 7539SOL    HW223517   1.104   2.347   4.720
 7540SOL     OW23518   2.143   1.039   6.820
 7540SOL    HW123519   2.141   0.974   6.744
 7540SOL    HW223520   2.114   1.129   6.787
 7541SOL     OW23521   6.842   2.951   5.133
 7541SOL    HW123522   6.813   2.943   5.038
 7541SOL    HW223523   6.899   2.873   5.158
 7542SOL     OW23524   1.618   0.103   6.107
 7542SOL    HW123525   1.555   0.093   6.030
 7542SOL    HW223526   1.701   0.051   6.090
 7543SOL     OW23527   3.519   2.302   0.427
 7543SOL    HW123528   3.451   2.343   0.488
 7543SOL    HW223529   3.482   2.218   0.387
 7544SOL     OW23530   1.023   1.969   2.439
 7544SOL    HW123531   1.042   1.930   2.348
 7544SOL    HW223532   1.104   2.018   2.472
 7545SOL     OW23533   4.370   0.265   4.226
 7545SOL    HW123534   4.423   0.336   4.181
 7545SOL    HW223535   4.286   0.305   4.263
 7546SOL     OW23536   5.336   6.968   5.858
 7546SOL    HW123537   5.308   6.916   5.777
 7546SOL    HW223538   5.422   0.000   5.838
 7547SOL     OW23539   3.110   0.299   6.922
 7547SOL    HW123540   3.051   0.252   6.857
 7547SOL    HW223541   3.184   0.237   6.950
 7548SOL     OW23542   1.210   3.034   1.399
 7548SOL    HW123543   1.221   2.943   1.438
 7548SOL    HW223544   1.145   3.031   1.323
 7549SOL     OW23545   5.691   1.100   2.857
 7549SOL    HW123546   5.735   1.166   2.918
 7549SOL    HW223547   5.669   1.145   2.770
 7550SOL     OW23548   1.347   5.550   1.158
 7550SOL    HW123549   1.317   5.550   1.062
 7550SOL    HW223550   1.268   5.562   1.217
 7551SOL     OW23551   5.144   4.084   6.682
 7551SOL    HW123552   5.220   4.118   6.627
 7551SOL    HW223553   5.176   4.011   6.743
 7552SOL     OW23554   3.884   5.558   3.802
 7552SOL    HW123555   3.882   5.570   3.703
 7552SOL    HW223556   3.961   5.610   3.840
 7553SOL     OW23557   4.240   4.112   5.985
 7553SOL    HW123558   4.197   4.146   5.901
 7553SOL    HW223559   4.231   4.013   5.990
 7554SOL     OW23560   0.013   1.431   0.807
 7554SOL    HW123561   6.953   1.476   0.855
 7554SOL    HW223562   0.089   1.496   0.796
 7555SOL     OW23563   1.224   6.088   5.932
 7555SOL    HW123564   1.168   6.005   5.926
 7555SOL    HW223565   1.165   6.169   5.927
 7556SOL     OW23566   6.617   3.888   3.409
 7556SOL    HW123567   6.521   3.867   3.426
 7556SOL    HW223568   6.671   3.803   3.414
 7557SOL     OW23569   3.745   3.772   0.893
 7557SOL    HW123570   3.783   3.697   0.839
 7557SOL    HW223571   3.753   3.857   0.842
 7558SOL     OW23572   1.589   2.628   2.979
 7558SOL    HW123573   1.579   2.586   2.889
 7558SOL    HW223574   1.635   2.565   3.041
 7559SOL     OW23575   1.176   5.001   0.005
 7559SOL    HW123576   1.211   4.921   0.053
 7559SOL    HW223577   1.078   4.990   7.004
 7560SOL     OW23578   4.515   0.542   5.287
 7560SOL    HW123579   4.566   0.456   5.298
 7560SOL    HW223580   4.529   0.578   5.195
 7561SOL     OW23581   0.192   3.999   0.273
 7561SOL    HW123582   0.238   3.979   0.186
 7561SOL    HW223583   0.177   4.098   0.280
 7562SOL     OW23584   4.838   6.254   5.019
 7562SOL    HW123585   4.828   6.177   4.955
 7562SOL    HW223586   4.808   6.338   4.974
 7563SOL     OW23587   2.353   1.354   3.570
 7563SOL    HW123588   2.270   1.332   3.520
 7563SOL    HW223589   2.344   1.322   3.665
 7564SOL     OW23590   5.810   5.583   4.042
 7564SOL    HW123591   5.788   5.673   4.006
 7564SOL    HW223592   5.753   5.514   3.996
 7565SOL     OW23593   4.853   5.267   6.808
 7565SOL    HW123594   4.794   5.347   6.825
 7565SOL    HW223595   4.820   5.189   6.861
 7566SOL     OW23596   1.717   5.992   4.641
 7566SOL    HW123597   1.672   5.954   4.723
 7566SOL    HW223598   1.668   6.073   4.611
 7567SOL     OW23599   2.979   3.144   0.628
 7567SOL    HW123600   3.056   3.109   0.575
 7567SOL    HW223601   2.893   3.120   0.582
 7568SOL     OW23602   4.187   4.664   2.692
 7568SOL    HW123603   4.246   4.708   2.625
 7568SOL    HW223604   4.093   4.696   2.681
 7569SOL     OW23605   3.805   7.014   1.838
 7569SOL    HW123606   3.772   0.029   1.748
 7569SOL    HW223607   3.892   0.044   1.859
 7570SOL     OW23608   5.900   5.013   4.974
 7570SOL    HW123609   5.844   5.091   4.945
 7570SOL    HW223610   5.985   5.046   5.014
 7571SOL     OW23611   5.795   4.349   1.356
 7571SOL    HW123612   5.820   4.429   1.301
 7571SOL    HW223613   5.699   4.355   1.381
 7572SOL     OW23614   0.195   1.115   3.334
 7572SOL    HW123615   0.274   1.070   3.376
 7572SOL    HW223616   0.192   1.211   3.363
 7573SOL     OW23617   2.884   5.393   5.498
 7573SOL    HW123618   2.920   5.308   5.534
 7573SOL    HW223619   2.919   5.408   5.405
 7574SOL     OW23620   4.805   6.453   2.007
 7574SOL    HW123621   4.791   6.416   2.099
 7574SOL    HW223622   4.823   6.378   1.944
 7575SOL     OW23623   4.751   2.652   4.524
 7575SOL    HW123624   4.792   2.562   4.511
 7575SOL    HW223625   4.664   2.642   4.572
 7576SOL     OW23626   0.089   3.880   1.528
 7576SOL    HW123627   0.087   3.980   1.525
 7576SOL    HW223628   0.160   3.846   1.467
 7577SOL     OW23629   4.545   0.939   4.883
 7577SOL    HW123630   4.585   0.893   4.803
 7577SOL    HW223631   4.449   0.961   4.864
 7578SOL     OW23632   2.532   4.924   4.569
 7578SOL    HW123633   2.530   4.832   4.529
 7578SOL    HW223634   2.589   4.922   4.651
 7579SOL     OW23635   4.386   2.271   3.552
 7579SOL    HW123636   4.484   2.251   3.564
 7579SOL    HW223637   4.358   2.338   3.620
 7580SOL     OW23638   2.054   3.384   2.157
 7580SOL    HW123639   2.106   3.437   2.090
 7580SOL    HW223640   2.015   3.303   2.113
 7581SOL     OW23641   5.325   0.977   0.941
 7581SOL    HW123642   5.335   1.045   1.014
 7581SOL    HW223643   5.405   0.981   0.881
 7582SOL     OW23644   3.117   2.217   1.082
 7582SOL    HW123645   3.053   2.168   1.022
 7582SOL    HW223646   3.196   2.246   1.029
 7583SOL     OW23647   0.011   3.922   2.736
 7583SOL    HW123648   0.108   3.918   2.756
 7583SOL    HW223649   6.976   3.954   2.816
 7584SOL     OW23650   2.164   1.861   1.505
 7584SOL    HW123651   2.170   1.854   1.405
 7584SOL    HW223652   2.190   1.774   1.547
 7585SOL     OW23653   1.435   5.008   6.205
 7585SOL    HW123654   1.499   5.068   6.157
 7585SOL    HW223655   1.473   4.915   6.208
 7586SOL     OW23656   2.138   1.579   3.016
 7586SOL    HW123657   2.221   1.525   3.030
 7586SOL    HW223658   2.160   1.676   3.030
 7587SOL     OW23659   2.363   0.918   6.137
 7587SOL    HW123660   2.363   0.891   6.041
 7587SOL    HW223661   2.445   0.880   6.182
 7588SOL     OW23662   0.876   4.138   1.891
 7588SOL    HW123663   0.915   4.081   1.818
 7588SOL    HW223664   0.949   4.185   1.939
 7589SOL     OW23665   4.930   6.229   6.582
 7589SOL    HW123666   4.980   6.167   6.643
 7589SOL    HW223667   4.869   6.175   6.524
 7590SOL     OW23668   1.757   0.355   6.410
 7590SOL    HW123669   1.682   0.393   6.463
 7590SOL    HW223670   1.733   0.356   6.313
 7591SOL     OW23671   6.154   5.456   6.691
 7591SOL    HW123672   6.223   5.479   6.622
 7591SOL    HW223673   6.129   5.539   6.741
 7592SOL     OW23674   4.685   5.146   6.004
 7592SOL    HW123675   4.681   5.245   6.013
 7592SOL    HW223676   4.720   5.105   6.088
 7593SOL     OW23677   5.933   4.563   0.501
 7593SOL    HW123678   5.928   4.463   0.500
 7593SOL    HW223679   5.843   4.601   0.477
 7594SOL     OW23680   1.039   6.698   3.800
 7594SOL    HW123681   1.090   6.614   3.816
 7594SOL    HW223682   1.098   6.777   3.816
 7595SOL     OW23683   6.165   2.701   7.005
 7595SOL    HW123684   6.210   2.707   0.079
 7595SOL    HW223685   6.209   2.764   6.942
 7596SOL     OW23686   4.560   4.952   1.924
 7596SOL    HW123687   4.590   4.951   1.828
 7596SOL    HW223688   4.589   4.868   1.969
 7597SOL     OW23689   2.827   5.738   1.674
 7597SOL    HW123690   2.778   5.743   1.761
 7597SOL    HW223691   2.775   5.683   1.609
 7598SOL     OW23692   6.683   0.788   2.196
 7598SOL    HW123693   6.640   0.845   2.266
 7598SOL    HW223694   6.752   0.729   2.238
 7599SOL     OW23695   6.307   2.524   2.481
 7599SOL    HW123696   6.221   2.499   2.524
 7599SOL    HW223697   6.290   2.586   2.404
 7600SOL     OW23698   2.168   1.838   2.726
 7600SOL    HW123699   2.210   1.760   2.680
 7600SOL    HW223700   2.229   1.872   2.798
 7601SOL     OW23701   1.892   0.497   5.258
 7601SOL    HW123702   1.974   0.446   5.285
 7601SOL    HW223703   1.812   0.458   5.303
 7602SOL     OW23704   2.054   3.337   5.145
 7602SOL    HW123705   2.038   3.378   5.236
 7602SOL    HW223706   2.047   3.409   5.075
 7603SOL     OW23707   6.818   1.182   1.861
 7603SOL    HW123708   6.907   1.219   1.887
 7603SOL    HW223709   6.793   1.107   1.922
 7604SOL     OW23710   5.124   5.363   6.855
 7604SOL    HW123711   5.171   5.402   6.776
 7604SOL    HW223712   5.026   5.355   6.835
 7605SOL     OW23713   5.699   3.704   6.018
 7605SOL    HW123714   5.789   3.705   5.974
 7605SOL    HW223715   5.629   3.680   5.950
 7606SOL     OW23716   5.848   1.731   3.488
 7606SOL    HW123717   5.789   1.671   3.435
 7606SOL    HW223718   5.944   1.705   3.474
 7607SOL     OW23719   4.703   6.810   6.095
 7607SOL    HW123720   4.666   6.901   6.076
 7607SOL    HW223721   4.780   6.818   6.158
 7608SOL     OW23722   3.840   3.279   4.494
 7608SOL    HW123723   3.740   3.280   4.496
 7608SOL    HW223724   3.871   3.250   4.403
 7609SOL     OW23725   1.917   2.596   3.413
 7609SOL    HW123726   1.869   2.590   3.501
 7609SOL    HW223727   1.992   2.662   3.421
 7610SOL     OW23728   5.274   0.758   2.178
 7610SOL    HW123729   5.371   0.779   2.171
 7610SOL    HW223730   5.254   0.674   2.127
 7611SOL     OW23731   2.123   1.992   1.751
 7611SOL    HW123732   2.130   1.966   1.655
 7611SOL    HW223733   2.175   2.076   1.766
 7612SOL     OW23734   4.520   1.757   2.790
 7612SOL    HW123735   4.443   1.822   2.791
 7612SOL    HW223736   4.554   1.747   2.697
 7613SOL     OW23737   5.565   0.681   3.229
 7613SOL    HW123738   5.587   0.610   3.295
 7613SOL    HW223739   5.468   0.703   3.234
 7614SOL     OW23740   4.260   1.210   0.494
 7614SOL    HW123741   4.197   1.192   0.570
 7614SOL    HW223742   4.207   1.240   0.414
 7615SOL     OW23743   3.923   4.699   6.057
 7615SOL    HW123744   3.912   4.602   6.081
 7615SOL    HW223745   4.014   4.714   6.018
 7616SOL     OW23746   6.817   4.623   3.227
 7616SOL    HW123747   6.832   4.615   3.128
 7616SOL    HW223748   6.781   4.714   3.248
 7617SOL     OW23749   3.194   6.206   3.036
 7617SOL    HW123750   3.134   6.231   3.112
 7617SOL    HW223751   3.269   6.149   3.070
 7618SOL     OW23752   2.207   2.129   0.573
 7618SOL    HW123753   2.261   2.143   0.655
 7618SOL    HW223754   2.112   2.112   0.598
 7619SOL     OW23755   5.950   3.384   5.805
 7619SOL    HW123756   5.991   3.441   5.877
 7619SOL    HW223757   5.852   3.377   5.821
 7620SOL     OW23758   2.965   6.606   1.711
 7620SOL    HW123759   2.900   6.589   1.637
 7620SOL    HW223760   3.003   6.519   1.743
 7621SOL     OW23761   2.256   2.392   0.917
 7621SOL    HW123762   2.271   2.488   0.939
 7621SOL    HW223763   2.159   2.369   0.928
 7622SOL     OW23764   4.933   1.689   1.247
 7622SOL    HW123765   4.851   1.691   1.190
 7622SOL    HW223766   5.013   1.671   1.190
 7623SOL     OW23767   5.783   0.210   5.330
 7623SOL    HW123768   5.710   0.195   5.397
 7623SOL    HW223769   5.754   0.280   5.265
 7624SOL     OW23770   6.865   1.135   4.336
 7624SOL    HW123771   6.825   1.226   4.350
 7624SOL    HW223772   6.910   1.106   4.421
 7625SOL     OW23773   3.570   5.905   0.622
 7625SOL    HW123774   3.617   5.953   0.548
 7625SOL    HW223775   3.471   5.912   0.608
 7626SOL     OW23776   2.355   4.317   4.617
 7626SOL    HW123777   2.321   4.240   4.671
 7626SOL    HW223778   2.442   4.349   4.655
 7627SOL     OW23779   6.337   1.468   6.719
 7627SOL    HW123780   6.420   1.465   6.774
 7627SOL    HW223781   6.269   1.405   6.758
 7628SOL     OW23782   4.772   1.381   1.020
 7628SOL    HW123783   4.682   1.402   1.060
 7628SOL    HW223784   4.834   1.350   1.091
 7629SOL     OW23785   6.135   5.725   3.298
 7629SOL    HW123786   6.230   5.698   3.286
 7629SOL    HW223787   6.107   5.709   3.393
 7630SOL     OW23788   6.397   1.434   2.137
 7630SOL    HW123789   6.430   1.529   2.134
 7630SOL    HW223790   6.435   1.383   2.060
 7631SOL     OW23791   1.743   1.000   3.253
 7631SOL    HW123792   1.678   0.933   3.291
 7631SOL    HW223793   1.792   0.958   3.176
 7632SOL     OW23794   4.476   0.830   5.964
 7632SOL    HW123795   4.384   0.870   5.965
 7632SOL    HW223796   4.538   0.889   5.912
 7633SOL     OW23797   5.320   4.390   6.473
 7633SOL    HW123798   5.259   4.326   6.426
 7633SOL    HW223799   5.415   4.364   6.457
 7634SOL     OW23800   0.820   2.544   1.779
 7634SOL    HW123801   0.759   2.615   1.743
 7634SOL    HW223802   0.772   2.491   1.848
 7635SOL     OW23803   2.612   5.022   6.092
 7635SOL    HW123804   2.710   5.039   6.102
 7635SOL    HW223805   2.563   5.109   6.084
 7636SOL     OW23806   2.380   0.212   3.458
 7636SOL    HW123807   2.333   0.253   3.536
 7636SOL    HW223808   2.319   0.147   3.413
 7637SOL     OW23809   2.789   6.310   4.324
 7637SOL    HW123810   2.830   6.223   4.350
 7637SOL    HW223811   2.692   6.297   4.304
 7638SOL     OW23812   4.297   4.429   1.742
 7638SOL    HW123813   4.360   4.365   1.786
 7638SOL    HW223814   4.342   4.471   1.663
 7639SOL     OW23815   6.697   2.293   4.235
 7639SOL    HW123816   6.706   2.366   4.167
 7639SOL    HW223817   6.633   2.224   4.201
 7640SOL     OW23818   2.575   3.172   5.636
 7640SOL    HW123819   2.647   3.236   5.610
 7640SOL    HW223820   2.493   3.223   5.661
 7641SOL     OW23821   6.115   2.735   3.211
 7641SOL    HW123822   6.131   2.723   3.112
 7641SOL    HW223823   6.147   2.654   3.259
 7642SOL     OW23824   1.804   1.211   2.795
 7642SOL    HW123825   1.897   1.204   2.828
 7642SOL    HW223826   1.756   1.284   2.843
 7643SOL     OW23827   5.559   2.841   3.260
 7643SOL    HW123828   5.525   2.813   3.170
 7643SOL    HW223829   5.614   2.924   3.250
 7644SOL     OW23830   6.385   3.985   3.662
 7644SOL    HW123831   6.377   3.912   3.594
 7644SOL    HW223832   6.476   3.983   3.702
 7645SOL     OW23833   3.827   2.949   0.101
 7645SOL    HW123834   3.815   2.974   0.005
 7645SOL    HW223835   3.911   2.990   0.136
 7646SOL     OW23836   0.705   1.061   1.767
 7646SOL    HW123837   0.681   0.967   1.744
 7646SOL    HW223838   0.632   1.122   1.737
 7647SOL     OW23839   2.306   4.926   0.334
 7647SOL    HW123840   2.279   4.893   0.244
 7647SOL    HW223841   2.403   4.951   0.334
 7648SOL     OW23842   3.525   0.658   4.225
 7648SOL    HW123843   3.604   0.615   4.268
 7648SOL    HW223844   3.549   0.750   4.196
 7649SOL     OW23845   2.998   1.390   1.255
 7649SOL    HW123846   2.916   1.421   1.302
 7649SOL    HW223847   3.020   1.453   1.181
 7650SOL     OW23848   5.962   4.220   0.520
 7650SOL    HW123849   5.961   4.120   0.525
 7650SOL    HW223850   5.957   4.258   0.612
 7651SOL     OW23851   4.797   2.682   6.260
 7651SOL    HW123852   4.722   2.676   6.326
 7651SOL    HW223853   4.884   2.688   6.309
 7652SOL     OW23854   1.314   3.625   3.154
 7652SOL    HW123855   1.386   3.578   3.102
 7652SOL    HW223856   1.292   3.712   3.110
 7653SOL     OW23857   4.161   2.184   1.823
 7653SOL    HW123858   4.221   2.163   1.900
 7653SOL    HW223859   4.109   2.267   1.842
 7654SOL     OW23860   5.143   3.601   3.929
 7654SOL    HW123861   5.163   3.562   4.019
 7654SOL    HW223862   5.223   3.651   3.896
 7655SOL     OW23863   4.917   5.589   5.204
 7655SOL    HW123864   4.833   5.534   5.213
 7655SOL    HW223865   4.948   5.617   5.295
 7656SOL     OW23866   1.205   6.806   4.287
 7656SOL    HW123867   1.121   6.825   4.237
 7656SOL    HW223868   1.278   6.784   4.222
 7657SOL     OW23869   4.433   1.574   3.974
 7657SOL    HW123870   4.397   1.666   3.959
 7657SOL    HW223871   4.375   1.525   4.039
 7658SOL     OW23872   4.420   0.232   6.387
 7658SOL    HW123873   4.517   0.254   6.373
 7658SOL    HW223874   4.408   0.133   6.387
 7659SOL     OW23875   5.130   6.203   0.007
 7659SOL    HW123876   5.050   6.203   0.068
 7659SOL    HW223877   5.166   6.296   7.015
 7660SOL     OW23878   5.636   4.816   4.459
 7660SOL    HW123879   5.693   4.748   4.412
 7660SOL    HW223880   5.571   4.768   4.519
 7661SOL     OW23881   6.055   3.146   4.045
 7661SOL    HW123882   6.084   3.053   4.066
 7661SOL    HW223883   6.091   3.208   4.116
 7662SOL     OW23884   6.197   5.445   2.788
 7662SOL    HW123885   6.216   5.428   2.691
 7662SOL    HW223886   6.193   5.358   2.837
 7663SOL     OW23887   6.623   5.795   0.104
 7663SOL    HW123888   6.561   5.756   0.035
 7663SOL    HW223889   6.576   5.868   0.152
 7664SOL     OW23890   2.726   5.557   5.198
 7664SOL    HW123891   2.688   5.469   5.229
 7664SOL    HW223892   2.672   5.632   5.236
 7665SOL     OW23893   2.673   5.436   4.009
 7665SOL    HW123894   2.630   5.399   3.927
 7665SOL    HW223895   2.673   5.365   4.080
 7666SOL     OW23896   2.648   0.993   1.600
 7666SOL    HW123897   2.609   0.999   1.508
 7666SOL    HW223898   2.684   1.082   1.627
 7667SOL     OW23899   4.786   6.154   5.983
 7667SOL    HW123900   4.824   6.224   5.923
 7667SOL    HW223901   4.848   6.139   6.060
 7668SOL     OW23902   3.075   3.930   1.461
 7668SOL    HW123903   3.057   3.941   1.559
 7668SOL    HW223904   3.131   3.848   1.447
 7669SOL     OW23905   4.464   6.522   5.087
 7669SOL    HW123906   4.451   6.526   5.186
 7669SOL    HW223907   4.392   6.467   5.046
 7670SOL     OW23908   1.408   5.814   0.822
 7670SOL    HW123909   1.338   5.886   0.817
 7670SOL    HW223910   1.382   5.738   0.763
 7671SOL     OW23911   5.493   2.280   4.830
 7671SOL    HW123912   5.405   2.252   4.793
 7671SOL    HW223913   5.499   2.380   4.828
 7672SOL     OW23914   5.893   0.403   1.876
 7672SOL    HW123915   5.966   0.339   1.900
 7672SOL    HW223916   5.875   0.463   1.954
 7673SOL     OW23917   0.181   3.946   6.765
 7673SOL    HW123918   0.195   4.043   6.745
 7673SOL    HW223919   0.269   3.901   6.778
 7674SOL     OW23920   5.933   0.815   5.206
 7674SOL    HW123921   5.849   0.803   5.258
 7674SOL    HW223922   5.972   0.906   5.226
 7675SOL     OW23923   5.208   6.917   3.110
 7675SOL    HW123924   5.136   6.963   3.161
 7675SOL    HW223925   5.297   6.951   3.140
 7676SOL     OW23926   1.576   0.408   1.432
 7676SOL    HW123927   1.549   0.417   1.528
 7676SOL    HW223928   1.624   0.321   1.420
 7677SOL     OW23929   1.795   2.121   2.752
 7677SOL    HW123930   1.754   2.203   2.714
 7677SOL    HW223931   1.878   2.145   2.802
 7678SOL     OW23932   5.282   6.725   5.984
 7678SOL    HW123933   5.317   6.809   5.943
 7678SOL    HW223934   5.183   6.733   5.997
 7679SOL     OW23935   1.165   5.085   4.743
 7679SOL    HW123936   1.258   5.079   4.706
 7679SOL    HW223937   1.105   5.024   4.691
 7680SOL     OW23938   5.173   1.077   6.571
 7680SOL    HW123939   5.269   1.081   6.546
 7680SOL    HW223940   5.118   1.058   6.489
 7681SOL     OW23941   3.013   2.275   6.227
 7681SOL    HW123942   3.020   2.175   6.217
 7681SOL    HW223943   3.053   2.302   6.315
 7682SOL     OW23944   2.824   6.892   1.387
 7682SOL    HW123945   2.788   6.976   1.346
 7682SOL    HW223946   2.748   6.837   1.421
 7683SOL     OW23947   6.510   1.958   3.086
 7683SOL    HW123948   6.546   1.877   3.132
 7683SOL    HW223949   6.439   1.999   3.143
 7684SOL     OW23950   4.367   2.734   6.228
 7684SOL    HW123951   4.393   2.711   6.134
 7684SOL    HW223952   4.300   2.668   6.262
 7685SOL     OW23953   4.052   3.886   0.903
 7685SOL    HW123954   3.999   3.810   0.941
 7685SOL    HW223955   4.038   3.967   0.959
 7686SOL     OW23956   3.436   0.831   3.833
 7686SOL    HW123957   3.376   0.803   3.908
 7686SOL    HW223958   3.387   0.896   3.774
 7687SOL     OW23959   4.450   4.904   6.384
 7687SOL    HW123960   4.548   4.920   6.393
 7687SOL    HW223961   4.409   4.979   6.332
 7688SOL     OW23962   6.536   0.280   3.137
 7688SOL    HW123963   6.559   0.331   3.221
 7688SOL    HW223964   6.554   0.183   3.151
 7689SOL     OW23965   3.278   6.147   5.002
 7689SOL    HW123966   3.327   6.167   5.087
 7689SOL    HW223967   3.330   6.178   4.924
 7690SOL     OW23968   0.541   5.143   2.087
 7690SOL    HW123969   0.498   5.155   2.177
 7690SOL    HW223970   0.639   5.128   2.099
 7691SOL     OW23971   6.050   3.735   5.617
 7691SOL    HW123972   6.106   3.784   5.549
 7691SOL    HW223973   5.994   3.666   5.571
 7692SOL     OW23974   1.508   6.485   1.413
 7692SOL    HW123975   1.503   6.406   1.474
 7692SOL    HW223976   1.473   6.460   1.323
 7693SOL     OW23977   5.643   1.154   0.620
 7693SOL    HW123978   5.699   1.221   0.668
 7693SOL    HW223979   5.703   1.083   0.581
 7694SOL     OW23980   6.010   5.230   3.958
 7694SOL    HW123981   5.966   5.167   3.894
 7694SOL    HW223982   6.033   5.315   3.910
 7695SOL     OW23983   4.417   0.482   6.604
 7695SOL    HW123984   4.516   0.490   6.591
 7695SOL    HW223985   4.370   0.521   6.526
 7696SOL     OW23986   1.395   4.117   5.657
 7696SOL    HW123987   1.308   4.075   5.685
 7696SOL    HW223988   1.470   4.076   5.709
 7697SOL     OW23989   4.206   1.857   2.273
 7697SOL    HW123990   4.136   1.789   2.295
 7697SOL    HW223991   4.289   1.838   2.326
 7698SOL     OW23992   0.040   2.769   5.572
 7698SOL    HW123993   0.026   2.799   5.666
 7698SOL    HW223994   0.135   2.782   5.546
 7699SOL     OW23995   2.694   4.687   0.444
 7699SOL    HW123996   2.644   4.745   0.508
 7699SOL    HW223997   2.792   4.690   0.465
 7700SOL     OW23998   5.734   6.650   4.371
 7700SOL    HW123999   5.776   6.560   4.361
 7700SOL    HW224000   5.642   6.648   4.333
 7701SOL     OW24001   6.640   2.075   5.303
 7701SOL    HW124002   6.655   2.117   5.213
 7701SOL    HW224003   6.627   2.146   5.371
 7702SOL     OW24004   2.140   6.197   5.981
 7702SOL    HW124005   2.090   6.143   5.913
 7702SOL    HW224006   2.107   6.175   6.073
 7703SOL     OW24007   0.635   2.499   5.514
 7703SOL    HW124008   0.548   2.497   5.466
 7703SOL    HW224009   0.702   2.442   5.466
 7704SOL     OW24010   2.840   4.430   1.068
 7704SOL    HW124011   2.817   4.459   0.976
 7704SOL    HW224012   2.937   4.403   1.072
 7705SOL     OW24013   3.774   4.309   5.308
 7705SOL    HW124014   3.697   4.250   5.332
 7705SOL    HW224015   3.781   4.384   5.374
 7706SOL     OW24016   6.644   0.922   5.189
 7706SOL    HW124017   6.600   0.942   5.277
 7706SOL    HW224018   6.742   0.940   5.197
 7707SOL     OW24019   0.273   5.633   6.469
 7707SOL    HW124020   0.223   5.547   6.454
 7707SOL    HW224021   0.324   5.657   6.386
 7708SOL     OW24022   5.259   1.440   4.475
 7708SOL    HW124023   5.308   1.354   4.463
 7708SOL    HW224024   5.167   1.422   4.510
 7709SOL     OW24025   3.619   2.127   1.620
 7709SOL    HW124026   3.622   2.193   1.694
 7709SOL    HW224027   3.697   2.142   1.558
 7710SOL     OW24028   3.138   2.378   6.471
 7710SOL    HW124029   3.208   2.391   6.542
 7710SOL    HW224030   3.133   2.460   6.414
 7711SOL     OW24031   4.448   6.017   4.941
 7711SOL    HW124032   4.442   6.093   4.877
 7711SOL    HW224033   4.357   5.977   4.953
 7712SOL     OW24034   4.917   4.621   0.233
 7712SOL    HW124035   5.010   4.658   0.241
 7712SOL    HW224036   4.900   4.594   0.138
 7713SOL     OW24037   0.572   5.643   6.333
 7713SOL    HW124038   0.661   5.631   6.378
 7713SOL    HW224039   0.530   5.553   6.318
 7714SOL     OW24040   5.152   3.711   4.218
 7714SOL    HW124041   5.120   3.617   4.225
 7714SOL    HW224042   5.074   3.771   4.200
 7715SOL     OW24043   3.856   2.280   1.769
 7715SOL    HW124044   3.759   2.299   1.788
 7715SOL    HW224045   3.877   2.187   1.797
 7716SOL     OW24046   4.426   2.480   3.741
 7716SOL    HW124047   4.369   2.423   3.801
 7716SOL    HW224048   4.496   2.526   3.796
 7717SOL     OW24049   3.078   0.386   6.641
 7717SOL    HW124050   3.078   0.382   6.541
 7717SOL    HW224051   3.031   0.306   6.678
 7718SOL     OW24052   2.900   6.503   4.468
 7718SOL    HW124053   2.946   6.560   4.399
 7718SOL    HW224054   2.852   6.428   4.422
 7719SOL     OW24055   5.912   2.869   5.130
 7719SOL    HW124056   5.940   2.820   5.212
 7719SOL    HW224057   5.861   2.807   5.070
 7720SOL     OW24058   5.705   6.332   2.028
 7720SOL    HW124059   5.663   6.375   2.108
 7720SOL    HW224060   5.795   6.373   2.012
 7721SOL     OW24061   0.718   4.852   2.858
 7721SOL    HW124062   0.742   4.835   2.762
 7721SOL    HW224063   0.671   4.772   2.895
 7722SOL     OW24064   0.598   6.072   4.475
 7722SOL    HW124065   0.590   6.102   4.570
 7722SOL    HW224066   0.531   6.000   4.457
 7723SOL     OW24067   7.003   2.325   0.568
 7723SOL    HW124068   6.962   2.403   0.520
 7723SOL    HW224069   0.008   2.253   0.503
 7724SOL     OW24070   1.778   5.841   0.492
 7724SOL    HW124071   1.768   5.874   0.585
 7724SOL    HW224072   1.698   5.786   0.467
 7725SOL     OW24073   4.864   3.616   4.313
 7725SOL    HW124074   4.867   3.648   4.408
 7725SOL    HW224075   4.839   3.692   4.254
 7726SOL     OW24076   5.674   4.140   3.542
 7726SOL    HW124077   5.630   4.125   3.631
 7726SOL    HW224078   5.617   4.100   3.470
 7727SOL     OW24079   5.667   3.036   2.026
 7727SOL    HW124080   5.707   3.122   2.057
 7727SOL    HW224081   5.733   2.962   2.037
 7728SOL     OW24082   2.436   2.606   2.272
 7728SOL    HW124083   2.357   2.551   2.298
 7728SOL    HW224084   2.460   2.586   2.177
 7729SOL     OW24085   4.944   2.484   0.168
 7729SOL    HW124086   4.908   2.531   0.248
 7729SOL    HW224087   5.032   2.524   0.143
 7730SOL     OW24088   4.654   0.408   2.214
 7730SOL    HW124089   4.667   0.500   2.250
 7730SOL    HW224090   4.589   0.411   2.138
 7731SOL     OW24091   0.027   2.091   4.662
 7731SOL    HW124092   0.101   2.040   4.705
 7731SOL    HW224093   0.002   2.048   4.575
 7732SOL     OW24094   4.170   5.174   0.511
 7732SOL    HW124095   4.094   5.110   0.502
 7732SOL    HW224096   4.153   5.236   0.588
 7733SOL     OW24097   2.505   6.697   0.947
 7733SOL    HW124098   2.461   6.716   1.034
 7733SOL    HW224099   2.589   6.644   0.962
 7734SOL     OW24100   1.584   2.813   2.398
 7734SOL    HW124101   1.585   2.907   2.433
 7734SOL    HW224102   1.527   2.808   2.317
 7735SOL     OW24103   5.226   4.545   0.784
 7735SOL    HW124104   5.138   4.520   0.744
 7735SOL    HW224105   5.215   4.628   0.838
 7736SOL     OW24106   5.559   4.435   6.149
 7736SOL    HW124107   5.566   4.358   6.212
 7736SOL    HW224108   5.649   4.477   6.137
 7737SOL     OW24109   4.927   2.615   0.570
 7737SOL    HW124110   4.994   2.654   0.633
 7737SOL    HW224111   4.901   2.684   0.502
 7738SOL     OW24112   2.132   5.056   0.116
 7738SOL    HW124113   2.090   4.981   0.065
 7738SOL    HW224114   2.231   5.057   0.100
 7739SOL     OW24115   5.777   3.416   2.775
 7739SOL    HW124116   5.726   3.429   2.690
 7739SOL    HW224117   5.716   3.435   2.853
 7740SOL     OW24118   0.804   5.871   3.649
 7740SOL    HW124119   0.754   5.862   3.735
 7740SOL    HW224120   0.769   5.805   3.583
 7741SOL     OW24121   2.967   5.725   4.862
 7741SOL    HW124122   2.997   5.668   4.938
 7741SOL    HW224123   3.021   5.704   4.780
 7742SOL     OW24124   6.777   0.912   3.890
 7742SOL    HW124125   6.755   0.815   3.903
 7742SOL    HW224126   6.724   0.948   3.813
 7743SOL     OW24127   5.030   2.862   2.476
 7743SOL    HW124128   4.950   2.839   2.421
 7743SOL    HW224129   5.088   2.926   2.426
 7744SOL     OW24130   0.466   6.650   5.097
 7744SOL    HW124131   0.480   6.551   5.102
 7744SOL    HW224132   0.540   6.692   5.044
 7745SOL     OW24133   4.827   3.368   5.276
 7745SOL    HW124134   4.783   3.439   5.221
 7745SOL    HW224135   4.863   3.297   5.216
 7746SOL     OW24136   1.350   0.291   6.694
 7746SOL    HW124137   1.340   0.386   6.665
 7746SOL    HW224138   1.426   0.284   6.759
 7747SOL     OW24139   5.087   5.196   1.181
 7747SOL    HW124140   5.074   5.267   1.111
 7747SOL    HW224141   5.184   5.173   1.187
 7748SOL     OW24142   2.496   3.782   6.058
 7748SOL    HW124143   2.525   3.844   5.985
 7748SOL    HW224144   2.413   3.818   6.102
 7749SOL     OW24145   5.571   4.114   6.020
 7749SOL    HW124146   5.561   4.035   6.080
 7749SOL    HW224147   5.480   4.151   5.999
 7750SOL     OW24148   5.473   5.149   2.909
 7750SOL    HW124149   5.381   5.186   2.893
 7750SOL    HW224150   5.502   5.098   2.828
 7751SOL     OW24151   0.370   2.744   0.895
 7751SOL    HW124152   0.372   2.675   0.967
 7751SOL    HW224153   0.389   2.834   0.934
 7752SOL     OW24154   4.011   1.546   3.397
 7752SOL    HW124155   4.099   1.504   3.418
 7752SOL    HW224156   3.938   1.496   3.443
 7753SOL     OW24157   3.623   2.047   5.261
 7753SOL    HW124158   3.558   2.120   5.241
 7753SOL    HW224159   3.580   1.959   5.243
 7754SOL     OW24160   5.547   5.384   1.677
 7754SOL    HW124161   5.564   5.399   1.775
 7754SOL    HW224162   5.601   5.306   1.645
 7755SOL     OW24163   0.694   5.239   5.092
 7755SOL    HW124164   0.647   5.253   5.005
 7755SOL    HW224165   0.750   5.156   5.086
 7756SOL     OW24166   2.424   4.737   2.179
 7756SOL    HW124167   2.449   4.641   2.196
 7756SOL    HW224168   2.414   4.752   2.081
 7757SOL     OW24169   0.112   4.261   0.929
 7757SOL    HW124170   0.054   4.339   0.908
 7757SOL    HW224171   0.055   4.186   0.964
 7758SOL     OW24172   0.539   1.966   5.064
 7758SOL    HW124173   0.579   1.937   5.152
 7758SOL    HW224174   0.539   2.066   5.059
 7759SOL     OW24175   3.534   1.081   2.431
 7759SOL    HW124176   3.543   1.180   2.435
 7759SOL    HW224177   3.519   1.045   2.523
 7760SOL     OW24178   5.083   3.148   0.118
 7760SOL    HW124179   5.067   3.063   0.067
 7760SOL    HW224180   5.073   3.226   0.056
 7761SOL     OW24181   4.918   5.214   3.498
 7761SOL    HW124182   4.844   5.247   3.440
 7761SOL    HW224183   4.946   5.286   3.561
 7762SOL     OW24184   5.521   1.959   1.833
 7762SOL    HW124185   5.448   2.019   1.802
 7762SOL    HW224186   5.530   1.883   1.768
 7763SOL     OW24187   2.172   0.090   3.019
 7763SOL    HW124188   2.241   0.144   3.066
 7763SOL    HW224189   2.180   0.104   2.920
 7764SOL     OW24190   2.987   4.640   5.533
 7764SOL    HW124191   3.026   4.727   5.563
 7764SOL    HW224192   3.036   4.564   5.575
 7765SOL     OW24193   5.250   4.219   4.527
 7765SOL    HW124194   5.342   4.182   4.513
 7765SOL    HW224195   5.183   4.158   4.484
 7766SOL     OW24196   6.469   2.523   6.466
 7766SOL    HW124197   6.403   2.477   6.407
 7766SOL    HW224198   6.443   2.618   6.478
 7767SOL     OW24199   4.520   0.151   3.971
 7767SOL    HW124200   4.459   0.104   3.907
 7767SOL    HW224201   4.470   0.175   4.054
 7768SOL     OW24202   3.856   5.603   4.605
 7768SOL    HW124203   3.929   5.619   4.671
 7768SOL    HW224204   3.851   5.680   4.542
 7769SOL     OW24205   3.822   2.689   7.006
 7769SOL    HW124206   3.845   2.781   0.021
 7769SOL    HW224207   3.886   2.623   0.031
 7770SOL     OW24208   1.318   3.575   3.901
 7770SOL    HW124209   1.392   3.639   3.882
 7770SOL    HW224210   1.255   3.615   3.967
 7771SOL     OW24211   1.154   4.025   5.430
 7771SOL    HW124212   1.154   4.121   5.459
 7771SOL    HW224213   1.225   4.011   5.360
 7772SOL     OW24214   5.435   6.414   2.216
 7772SOL    HW124215   5.530   6.415   2.248
 7772SOL    HW224216   5.379   6.471   2.276
 7773SOL     OW24217   2.667   0.135   6.576
 7773SOL    HW124218   2.634   0.052   6.622
 7773SOL    HW224219   2.754   0.164   6.616
 7774SOL     OW24220   4.875   1.151   2.304
 7774SOL    HW124221   4.886   1.053   2.322
 7774SOL    HW224222   4.780   1.170   2.280
 7775SOL     OW24223   3.118   1.802   1.114
 7775SOL    HW124224   3.165   1.730   1.165
 7775SOL    HW224225   3.154   1.891   1.141
 7776SOL     OW24226   2.913   1.102   4.257
 7776SOL    HW124227   2.975   1.130   4.184
 7776SOL    HW224228   2.844   1.173   4.272
 7777SOL     OW24229   5.702   5.395   3.218
 7777SOL    HW124230   5.782   5.455   3.210
 7777SOL    HW224231   5.619   5.451   3.225
 7778SOL     OW24232   0.528   4.407   2.539
 7778SOL    HW124233   0.607   4.458   2.573
 7778SOL    HW224234   0.512   4.327   2.597
 7779SOL     OW24235   3.315   6.550   1.975
 7779SOL    HW124236   3.394   6.602   2.008
 7779SOL    HW224237   3.321   6.456   2.008
 7780SOL     OW24238   6.736   5.568   4.228
 7780SOL    HW124239   6.758   5.623   4.147
 7780SOL    HW224240   6.722   5.473   4.201
 7781SOL     OW24241   2.732   3.069   0.543
 7781SOL    HW124242   2.633   3.076   0.538
 7781SOL    HW224243   2.766   3.015   0.467
 7782SOL     OW24244   5.882   3.956   4.845
 7782SOL    HW124245   5.913   4.029   4.784
 7782SOL    HW224246   5.846   3.997   4.929
 7783SOL     OW24247   1.677   6.512   4.116
 7783SOL    HW124248   1.686   6.430   4.173
 7783SOL    HW224249   1.731   6.586   4.156
 7784SOL     OW24250   1.755   1.806   2.329
 7784SOL    HW124251   1.790   1.884   2.277
 7784SOL    HW224252   1.817   1.729   2.319
 7785SOL     OW24253   6.293   5.996   2.901
 7785SOL    HW124254   6.362   5.933   2.938
 7785SOL    HW224255   6.319   6.090   2.922
 7786SOL     OW24256   5.222   0.976   6.195
 7786SOL    HW124257   5.128   0.972   6.230
 7786SOL    HW224258   5.231   0.918   6.115
 7787SOL     OW24259   1.942   2.703   1.085
 7787SOL    HW124260   1.966   2.630   1.021
 7787SOL    HW224261   1.940   2.666   1.178
 7788SOL     OW24262   0.841   3.404   1.635
 7788SOL    HW124263   0.844   3.432   1.731
 7788SOL    HW224264   0.881   3.313   1.626
 7789SOL     OW24265   3.704   1.210   6.133
 7789SOL    HW124266   3.666   1.146   6.066
 7789SOL    HW224267   3.763   1.161   6.197
 7790SOL     OW24268   4.246   5.146   4.146
 7790SOL    HW124269   4.279   5.163   4.053
 7790SOL    HW224270   4.155   5.185   4.157
 7791SOL     OW24271   2.879   5.424   1.699
 7791SOL    HW124272   2.817   5.401   1.774
 7791SOL    HW224273   2.870   5.356   1.626
 7792SOL     OW24274   1.099   1.597   2.630
 7792SOL    HW124275   1.024   1.578   2.566
 7792SOL    HW224276   1.181   1.548   2.600
 7793SOL     OW24277   5.210   1.458   0.885
 7793SOL    HW124278   5.159   1.386   0.839
 7793SOL    HW224279   5.305   1.430   0.897
 7794SOL     OW24280   1.843   0.848   3.034
 7794SOL    HW124281   1.880   0.775   2.977
 7794SOL    HW224282   1.758   0.882   2.994
 7795SOL     OW24283   3.974   4.111   1.465
 7795SOL    HW124284   4.037   4.073   1.397
 7795SOL    HW224285   4.010   4.093   1.557
 7796SOL     OW24286   3.502   1.759   0.339
 7796SOL    HW124287   3.564   1.733   0.413
 7796SOL    HW224288   3.549   1.825   0.279
 7797SOL     OW24289   1.251   5.681   2.790
 7797SOL    HW124290   1.281   5.625   2.713
 7797SOL    HW224291   1.167   5.729   2.767
 7798SOL     OW24292   2.090   3.530   0.875
 7798SOL    HW124293   2.087   3.579   0.788
 7798SOL    HW224294   2.067   3.434   0.860
 7799SOL     OW24295   2.831   6.447   4.723
 7799SOL    HW124296   2.897   6.438   4.797
 7799SOL    HW224297   2.876   6.485   4.643
 7800SOL     OW24298   1.611   1.318   2.493
 7800SOL    HW124299   1.616   1.363   2.404
 7800SOL    HW224300   1.686   1.352   2.551
 7801SOL     OW24301   1.546   2.196   0.537
 7801SOL    HW124302   1.527   2.099   0.550
 7801SOL    HW224303   1.502   2.228   0.453
 7802SOL     OW24304   6.221   4.502   3.748
 7802SOL    HW124305   6.169   4.537   3.826
 7802SOL    HW224306   6.220   4.569   3.674
 7803SOL     OW24307   3.244   2.405   5.625
 7803SOL    HW124308   3.204   2.363   5.544
 7803SOL    HW224309   3.323   2.460   5.600
 7804SOL     OW24310   2.758   1.571   5.316
 7804SOL    HW124311   2.818   1.642   5.278
 7804SOL    HW224312   2.713   1.606   5.397
 7805SOL     OW24313   5.694   3.197   6.633
 7805SOL    HW124314   5.676   3.239   6.722
 7805SOL    HW224315   5.674   3.263   6.560
 7806SOL     OW24316   6.333   1.791   5.241
 7806SOL    HW124317   6.267   1.850   5.288
 7806SOL    HW224318   6.426   1.817   5.268
 7807SOL     OW24319   1.710   5.502   5.673
 7807SOL    HW124320   1.788   5.466   5.724
 7807SOL    HW224321   1.632   5.440   5.682
 7808SOL     OW24322   6.904   3.833   3.599
 7808SOL    HW124323   6.832   3.895   3.630
 7808SOL    HW224324   6.992   3.879   3.603
 7809SOL     OW24325   4.741   6.415   2.260
 7809SOL    HW124326   4.644   6.438   2.270
 7809SOL    HW224327   4.759   6.328   2.306
 7810SOL     OW24328   1.672   6.945   5.823
 7810SOL    HW124329   1.666   6.898   5.911
 7810SOL    HW224330   1.699   0.025   5.838
 7811SOL     OW24331   1.467   6.051   3.131
 7811SOL    HW124332   1.429   5.961   3.153
 7811SOL    HW224333   1.504   6.050   3.038
 7812SOL     OW24334   3.017   1.437   5.783
 7812SOL    HW124335   3.036   1.411   5.878
 7812SOL    HW224336   3.060   1.525   5.764
 7813SOL     OW24337   5.493   0.969   0.733
 7813SOL    HW124338   5.528   1.045   0.678
 7813SOL    HW224339   5.492   0.886   0.677
 7814SOL     OW24340   5.710   2.466   1.994
 7814SOL    HW124341   5.728   2.537   1.926
 7814SOL    HW224342   5.675   2.384   1.948
 7815SOL     OW24343   4.743   5.066   3.606
 7815SOL    HW124344   4.742   5.078   3.705
 7815SOL    HW224345   4.819   5.117   3.566
 7816SOL     OW24346   1.116   1.275   5.285
 7816SOL    HW124347   1.062   1.226   5.353
 7816SOL    HW224348   1.203   1.228   5.271
 7817SOL     OW24349   4.519   2.025   6.682
 7817SOL    HW124350   4.482   2.077   6.759
 7817SOL    HW224351   4.446   1.973   6.638
 7818SOL     OW24352   6.043   1.230   3.321
 7818SOL    HW124353   5.965   1.269   3.369
 7818SOL    HW224354   6.016   1.203   3.229
 7819SOL     OW24355   1.521   2.620   4.831
 7819SOL    HW124356   1.457   2.657   4.898
 7819SOL    HW224357   1.606   2.673   4.834
 7820SOL     OW24358   1.168   1.230   5.683
 7820SOL    HW124359   1.169   1.177   5.768
 7820SOL    HW224360   1.240   1.197   5.622
 7821SOL     OW24361   3.865   5.450   6.833
 7821SOL    HW124362   3.862   5.538   6.881
 7821SOL    HW224363   3.886   5.377   6.898
 7822SOL     OW24364   0.737   1.596   4.517
 7822SOL    HW124365   0.769   1.642   4.600
 7822SOL    HW224366   0.679   1.659   4.464
 7823SOL     OW24367   2.922   3.109   6.017
 7823SOL    HW124368   2.966   3.026   5.984
 7823SOL    HW224369   2.926   3.112   6.117
 7824SOL     OW24370   6.125   3.821   3.175
 7824SOL    HW124371   6.062   3.803   3.250
 7824SOL    HW224372   6.072   3.843   3.092
 7825SOL     OW24373   4.103   3.342   2.978
 7825SOL    HW124374   4.199   3.353   3.005
 7825SOL    HW224375   4.096   3.277   2.903
 7826SOL     OW24376   6.642   0.046   0.995
 7826SOL    HW124377   6.655   0.130   0.942
 7826SOL    HW224378   6.593   0.067   1.079
 7827SOL     OW24379   3.987   3.700   0.351
 7827SOL    HW124380   4.069   3.654   0.385
 7827SOL    HW224381   3.999   3.721   0.254
 7828SOL     OW24382   1.267   6.582   1.228
 7828SOL    HW124383   1.355   6.621   1.257
 7828SOL    HW224384   1.279   6.485   1.209
 7829SOL     OW24385   3.506   3.733   2.854
 7829SOL    HW124386   3.407   3.722   2.842
 7829SOL    HW224387   3.524   3.785   2.937
 7830SOL     OW24388   6.481   3.926   0.489
 7830SOL    HW124389   6.410   3.864   0.456
 7830SOL    HW224390   6.525   3.888   0.570
 7831SOL     OW24391   1.968   2.517   0.267
 7831SOL    HW124392   1.918   2.434   0.292
 7831SOL    HW224393   1.921   2.597   0.304
 7832SOL     OW24394   3.472   2.558   6.064
 7832SOL    HW124395   3.475   2.543   6.163
 7832SOL    HW224396   3.500   2.652   6.044
 7833SOL     OW24397   6.526   6.293   1.784
 7833SOL    HW124398   6.530   6.232   1.705
 7833SOL    HW224399   6.433   6.331   1.792
 7834SOL     OW24400   5.680   0.864   1.076
 7834SOL    HW124401   5.657   0.937   1.141
 7834SOL    HW224402   5.646   0.777   1.109
 7835SOL     OW24403   1.978   2.031   4.174
 7835SOL    HW124404   2.055   1.975   4.203
 7835SOL    HW224405   1.894   1.976   4.177
 7836SOL     OW24406   1.987   0.373   0.311
 7836SOL    HW124407   1.900   0.377   0.359
 7836SOL    HW224408   2.055   0.328   0.369
 7837SOL     OW24409   5.433   5.717   2.453
 7837SOL    HW124410   5.455   5.800   2.402
 7837SOL    HW224411   5.354   5.673   2.411
 7838SOL     OW24412   4.149   6.136   4.147
 7838SOL    HW124413   4.218   6.077   4.105
 7838SOL    HW224414   4.073   6.149   4.084
 7839SOL     OW24415   0.077   4.398   3.645
 7839SOL    HW124416   0.038   4.399   3.737
 7839SOL    HW224417   0.013   4.442   3.582
 7840SOL     OW24418   5.302   3.415   6.155
 7840SOL    HW124419   5.331   3.332   6.107
 7840SOL    HW224420   5.203   3.412   6.168
 7841SOL     OW24421   1.035   2.182   6.374
 7841SOL    HW124422   1.077   2.098   6.407
 7841SOL    HW224423   1.089   2.219   6.299
 7842SOL     OW24424   2.731   0.099   2.717
 7842SOL    HW124425   2.648   0.076   2.665
 7842SOL    HW224426   2.722   0.066   2.811
 7843SOL     OW24427   0.282   2.860   1.953
 7843SOL    HW124428   0.230   2.936   1.992
 7843SOL    HW224429   0.263   2.777   2.005
 7844SOL     OW24430   3.942   2.093   3.566
 7844SOL    HW124431   3.900   2.115   3.654
 7844SOL    HW224432   3.981   2.001   3.571
 7845SOL     OW24433   1.124   1.227   4.238
 7845SOL    HW124434   1.165   1.315   4.215
 7845SOL    HW224435   1.195   1.165   4.272
 7846SOL     OW24436   4.516   6.632   2.470
 7846SOL    HW124437   4.525   6.614   2.568
 7846SOL    HW224438   4.570   6.712   2.444
 7847SOL     OW24439   0.390   0.081   0.253
 7847SOL    HW124440   0.481   0.049   0.279
 7847SOL    HW224441   0.398   0.147   0.179
 7848SOL     OW24442   3.646   4.019   1.637
 7848SOL    HW124443   3.678   3.955   1.707
 7848SOL    HW224444   3.546   4.021   1.637
 7849SOL     OW24445   5.329   4.277   4.976
 7849SOL    HW124446   5.367   4.209   4.914
 7849SOL    HW224447   5.365   4.367   4.952
 7850SOL     OW24448   0.934   2.907   4.515
 7850SOL    HW124449   0.889   2.824   4.480
 7850SOL    HW224450   0.981   2.886   4.600
 7851SOL     OW24451   3.894   6.443   1.192
 7851SOL    HW124452   3.898   6.491   1.105
 7851SOL    HW224453   3.805   6.401   1.204
 7852SOL     OW24454   2.433   0.081   0.126
 7852SOL    HW124455   2.359   0.060   0.190
 7852SOL    HW224456   2.485   0.159   0.159
 7853SOL     OW24457   2.411   2.825   0.248
 7853SOL    HW124458   2.320   2.810   0.286
 7853SOL    HW224459   2.444   2.740   0.206
 7854SOL     OW24460   3.453   4.114   3.612
 7854SOL    HW124461   3.354   4.099   3.608
 7854SOL    HW224462   3.477   4.153   3.700
 7855SOL     OW24463   3.326   0.130   5.094
 7855SOL    HW124464   3.247   0.068   5.098
 7855SOL    HW224465   3.399   0.086   5.042
 7856SOL     OW24466   3.019   3.651   7.002
 7856SOL    HW124467   2.987   3.654   0.081
 7856SOL    HW224468   2.961   3.711   6.946
 7857SOL     OW24469   0.354   3.010   5.694
 7857SOL    HW124470   0.301   3.053   5.621
 7857SOL    HW224471   0.294   2.993   5.773
 7858SOL     OW24472   5.947   3.351   3.004
 7858SOL    HW124473   5.895   3.361   2.919
 7858SOL    HW224474   5.892   3.301   3.071
 7859SOL     OW24475   0.577   6.411   0.533
 7859SOL    HW124476   0.624   6.446   0.453
 7859SOL    HW224477   0.495   6.361   0.504
 7860SOL     OW24478   4.172   6.620   1.624
 7860SOL    HW124479   4.183   6.521   1.620
 7860SOL    HW224480   4.194   6.652   1.716
 7861SOL     OW24481   5.069   3.708   0.672
 7861SOL    HW124482   5.088   3.758   0.756
 7861SOL    HW224483   5.152   3.662   0.642
 7862SOL     OW24484   3.188   4.382   1.515
 7862SOL    HW124485   3.120   4.315   1.545
 7862SOL    HW224486   3.267   4.380   1.578
 7863SOL     OW24487   5.018   5.699   2.802
 7863SOL    HW124488   4.966   5.636   2.743
 7863SOL    HW224489   4.955   5.759   2.850
 7864SOL     OW24490   1.191   5.707   5.049
 7864SOL    HW124491   1.191   5.611   5.020
 7864SOL    HW224492   1.125   5.719   5.123
 7865SOL     OW24493   4.442   0.816   3.439
 7865SOL    HW124494   4.388   0.762   3.374
 7865SOL    HW224495   4.386   0.839   3.518
 7866SOL     OW24496   2.560   2.369   5.477
 7866SOL    HW124497   2.608   2.437   5.532
 7866SOL    HW224498   2.474   2.344   5.521
 7867SOL     OW24499   5.961   3.597   1.325
 7867SOL    HW124500   6.025   3.674   1.324
 7867SOL    HW224501   5.890   3.611   1.256
 7868SOL     OW24502   4.848   0.563   0.446
 7868SOL    HW124503   4.813   0.498   0.378
 7868SOL    HW224504   4.902   0.633   0.400
 7869SOL     OW24505   6.246   1.790   4.304
 7869SOL    HW124506   6.242   1.724   4.229
 7869SOL    HW224507   6.341   1.806   4.329
 7870SOL     OW24508   6.927   0.060   2.985
 7870SOL    HW124509   6.933   0.106   2.896
 7870SOL    HW224510   6.849   0.095   3.036
 7871SOL     OW24511   5.838   3.260   4.241
 7871SOL    HW124512   5.937   3.272   4.230
 7871SOL    HW224513   5.811   3.173   4.199
 7872SOL     OW24514   0.122   4.095   4.475
 7872SOL    HW124515   0.028   4.073   4.500
 7872SOL    HW224516   0.131   4.098   4.376
 7873SOL     OW24517   6.976   5.819   4.864
 7873SOL    HW124518   0.055   5.849   4.877
 7873SOL    HW224519   6.938   5.788   4.951
 7874SOL     OW24520   6.266   0.389   0.738
 7874SOL    HW124521   6.214   0.315   0.782
 7874SOL    HW224522   6.266   0.469   0.798
 7875SOL     OW24523   4.662   3.401   0.235
 7875SOL    HW124524   4.644   3.347   0.317
 7875SOL    HW224525   4.592   3.472   0.226
 7876SOL     OW24526   0.147   1.368   4.882
 7876SOL    HW124527   0.089   1.288   4.867
 7876SOL    HW224528   0.111   1.421   4.960
 7877SOL     OW24529   5.813   2.962   2.827
 7877SOL    HW124530   5.838   2.895   2.758
 7877SOL    HW224531   5.893   2.981   2.885
 7878SOL     OW24532   3.910   3.831   1.646
 7878SOL    HW124533   3.898   3.737   1.678
 7878SOL    HW224534   4.001   3.841   1.605
 7879SOL     OW24535   6.584   1.249   4.643
 7879SOL    HW124536   6.563   1.305   4.724
 7879SOL    HW224537   6.663   1.287   4.597
 7880SOL     OW24538   1.907   6.361   6.500
 7880SOL    HW124539   1.822   6.340   6.548
 7880SOL    HW224540   1.969   6.410   6.561
 7881SOL     OW24541   1.069   5.576   4.334
 7881SOL    HW124542   1.160   5.579   4.374
 7881SOL    HW224543   1.050   5.663   4.287
 7882SOL     OW24544   1.377   5.023   1.719
 7882SOL    HW124545   1.429   5.019   1.804
 7882SOL    HW224546   1.439   5.042   1.642
 7883SOL     OW24547   3.317   1.296   2.718
 7883SOL    HW124548   3.331   1.198   2.710
 7883SOL    HW224549   3.255   1.327   2.646
 7884SOL     OW24550   0.479   3.089   4.201
 7884SOL    HW124551   0.407   3.060   4.139
 7884SOL    HW224552   0.444   3.158   4.264
 7885SOL     OW24553   6.273   5.380   2.525
 7885SOL    HW124554   6.340   5.443   2.488
 7885SOL    HW224555   6.305   5.286   2.513
 7886SOL     OW24556   4.817   4.416   2.776
 7886SOL    HW124557   4.721   4.438   2.759
 7886SOL    HW224558   4.841   4.330   2.730
 7887SOL     OW24559   1.081   3.053   0.908
 7887SOL    HW124560   1.175   3.061   0.940
 7887SOL    HW224561   1.066   2.963   0.867
 7888SOL     OW24562   6.478   1.422   4.846
 7888SOL    HW124563   6.452   1.450   4.938
 7888SOL    HW224564   6.562   1.469   4.819
 7889SOL     OW24565   5.440   4.990   0.773
 7889SOL    HW124566   5.530   4.974   0.814
 7889SOL    HW224567   5.374   4.926   0.811
 7890SOL     OW24568   2.281   2.850   3.275
 7890SOL    HW124569   2.229   2.920   3.324
 7890SOL    HW224570   2.328   2.891   3.197
 7891SOL     OW24571   6.448   1.470   4.489
 7891SOL    HW124572   6.530   1.414   4.499
 7891SOL    HW224573   6.454   1.525   4.406
 7892SOL     OW24574   1.113   1.668   5.102
 7892SOL    HW124575   1.141   1.757   5.066
 7892SOL    HW224576   1.192   1.607   5.107
 7893SOL     OW24577   6.224   6.679   0.873
 7893SOL    HW124578   6.309   6.635   0.899
 7893SOL    HW224579   6.151   6.611   0.869
 7894SOL     OW24580   3.172   0.938   6.963
 7894SOL    HW124581   3.085   0.933   7.012
 7894SOL    HW224582   3.213   0.847   6.959
 7895SOL     OW24583   6.499   6.648   2.649
 7895SOL    HW124584   6.457   6.724   2.698
 7895SOL    HW224585   6.466   6.562   2.687
 7896SOL     OW24586   2.363   1.361   0.432
 7896SOL    HW124587   2.320   1.282   0.389
 7896SOL    HW224588   2.372   1.435   0.366
 7897SOL     OW24589   4.220   1.743   0.727
 7897SOL    HW124590   4.172   1.789   0.652
 7897SOL    HW224591   4.293   1.802   0.761
 7898SOL     OW24592   5.175   6.810   3.419
 7898SOL    HW124593   5.135   6.901   3.431
 7898SOL    HW224594   5.259   6.803   3.473
 7899SOL     OW24595   5.965   4.391   3.646
 7899SOL    HW124596   5.982   4.367   3.742
 7899SOL    HW224597   6.030   4.342   3.588
 7900SOL     OW24598   0.532   3.554   0.282
 7900SOL    HW124599   0.496   3.644   0.309
 7900SOL    HW224600   0.456   3.491   0.267
 7901SOL     OW24601   0.532   2.327   0.089
 7901SOL    HW124602   0.464   2.347   0.017
 7901SOL    HW224603   0.516   2.234   0.123
 7902SOL     OW24604   1.746   6.574   1.532
 7902SOL    HW124605   1.662   6.535   1.493
 7902SOL    HW224606   1.808   6.499   1.557
 7903SOL     OW24607   3.010   1.910   5.608
 7903SOL    HW124608   3.041   1.982   5.670
 7903SOL    HW224609   2.959   1.952   5.532
 7904SOL     OW24610   4.565   2.620   2.644
 7904SOL    HW124611   4.505   2.598   2.720
 7904SOL    HW224612   4.607   2.710   2.659
 7905SOL     OW24613   6.343   2.224   0.957
 7905SOL    HW124614   6.424   2.277   0.934
 7905SOL    HW224615   6.266   2.287   0.971
 7906SOL     OW24616   0.913   5.715   6.868
 7906SOL    HW124617   0.944   5.691   6.960
 7906SOL    HW224618   0.985   5.693   6.802
 7907SOL     OW24619   6.151   6.382   3.112
 7907SOL    HW124620   6.075   6.322   3.136
 7907SOL    HW224621   6.119   6.477   3.110
 7908SOL     OW24622   1.807   0.082   6.382
 7908SOL    HW124623   1.806   0.182   6.392
 7908SOL    HW224624   1.836   0.058   6.289
 7909SOL     OW24625   6.559   3.235   1.145
 7909SOL    HW124626   6.622   3.160   1.166
 7909SOL    HW224627   6.575   3.311   1.208
 7910SOL     OW24628   1.482   4.299   5.491
 7910SOL    HW124629   1.451   4.238   5.564
 7910SOL    HW224630   1.413   4.301   5.419
 7911SOL     OW24631   5.688   4.648   5.794
 7911SOL    HW124632   5.645   4.713   5.855
 7911SOL    HW224633   5.788   4.655   5.803
 7912SOL     OW24634   5.587   5.696   0.596
 7912SOL    HW124635   5.572   5.758   0.673
 7912SOL    HW224636   5.682   5.665   0.595
 7913SOL     OW24637   1.498   5.213   6.712
 7913SOL    HW124638   1.463   5.204   6.806
 7913SOL    HW224639   1.586   5.167   6.705
 7914SOL     OW24640   1.176   6.906   4.532
 7914SOL    HW124641   1.186   6.890   4.434
 7914SOL    HW224642   1.084   6.879   4.561
 7915SOL     OW24643   2.660   4.994   2.346
 7915SOL    HW124644   2.653   4.941   2.261
 7915SOL    HW224645   2.682   5.089   2.325
 7916SOL     OW24646   1.290   0.098   3.664
 7916SOL    HW124647   1.388   0.118   3.655
 7916SOL    HW224648   1.240   0.183   3.678
 7917SOL     OW24649   4.934   2.012   1.712
 7917SOL    HW124650   4.988   2.090   1.679
 7917SOL    HW224651   4.913   1.952   1.635
 7918SOL     OW24652   2.281   2.864   2.934
 7918SOL    HW124653   2.358   2.873   2.870
 7918SOL    HW224654   2.236   2.953   2.944
 7919SOL     OW24655   1.070   6.596   4.705
 7919SOL    HW124656   1.100   6.513   4.751
 7919SOL    HW224657   1.068   6.581   4.606
 7920SOL     OW24658   4.712   0.548   1.347
 7920SOL    HW124659   4.648   0.475   1.371
 7920SOL    HW224660   4.705   0.622   1.414
 7921SOL     OW24661   5.380   2.533   0.988
 7921SOL    HW124662   5.389   2.542   0.888
 7921SOL    HW224663   5.388   2.437   1.013
 7922SOL     OW24664   2.905   0.143   2.460
 7922SOL    HW124665   2.856   0.079   2.520
 7922SOL    HW224666   2.891   0.116   2.365
 7923SOL     OW24667   4.192   1.033   0.079
 7923SOL    HW124668   4.163   0.999   0.169
 7923SOL    HW224669   4.290   1.018   0.067
 7924SOL     OW24670   5.394   5.902   0.162
 7924SOL    HW124671   5.486   5.937   0.180
 7924SOL    HW224672   5.355   5.866   0.247
 7925SOL     OW24673   1.029   5.354   6.514
 7925SOL    HW124674   1.097   5.400   6.571
 7925SOL    HW224675   1.025   5.257   6.538
 7926SOL     OW24676   5.304   6.209   5.744
 7926SOL    HW124677   5.315   6.196   5.646
 7926SOL    HW224678   5.376   6.159   5.792
 7927SOL     OW24679   4.053   0.110   3.339
 7927SOL    HW124680   4.111   0.187   3.312
 7927SOL    HW224681   4.109   0.027   3.344
 7928SOL     OW24682   5.755   1.992   3.423
 7928SOL    HW124683   5.667   1.945   3.424
 7928SOL    HW224684   5.828   1.927   3.442
 7929SOL     OW24685   4.987   4.259   5.580
 7929SOL    HW124686   4.891   4.275   5.559
 7929SOL    HW224687   5.010   4.163   5.562
 7930SOL     OW24688   4.029   6.469   6.302
 7930SOL    HW124689   4.035   6.566   6.277
 7930SOL    HW224690   4.092   6.451   6.378
 7931SOL     OW24691   4.294   1.562   0.996
 7931SOL    HW124692   4.370   1.525   0.942
 7931SOL    HW224693   4.300   1.662   0.997
 7932SOL     OW24694   1.174   3.855   1.564
 7932SOL    HW124695   1.250   3.920   1.571
 7932SOL    HW224696   1.182   3.804   1.478
 7933SOL     OW24697   1.062   1.930   6.974
 7933SOL    HW124698   1.116   1.983   6.908
 7933SOL    HW224699   0.966   1.956   6.966
 7934SOL     OW24700   0.163   5.230   1.107
 7934SOL    HW124701   0.125   5.247   1.198
 7934SOL    HW224702   0.198   5.137   1.102
 7935SOL     OW24703   6.577   3.011   3.167
 7935SOL    HW124704   6.505   2.981   3.104
 7935SOL    HW224705   6.625   3.089   3.128
 7936SOL     OW24706   2.229   5.925   3.595
 7936SOL    HW124707   2.311   5.922   3.652
 7936SOL    HW224708   2.235   6.001   3.531
 7937SOL     OW24709   4.252   1.051   1.311
 7937SOL    HW124710   4.237   0.957   1.280
 7937SOL    HW224711   4.223   1.115   1.239
 7938SOL     OW24712   2.706   0.267   3.086
 7938SOL    HW124713   2.680   0.277   3.182
 7938SOL    HW224714   2.773   0.193   3.077
 7939SOL     OW24715   1.081   0.560   2.935
 7939SOL    HW124716   1.093   0.501   2.855
 7939SOL    HW224717   1.147   0.636   2.930
 7940SOL     OW24718   5.655   1.601   4.834
 7940SOL    HW124719   5.695   1.524   4.785
 7940SOL    HW224720   5.631   1.573   4.927
 7941SOL     OW24721   3.362   6.852   0.899
 7941SOL    HW124722   3.313   6.860   0.812
 7941SOL    HW224723   3.304   6.887   0.973
 7942SOL     OW24724   1.359   4.249   0.772
 7942SOL    HW124725   1.392   4.288   0.858
 7942SOL    HW224726   1.362   4.149   0.778
 7943SOL     OW24727   1.349   6.376   6.201
 7943SOL    HW124728   1.288   6.445   6.240
 7943SOL    HW224729   1.329   6.287   6.244
 7944SOL     OW24730   1.281   1.950   1.436
 7944SOL    HW124731   1.300   1.975   1.531
 7944SOL    HW224732   1.367   1.939   1.387
 7945SOL     OW24733   6.140   3.406   2.827
 7945SOL    HW124734   6.232   3.381   2.858
 7945SOL    HW224735   6.074   3.388   2.899
 7946SOL     OW24736   4.612   2.434   6.487
 7946SOL    HW124737   4.538   2.415   6.552
 7946SOL    HW224738   4.589   2.395   6.398
 7947SOL     OW24739   0.059   3.727   6.111
 7947SOL    HW124740   0.086   3.731   6.014
 7947SOL    HW224741   0.110   3.795   6.163
 7948SOL     OW24742   1.111   5.909   1.300
 7948SOL    HW124743   1.170   5.898   1.380
 7948SOL    HW224744   1.023   5.947   1.329
 7949SOL     OW24745   2.482   5.601   5.669
 7949SOL    HW124746   2.404   5.656   5.638
 7949SOL    HW224747   2.472   5.583   5.767
 7950SOL     OW24748   6.553   4.405   5.893
 7950SOL    HW124749   6.605   4.320   5.904
 7950SOL    HW224750   6.613   4.475   5.855
 7951SOL     OW24751   4.031   6.875   3.213
 7951SOL    HW124752   3.931   6.883   3.214
 7951SOL    HW224753   4.063   6.872   3.119
 7952SOL     OW24754   7.005   4.240   4.837
 7952SOL    HW124755   0.001   4.300   4.757
 7952SOL    HW224756   6.969   4.152   4.807
 7953SOL     OW24757   1.546   0.208   0.057
 7953SOL    HW124758   1.545   0.128   7.012
 7953SOL    HW224759   1.595   0.283   0.012
 7954SOL     OW24760   3.629   3.383   6.971
 7954SOL    HW124761   3.699   3.432   6.920
 7954SOL    HW224762   3.586   3.315   6.911
 7955SOL     OW24763   0.825   1.470   6.304
 7955SOL    HW124764   0.897   1.496   6.368
 7955SOL    HW224765   0.737   1.503   6.337
 7956SOL     OW24766   0.366   6.752   0.338
 7956SOL    HW124767   0.389   6.848   0.326
 7956SOL    HW224768   0.403   6.719   0.425
 7957SOL     OW24769   5.223   1.588   5.714
 7957SOL    HW124770   5.311   1.635   5.711
 7957SOL    HW224771   5.191   1.573   5.620
 7958SOL     OW24772   4.202   2.617   6.850
 7958SOL    HW124773   4.114   2.574   6.832
 7958SOL    HW224774   4.266   2.597   6.776
 7959SOL     OW24775   5.290   2.812   0.054
 7959SOL    HW124776   5.330   2.902   0.075
 7959SOL    HW224777   5.357   2.756   0.007
 7960SOL     OW24778   0.751   1.693   4.804
 7960SOL    HW124779   0.743   1.775   4.747
 7960SOL    HW224780   0.678   1.692   4.872
 7961SOL     OW24781   5.840   0.275   0.541
 7961SOL    HW124782   5.846   0.355   0.481
 7961SOL    HW224783   5.898   0.290   0.621
 7962SOL     OW24784   5.837   0.005   5.128
 7962SOL    HW124785   5.897   0.005   5.048
 7962SOL    HW224786   5.777   0.086   5.124
 7963SOL     OW24787   5.656   6.319   3.444
 7963SOL    HW124788   5.695   6.298   3.534
 7963SOL    HW224789   5.638   6.233   3.395
 7964SOL     OW24790   6.334   3.426   1.210
 7964SOL    HW124791   6.326   3.457   1.305
 7964SOL    HW224792   6.354   3.328   1.209
 7965SOL     OW24793   5.225   2.038   6.243
 7965SOL    HW124794   5.131   2.035   6.276
 7965SOL    HW224795   5.269   1.950   6.260
 7966SOL     OW24796   5.619   3.689   4.980
 7966SOL    HW124797   5.533   3.699   5.030
 7966SOL    HW224798   5.669   3.776   4.982
 7967SOL     OW24799   1.206   4.589   0.342
 7967SOL    HW124800   1.239   4.579   0.248
 7967SOL    HW224801   1.130   4.653   0.343
 7968SOL     OW24802   2.059   2.501   3.800
 7968SOL    HW124803   2.073   2.458   3.711
 7968SOL    HW224804   2.116   2.456   3.868
 7969SOL     OW24805   3.341   4.230   6.861
 7969SOL    HW124806   3.336   4.197   6.766
 7969SOL    HW224807   3.317   4.327   6.864
 7970SOL     OW24808   5.831   2.549   4.360
 7970SOL    HW124809   5.810   2.476   4.424
 7970SOL    HW224810   5.746   2.591   4.329
 7971SOL     OW24811   3.035   1.175   6.747
 7971SOL    HW124812   3.045   1.121   6.664
 7971SOL    HW224813   2.984   1.122   6.815
 7972SOL     OW24814   3.449   4.198   4.640
 7972SOL    HW124815   3.389   4.228   4.714
 7972SOL    HW224816   3.544   4.202   4.671
 7973SOL     OW24817   6.024   4.948   1.847
 7973SOL    HW124818   6.000   5.036   1.889
 7973SOL    HW224819   6.115   4.920   1.879
 7974SOL     OW24820   0.775   3.163   4.325
 7974SOL    HW124821   0.834   3.169   4.405
 7974SOL    HW224822   0.696   3.106   4.346
 7975SOL     OW24823   4.559   0.546   6.957
 7975SOL    HW124824   4.562   0.451   6.925
 7975SOL    HW224825   4.592   0.551   0.036
 7976SOL     OW24826   0.715   0.464   0.266
 7976SOL    HW124827   0.656   0.516   0.205
 7976SOL    HW224828   0.766   0.395   0.214
 7977SOL     OW24829   5.533   5.628   3.231
 7977SOL    HW124830   5.467   5.569   3.278
 7977SOL    HW224831   5.485   5.683   3.162
 7978SOL     OW24832   0.298   3.834   1.378
 7978SOL    HW124833   0.304   3.896   1.300
 7978SOL    HW224834   0.390   3.805   1.405
 7979SOL     OW24835   2.806   2.471   5.273
 7979SOL    HW124836   2.891   2.483   5.324
 7979SOL    HW224837   2.744   2.547   5.293
 7980SOL     OW24838   3.691   5.481   1.801
 7980SOL    HW124839   3.778   5.434   1.819
 7980SOL    HW224840   3.667   5.472   1.705
 7981SOL     OW24841   1.957   3.591   4.375
 7981SOL    HW124842   1.881   3.531   4.352
 7981SOL    HW224843   1.932   3.649   4.453
 7982SOL     OW24844   6.909   1.050   6.065
 7982SOL    HW124845   6.994   1.031   6.113
 7982SOL    HW224846   6.895   1.149   6.059
 7983SOL     OW24847   3.396   0.851   1.752
 7983SOL    HW124848   3.401   0.797   1.667
 7983SOL    HW224849   3.301   0.861   1.780
 7984SOL     OW24850   6.314   2.797   2.700
 7984SOL    HW124851   6.394   2.759   2.654
 7984SOL    HW224852   6.249   2.831   2.632
 7985SOL     OW24853   3.194   2.807   5.248
 7985SOL    HW124854   3.105   2.834   5.283
 7985SOL    HW224855   3.218   2.716   5.284
 7986SOL     OW24856   4.012   0.910   4.084
 7986SOL    HW124857   4.005   0.879   3.989
 7986SOL    HW224858   4.107   0.929   4.106
 7987SOL     OW24859   0.875   3.321   6.282
 7987SOL    HW124860   0.880   3.223   6.301
 7987SOL    HW224861   0.960   3.365   6.310
 7988SOL     OW24862   6.571   0.509   1.164
 7988SOL    HW124863   6.665   0.489   1.138
 7988SOL    HW224864   6.534   0.581   1.106
 7989SOL     OW24865   0.628   4.654   0.991
 7989SOL    HW124866   0.682   4.614   0.917
 7989SOL    HW224867   0.534   4.622   0.985
 7990SOL     OW24868   5.028   5.013   4.744
 7990SOL    HW124869   5.108   4.990   4.799
 7990SOL    HW224870   5.016   5.112   4.741
 7991SOL     OW24871   5.559   0.812   4.576
 7991SOL    HW124872   5.606   0.832   4.662
 7991SOL    HW224873   5.462   0.800   4.593
 7992SOL     OW24874   1.851   0.132   6.793
 7992SOL    HW124875   1.840   0.098   6.886
 7992SOL    HW224876   1.917   0.207   6.792
 7993SOL     OW24877   5.931   5.857   0.561
 7993SOL    HW124878   5.980   5.908   0.632
 7993SOL    HW224879   5.899   5.770   0.598
 7994SOL     OW24880   6.583   0.765   4.594
 7994SOL    HW124881   6.499   0.714   4.575
 7994SOL    HW224882   6.638   0.715   4.660
 7995SOL     OW24883   0.206   5.920   1.556
 7995SOL    HW124884   0.263   5.978   1.497
 7995SOL    HW224885   0.219   5.947   1.651
 7996SOL     OW24886   2.387   6.488   3.261
 7996SOL    HW124887   2.428   6.402   3.292
 7996SOL    HW224888   2.345   6.475   3.172
 7997SOL     OW24889   2.588   1.953   5.993
 7997SOL    HW124890   2.495   1.955   6.031
 7997SOL    HW224891   2.585   1.919   5.899
 7998SOL     OW24892   2.379   1.133   0.934
 7998SOL    HW124893   2.281   1.113   0.931
 7998SOL    HW224894   2.429   1.050   0.959
 7999SOL     OW24895   0.907   0.047   3.776
 7999SOL    HW124896   0.901   0.145   3.756
 7999SOL    HW224897   0.825   0.018   3.824
 8000SOL     OW24898   4.397   5.721   0.764
 8000SOL    HW124899   4.449   5.788   0.817
 8000SOL    HW224900   4.357   5.766   0.684
 8001SOL     OW24901   4.793   4.367   1.573
 8001SOL    HW124902   4.751   4.394   1.659
 8001SOL    HW224903   4.723   4.361   1.502
 8002SOL     OW24904   1.067   0.339   4.548
 8002SOL    HW124905   1.119   0.273   4.494
 8002SOL    HW224906   1.074   0.315   4.645
 8003SOL     OW24907   2.878   5.771   3.193
 8003SOL    HW124908   2.851   5.781   3.288
 8003SOL    HW224909   2.911   5.677   3.177
 8004SOL     OW24910   1.778   3.844   4.035
 8004SOL    HW124911   1.874   3.837   4.011
 8004SOL    HW224912   1.759   3.936   4.071
 8005SOL     OW24913   2.334   0.425   3.798
 8005SOL    HW124914   2.306   0.438   3.893
 8005SOL    HW224915   2.302   0.335   3.766
 8006SOL     OW24916   4.914   5.438   6.015
 8006SOL    HW124917   4.830   5.408   5.971
 8006SOL    HW224918   4.936   5.531   5.984
 8007SOL     OW24919   0.392   0.682   1.262
 8007SOL    HW124920   0.323   0.754   1.270
 8007SOL    HW224921   0.383   0.619   1.340
 8008SOL     OW24922   4.397   5.213   0.355
 8008SOL    HW124923   4.436   5.290   0.405
 8008SOL    HW224924   4.336   5.161   0.415
 8009SOL     OW24925   6.503   1.412   0.506
 8009SOL    HW124926   6.501   1.512   0.505
 8009SOL    HW224927   6.598   1.380   0.499
 8010SOL     OW24928   3.641   0.998   5.992
 8010SOL    HW124929   3.581   0.941   6.049
 8010SOL    HW224930   3.676   0.943   5.916
 8011SOL     OW24931   4.022   1.809   2.667
 8011SOL    HW124932   4.098   1.873   2.659
 8011SOL    HW224933   3.952   1.832   2.599
 8012SOL     OW24934   6.533   0.910   4.347
 8012SOL    HW124935   6.583   0.962   4.277
 8012SOL    HW224936   6.597   0.863   4.406
 8013SOL     OW24937   3.757   0.612   3.166
 8013SOL    HW124938   3.719   0.525   3.136
 8013SOL    HW224939   3.820   0.646   3.097
 8014SOL     OW24940   2.682   2.430   3.089
 8014SOL    HW124941   2.655   2.513   3.042
 8014SOL    HW224942   2.729   2.369   3.025
 8015SOL     OW24943   3.684   0.148   4.517
 8015SOL    HW124944   3.664   0.182   4.424
 8015SOL    HW224945   3.661   0.051   4.522
 8016SOL     OW24946   3.479   2.378   5.443
 8016SOL    HW124947   3.461   2.308   5.373
 8016SOL    HW224948   3.564   2.354   5.491
 8017SOL     OW24949   6.085   5.805   1.481
 8017SOL    HW124950   6.002   5.852   1.450
 8017SOL    HW224951   6.144   5.787   1.402
 8018SOL     OW24952   3.156   3.802   0.905
 8018SOL    HW124953   3.190   3.826   0.996
 8018SOL    HW224954   3.205   3.856   0.836
 8019SOL     OW24955   2.739   3.362   0.531
 8019SOL    HW124956   2.741   3.262   0.526
 8019SOL    HW224957   2.833   3.397   0.536
 8020SOL     OW24958   7.005   0.207   6.593
 8020SOL    HW124959   0.022   0.129   6.541
 8020SOL    HW224960   6.914   0.233   6.561
 8021SOL     OW24961   1.175   3.224   0.320
 8021SOL    HW124962   1.211   3.317   0.326
 8021SOL    HW224963   1.250   3.161   0.302
 8022SOL     OW24964   4.353   0.014   2.277
 8022SOL    HW124965   4.400   0.091   2.321
 8022SOL    HW224966   4.256   0.036   2.266
 8023SOL     OW24967   4.148   5.556   2.378
 8023SOL    HW124968   4.079   5.621   2.345
 8023SOL    HW224969   4.131   5.537   2.474
 8024SOL     OW24970   2.387   0.871   6.957
 8024SOL    HW124971   2.395   0.893   6.860
 8024SOL    HW224972   2.321   0.797   6.969
 8025SOL     OW24973   0.905   6.485   1.516
 8025SOL    HW124974   1.000   6.500   1.543
 8025SOL    HW224975   0.853   6.455   1.596
 8026SOL     OW24976   1.072   6.412   6.458
 8026SOL    HW124977   1.128   6.480   6.410
 8026SOL    HW224978   1.039   6.451   6.544
 8027SOL     OW24979   3.554   1.026   6.584
 8027SOL    HW124980   3.568   1.125   6.580
 8027SOL    HW224981   3.461   1.006   6.614
 8028SOL     OW24982   3.387   6.086   6.464
 8028SOL    HW124983   3.431   6.165   6.421
 8028SOL    HW224984   3.288   6.094   6.455
 8029SOL     OW24985   1.076   0.584   1.896
 8029SOL    HW124986   1.151   0.628   1.945
 8029SOL    HW224987   1.009   0.653   1.868
 8030SOL     OW24988   0.882   4.271   0.981
 8030SOL    HW124989   0.785   4.256   0.966
 8030SOL    HW224990   0.926   4.296   0.894
 8031SOL     OW24991   6.430   0.703   1.726
 8031SOL    HW124992   6.476   0.726   1.812
 8031SOL    HW224993   6.498   0.698   1.652
 8032SOL     OW24994   0.224   2.682   0.221
 8032SOL    HW124995   0.163   2.761   0.230
 8032SOL    HW224996   0.246   2.668   0.124
 8033SOL     OW24997   3.782   4.318   1.661
 8033SOL    HW124998   3.697   4.266   1.651
 8033SOL    HW224999   3.845   4.266   1.719
 8034SOL     OW25000   0.701   0.029   5.789
 8034SOL    HW125001   0.770   0.032   5.862
 8034SOL    HW225002   0.635   6.973   5.809
 8035SOL     OW25003   6.130   6.952   4.315
 8035SOL    HW125004   6.194   0.013   4.306
 8035SOL    HW225005   6.121   6.928   4.412
 8036SOL     OW25006   5.179   3.289   3.824
 8036SOL    HW125007   5.171   3.389   3.823
 8036SOL    HW225008   5.100   3.250   3.870
 8037SOL     OW25009   2.926   1.306   6.066
 8037SOL    HW125010   2.831   1.319   6.037
 8037SOL    HW225011   2.928   1.253   6.151
 8038SOL     OW25012   6.475   5.487   2.199
 8038SOL    HW125013   6.409   5.535   2.141
 8038SOL    HW225014   6.566   5.492   2.158
 8039SOL     OW25015   2.249   2.446   5.167
 8039SOL    HW125016   2.189   2.524   5.186
 8039SOL    HW225017   2.343   2.478   5.159
 8040SOL     OW25018   0.532   6.182   6.346
 8040SOL    HW125019   0.617   6.154   6.301
 8040SOL    HW225020   0.552   6.214   6.439
 8041SOL     OW25021   3.307   1.274   3.315
 8041SOL    HW125022   3.366   1.353   3.296
 8041SOL    HW225023   3.234   1.271   3.246
 8042SOL     OW25024   3.549   3.891   6.040
 8042SOL    HW125025   3.639   3.867   6.077
 8042SOL    HW225026   3.491   3.924   6.114
 8043SOL     OW25027   4.662   5.599   0.386
 8043SOL    HW125028   4.695   5.662   0.456
 8043SOL    HW225029   4.683   5.636   0.295
 8044SOL     OW25030   1.552   2.881   1.275
 8044SOL    HW125031   1.499   2.955   1.234
 8044SOL    HW225032   1.583   2.909   1.366
 8045SOL     OW25033   6.343   3.535   4.563
 8045SOL    HW125034   6.263   3.592   4.581
 8045SOL    HW225035   6.420   3.593   4.536
 8046SOL     OW25036   0.087   4.171   1.450
 8046SOL    HW125037   0.135   4.249   1.489
 8046SOL    HW225038   0.108   4.164   1.352
 8047SOL     OW25039   2.984   6.111   6.905
 8047SOL    HW125040   2.995   6.210   6.917
 8047SOL    HW225041   2.966   6.069   6.994
 8048SOL     OW25042   4.074   2.400   6.090
 8048SOL    HW125043   4.007   2.364   6.026
 8048SOL    HW225044   4.063   2.499   6.098
 8049SOL     OW25045   1.687   1.270   0.516
 8049SOL    HW125046   1.749   1.197   0.489
 8049SOL    HW225047   1.606   1.230   0.560
 8050SOL     OW25048   0.382   5.037   5.985
 8050SOL    HW125049   0.469   5.069   5.948
 8050SOL    HW225050   0.315   5.030   5.912
 8051SOL     OW25051   4.598   6.751   2.991
 8051SOL    HW125052   4.696   6.760   2.977
 8051SOL    HW225053   4.563   6.834   3.034
 8052SOL     OW25054   2.785   2.026   2.684
 8052SOL    HW125055   2.690   2.020   2.654
 8052SOL    HW225056   2.814   2.122   2.683
 8053SOL     OW25057   1.056   2.755   6.858
 8053SOL    HW125058   1.072   2.853   6.849
 8053SOL    HW225059   1.143   2.706   6.852
 8054SOL     OW25060   5.253   3.704   4.799
 8054SOL    HW125061   5.165   3.657   4.791
 8054SOL    HW225062   5.322   3.653   4.747
 8055SOL     OW25063   6.302   0.493   0.109
 8055SOL    HW125064   6.386   0.515   0.059
 8055SOL    HW225065   6.284   0.563   0.177
 8056SOL     OW25066   2.376   1.295   3.855
 8056SOL    HW125067   2.460   1.296   3.800
 8056SOL    HW225068   2.399   1.317   3.950
 8057SOL     OW25069   3.065   2.078   2.114
 8057SOL    HW125070   3.021   2.166   2.096
 8057SOL    HW225071   3.142   2.091   2.176
 8058SOL     OW25072   3.682   6.223   2.118
 8058SOL    HW125073   3.653   6.276   2.198
 8058SOL    HW225074   3.624   6.246   2.040
 8059SOL     OW25075   3.387   2.905   5.436
 8059SOL    HW125076   3.313   2.852   5.394
 8059SOL    HW225077   3.450   2.843   5.482
 8060SOL     OW25078   0.209   0.959   6.077
 8060SOL    HW125079   0.299   0.929   6.111
 8060SOL    HW225080   0.168   1.021   6.144
 8061SOL     OW25081   6.911   1.092   1.613
 8061SOL    HW125082   6.842   1.110   1.542
 8061SOL    HW225083   6.872   1.112   1.703
 8062SOL     OW25084   4.415   4.509   5.867
 8062SOL    HW125085   4.513   4.499   5.846
 8062SOL    HW225086   4.403   4.521   5.965
 8063SOL     OW25087   2.323   4.701   2.999
 8063SOL    HW125088   2.341   4.695   3.097
 8063SOL    HW225089   2.225   4.691   2.982
 8064SOL     OW25090   0.119   1.923   0.543
 8064SOL    HW125091   0.118   1.880   0.453
 8064SOL    HW225092   0.027   1.952   0.568
 8065SOL     OW25093   4.552   6.953   6.846
 8065SOL    HW125094   4.549   6.884   6.918
 8065SOL    HW225095   4.643   6.956   6.806
 8066SOL     OW25096   0.556   0.042   6.127
 8066SOL    HW125097   0.526   0.037   6.222
 8066SOL    HW225098   0.531   6.972   6.080
 8067SOL     OW25099   5.553   0.628   4.354
 8067SOL    HW125100   5.530   0.643   4.258
 8067SOL    HW225101   5.539   0.713   4.405
 8068SOL     OW25102   6.972   3.659   1.695
 8068SOL    HW125103   0.019   3.727   1.655
 8068SOL    HW225104   6.949   3.687   1.788
 8069SOL     OW25105   1.036   2.855   2.479
 8069SOL    HW125106   1.060   2.860   2.382
 8069SOL    HW225107   0.969   2.926   2.501
 8070SOL     OW25108   5.174   3.840   0.894
 8070SOL    HW125109   5.188   3.774   0.968
 8070SOL    HW225110   5.258   3.850   0.842
 8071SOL     OW25111   3.049   0.396   6.084
 8071SOL    HW125112   3.107   0.388   6.002
 8071SOL    HW225113   2.956   0.420   6.057
 8072SOL     OW25114   2.204   2.280   4.964
 8072SOL    HW125115   2.214   2.337   5.045
 8072SOL    HW225116   2.123   2.307   4.914
 8073SOL     OW25117   5.311   0.344   6.899
 8073SOL    HW125118   5.302   0.264   6.840
 8073SOL    HW225119   5.232   0.404   6.887
 8074SOL     OW25120   6.891   0.635   0.421
 8074SOL    HW125121   6.857   0.584   0.343
 8074SOL    HW225122   6.815   0.657   0.483
 8075SOL     OW25123   0.335   0.197   1.463
 8075SOL    HW125124   0.365   0.103   1.482
 8075SOL    HW225125   0.357   0.221   1.369
 8076SOL     OW25126   6.953   6.137   0.556
 8076SOL    HW125127   6.945   6.183   0.467
 8076SOL    HW225128   6.864   6.101   0.583
 8077SOL     OW25129   5.902   4.536   1.204
 8077SOL    HW125130   5.990   4.492   1.224
 8077SOL    HW225131   5.915   4.635   1.196
 8078SOL     OW25132   6.397   1.108   1.448
 8078SOL    HW125133   6.415   1.011   1.429
 8078SOL    HW225134   6.415   1.126   1.545
 8079SOL     OW25135   0.497   1.019   6.825
 8079SOL    HW125136   0.520   1.038   6.921
 8079SOL    HW225137   0.489   0.920   6.812
 8080SOL     OW25138   1.552   3.374   3.475
 8080SOL    HW125139   1.509   3.332   3.555
 8080SOL    HW225140   1.596   3.302   3.421
 8081SOL     OW25141   6.607   0.152   5.131
 8081SOL    HW125142   6.702   0.135   5.107
 8081SOL    HW225143   6.552   0.071   5.112
 8082SOL     OW25144   3.805   2.104   4.452
 8082SOL    HW125145   3.888   2.159   4.459
 8082SOL    HW225146   3.829   2.007   4.459
 8083SOL     OW25147   6.418   2.804   4.201
 8083SOL    HW125148   6.491   2.872   4.204
 8083SOL    HW225149   6.450   2.719   4.244
 8084SOL     OW25150   4.519   1.625   6.012
 8084SOL    HW125151   4.559   1.688   6.078
 8084SOL    HW225152   4.591   1.588   5.952
 8085SOL     OW25153   1.890   5.868   4.314
 8085SOL    HW125154   1.800   5.827   4.294
 8085SOL    HW225155   1.962   5.804   4.286
 8086SOL     OW25156   6.563   1.677   2.831
 8086SOL    HW125157   6.502   1.681   2.752
 8086SOL    HW225158   6.533   1.604   2.893
 8087SOL     OW25159   6.911   1.230   6.527
 8087SOL    HW125160   6.881   1.255   6.435
 8087SOL    HW225161   6.881   1.136   6.547
 8088SOL     OW25162   0.243   0.165   4.903
 8088SOL    HW125163   0.286   0.128   4.985
 8088SOL    HW225164   0.263   0.105   4.825
 8089SOL     OW25165   6.516   1.817   6.921
 8089SOL    HW125166   6.473   1.813   7.011
 8089SOL    HW225167   6.613   1.792   6.930
 8090SOL     OW25168   4.497   2.423   5.116
 8090SOL    HW125169   4.473   2.405   5.021
 8090SOL    HW225170   4.597   2.425   5.125
 8091SOL     OW25171   0.780   4.085   4.476
 8091SOL    HW125172   0.832   4.092   4.561
 8091SOL    HW225173   0.753   4.176   4.445
 8092SOL     OW25174   4.728   0.364   6.013
 8092SOL    HW125175   4.757   0.311   6.093
 8092SOL    HW225176   4.677   0.444   6.043
 8093SOL     OW25177   3.684   6.537   3.746
 8093SOL    HW125178   3.598   6.587   3.736
 8093SOL    HW225179   3.733   6.539   3.659
 8094SOL     OW25180   2.038   3.894   3.916
 8094SOL    HW125181   2.078   3.829   3.981
 8094SOL    HW225182   2.077   3.984   3.932
 8095SOL     OW25183   1.048   4.708   5.144
 8095SOL    HW125184   1.098   4.632   5.104
 8095SOL    HW225185   1.095   4.794   5.124
 8096SOL     OW25186   0.695   4.693   0.461
 8096SOL    HW125187   0.653   4.728   0.376
 8096SOL    HW225188   0.776   4.748   0.483
 8097SOL     OW25189   4.236   6.803   6.837
 8097SOL    HW125190   4.293   6.724   6.813
 8097SOL    HW225191   4.263   6.838   6.927
 8098SOL     OW25192   2.201   5.753   4.782
 8098SOL    HW125193   2.185   5.744   4.684
 8098SOL    HW225194   2.186   5.665   4.827
 8099SOL     OW25195   1.964   4.030   2.446
 8099SOL    HW125196   1.928   3.971   2.374
 8099SOL    HW225197   1.965   4.125   2.414
 8100SOL     OW25198   6.762   0.433   6.906
 8100SOL    HW125199   6.689   0.366   6.906
 8100SOL    HW225200   6.847   0.389   6.877
 8101SOL     OW25201   2.288   5.753   1.069
 8101SOL    HW125202   2.285   5.684   1.141
 8101SOL    HW225203   2.340   5.832   1.102
 8102SOL     OW25204   0.872   4.173   3.892
 8102SOL    HW125205   0.917   4.087   3.911
 8102SOL    HW225206   0.842   4.174   3.796
 8103SOL     OW25207   3.999   0.818   0.856
 8103SOL    HW125208   3.973   0.913   0.872
 8103SOL    HW225209   4.097   0.813   0.836
 8104SOL     OW25210   1.719   5.276   6.960
 8104SOL    HW125211   1.777   5.314   6.888
 8104SOL    HW225212   1.639   5.334   6.973
 8105SOL     OW25213   0.012   6.805   3.603
 8105SOL    HW125214   0.007   6.834   3.699
 8105SOL    HW225215   0.096   6.841   3.562
 8106SOL     OW25216   2.663   6.535   6.325
 8106SOL    HW125217   2.649   6.477   6.245
 8106SOL    HW225218   2.669   6.631   6.297
 8107SOL     OW25219   1.294   6.491   6.948
 8107SOL    HW125220   1.315   6.550   0.011
 8107SOL    HW225221   1.335   6.528   6.865
 8108SOL     OW25222   1.354   1.443   6.911
 8108SOL    HW125223   1.333   1.367   6.973
 8108SOL    HW225224   1.276   1.505   6.908
 8109SOL     OW25225   6.208   2.812   1.951
 8109SOL    HW125226   6.304   2.790   1.965
 8109SOL    HW225227   6.186   2.806   1.854
 8110SOL     OW25228   4.151   4.881   0.688
 8110SOL    HW125229   4.151   4.791   0.731
 8110SOL    HW225230   4.178   4.950   0.755
 8111SOL     OW25231   6.399   0.799   2.690
 8111SOL    HW125232   6.370   0.788   2.785
 8111SOL    HW225233   6.327   0.847   2.639
 8112SOL     OW25234   1.768   5.200   6.260
 8112SOL    HW125235   1.771   5.263   6.337
 8112SOL    HW225236   1.786   5.107   6.292
 8113SOL     OW25237   4.793   5.043   6.234
 8113SOL    HW125238   4.869   5.107   6.248
 8113SOL    HW225239   4.819   4.953   6.269
 8114SOL     OW25240   1.970   3.613   2.712
 8114SOL    HW125241   1.933   3.556   2.639
 8114SOL    HW225242   2.044   3.670   2.675
 8115SOL     OW25243   2.530   1.024   5.680
 8115SOL    HW125244   2.501   1.016   5.584
 8115SOL    HW225245   2.567   1.115   5.696
 8116SOL     OW25246   3.994   3.289   1.700
 8116SOL    HW125247   4.049   3.366   1.733
 8116SOL    HW225248   4.013   3.209   1.757
 8117SOL     OW25249   2.230   6.820   3.849
 8117SOL    HW125250   2.136   6.844   3.873
 8117SOL    HW225251   2.254   6.732   3.891
 8118SOL     OW25252   6.634   3.138   6.908
 8118SOL    HW125253   6.625   3.113   7.004
 8118SOL    HW225254   6.730   3.160   6.888
 8119SOL     OW25255   5.350   6.420   6.754
 8119SOL    HW125256   5.434   6.475   6.752
 8119SOL    HW225257   5.371   6.329   6.789
 8120SOL     OW25258   2.246   6.267   2.371
 8120SOL    HW125259   2.330   6.320   2.376
 8120SOL    HW225260   2.210   6.253   2.463
 8121SOL     OW25261   1.518   2.424   2.274
 8121SOL    HW125262   1.482   2.442   2.366
 8121SOL    HW225263   1.489   2.497   2.212
 8122SOL     OW25264   0.412   4.231   1.385
 8122SOL    HW125265   0.450   4.287   1.311
 8122SOL    HW225266   0.443   4.137   1.374
 8123SOL     OW25267   6.794   2.193   0.007
 8123SOL    HW125268   6.814   2.109   6.972
 8123SOL    HW225269   6.879   2.228   0.048
 8124SOL     OW25270   6.097   6.109   5.711
 8124SOL    HW125271   6.105   6.101   5.612
 8124SOL    HW225272   6.187   6.105   5.753
 8125SOL     OW25273   1.184   5.674   2.251
 8125SOL    HW125274   1.267   5.701   2.301
 8125SOL    HW225275   1.181   5.724   2.164
 8126SOL     OW25276   3.468   5.729   5.259
 8126SOL    HW125277   3.378   5.700   5.228
 8126SOL    HW225278   3.511   5.785   5.188
 8127SOL     OW25279   3.922   1.662   6.137
 8127SOL    HW125280   3.911   1.581   6.194
 8127SOL    HW225281   3.957   1.635   6.048
 8128SOL     OW25282   2.988   2.859   1.326
 8128SOL    HW125283   3.020   2.869   1.232
 8128SOL    HW225284   3.049   2.797   1.376
 8129SOL     OW25285   0.564   2.242   2.667
 8129SOL    HW125286   0.556   2.241   2.766
 8129SOL    HW225287   0.553   2.149   2.632
 8130SOL     OW25288   6.654   6.055   6.937
 8130SOL    HW125289   6.655   6.089   0.016
 8130SOL    HW225290   6.559   6.043   6.907
 8131SOL     OW25291   1.544   2.483   0.322
 8131SOL    HW125292   1.513   2.566   0.368
 8131SOL    HW225293   1.466   2.422   0.309
 8132SOL     OW25294   6.417   1.965   4.977
 8132SOL    HW125295   6.357   1.994   5.052
 8132SOL    HW225296   6.362   1.949   4.895
 8133SOL     OW25297   3.324   5.008   1.265
 8133SOL    HW125298   3.374   4.981   1.346
 8133SOL    HW225299   3.388   5.037   1.194
 8134SOL     OW25300   5.625   2.396   5.641
 8134SOL    HW125301   5.660   2.481   5.681
 8134SOL    HW225302   5.545   2.365   5.692
 8135SOL     OW25303   2.686   6.686   1.741
 8135SOL    HW125304   2.747   6.761   1.767
 8135SOL    HW225305   2.701   6.609   1.802
 8136SOL     OW25306   4.699   4.565   2.310
 8136SOL    HW125307   4.753   4.515   2.378
 8136SOL    HW225308   4.713   4.524   2.220
 8137SOL     OW25309   4.414   2.138   6.061
 8137SOL    HW125310   4.357   2.072   6.110
 8137SOL    HW225311   4.503   2.097   6.040
 8138SOL     OW25312   5.213   1.233   2.064
 8138SOL    HW125313   5.217   1.268   2.157
 8138SOL    HW225314   5.303   1.238   2.022
 8139SOL     OW25315   0.307   1.759   3.198
 8139SOL    HW125316   0.344   1.666   3.203
 8139SOL    HW225317   0.326   1.808   3.283
 8140SOL     OW25318   5.033   2.678   3.072
 8140SOL    HW125319   5.080   2.637   2.994
 8140SOL    HW225320   5.089   2.753   3.108
 8141SOL     OW25321   5.545   3.791   4.015
 8141SOL    HW125322   5.543   3.857   3.940
 8141SOL    HW225323   5.531   3.699   3.978
 8142SOL     OW25324   6.927   6.225   0.301
 8142SOL    HW125325   6.989   6.273   0.238
 8142SOL    HW225326   6.843   6.278   0.312
 8143SOL     OW25327   6.339   3.462   5.378
 8143SOL    HW125328   6.409   3.399   5.344
 8143SOL    HW225329   6.313   3.435   5.471
 8144SOL     OW25330   5.111   6.756   0.283
 8144SOL    HW125331   5.034   6.719   0.231
 8144SOL    HW225332   5.174   6.682   0.305
 8145SOL     OW25333   4.593   6.329   3.230
 8145SOL    HW125334   4.683   6.294   3.258
 8145SOL    HW225335   4.524   6.302   3.297
 8146SOL     OW25336   3.728   1.534   4.502
 8146SOL    HW125337   3.634   1.549   4.531
 8146SOL    HW225338   3.775   1.478   4.570
 8147SOL     OW25339   5.386   0.967   2.751
 8147SOL    HW125340   5.318   1.040   2.740
 8147SOL    HW225341   5.454   0.975   2.678
 8148SOL     OW25342   6.186   4.345   3.169
 8148SOL    HW125343   6.152   4.294   3.248
 8148SOL    HW225344   6.111   4.364   3.106
 8149SOL     OW25345   3.363   5.013   3.430
 8149SOL    HW125346   3.317   5.048   3.348
 8149SOL    HW225347   3.334   5.066   3.509
 8150SOL     OW25348   1.008   6.216   1.250
 8150SOL    HW125349   1.067   6.181   1.177
 8150SOL    HW225350   0.951   6.290   1.214
 8151SOL     OW25351   0.466   1.785   4.526
 8151SOL    HW125352   0.447   1.841   4.444
 8151SOL    HW225353   0.508   1.843   4.596
 8152SOL     OW25354   1.477   0.723   3.519
 8152SOL    HW125355   1.476   0.750   3.422
 8152SOL    HW225356   1.567   0.687   3.542
 8153SOL     OW25357   1.797   6.601   0.649
 8153SOL    HW125358   1.756   6.671   0.709
 8153SOL    HW225359   1.882   6.568   0.691
 8154SOL     OW25360   2.742   6.755   3.199
 8154SOL    HW125361   2.655   6.794   3.169
 8154SOL    HW225362   2.732   6.717   3.291
 8155SOL     OW25363   3.329   3.841   4.924
 8155SOL    HW125364   3.364   3.764   4.978
 8155SOL    HW225365   3.231   3.827   4.905
 8156SOL     OW25366   0.129   0.423   5.606
 8156SOL    HW125367   0.167   0.353   5.666
 8156SOL    HW225368   0.095   0.380   5.522
 8157SOL     OW25369   5.848   2.257   6.919
 8157SOL    HW125370   5.760   2.290   6.955
 8157SOL    HW225371   5.917   2.328   6.929
 8158SOL     OW25372   1.761   5.217   2.235
 8158SOL    HW125373   1.772   5.118   2.226
 8158SOL    HW225374   1.664   5.241   2.229
 8159SOL     OW25375   0.603   5.510   1.553
 8159SOL    HW125376   0.606   5.490   1.651
 8159SOL    HW225377   0.654   5.594   1.535
 8160SOL     OW25378   4.644   2.096   1.840
 8160SOL    HW125379   4.660   2.126   1.933
 8160SOL    HW225380   4.719   2.127   1.781
 8161SOL     OW25381   3.960   2.521   1.642
 8161SOL    HW125382   3.896   2.453   1.676
 8161SOL    HW225383   3.912   2.586   1.584
 8162SOL     OW25384   6.025   0.726   1.881
 8162SOL    HW125385   6.054   0.663   1.809
 8162SOL    HW225386   6.099   0.738   1.947
 8163SOL     OW25387   1.838   3.035   5.235
 8163SOL    HW125388   1.870   3.128   5.249
 8163SOL    HW225389   1.905   2.984   5.182
 8164SOL     OW25390   4.964   2.655   2.701
 8164SOL    HW125391   4.870   2.663   2.734
 8164SOL    HW225392   4.978   2.719   2.625
 8165SOL     OW25393   2.186   4.724   1.658
 8165SOL    HW125394   2.207   4.695   1.752
 8165SOL    HW225395   2.110   4.788   1.660
 8166SOL     OW25396   3.786   6.887   1.372
 8166SOL    HW125397   3.862   6.824   1.357
 8166SOL    HW225398   3.711   6.865   1.310
 8167SOL     OW25399   5.209   2.768   4.279
 8167SOL    HW125400   5.241   2.862   4.269
 8167SOL    HW225401   5.264   2.708   4.220
 8168SOL     OW25402   2.945   2.245   2.658
 8168SOL    HW125403   2.900   2.270   2.572
 8168SOL    HW225404   3.044   2.256   2.648
 8169SOL     OW25405   5.409   4.082   4.815
 8169SOL    HW125406   5.479   4.047   4.753
 8169SOL    HW225407   5.323   4.034   4.797
 8170SOL     OW25408   1.283   5.252   4.451
 8170SOL    HW125409   1.193   5.218   4.479
 8170SOL    HW225410   1.324   5.189   4.385
 8171SOL     OW25411   1.629   1.175   6.102
 8171SOL    HW125412   1.630   1.215   6.193
 8171SOL    HW225413   1.681   1.089   6.103
 8172SOL     OW25414   0.066   6.167   1.343
 8172SOL    HW125415   0.100   6.096   1.281
 8172SOL    HW225416   0.143   6.206   1.394
 8173SOL     OW25417   5.692   2.977   0.023
 8173SOL    HW125418   5.754   2.907   7.003
 8173SOL    HW225419   5.743   3.040   0.081
 8174SOL     OW25420   5.509   6.752   2.129
 8174SOL    HW125421   5.464   6.840   2.145
 8174SOL    HW225422   5.443   6.678   2.145
 8175SOL     OW25423   1.553   2.601   4.465
 8175SOL    HW125424   1.640   2.612   4.417
 8175SOL    HW225425   1.509   2.690   4.475
 8176SOL     OW25426   4.132   6.065   3.537
 8176SOL    HW125427   4.221   6.094   3.501
 8176SOL    HW225428   4.061   6.127   3.503
 8177SOL     OW25429   1.104   6.546   5.497
 8177SOL    HW125430   1.014   6.586   5.479
 8177SOL    HW225431   1.175   6.614   5.479
 8178SOL     OW25432   2.218   6.853   5.949
 8178SOL    HW125433   2.272   6.777   5.987
 8178SOL    HW225434   2.262   6.940   5.973
 8179SOL     OW25435   3.505   0.348   0.165
 8179SOL    HW125436   3.494   0.424   0.228
 8179SOL    HW225437   3.603   0.331   0.151
 8180SOL     OW25438   4.740   4.366   5.550
 8180SOL    HW125439   4.708   4.448   5.598
 8180SOL    HW225440   4.668   4.296   5.552
 8181SOL     OW25441   2.239   2.360   2.105
 8181SOL    HW125442   2.302   2.351   2.183
 8181SOL    HW225443   2.279   2.318   2.024
 8182SOL     OW25444   5.445   2.756   5.691
 8182SOL    HW125445   5.407   2.737   5.601
 8182SOL    HW225446   5.535   2.713   5.700
 8183SOL     OW25447   2.280   2.765   3.557
 8183SOL    HW125448   2.344   2.828   3.602
 8183SOL    HW225449   2.268   2.792   3.462
 8184SOL     OW25450   5.901   5.903   4.228
 8184SOL    HW125451   5.999   5.887   4.210
 8184SOL    HW225452   5.881   5.883   4.324
 8185SOL     OW25453   1.874   1.711   3.159
 8185SOL    HW125454   1.782   1.738   3.188
 8185SOL    HW225455   1.924   1.792   3.129
 8186SOL     OW25456   4.170   4.072   6.747
 8186SOL    HW125457   4.204   4.099   6.657
 8186SOL    HW225458   4.241   4.021   6.795
 8187SOL     OW25459   2.606   1.279   5.780
 8187SOL    HW125460   2.515   1.291   5.739
 8187SOL    HW225461   2.610   1.329   5.867
 8188SOL     OW25462   5.268   2.712   2.401
 8188SOL    HW125463   5.195   2.755   2.454
 8188SOL    HW225464   5.333   2.782   2.371
 8189SOL     OW25465   6.863   5.185   3.062
 8189SOL    HW125466   6.864   5.094   3.103
 8189SOL    HW225467   6.901   5.251   3.128
 8190SOL     OW25468   5.844   3.647   2.238
 8190SOL    HW125469   5.868   3.550   2.240
 8190SOL    HW225470   5.811   3.670   2.146
 8191SOL     OW25471   6.380   5.048   1.750
 8191SOL    HW125472   6.392   4.989   1.830
 8191SOL    HW225473   6.314   5.006   1.687
 8192SOL     OW25474   1.223   2.696   0.692
 8192SOL    HW125475   1.310   2.688   0.740
 8192SOL    HW225476   1.223   2.635   0.612
 8193SOL     OW25477   3.842   6.979   5.659
 8193SOL    HW125478   3.854   6.894   5.710
 8193SOL    HW225479   3.860   0.041   5.720
 8194SOL     OW25480   2.111   0.577   2.239
 8194SOL    HW125481   2.116   0.593   2.140
 8194SOL    HW225482   2.095   0.480   2.256
 8195SOL     OW25483   5.367   1.642   1.208
 8195SOL    HW125484   5.399   1.551   1.232
 8195SOL    HW225485   5.444   1.697   1.175
 8196SOL     OW25486   2.173   0.701   6.999
 8196SOL    HW125487   2.108   0.671   0.053
 8196SOL    HW225488   2.125   0.713   6.911
 8197SOL     OW25489   0.514   0.340   1.252
 8197SOL    HW125490   0.556   0.395   1.325
 8197SOL    HW225491   0.564   0.353   1.167
 8198SOL     OW25492   3.524   0.218   2.849
 8198SOL    HW125493   3.434   0.200   2.888
 8198SOL    HW225494   3.575   0.279   2.909
 8199SOL     OW25495   5.885   5.127   1.339
 8199SOL    HW125496   5.960   5.193   1.338
 8199SOL    HW225497   5.876   5.088   1.430
 8200SOL     OW25498   4.153   3.486   1.796
 8200SOL    HW125499   4.244   3.445   1.790
 8200SOL    HW225500   4.151   3.549   1.874
 8201SOL     OW25501   6.787   1.069   4.949
 8201SOL    HW125502   6.749   1.015   5.025
 8201SOL    HW225503   6.740   1.047   4.865
 8202SOL     OW25504   1.560   3.899   4.579
 8202SOL    HW125505   1.586   3.995   4.574
 8202SOL    HW225506   1.539   3.865   4.487
 8203SOL     OW25507   5.859   4.431   6.894
 8203SOL    HW125508   5.786   4.388   6.841
 8203SOL    HW225509   5.824   4.513   6.939
 8204SOL     OW25510   2.969   0.437   0.787
 8204SOL    HW125511   3.023   0.432   0.703
 8204SOL    HW225512   2.897   0.506   0.777
 8205SOL     OW25513   4.977   6.435   3.327
 8205SOL    HW125514   5.019   6.495   3.259
 8205SOL    HW225515   5.046   6.405   3.393
 8206SOL     OW25516   3.637   1.806   4.387
 8206SOL    HW125517   3.567   1.754   4.437
 8206SOL    HW225518   3.613   1.903   4.387
 8207SOL     OW25519   2.664   5.912   0.090
 8207SOL    HW125520   2.575   5.957   0.090
 8207SOL    HW225521   2.656   5.822   0.132
 8208SOL     OW25522   1.966   6.086   6.928
 8208SOL    HW125523   1.996   6.067   0.006
 8208SOL    HW225524   2.045   6.102   6.869
 8209SOL     OW25525   1.208   5.393   5.078
 8209SOL    HW125526   1.146   5.368   5.152
 8209SOL    HW225527   1.163   5.377   4.990
 8210SOL     OW25528   2.361   1.563   0.251
 8210SOL    HW125529   2.274   1.606   0.226
 8210SOL    HW225530   2.417   1.629   0.301
 8211SOL     OW25531   3.678   3.949   3.622
 8211SOL    HW125532   3.600   3.999   3.586
 8211SOL    HW225533   3.650   3.857   3.648
 8212SOL     OW25534   4.294   5.044   6.613
 8212SOL    HW125535   4.362   4.975   6.590
 8212SOL    HW225536   4.319   5.088   6.699
 8213SOL     OW25537   4.622   4.482   1.784
 8213SOL    HW125538   4.561   4.551   1.746
 8213SOL    HW225539   4.575   4.430   1.855
 8214SOL     OW25540   4.084   5.332   3.305
 8214SOL    HW125541   4.069   5.255   3.242
 8214SOL    HW225542   4.052   5.306   3.396
 8215SOL     OW25543   2.230   6.170   6.451
 8215SOL    HW125544   2.159   6.111   6.489
 8215SOL    HW225545   2.316   6.121   6.448
 8216SOL     OW25546   5.268   5.836   1.202
 8216SOL    HW125547   5.191   5.775   1.218
 8216SOL    HW225548   5.258   5.919   1.257
 8217SOL     OW25549   3.561   6.465   4.079
 8217SOL    HW125550   3.595   6.547   4.034
 8217SOL    HW225551   3.576   6.472   4.178
 8218SOL     OW25552   1.889   6.309   4.582
 8218SOL    HW125553   1.903   6.235   4.516
 8218SOL    HW225554   1.840   6.274   4.662
 8219SOL     OW25555   3.953   3.109   3.128
 8219SOL    HW125556   3.920   3.129   3.220
 8219SOL    HW225557   4.024   3.175   3.104
 8220SOL     OW25558   3.904   4.163   5.543
 8220SOL    HW125559   3.820   4.160   5.598
 8220SOL    HW225560   3.888   4.221   5.463
 8221SOL     OW25561   6.510   3.354   3.866
 8221SOL    HW125562   6.525   3.368   3.964
 8221SOL    HW225563   6.590   3.384   3.815
 8222SOL     OW25564   5.832   2.931   6.570
 8222SOL    HW125565   5.783   2.962   6.651
 8222SOL    HW225566   5.851   3.008   6.510
 8223SOL     OW25567   1.414   6.572   5.676
 8223SOL    HW125568   1.396   6.524   5.590
 8223SOL    HW225569   1.356   6.533   5.748
 8224SOL     OW25570   5.361   1.521   6.109
 8224SOL    HW125571   5.349   1.509   6.207
 8224SOL    HW225572   5.346   1.617   6.085
 8225SOL     OW25573   6.040   3.015   0.184
 8225SOL    HW125574   5.954   3.062   0.163
 8225SOL    HW225575   6.114   3.056   0.131
 8226SOL     OW25576   3.598   1.509   6.846
 8226SOL    HW125577   3.572   1.605   6.856
 8226SOL    HW225578   3.521   1.451   6.871
 8227SOL     OW25579   4.748   2.795   2.768
 8227SOL    HW125580   4.738   2.762   2.861
 8227SOL    HW225581   4.715   2.890   2.762
 8228SOL     OW25582   3.320   1.355   5.020
 8228SOL    HW125583   3.361   1.380   4.932
 8228SOL    HW225584   3.270   1.269   5.009
 8229SOL     OW25585   4.773   4.717   0.940
 8229SOL    HW125586   4.868   4.687   0.955
 8229SOL    HW225587   4.748   4.783   1.010
 8230SOL     OW25588   5.953   1.025   6.284
 8230SOL    HW125589   5.941   1.017   6.185
 8230SOL    HW225590   5.869   1.058   6.326
 8231SOL     OW25591   3.178   1.236   2.311
 8231SOL    HW125592   3.104   1.256   2.247
 8231SOL    HW225593   3.240   1.314   2.317
 8232SOL     OW25594   4.023   6.571   3.280
 8232SOL    HW125595   4.122   6.563   3.285
 8232SOL    HW225596   3.997   6.597   3.186
 8233SOL     OW25597   2.423   1.536   7.007
 8233SOL    HW125598   2.365   1.613   6.981
 8233SOL    HW225599   2.409   1.516   0.089
 8234SOL     OW25600   1.575   2.907   6.827
 8234SOL    HW125601   1.647   2.932   6.763
 8234SOL    HW225602   1.504   2.856   6.779
 8235SOL     OW25603   0.839   0.432   1.280
 8235SOL    HW125604   0.900   0.373   1.334
 8235SOL    HW225605   0.762   0.461   1.337
 8236SOL     OW25606   0.669   0.001   1.243
 8236SOL    HW125607   0.661   0.026   1.340
 8236SOL    HW225608   0.721   0.072   1.195
 8237SOL     OW25609   4.151   5.050   5.076
 8237SOL    HW125610   4.160   5.034   5.174
 8237SOL    HW225611   4.240   5.036   5.032
 8238SOL     OW25612   0.127   5.596   0.351
 8238SOL    HW125613   0.177   5.514   0.321
 8238SOL    HW225614   0.030   5.587   0.328
 8239SOL     OW25615   3.912   1.675   5.432
 8239SOL    HW125616   3.830   1.635   5.474
 8239SOL    HW225617   3.900   1.679   5.333
 8240SOL     OW25618   3.689   3.977   5.391
 8240SOL    HW125619   3.650   4.035   5.463
 8240SOL    HW225620   3.789   3.979   5.398
 8241SOL     OW25621   1.081   3.044   5.145
 8241SOL    HW125622   1.010   3.047   5.215
 8241SOL    HW225623   1.159   3.099   5.175
 8242SOL     OW25624   0.392   2.483   2.608
 8242SOL    HW125625   0.457   2.411   2.632
 8242SOL    HW225626   0.353   2.521   2.691
 8243SOL     OW25627   1.678   6.839   3.708
 8243SOL    HW125628   1.625   6.895   3.772
 8243SOL    HW225629   1.689   6.747   3.746
 8244SOL     OW25630   6.002   0.395   3.765
 8244SOL    HW125631   5.958   0.328   3.706
 8244SOL    HW225632   5.964   0.388   3.857
 8245SOL     OW25633   4.966   3.187   2.433
 8245SOL    HW125634   4.869   3.185   2.411
 8245SOL    HW225635   5.010   3.104   2.398
 8246SOL     OW25636   1.972   4.746   6.516
 8246SOL    HW125637   1.926   4.659   6.499
 8246SOL    HW225638   2.043   4.761   6.447
 8247SOL     OW25639   2.343   4.690   3.262
 8247SOL    HW125640   2.417   4.631   3.295
 8247SOL    HW225641   2.297   4.733   3.340
 8248SOL     OW25642   6.699   5.816   3.228
 8248SOL    HW125643   6.681   5.869   3.310
 8248SOL    HW225644   6.752   5.735   3.251
 8249SOL     OW25645   3.114   1.427   6.453
 8249SOL    HW125646   3.018   1.435   6.482
 8249SOL    HW225647   3.146   1.515   6.420
 8250SOL     OW25648   1.370   1.593   6.607
 8250SOL    HW125649   1.447   1.567   6.665
 8250SOL    HW225650   1.285   1.583   6.659
 8251SOL     OW25651   1.206   1.687   5.481
 8251SOL    HW125652   1.238   1.766   5.533
 8251SOL    HW225653   1.116   1.708   5.442
 8252SOL     OW25654   0.652   2.203   6.425
 8252SOL    HW125655   0.647   2.133   6.353
 8252SOL    HW225656   0.744   2.240   6.430
 8253SOL     OW25657   5.723   5.100   6.188
 8253SOL    HW125658   5.783   5.117   6.110
 8253SOL    HW225659   5.777   5.096   6.272
 8254SOL     OW25660   5.815   5.538   6.985
 8254SOL    HW125661   5.761   5.462   6.948
 8254SOL    HW225662   5.788   5.623   6.939
 8255SOL     OW25663   1.235   0.198   5.323
 8255SOL    HW125664   1.312   0.213   5.261
 8255SOL    HW225665   1.266   0.143   5.401
 8256SOL     OW25666   1.323   5.770   3.486
 8256SOL    HW125667   1.288   5.816   3.567
 8256SOL    HW225668   1.408   5.722   3.508
 8257SOL     OW25669   4.847   3.339   3.700
 8257SOL    HW125670   4.893   3.266   3.649
 8257SOL    HW225671   4.852   3.424   3.649
 8258SOL     OW25672   0.155   2.728   3.397
 8258SOL    HW125673   0.213   2.647   3.382
 8258SOL    HW225674   0.090   2.709   3.470
 8259SOL     OW25675   5.599   2.231   4.198
 8259SOL    HW125676   5.572   2.135   4.199
 8259SOL    HW225677   5.579   2.272   4.287
 8260SOL     OW25678   5.213   2.417   6.433
 8260SOL    HW125679   5.115   2.411   6.453
 8260SOL    HW225680   5.230   2.384   6.340
 8261SOL     OW25681   6.042   1.711   2.960
 8261SOL    HW125682   5.944   1.725   2.943
 8261SOL    HW225683   6.095   1.755   2.888
 8262SOL     OW25684   5.100   4.324   1.976
 8262SOL    HW125685   5.187   4.307   1.929
 8262SOL    HW225686   5.063   4.412   1.946
 8263SOL     OW25687   6.337   1.678   6.394
 8263SOL    HW125688   6.343   1.669   6.294
 8263SOL    HW225689   6.250   1.722   6.418
 8264SOL     OW25690   3.085   0.760   1.482
 8264SOL    HW125691   3.097   0.842   1.425
 8264SOL    HW225692   3.146   0.766   1.561
 8265SOL     OW25693   4.761   5.794   6.843
 8265SOL    HW125694   4.799   5.878   6.882
 8265SOL    HW225695   4.677   5.770   6.891
 8266SOL     OW25696   3.306   1.343   2.995
 8266SOL    HW125697   3.370   1.276   3.031
 8266SOL    HW225698   3.299   1.333   2.895
 8267SOL     OW25699   1.824   2.866   3.107
 8267SOL    HW125700   1.737   2.842   3.149
 8267SOL    HW225701   1.868   2.939   3.158
 8268SOL     OW25702   2.897   4.731   0.982
 8268SOL    HW125703   2.861   4.663   1.046
 8268SOL    HW225704   2.965   4.788   1.029
 8269SOL     OW25705   6.441   2.578   4.350
 8269SOL    HW125706   6.364   2.529   4.308
 8269SOL    HW225707   6.503   2.512   4.393
 8270SOL     OW25708   3.436   4.599   6.905
 8270SOL    HW125709   3.523   4.555   6.881
 8270SOL    HW225710   3.400   4.559   6.989
 8271SOL     OW25711   3.219   0.038   5.653
 8271SOL    HW125712   3.124   0.064   5.638
 8271SOL    HW225713   3.224   6.957   5.679
 8272SOL     OW25714   0.437   0.571   1.911
 8272SOL    HW125715   0.339   0.551   1.913
 8272SOL    HW225716   0.455   0.652   1.967
 8273SOL     OW25717   3.811   6.986   6.715
 8273SOL    HW125718   3.840   6.998   6.620
 8273SOL    HW225719   3.854   6.904   6.753
 8274SOL     OW25720   5.537   6.500   4.694
 8274SOL    HW125721   5.518   6.450   4.778
 8274SOL    HW225722   5.551   6.597   4.715
 8275SOL     OW25723   4.786   1.552   5.098
 8275SOL    HW125724   4.740   1.560   5.010
 8275SOL    HW225725   4.881   1.523   5.083
 8276SOL     OW25726   5.646   2.895   0.610
 8276SOL    HW125727   5.582   2.826   0.645
 8276SOL    HW225728   5.695   2.857   0.531
 8277SOL     OW25729   1.195   6.898   1.516
 8277SOL    HW125730   1.253   6.972   1.481
 8277SOL    HW225731   1.252   6.825   1.552
 8278SOL     OW25732   1.397   0.734   1.099
 8278SOL    HW125733   1.445   0.819   1.078
 8278SOL    HW225734   1.390   0.678   1.017
 8279SOL     OW25735   5.115   5.612   5.728
 8279SOL    HW125736   5.197   5.669   5.735
 8279SOL    HW225737   5.046   5.644   5.793
 8280SOL     OW25738   5.595   4.295   6.499
 8280SOL    HW125739   5.663   4.242   6.448
 8280SOL    HW225740   5.641   4.355   6.564
 8281SOL     OW25741   3.474   4.808   6.227
 8281SOL    HW125742   3.491   4.876   6.155
 8281SOL    HW225743   3.560   4.765   6.254
 8282SOL     OW25744   4.157   2.649   1.183
 8282SOL    HW125745   4.227   2.663   1.252
 8282SOL    HW225746   4.104   2.567   1.205
 8283SOL     OW25747   0.723   6.953   3.306
 8283SOL    HW125748   0.659   6.887   3.343
 8283SOL    HW225749   0.679   0.027   3.299
 8284SOL     OW25750   5.270   2.066   1.750
 8284SOL    HW125751   5.271   2.151   1.802
 8284SOL    HW225752   5.180   2.022   1.759
 8285SOL     OW25753   1.242   4.141   0.528
 8285SOL    HW125754   1.215   4.197   0.450
 8285SOL    HW225755   1.278   4.201   0.600
 8286SOL     OW25756   6.214   2.512   6.681
 8286SOL    HW125757   6.194   2.430   6.626
 8286SOL    HW225758   6.156   2.587   6.650
 8287SOL     OW25759   1.067   0.676   3.318
 8287SOL    HW125760   1.092   0.674   3.414
 8287SOL    HW225761   1.073   0.584   3.279
 8288SOL     OW25762   2.466   0.048   2.250
 8288SOL    HW125763   2.559   0.081   2.261
 8288SOL    HW225764   2.466   6.981   2.193
 8289SOL     OW25765   5.858   0.152   0.246
 8289SOL    HW125766   5.871   0.056   0.222
 8289SOL    HW225767   5.762   0.167   0.273
 8290SOL     OW25768   5.272   2.603   1.794
 8290SOL    HW125769   5.251   2.680   1.853
 8290SOL    HW225770   5.340   2.630   1.725
 8291SOL     OW25771   5.119   5.704   6.585
 8291SOL    HW125772   5.197   5.705   6.523
 8291SOL    HW225773   5.131   5.776   6.654
 8292SOL     OW25774   0.515   3.641   5.452
 8292SOL    HW125775   0.563   3.653   5.364
 8292SOL    HW225776   0.530   3.549   5.486
 8293SOL     OW25777   2.942   5.035   4.024
 8293SOL    HW125778   2.863   5.055   4.083
 8293SOL    HW225779   3.006   4.976   4.074
 8294SOL     OW25780   6.372   3.401   5.676
 8294SOL    HW125781   6.377   3.451   5.762
 8294SOL    HW225782   6.425   3.316   5.683
 8295SOL     OW25783   4.481   5.106   2.460
 8295SOL    HW125784   4.508   5.102   2.363
 8295SOL    HW225785   4.530   5.182   2.504
 8296SOL     OW25786   3.638   0.448   2.326
 8296SOL    HW125787   3.603   0.445   2.419
 8296SOL    HW225788   3.719   0.506   2.323
 8297SOL     OW25789   5.865   4.182   1.763
 8297SOL    HW125790   5.895   4.262   1.711
 8297SOL    HW225791   5.927   4.167   1.840
 8298SOL     OW25792   6.779   6.193   1.035
 8298SOL    HW125793   6.848   6.130   0.998
 8298SOL    HW225794   6.823   6.257   1.098
 8299SOL     OW25795   1.314   2.918   6.263
 8299SOL    HW125796   1.228   2.911   6.213
 8299SOL    HW225797   1.324   2.838   6.322
 8300SOL     OW25798   5.725   5.102   4.452
 8300SOL    HW125799   5.707   5.005   4.471
 8300SOL    HW225800   5.773   5.109   4.364
 8301SOL     OW25801   6.562   4.802   0.288
 8301SOL    HW125802   6.519   4.719   0.254
 8301SOL    HW225803   6.491   4.866   0.318
 8302SOL     OW25804   3.565   6.860   5.975
 8302SOL    HW125805   3.608   6.804   5.904
 8302SOL    HW225806   3.499   6.805   6.026
 8303SOL     OW25807   1.273   5.038   4.193
 8303SOL    HW125808   1.323   4.981   4.259
 8303SOL    HW225809   1.318   5.033   4.104
 8304SOL     OW25810   6.130   2.560   3.861
 8304SOL    HW125811   6.169   2.603   3.780
 8304SOL    HW225812   6.198   2.560   3.935
 8305SOL     OW25813   4.761   0.078   5.241
 8305SOL    HW125814   4.843   0.056   5.294
 8305SOL    HW225815   4.787   0.137   5.164
 8306SOL     OW25816   5.456   1.011   3.763
 8306SOL    HW125817   5.434   1.032   3.668
 8306SOL    HW225818   5.523   1.077   3.797
 8307SOL     OW25819   0.604   5.045   3.947
 8307SOL    HW125820   0.617   5.054   3.848
 8307SOL    HW225821   0.572   4.953   3.968
 8308SOL     OW25822   1.275   5.618   0.690
 8308SOL    HW125823   1.239   5.555   0.760
 8308SOL    HW225824   1.267   5.575   0.600
 8309SOL     OW25825   6.324   4.758   2.734
 8309SOL    HW125826   6.362   4.843   2.771
 8309SOL    HW225827   6.329   4.686   2.803
 8310SOL     OW25828   2.574   6.337   3.000
 8310SOL    HW125829   2.539   6.313   3.091
 8310SOL    HW225830   2.573   6.256   2.941
 8311SOL     OW25831   4.258   6.338   1.948
 8311SOL    HW125832   4.285   6.430   1.979
 8311SOL    HW225833   4.195   6.298   2.014
 8312SOL     OW25834   6.796   1.969   0.274
 8312SOL    HW125835   6.774   2.065   0.260
 8312SOL    HW225836   6.815   1.953   0.371
 8313SOL     OW25837   4.988   3.186   6.027
 8313SOL    HW125838   5.056   3.113   6.027
 8313SOL    HW225839   5.030   3.272   5.996
 8314SOL     OW25840   4.406   5.789   3.729
 8314SOL    HW125841   4.430   5.726   3.803
 8314SOL    HW225842   4.489   5.826   3.688
 8315SOL     OW25843   3.245   2.803   6.806
 8315SOL    HW125844   3.165   2.825   6.751
 8315SOL    HW225845   3.217   2.755   6.889
 8316SOL     OW25846   1.366   1.548   5.139
 8316SOL    HW125847   1.380   1.531   5.237
 8316SOL    HW225848   1.448   1.522   5.088
 8317SOL     OW25849   1.350   2.104   5.440
 8317SOL    HW125850   1.422   2.151   5.491
 8317SOL    HW225851   1.391   2.050   5.367
 8318SOL     OW25852   4.434   6.685   5.952
 8318SOL    HW125853   4.411   6.725   6.041
 8318SOL    HW225854   4.518   6.631   5.961
 8319SOL     OW25855   2.332   5.813   0.027
 8319SOL    HW125856   2.386   5.871   0.089
 8319SOL    HW225857   2.388   5.737   7.011
 8320SOL     OW25858   4.012   4.507   5.568
 8320SOL    HW125859   4.048   4.506   5.474
 8320SOL    HW225860   4.088   4.508   5.632
 8321SOL     OW25861   0.605   0.783   0.921
 8321SOL    HW125862   0.546   0.863   0.906
 8321SOL    HW225863   0.552   0.700   0.907
 8322SOL     OW25864   1.575   0.976   1.149
 8322SOL    HW125865   1.526   1.051   1.193
 8322SOL    HW225866   1.621   1.010   1.067
 8323SOL     OW25867   6.297   5.009   6.881
 8323SOL    HW125868   6.249   4.952   6.948
 8323SOL    HW225869   6.243   5.091   6.864
 8324SOL     OW25870   5.125   6.507   6.599
 8324SOL    HW125871   5.204   6.500   6.661
 8324SOL    HW225872   5.111   6.420   6.552
 8325SOL     OW25873   1.367   6.131   4.807
 8325SOL    HW125874   1.378   6.160   4.902
 8325SOL    HW225875   1.443   6.166   4.752
 8326SOL     OW25876   2.147   1.987   6.529
 8326SOL    HW125877   2.134   2.069   6.473
 8326SOL    HW225878   2.235   1.992   6.576
 8327SOL     OW25879   1.159   6.376   4.879
 8327SOL    HW125880   1.250   6.409   4.853
 8327SOL    HW225881   1.167   6.287   4.924
 8328SOL     OW25882   0.686   6.479   1.029
 8328SOL    HW125883   0.778   6.441   1.020
 8328SOL    HW225884   0.682   6.537   1.111
 8329SOL     OW25885   1.600   2.605   5.317
 8329SOL    HW125886   1.559   2.528   5.364
 8329SOL    HW225887   1.664   2.572   5.248
 8330SOL     OW25888   2.727   6.787   0.113
 8330SOL    HW125889   2.629   6.800   0.097
 8330SOL    HW225890   2.741   6.706   0.170
 8331SOL     OW25891   2.296   2.465   5.665
 8331SOL    HW125892   2.198   2.484   5.658
 8331SOL    HW225893   2.310   2.380   5.715
 8332SOL     OW25894   5.847   3.920   1.107
 8332SOL    HW125895   5.846   3.976   1.189
 8332SOL    HW225896   5.941   3.902   1.079
 8333SOL     OW25897   2.937   4.445   6.501
 8333SOL    HW125898   2.841   4.452   6.528
 8333SOL    HW225899   2.987   4.388   6.567
 8334SOL     OW25900   3.390   2.194   5.260
 8334SOL    HW125901   3.329   2.139   5.317
 8334SOL    HW225902   3.337   2.265   5.214
 8335SOL     OW25903   5.314   4.201   5.964
 8335SOL    HW125904   5.254   4.276   5.991
 8335SOL    HW225905   5.312   4.191   5.865
 8336SOL     OW25906   1.266   4.054   3.377
 8336SOL    HW125907   1.338   3.998   3.419
 8336SOL    HW225908   1.191   3.994   3.348
 8337SOL     OW25909   6.681   1.044   4.163
 8337SOL    HW125910   6.705   0.969   4.102
 8337SOL    HW225911   6.760   1.069   4.219
 8338SOL     OW25912   2.664   5.659   0.965
 8338SOL    HW125913   2.761   5.675   0.945
 8338SOL    HW225914   2.608   5.713   0.903
 8339SOL     OW25915   6.242   0.766   2.042
 8339SOL    HW125916   6.295   0.850   2.053
 8339SOL    HW225917   6.303   0.691   2.015
 8340SOL     OW25918   5.840   2.572   6.705
 8340SOL    HW125919   5.916   2.621   6.748
 8340SOL    HW225920   5.754   2.596   6.750
 8341SOL     OW25921   4.011   0.430   1.153
 8341SOL    HW125922   3.915   0.456   1.141
 8341SOL    HW225923   4.061   0.448   1.068
 8342SOL     OW25924   3.738   1.348   0.639
 8342SOL    HW125925   3.777   1.268   0.684
 8342SOL    HW225926   3.653   1.374   0.685
 8343SOL     OW25927   5.393   5.595   2.984
 8343SOL    HW125928   5.463   5.525   2.970
 8343SOL    HW225929   5.352   5.619   2.897
 8344SOL     OW25930   2.497   4.875   6.283
 8344SOL    HW125931   2.540   4.787   6.302
 8344SOL    HW225932   2.549   4.924   6.213
 8345SOL     OW25933   6.306   0.137   3.832
 8345SOL    HW125934   6.240   0.086   3.887
 8345SOL    HW225935   6.325   0.224   3.875
 8346SOL     OW25936   6.002   3.547   4.111
 8346SOL    HW125937   6.077   3.577   4.053
 8346SOL    HW225938   5.927   3.613   4.105
 8347SOL     OW25939   1.801   1.739   5.838
 8347SOL    HW125940   1.748   1.782   5.765
 8347SOL    HW225941   1.884   1.698   5.800
 8348SOL     OW25942   3.395   5.537   1.759
 8348SOL    HW125943   3.365   5.632   1.773
 8348SOL    HW225944   3.495   5.533   1.760
 8349SOL     OW25945   4.616   5.888   1.337
 8349SOL    HW125946   4.672   5.850   1.411
 8349SOL    HW225947   4.549   5.951   1.375
 8350SOL     OW25948   0.871   0.343   6.879
 8350SOL    HW125949   0.902   0.431   6.916
 8350SOL    HW225950   0.950   0.293   6.843
 8351SOL     OW25951   6.955   2.949   3.207
 8351SOL    HW125952   6.934   2.860   3.168
 8351SOL    HW225953   0.006   2.939   3.281
 8352SOL     OW25954   2.888   6.582   6.469
 8352SOL    HW125955   2.966   6.537   6.425
 8352SOL    HW225956   2.805   6.563   6.416
 8353SOL     OW25957   0.542   6.117   2.822
 8353SOL    HW125958   0.506   6.175   2.894
 8353SOL    HW225959   0.587   6.173   2.752
 8354SOL     OW25960   4.693   1.697   2.991
 8354SOL    HW125961   4.735   1.777   3.034
 8354SOL    HW225962   4.642   1.726   2.910
 8355SOL     OW25963   2.954   5.337   5.963
 8355SOL    HW125964   2.861   5.320   5.933
 8355SOL    HW225965   3.007   5.252   5.957
 8356SOL     OW25966   2.926   4.265   1.367
 8356SOL    HW125967   2.909   4.283   1.464
 8356SOL    HW225968   2.846   4.292   1.313
 8357SOL     OW25969   3.405   0.001   4.753
 8357SOL    HW125970   3.478   6.998   4.819
 8357SOL    HW225971   3.426   6.969   4.667
 8358SOL     OW25972   0.428   0.718   4.530
 8358SOL    HW125973   0.427   0.650   4.602
 8358SOL    HW225974   0.522   0.750   4.515
 8359SOL     OW25975   4.363   2.329   5.482
 8359SOL    HW125976   4.344   2.318   5.580
 8359SOL    HW225977   4.416   2.251   5.450
 8360SOL     OW25978   3.539   6.818   1.925
 8360SOL    HW125979   3.538   6.802   1.826
 8360SOL    HW225980   3.551   6.916   1.942
 8361SOL     OW25981   4.919   1.251   0.434
 8361SOL    HW125982   4.917   1.153   0.457
 8361SOL    HW225983   4.868   1.267   0.350
 8362SOL     OW25984   0.151   4.130   1.191
 8362SOL    HW125985   0.237   4.080   1.183
 8362SOL    HW225986   0.081   4.084   1.137
 8363SOL     OW25987   0.983   2.733   1.496
 8363SOL    HW125988   0.922   2.808   1.519
 8363SOL    HW225989   0.949   2.685   1.415
 8364SOL     OW25990   0.451   2.297   4.151
 8364SOL    HW125991   0.389   2.309   4.228
 8364SOL    HW225992   0.511   2.377   4.144
 8365SOL     OW25993   1.536   2.596   1.577
 8365SOL    HW125994   1.592   2.637   1.649
 8365SOL    HW225995   1.442   2.585   1.610
 8366SOL     OW25996   5.012   5.828   2.107
 8366SOL    HW125997   4.913   5.835   2.097
 8366SOL    HW225998   5.044   5.745   2.061
 8367SOL     OW25999   2.147   4.485   3.329
 8367SOL    HW126000   2.228   4.506   3.273
 8367SOL    HW226001   2.169   4.499   3.426
 8368SOL     OW26002   6.459   4.373   5.536
 8368SOL    HW126003   6.394   4.413   5.602
 8368SOL    HW226004   6.515   4.446   5.498
 8369SOL     OW26005   1.705   6.913   6.979
 8369SOL    HW126006   1.641   6.945   0.032
 8369SOL    HW226007   1.744   6.826   7.009
 8370SOL     OW26008   3.181   3.024   0.491
 8370SOL    HW126009   3.230   2.969   0.559
 8370SOL    HW226010   3.247   3.074   0.435
 8371SOL     OW26011   2.970   4.129   6.306
 8371SOL    HW126012   3.019   4.048   6.275
 8371SOL    HW226013   2.938   4.116   6.400
 8372SOL     OW26014   1.533   0.088   1.685
 8372SOL    HW126015   1.491   0.174   1.657
 8372SOL    HW226016   1.632   0.093   1.671
 8373SOL     OW26017   5.830   0.420   4.032
 8373SOL    HW126018   5.763   0.471   3.978
 8373SOL    HW226019   5.783   0.348   4.084
 8374SOL     OW26020   0.999   1.345   3.298
 8374SOL    HW126021   0.986   1.250   3.270
 8374SOL    HW226022   1.059   1.349   3.377
 8375SOL     OW26023   1.642   1.833   5.618
 8375SOL    HW126024   1.686   1.916   5.585
 8375SOL    HW226025   1.566   1.858   5.679
 8376SOL     OW26026   1.142   1.790   3.800
 8376SOL    HW126027   1.175   1.858   3.734
 8376SOL    HW226028   1.219   1.753   3.851
 8377SOL     OW26029   3.401   5.021   0.816
 8377SOL    HW126030   3.325   4.977   0.863
 8377SOL    HW226031   3.391   5.009   0.717
 8378SOL     OW26032   4.055   5.206   4.875
 8378SOL    HW126033   4.078   5.150   4.954
 8378SOL    HW226034   3.983   5.270   4.899
 8379SOL     OW26035   6.268   2.020   1.981
 8379SOL    HW126036   6.271   2.082   2.059
 8379SOL    HW226037   6.235   1.931   2.011
 8380SOL     OW26038   0.900   6.113   2.430
 8380SOL    HW126039   0.877   6.168   2.350
 8380SOL    HW226040   0.931   6.023   2.401
 8381SOL     OW26041   1.187   1.830   2.214
 8381SOL    HW126042   1.282   1.825   2.245
 8381SOL    HW226043   1.181   1.893   2.137
 8382SOL     OW26044   0.428   6.753   1.817
 8382SOL    HW126045   0.492   6.803   1.876
 8382SOL    HW226046   0.479   6.705   1.746
 8383SOL     OW26047   2.707   6.890   5.523
 8383SOL    HW126048   2.790   6.924   5.479
 8383SOL    HW226049   2.691   6.795   5.495
 8384SOL     OW26050   0.569   3.302   3.058
 8384SOL    HW126051   0.498   3.258   3.113
 8384SOL    HW226052   0.541   3.302   2.962
 8385SOL     OW26053   4.517   2.251   2.432
 8385SOL    HW126054   4.468   2.250   2.519
 8385SOL    HW226055   4.475   2.186   2.368
 8386SOL     OW26056   0.811   5.375   1.401
 8386SOL    HW126057   0.794   5.429   1.318
 8386SOL    HW226058   0.757   5.413   1.476
 8387SOL     OW26059   0.802   1.694   3.251
 8387SOL    HW126060   0.809   1.755   3.172
 8387SOL    HW226061   0.893   1.682   3.291
 8388SOL     OW26062   3.896   5.041   1.735
 8388SOL    HW126063   3.989   5.054   1.771
 8388SOL    HW226064   3.896   5.055   1.636
 8389SOL     OW26065   1.380   2.752   3.447
 8389SOL    HW126066   1.284   2.752   3.476
 8389SOL    HW226067   1.431   2.684   3.501
 8390SOL     OW26068   2.737   0.580   6.547
 8390SOL    HW126069   2.799   0.594   6.470
 8390SOL    HW226070   2.772   0.507   6.606
 8391SOL     OW26071   4.748   6.237   0.999
 8391SOL    HW126072   4.805   6.274   1.073
 8391SOL    HW226073   4.805   6.180   0.939
 8392SOL     OW26074   4.351   6.122   0.354
 8392SOL    HW126075   4.292   6.176   0.294
 8392SOL    HW226076   4.303   6.039   0.383
 8393SOL     OW26077   0.937   5.272   1.790
 8393SOL    HW126078   0.909   5.208   1.718
 8393SOL    HW226079   1.032   5.299   1.776
 8394SOL     OW26080   1.520   1.471   3.776
 8394SOL    HW126081   1.531   1.546   3.711
 8394SOL    HW226082   1.429   1.476   3.817
 8395SOL     OW26083   1.292   6.465   5.914
 8395SOL    HW126084   1.317   6.430   6.004
 8395SOL    HW226085   1.219   6.408   5.876
 8396SOL     OW26086   4.397   2.510   0.910
 8396SOL    HW126087   4.393   2.609   0.923
 8396SOL    HW226088   4.366   2.464   0.993
 8397SOL     OW26089   1.817   5.187   3.208
 8397SOL    HW126090   1.765   5.124   3.266
 8397SOL    HW226091   1.869   5.134   3.141
 8398SOL     OW26092   5.827   1.826   0.251
 8398SOL    HW126093   5.919   1.832   0.211
 8398SOL    HW226094   5.800   1.730   0.257
 8399SOL     OW26095   5.394   5.920   6.665
 8399SOL    HW126096   5.323   5.980   6.704
 8399SOL    HW226097   5.396   5.834   6.716
 8400SOL     OW26098   6.801   6.772   4.043
 8400SOL    HW126099   6.728   6.820   3.993
 8400SOL    HW226100   6.857   6.721   3.978
 8401SOL     OW26101   3.162   3.528   5.620
 8401SOL    HW126102   3.136   3.552   5.526
 8401SOL    HW226103   3.176   3.429   5.626
 8402SOL     OW26104   5.221   0.205   5.635
 8402SOL    HW126105   5.247   0.121   5.587
 8402SOL    HW226106   5.135   0.239   5.598
 8403SOL     OW26107   0.898   2.768   5.343
 8403SOL    HW126108   0.830   2.727   5.282
 8403SOL    HW226109   0.852   2.827   5.409
 8404SOL     OW26110   4.464   4.950   5.481
 8404SOL    HW126111   4.370   4.917   5.484
 8404SOL    HW226112   4.467   5.047   5.505
 8405SOL     OW26113   2.024   2.577   5.237
 8405SOL    HW126114   2.027   2.519   5.319
 8405SOL    HW226115   1.940   2.557   5.186
 8406SOL     OW26116   4.833   3.845   2.040
 8406SOL    HW126117   4.887   3.919   2.081
 8406SOL    HW226118   4.801   3.872   1.950
 8407SOL     OW26119   4.852   3.469   3.304
 8407SOL    HW126120   4.845   3.394   3.240
 8407SOL    HW226121   4.853   3.556   3.254
 8408SOL     OW26122   4.888   3.700   3.883
 8408SOL    HW126123   4.868   3.723   3.787
 8408SOL    HW226124   4.976   3.653   3.887
 8409SOL     OW26125   0.871   1.570   3.500
 8409SOL    HW126126   0.812   1.519   3.439
 8409SOL    HW226127   0.954   1.517   3.519
 8410SOL     OW26128   2.475   5.590   2.643
 8410SOL    HW126129   2.557   5.643   2.620
 8410SOL    HW226130   2.493   5.493   2.626
 8411SOL     OW26131   2.168   3.326   3.161
 8411SOL    HW126132   2.192   3.371   3.247
 8411SOL    HW226133   2.158   3.395   3.089
 8412SOL     OW26134   6.714   1.893   2.659
 8412SOL    HW126135   6.716   1.941   2.572
 8412SOL    HW226136   6.731   1.796   2.644
 8413SOL     OW26137   1.670   4.893   1.232
 8413SOL    HW126138   1.574   4.884   1.205
 8413SOL    HW226139   1.728   4.886   1.150
 8414SOL     OW26140   6.214   0.494   3.338
 8414SOL    HW126141   6.225   0.454   3.429
 8414SOL    HW226142   6.235   0.592   3.342
 8415SOL     OW26143   6.829   4.473   1.730
 8415SOL    HW126144   6.797   4.454   1.823
 8415SOL    HW226145   6.856   4.387   1.686
 8416SOL     OW26146   4.657   4.745   2.562
 8416SOL    HW126147   4.643   4.751   2.661
 8416SOL    HW226148   4.572   4.719   2.518
 8417SOL     OW26149   1.512   5.945   6.740
 8417SOL    HW126150   1.609   5.957   6.760
 8417SOL    HW226151   1.468   5.896   6.815
 8418SOL     OW26152   5.852   5.844   2.844
 8418SOL    HW126153   5.886   5.936   2.863
 8418SOL    HW226154   5.754   5.841   2.862
 8419SOL     OW26155   5.107   0.128   4.243
 8419SOL    HW126156   5.114   0.172   4.333
 8419SOL    HW226157   5.198   0.108   4.208
 8420SOL     OW26158   4.150   2.642   5.885
 8420SOL    HW126159   4.129   2.557   5.838
 8420SOL    HW226160   4.065   2.685   5.917
 8421SOL     OW26161   0.126   1.238   1.220
 8421SOL    HW126162   0.220   1.223   1.188
 8421SOL    HW226163   0.125   1.243   1.320
 8422SOL     OW26164   3.208   6.856   1.952
 8422SOL    HW126165   3.163   6.789   2.012
 8422SOL    HW226166   3.305   6.834   1.944
 8423SOL     OW26167   2.198   3.620   1.117
 8423SOL    HW126168   2.161   3.702   1.162
 8423SOL    HW226169   2.134   3.589   1.047
 8424SOL     OW26170   2.734   2.616   1.536
 8424SOL    HW126171   2.803   2.635   1.607
 8424SOL    HW226172   2.746   2.681   1.461
 8425SOL     OW26173   6.095   4.903   6.101
 8425SOL    HW126174   6.175   4.842   6.106
 8425SOL    HW226175   6.016   4.856   6.140
 8426SOL     OW26176   3.439   3.632   2.565
 8426SOL    HW126177   3.466   3.574   2.642
 8426SOL    HW226178   3.469   3.591   2.479
 8427SOL     OW26179   1.893   2.015   0.095
 8427SOL    HW126180   1.803   1.993   0.056
 8427SOL    HW226181   1.951   1.934   0.092
 8428SOL     OW26182   6.033   3.743   0.683
 8428SOL    HW126183   6.083   3.678   0.626
 8428SOL    HW226184   6.039   3.715   0.779
 8429SOL     OW26185   1.784   6.571   2.857
 8429SOL    HW126186   1.866   6.589   2.912
 8429SOL    HW226187   1.740   6.657   2.834
 8430SOL     OW26188   4.895   4.498   3.069
 8430SOL    HW126189   4.813   4.442   3.059
 8430SOL    HW226190   4.942   4.503   2.981
 8431SOL     OW26191   3.019   3.358   2.368
 8431SOL    HW126192   2.989   3.431   2.306
 8431SOL    HW226193   3.009   3.270   2.322
 8432SOL     OW26194   4.702   6.272   6.887
 8432SOL    HW126195   4.712   6.198   6.953
 8432SOL    HW226196   4.790   6.290   6.843
 8433SOL     OW26197   0.796   1.086   4.005
 8433SOL    HW126198   0.730   1.146   3.961
 8433SOL    HW226199   0.889   1.119   3.985
 8434SOL     OW26200   5.893   6.382   6.496
 8434SOL    HW126201   5.925   6.365   6.589
 8434SOL    HW226202   5.957   6.344   6.430
 8435SOL     OW26203   4.600   1.997   1.440
 8435SOL    HW126204   4.694   2.031   1.453
 8435SOL    HW226205   4.599   1.898   1.450
 8436SOL     OW26206   3.069   4.263   1.721
 8436SOL    HW126207   3.024   4.175   1.734
 8436SOL    HW226208   3.008   4.337   1.750
 8437SOL     OW26209   0.445   1.954   0.815
 8437SOL    HW126210   0.373   2.021   0.831
 8437SOL    HW226211   0.413   1.885   0.750
 8438SOL     OW26212   2.138   5.689   0.685
 8438SOL    HW126213   2.055   5.634   0.697
 8438SOL    HW226214   2.144   5.756   0.759
 8439SOL     OW26215   5.535   0.583   1.925
 8439SOL    HW126216   5.532   0.521   1.847
 8439SOL    HW226217   5.628   0.585   1.962
 8440SOL     OW26218   1.034   2.980   3.826
 8440SOL    HW126219   1.108   2.980   3.894
 8440SOL    HW226220   0.960   2.921   3.859
 8441SOL     OW26221   4.927   5.834   2.407
 8441SOL    HW126222   4.883   5.811   2.494
 8441SOL    HW226223   4.863   5.816   2.332
 8442SOL     OW26224   2.673   3.033   0.811
 8442SOL    HW126225   2.684   3.008   0.715
 8442SOL    HW226226   2.664   2.951   0.867
 8443SOL     OW26227   0.217   1.906   1.427
 8443SOL    HW126228   0.184   1.811   1.427
 8443SOL    HW226229   0.227   1.937   1.333
 8444SOL     OW26230   4.156   1.206   3.354
 8444SOL    HW126231   4.194   1.231   3.443
 8444SOL    HW226232   4.221   1.230   3.282
 8445SOL     OW26233   4.507   5.761   2.149
 8445SOL    HW126234   4.462   5.840   2.107
 8445SOL    HW226235   4.444   5.683   2.150
 8446SOL     OW26236   0.058   3.102   3.002
 8446SOL    HW126237   0.007   3.048   3.069
 8446SOL    HW226238   7.009   3.155   2.946
 8447SOL     OW26239   4.383   3.791   1.024
 8447SOL    HW126240   4.291   3.825   1.002
 8447SOL    HW226241   4.395   3.790   1.123
 8448SOL     OW26242   2.055   3.630   5.763
 8448SOL    HW126243   2.017   3.631   5.670
 8448SOL    HW226244   2.006   3.697   5.819
 8449SOL     OW26245   1.116   0.903   4.986
 8449SOL    HW126246   1.123   0.846   5.068
 8449SOL    HW226247   1.085   0.995   5.012
 8450SOL     OW26248   1.991   5.546   1.230
 8450SOL    HW126249   1.942   5.564   1.145
 8450SOL    HW226250   2.000   5.447   1.243
 8451SOL     OW26251   3.336   3.421   0.864
 8451SOL    HW126252   3.365   3.336   0.908
 8451SOL    HW226253   3.238   3.414   0.841
 8452SOL     OW26254   0.045   5.348   1.321
 8452SOL    HW126255   6.985   5.309   1.374
 8452SOL    HW226256   0.017   5.435   1.282
 8453SOL     OW26257   6.262   5.367   5.282
 8453SOL    HW126258   6.361   5.371   5.297
 8453SOL    HW226259   6.242   5.383   5.185
 8454SOL     OW26260   2.121   6.707   4.598
 8454SOL    HW126261   2.145   6.656   4.680
 8454SOL    HW226262   2.119   6.805   4.618
 8455SOL     OW26263   6.048   2.457   0.902
 8455SOL    HW126264   5.974   2.423   0.959
 8455SOL    HW226265   6.029   2.551   0.875
 8456SOL     OW26266   5.128   4.918   3.652
 8456SOL    HW126267   5.078   4.918   3.565
 8456SOL    HW226268   5.069   4.883   3.724
 8457SOL     OW26269   6.700   6.111   5.677
 8457SOL    HW126270   6.640   6.037   5.706
 8457SOL    HW226271   6.682   6.134   5.581
 8458SOL     OW26272   1.663   2.269   1.041
 8458SOL    HW126273   1.638   2.366   1.035
 8458SOL    HW226274   1.584   2.216   1.071
 8459SOL     OW26275   2.319   5.004   3.579
 8459SOL    HW126276   2.272   4.928   3.534
 8459SOL    HW226277   2.355   5.066   3.509
 8460SOL     OW26278   3.936   1.283   1.279
 8460SOL    HW126279   4.007   1.342   1.240
 8460SOL    HW226280   3.972   1.191   1.292
 8461SOL     OW26281   5.238   3.774   3.394
 8461SOL    HW126282   5.166   3.819   3.342
 8461SOL    HW226283   5.320   3.830   3.393
 8462SOL     OW26284   1.514   3.757   0.765
 8462SOL    HW126285   1.480   3.718   0.851
 8462SOL    HW226286   1.567   3.839   0.785
 8463SOL     OW26287   6.883   0.094   1.205
 8463SOL    HW126288   6.979   0.123   1.210
 8463SOL    HW226289   6.879   7.015   1.172
 8464SOL     OW26290   6.136   3.191   6.320
 8464SOL    HW126291   6.204   3.178   6.247
 8464SOL    HW226292   6.116   3.288   6.331
 8465SOL     OW26293   4.803   3.572   1.168
 8465SOL    HW126294   4.739   3.584   1.092
 8465SOL    HW226295   4.892   3.546   1.131
 8466SOL     OW26296   0.546   1.410   5.522
 8466SOL    HW126297   0.599   1.360   5.454
 8466SOL    HW226298   0.596   1.411   5.609
 8467SOL     OW26299   3.221   1.357   0.692
 8467SOL    HW126300   3.252   1.369   0.598
 8467SOL    HW226301   3.214   1.260   0.713
 8468SOL     OW26302   5.435   4.443   0.461
 8468SOL    HW126303   5.479   4.359   0.431
 8468SOL    HW226304   5.337   4.428   0.469
 8469SOL     OW26305   3.916   2.943   5.694
 8469SOL    HW126306   4.010   2.933   5.726
 8469SOL    HW226307   3.870   2.854   5.698
 8470SOL     OW26308   1.305   5.877   1.506
 8470SOL    HW126309   1.317   5.976   1.506
 8470SOL    HW226310   1.394   5.832   1.498
 8471SOL     OW26311   4.406   1.841   4.626
 8471SOL    HW126312   4.362   1.787   4.554
 8471SOL    HW226313   4.394   1.795   4.714
 8472SOL     OW26314   5.393   2.005   6.875
 8472SOL    HW126315   5.378   2.016   6.973
 8472SOL    HW226316   5.307   2.019   6.826
 8473SOL     OW26317   5.120   5.097   5.973
 8473SOL    HW126318   5.098   5.132   6.064
 8473SOL    HW226319   5.122   5.172   5.908
 8474SOL     OW26320   2.795   4.086   5.265
 8474SOL    HW126321   2.831   4.101   5.357
 8474SOL    HW226322   2.709   4.136   5.254
 8475SOL     OW26323   6.904   1.581   3.084
 8475SOL    HW126324   6.898   1.510   3.014
 8475SOL    HW226325   6.877   1.669   3.045
 8476SOL     OW26326   6.200   1.431   1.589
 8476SOL    HW126327   6.279   1.418   1.650
 8476SOL    HW226328   6.230   1.476   1.505
 8477SOL     OW26329   5.838   0.815   1.335
 8477SOL    HW126330   5.876   0.837   1.424
 8477SOL    HW226331   5.753   0.763   1.346
 8478SOL     OW26332   0.491   6.382   5.574
 8478SOL    HW126333   0.517   6.333   5.491
 8478SOL    HW226334   0.573   6.397   5.631
 8479SOL     OW26335   1.204   2.521   0.232
 8479SOL    HW126336   1.293   2.524   0.185
 8479SOL    HW226337   1.141   2.584   0.186
 8480SOL     OW26338   3.343   4.542   0.659
 8480SOL    HW126339   3.282   4.550   0.738
 8480SOL    HW226340   3.411   4.616   0.661
 8481SOL     OW26341   4.079   2.256   2.593
 8481SOL    HW126342   4.013   2.220   2.659
 8481SOL    HW226343   4.169   2.264   2.636
 8482SOL     OW26344   4.148   0.706   6.728
 8482SOL    HW126345   4.068   0.688   6.785
 8482SOL    HW226346   4.129   0.680   6.633
 8483SOL     OW26347   4.072   4.832   3.572
 8483SOL    HW126348   4.007   4.903   3.545
 8483SOL    HW226349   4.123   4.802   3.491
 8484SOL     OW26350   6.106   6.086   5.438
 8484SOL    HW126351   6.155   6.100   5.352
 8484SOL    HW226352   6.085   5.988   5.448
 8485SOL     OW26353   4.378   1.176   5.978
 8485SOL    HW126354   4.404   1.249   6.041
 8485SOL    HW226355   4.321   1.214   5.905
 8486SOL     OW26356   6.087   2.422   5.011
 8486SOL    HW126357   5.998   2.380   5.025
 8486SOL    HW226358   6.100   2.443   4.914
 8487SOL     OW26359   6.856   2.657   6.021
 8487SOL    HW126360   6.844   2.558   6.013
 8487SOL    HW226361   6.838   2.685   6.115
 8488SOL     OW26362   4.578   4.409   2.656
 8488SOL    HW126363   4.525   4.463   2.592
 8488SOL    HW226364   4.609   4.325   2.612
 8489SOL     OW26365   6.069   1.808   2.277
 8489SOL    HW126366   6.121   1.767   2.202
 8489SOL    HW226367   6.071   1.908   2.268
 8490SOL     OW26368   2.965   6.561   0.645
 8490SOL    HW126369   2.988   6.636   0.707
 8490SOL    HW226370   2.947   6.598   0.554
 8491SOL     OW26371   3.117   5.459   2.328
 8491SOL    HW126372   3.206   5.501   2.345
 8491SOL    HW226373   3.120   5.408   2.241
 8492SOL     OW26374   6.340   6.022   4.097
 8492SOL    HW126375   6.354   5.949   4.031
 8492SOL    HW226376   6.420   6.030   4.156
 8493SOL     OW26377   5.097   0.914   5.878
 8493SOL    HW126378   5.084   1.013   5.887
 8493SOL    HW226379   5.046   0.880   5.799
 8494SOL     OW26380   0.055   3.218   2.257
 8494SOL    HW126381   6.983   3.266   2.264
 8494SOL    HW226382   0.059   3.145   2.325
 8495SOL     OW26383   5.639   5.784   6.182
 8495SOL    HW126384   5.701   5.839   6.126
 8495SOL    HW226385   5.592   5.843   6.248
 8496SOL     OW26386   5.205   1.651   2.423
 8496SOL    HW126387   5.196   1.716   2.498
 8496SOL    HW226388   5.123   1.653   2.366
 8497SOL     OW26389   6.706   0.521   2.576
 8497SOL    HW126390   6.713   0.546   2.673
 8497SOL    HW226391   6.717   0.422   2.566
 8498SOL     OW26392   4.921   5.967   4.319
 8498SOL    HW126393   4.920   5.867   4.316
 8498SOL    HW226394   4.997   6.001   4.264
 8499SOL     OW26395   5.808   6.880   5.368
 8499SOL    HW126396   5.788   6.936   5.288
 8499SOL    HW226397   5.794   6.935   5.451
 8500SOL     OW26398   0.949   0.595   6.968
 8500SOL    HW126399   0.868   0.625   0.004
 8500SOL    HW226400   1.004   0.674   6.943
 8501SOL     OW26401   2.951   1.030   6.226
 8501SOL    HW126402   2.857   1.009   6.198
 8501SOL    HW226403   3.015   0.979   6.169
 8502SOL     OW26404   6.299   3.096   0.066
 8502SOL    HW126405   6.366   3.022   0.070
 8502SOL    HW226406   6.313   3.159   0.142
 8503SOL     OW26407   4.736   2.510   5.444
 8503SOL    HW126408   4.638   2.492   5.436
 8503SOL    HW226409   4.754   2.607   5.427
 8504SOL     OW26410   1.030   6.960   2.275
 8504SOL    HW126411   1.108   7.006   2.231
 8504SOL    HW226412   1.063   6.904   2.351
 8505SOL     OW26413   5.531   2.010   2.909
 8505SOL    HW126414   5.496   2.017   2.816
 8505SOL    HW226415   5.463   2.045   2.973
 8506SOL     OW26416   1.217   6.968   6.275
 8506SOL    HW126417   1.210   0.027   6.342
 8506SOL    HW226418   1.248   7.006   6.188
 8507SOL     OW26419   3.822   5.121   5.583
 8507SOL    HW126420   3.886   5.052   5.616
 8507SOL    HW226421   3.801   5.186   5.656
 8508SOL     OW26422   3.266   0.815   6.388
 8508SOL    HW126423   3.272   0.857   6.479
 8508SOL    HW226424   3.274   0.715   6.397
 8509SOL     OW26425   5.164   2.454   2.408
 8509SOL    HW126426   5.199   2.544   2.434
 8509SOL    HW226427   5.064   2.454   2.411
 8510SOL     OW26428   0.733   2.200   4.668
 8510SOL    HW126429   0.790   2.235   4.594
 8510SOL    HW226430   0.638   2.232   4.655
 8511SOL     OW26431   5.923   1.843   3.962
 8511SOL    HW126432   5.978   1.793   3.895
 8511SOL    HW226433   5.863   1.907   3.915
 8512SOL     OW26434   1.962   6.034   5.736
 8512SOL    HW126435   1.949   6.129   5.706
 8512SOL    HW226436   1.907   6.017   5.818
 8513SOL     OW26437   5.209   6.104   6.773
 8513SOL    HW126438   5.130   6.043   6.771
 8513SOL    HW226439   5.211   6.153   6.860
 8514SOL     OW26440   3.361   5.673   4.342
 8514SOL    HW126441   3.334   5.584   4.304
 8514SOL    HW226442   3.359   5.669   4.441
 8515SOL     OW26443   5.957   2.276   2.006
 8515SOL    HW126444   5.926   2.295   2.099
 8515SOL    HW226445   5.953   2.178   1.987
 8516SOL     OW26446   6.608   1.552   2.405
 8516SOL    HW126447   6.665   1.634   2.416
 8516SOL    HW226448   6.628   1.509   2.317
 8517SOL     OW26449   1.226   3.741   5.280
 8517SOL    HW126450   1.322   3.767   5.290
 8517SOL    HW226451   1.178   3.758   5.366
 8518SOL     OW26452   2.959   5.854   0.927
 8518SOL    HW126453   3.055   5.827   0.928
 8518SOL    HW226454   2.943   5.915   0.850
 8519SOL     OW26455   2.628   5.884   3.495
 8519SOL    HW126456   2.620   5.824   3.574
 8519SOL    HW226457   2.725   5.903   3.477
 8520SOL     OW26458   3.328   6.272   6.829
 8520SOL    HW126459   3.270   6.350   6.807
 8520SOL    HW226460   3.304   6.195   6.769
 8521SOL     OW26461   2.095   0.302   2.284
 8521SOL    HW126462   2.133   0.275   2.373
 8521SOL    HW226463   2.166   0.294   2.214
 8522SOL     OW26464   2.562   6.320   4.947
 8522SOL    HW126465   2.518   6.301   4.859
 8522SOL    HW226466   2.512   6.276   5.021
 8523SOL     OW26467   1.684   6.774   6.485
 8523SOL    HW126468   1.635   6.860   6.491
 8523SOL    HW226469   1.618   6.698   6.479
 8524SOL     OW26470   1.820   1.459   6.910
 8524SOL    HW126471   1.809   1.400   6.989
 8524SOL    HW226472   1.913   1.495   6.907
 8525SOL     OW26473   6.056   3.542   3.797
 8525SOL    HW126474   5.960   3.556   3.770
 8525SOL    HW226475   6.078   3.444   3.790
 8526SOL     OW26476   1.680   3.355   2.090
 8526SOL    HW126477   1.766   3.304   2.080
 8526SOL    HW226478   1.630   3.322   2.169
 8527SOL     OW26479   4.846   0.370   4.655
 8527SOL    HW126480   4.891   0.288   4.618
 8527SOL    HW226481   4.830   0.435   4.581
 8528SOL     OW26482   5.625   1.581   6.829
 8528SOL    HW126483   5.615   1.634   6.745
 8528SOL    HW226484   5.683   1.632   6.893
 8529SOL     OW26485   6.838   6.739   5.516
 8529SOL    HW126486   6.920   6.691   5.483
 8529SOL    HW226487   6.863   6.832   5.544
 8530SOL     OW26488   1.972   5.251   5.977
 8530SOL    HW126489   1.901   5.298   6.030
 8530SOL    HW226490   1.933   5.169   5.935
 8531SOL     OW26491   4.294   5.365   1.468
 8531SOL    HW126492   4.310   5.456   1.428
 8531SOL    HW226493   4.201   5.360   1.503
 8532SOL     OW26494   1.790   4.060   0.528
 8532SOL    HW126495   1.807   3.965   0.555
 8532SOL    HW226496   1.769   4.115   0.608
 8533SOL     OW26497   3.878   6.415   5.671
 8533SOL    HW126498   3.844   6.376   5.585
 8533SOL    HW226499   3.967   6.458   5.656
 8534SOL     OW26500   1.970   2.451   0.984
 8534SOL    HW126501   2.018   2.388   1.046
 8534SOL    HW226502   1.900   2.401   0.934
 8535SOL     OW26503   0.392   3.299   5.777
 8535SOL    HW126504   0.397   3.230   5.706
 8535SOL    HW226505   0.318   3.363   5.756
 8536SOL     OW26506   6.086   1.148   5.897
 8536SOL    HW126507   6.149   1.224   5.909
 8536SOL    HW226508   5.993   1.182   5.886
 8537SOL     OW26509   4.427   6.113   3.757
 8537SOL    HW126510   4.380   6.201   3.756
 8537SOL    HW226511   4.443   6.083   3.663
 8538SOL     OW26512   5.160   0.153   5.023
 8538SOL    HW126513   5.144   0.129   4.927
 8538SOL    HW226514   5.249   0.197   5.032
 8539SOL     OW26515   0.873   3.051   2.610
 8539SOL    HW126516   0.912   3.144   2.609
 8539SOL    HW226517   0.782   3.052   2.569
 8540SOL     OW26518   3.949   0.112   6.901
 8540SOL    HW126519   3.958   0.210   6.882
 8540SOL    HW226520   3.917   0.065   6.819
 8541SOL     OW26521   2.829   6.663   5.281
 8541SOL    HW126522   2.736   6.644   5.311
 8541SOL    HW226523   2.846   6.618   5.194
 8542SOL     OW26524   0.939   5.369   5.742
 8542SOL    HW126525   1.038   5.357   5.750
 8542SOL    HW226526   0.893   5.307   5.805
 8543SOL     OW26527   3.092   2.308   5.415
 8543SOL    HW126528   3.146   2.330   5.333
 8543SOL    HW226529   3.076   2.210   5.419
 8544SOL     OW26530   5.445   4.252   5.491
 8544SOL    HW126531   5.532   4.298   5.512
 8544SOL    HW226532   5.380   4.267   5.566
 8545SOL     OW26533   2.159   0.159   6.072
 8545SOL    HW126534   2.165   0.182   6.169
 8545SOL    HW226535   2.190   0.238   6.018
 8546SOL     OW26536   3.521   1.291   3.678
 8546SOL    HW126537   3.513   1.388   3.657
 8546SOL    HW226538   3.547   1.241   3.596
 8547SOL     OW26539   5.156   6.370   5.949
 8547SOL    HW126540   5.187   6.341   6.039
 8547SOL    HW226541   5.211   6.323   5.879
 8548SOL     OW26542   1.388   4.242   4.175
 8548SOL    HW126543   1.346   4.288   4.097
 8548SOL    HW226544   1.401   4.307   4.249
 8549SOL     OW26545   2.718   0.228   3.925
 8549SOL    HW126546   2.713   0.219   3.826
 8549SOL    HW226547   2.635   0.189   3.967
 8550SOL     OW26548   0.402   4.579   5.442
 8550SOL    HW126549   0.388   4.533   5.354
 8550SOL    HW226550   0.489   4.551   5.481
 8551SOL     OW26551   3.648   1.213   4.727
 8551SOL    HW126552   3.560   1.209   4.680
 8551SOL    HW226553   3.638   1.178   4.820
 8552SOL     OW26554   3.594   1.822   2.011
 8552SOL    HW126555   3.639   1.825   1.922
 8552SOL    HW226556   3.526   1.896   2.017
 8553SOL     OW26557   4.687   4.076   0.972
 8553SOL    HW126558   4.773   4.026   0.981
 8553SOL    HW226559   4.639   4.047   0.890
 8554SOL     OW26560   1.266   0.939   6.420
 8554SOL    HW126561   1.318   0.953   6.505
 8554SOL    HW226562   1.313   0.871   6.364
 8555SOL     OW26563   3.033   1.788   3.437
 8555SOL    HW126564   3.111   1.738   3.401
 8555SOL    HW226565   2.963   1.798   3.366
 8556SOL     OW26566   6.892   5.212   5.234
 8556SOL    HW126567   6.802   5.181   5.262
 8556SOL    HW226568   6.946   5.135   5.201
 8557SOL     OW26569   6.511   1.131   0.062
 8557SOL    HW126570   6.601   1.098   0.092
 8557SOL    HW226571   6.520   1.223   0.024
 8558SOL     OW26572   2.776   6.431   4.022
 8558SOL    HW126573   2.850   6.496   4.037
 8558SOL    HW226574   2.739   6.401   4.110
 8559SOL     OW26575   1.565   3.478   2.588
 8559SOL    HW126576   1.652   3.443   2.623
 8559SOL    HW226577   1.503   3.495   2.664
 8560SOL     OW26578   3.557   3.894   1.406
 8560SOL    HW126579   3.509   3.859   1.325
 8560SOL    HW226580   3.516   3.855   1.488
 8561SOL     OW26581   4.097   0.468   3.123
 8561SOL    HW126582   4.183   0.417   3.121
 8561SOL    HW226583   4.035   0.427   3.190
 8562SOL     OW26584   5.623   2.481   6.283
 8562SOL    HW126585   5.619   2.428   6.198
 8562SOL    HW226586   5.614   2.420   6.361
 8563SOL     OW26587   2.003   5.229   2.855
 8563SOL    HW126588   2.088   5.215   2.804
 8563SOL    HW226589   1.979   5.145   2.904
 8564SOL     OW26590   3.691   5.929   0.338
 8564SOL    HW126591   3.663   6.023   0.324
 8564SOL    HW226592   3.634   5.868   0.283
 8565SOL     OW26593   1.099   5.188   1.134
 8565SOL    HW126594   1.141   5.234   1.057
 8565SOL    HW226595   1.008   5.226   1.150
 8566SOL     OW26596   3.723   0.720   3.416
 8566SOL    HW126597   3.813   0.709   3.458
 8566SOL    HW226598   3.731   0.711   3.317
 8567SOL     OW26599   1.672   2.382   1.482
 8567SOL    HW126600   1.689   2.353   1.576
 8567SOL    HW226601   1.629   2.472   1.482
 8568SOL     OW26602   6.091   0.133   5.980
 8568SOL    HW126603   6.077   0.170   5.889
 8568SOL    HW226604   6.139   0.201   6.036
 8569SOL     OW26605   5.135   1.569   0.157
 8569SOL    HW126606   5.049   1.598   0.116
 8569SOL    HW226607   5.129   1.472   0.181
 8570SOL     OW26608   2.094   1.593   3.310
 8570SOL    HW126609   2.081   1.506   3.357
 8570SOL    HW226610   2.032   1.597   3.231
 8571SOL     OW26611   1.430   0.447   3.498
 8571SOL    HW126612   1.407   0.545   3.496
 8571SOL    HW226613   1.348   0.394   3.476
 8572SOL     OW26614   3.129   3.935   5.630
 8572SOL    HW126615   3.225   3.907   5.630
 8572SOL    HW226616   3.090   3.920   5.538
 8573SOL     OW26617   1.962   6.117   6.196
 8573SOL    HW126618   1.936   6.205   6.156
 8573SOL    HW226619   1.909   6.101   6.280
 8574SOL     OW26620   5.548   1.198   5.411
 8574SOL    HW126621   5.622   1.133   5.391
 8574SOL    HW226622   5.460   1.149   5.408
 8575SOL     OW26623   3.386   6.190   4.762
 8575SOL    HW126624   3.403   6.105   4.713
 8575SOL    HW226625   3.454   6.258   4.735
 8576SOL     OW26626   1.362   4.312   4.627
 8576SOL    HW126627   1.322   4.312   4.535
 8576SOL    HW226628   1.432   4.384   4.632
 8577SOL     OW26629   2.267   0.580   0.485
 8577SOL    HW126630   2.296   0.637   0.408
 8577SOL    HW226631   2.254   0.486   0.454
 8578SOL     OW26632   0.945   0.022   5.971
 8578SOL    HW126633   0.882   0.021   6.048
 8578SOL    HW226634   1.019   0.087   5.989
 8579SOL     OW26635   3.559   0.089   1.948
 8579SOL    HW126636   3.525   0.180   1.926
 8579SOL    HW226637   3.657   0.084   1.927
 8580SOL     OW26638   2.187   0.660   1.962
 8580SOL    HW126639   2.174   0.725   1.888
 8580SOL    HW226640   2.261   0.597   1.939
 8581SOL     OW26641   3.901   3.947   2.197
 8581SOL    HW126642   3.892   4.005   2.278
 8581SOL    HW226643   3.860   3.993   2.118
 8582SOL     OW26644   4.496   5.646   6.045
 8582SOL    HW126645   4.415   5.607   6.001
 8582SOL    HW226646   4.534   5.719   5.987
 8583SOL     OW26647   3.407   6.984   2.587
 8583SOL    HW126648   3.332   0.033   2.570
 8583SOL    HW226649   3.433   6.940   2.501
 8584SOL     OW26650   6.394   1.635   4.989
 8584SOL    HW126651   6.357   1.713   5.040
 8584SOL    HW226652   6.371   1.644   4.893
 8585SOL     OW26653   4.977   2.302   2.048
 8585SOL    HW126654   5.040   2.312   1.971
 8585SOL    HW226655   4.961   2.391   2.091
 8586SOL     OW26656   6.003   5.848   5.564
 8586SOL    HW126657   5.920   5.791   5.562
 8586SOL    HW226658   6.024   5.871   5.659
 8587SOL     OW26659   6.588   1.362   6.838
 8587SOL    HW126660   6.594   1.412   6.924
 8587SOL    HW226661   6.662   1.295   6.834
 8588SOL     OW26662   1.588   0.749   5.299
 8588SOL    HW126663   1.652   0.770   5.225
 8588SOL    HW226664   1.531   0.671   5.273
 8589SOL     OW26665   5.579   2.935   6.766
 8589SOL    HW126666   5.638   2.952   6.845
 8589SOL    HW226667   5.585   3.011   6.702
 8590SOL     OW26668   1.135   1.517   3.525
 8590SOL    HW126669   1.205   1.521   3.596
 8590SOL    HW226670   1.130   1.605   3.478
 8591SOL     OW26671   0.592   3.807   4.873
 8591SOL    HW126672   0.642   3.893   4.872
 8591SOL    HW226673   0.513   3.814   4.934
 8592SOL     OW26674   6.916   1.954   4.020
 8592SOL    HW126675   6.981   2.015   4.065
 8592SOL    HW226676   6.903   1.872   4.076
 8593SOL     OW26677   6.361   1.435   0.065
 8593SOL    HW126678   6.312   1.391   0.141
 8593SOL    HW226679   6.340   1.387   6.996
 8594SOL     OW26680   5.838   4.455   6.160
 8594SOL    HW126681   5.888   4.428   6.242
 8594SOL    HW226682   5.849   4.385   6.089
 8595SOL     OW26683   5.019   6.139   2.980
 8595SOL    HW126684   5.105   6.189   2.969
 8595SOL    HW226685   5.013   6.068   2.910
 8596SOL     OW26686   1.324   2.494   5.380
 8596SOL    HW126687   1.324   2.564   5.451
 8596SOL    HW226688   1.242   2.503   5.324
 8597SOL     OW26689   5.846   2.246   6.269
 8597SOL    HW126690   5.754   2.261   6.233
 8597SOL    HW226691   5.859   2.300   6.352
 8598SOL     OW26692   0.040   0.536   5.895
 8598SOL    HW126693   0.071   0.630   5.880
 8598SOL    HW226694   0.094   0.473   5.839
 8599SOL     OW26695   6.074   4.402   4.899
 8599SOL    HW126696   6.011   4.466   4.942
 8599SOL    HW226697   6.085   4.322   4.957
 8600SOL     OW26698   4.489   2.886   1.677
 8600SOL    HW126699   4.490   2.948   1.598
 8600SOL    HW226700   4.493   2.940   1.761
 8601SOL     OW26701   5.378   5.811   2.718
 8601SOL    HW126702   5.328   5.729   2.745
 8601SOL    HW226703   5.433   5.791   2.637
 8602SOL     OW26704   2.003   0.226   5.573
 8602SOL    HW126705   2.014   0.199   5.669
 8602SOL    HW226706   1.914   0.270   5.561
 8603SOL     OW26707   0.810   0.863   6.422
 8603SOL    HW126708   0.736   0.910   6.470
 8603SOL    HW226709   0.773   0.787   6.369
 8604SOL     OW26710   1.658   5.662   5.927
 8604SOL    HW126711   1.638   5.696   5.835
 8604SOL    HW226712   1.596   5.586   5.948
 8605SOL     OW26713   6.882   4.409   3.818
 8605SOL    HW126714   6.895   4.478   3.890
 8605SOL    HW226715   6.813   4.442   3.753
 8606SOL     OW26716   1.277   0.656   0.099
 8606SOL    HW126717   1.241   0.731   0.154
 8606SOL    HW226718   1.201   0.601   0.063
 8607SOL     OW26719   2.882   3.114   1.709
 8607SOL    HW126720   2.931   3.109   1.622
 8607SOL    HW226721   2.810   3.184   1.703
 8608SOL     OW26722   1.478   5.932   1.757
 8608SOL    HW126723   1.381   5.954   1.769
 8608SOL    HW226724   1.496   5.841   1.795
 8609SOL     OW26725   5.249   2.121   4.777
 8609SOL    HW126726   5.186   2.130   4.700
 8609SOL    HW226727   5.233   2.196   4.842
 8610SOL     OW26728   6.617   5.210   2.891
 8610SOL    HW126729   6.593   5.267   2.813
 8610SOL    HW226730   6.696   5.251   2.938
 8611SOL     OW26731   2.247   1.462   5.314
 8611SOL    HW126732   2.327   1.501   5.269
 8611SOL    HW226733   2.276   1.409   5.394
 8612SOL     OW26734   3.672   3.317   5.094
 8612SOL    HW126735   3.593   3.348   5.040
 8612SOL    HW226736   3.640   3.274   5.178
 8613SOL     OW26737   4.095   3.263   3.571
 8613SOL    HW126738   4.193   3.251   3.551
 8613SOL    HW226739   4.082   3.265   3.670
 8614SOL     OW26740   0.777   2.293   3.310
 8614SOL    HW126741   0.824   2.381   3.306
 8614SOL    HW226742   0.750   2.265   3.218
 8615SOL     OW26743   3.593   1.902   5.556
 8615SOL    HW126744   3.497   1.884   5.579
 8615SOL    HW226745   3.597   1.964   5.478
 8616SOL     OW26746   5.612   4.590   5.161
 8616SOL    HW126747   5.516   4.608   5.139
 8616SOL    HW226748   5.660   4.676   5.175
 8617SOL     OW26749   1.388   6.470   3.115
 8617SOL    HW126750   1.341   6.550   3.152
 8617SOL    HW226751   1.400   6.403   3.188
 8618SOL     OW26752   5.473   4.116   0.776
 8618SOL    HW126753   5.533   4.052   0.823
 8618SOL    HW226754   5.485   4.207   0.814
 8619SOL     OW26755   5.015   5.948   0.524
 8619SOL    HW126756   4.974   5.932   0.434
 8619SOL    HW226757   5.033   5.861   0.569
 8620SOL     OW26758   2.012   6.071   3.748
 8620SOL    HW126759   2.047   6.105   3.660
 8620SOL    HW226760   2.071   6.102   3.822
 8621SOL     OW26761   5.807   3.664   1.962
 8621SOL    HW126762   5.714   3.628   1.966
 8621SOL    HW226763   5.853   3.629   1.880
 8622SOL     OW26764   0.575   5.523   2.119
 8622SOL    HW126765   0.648   5.483   2.064
 8622SOL    HW226766   0.502   5.455   2.130
 8623SOL     OW26767   1.948   1.965   3.511
 8623SOL    HW126768   2.044   1.992   3.521
 8623SOL    HW226769   1.890   2.035   3.553
 8624SOL     OW26770   3.429   4.367   5.554
 8624SOL    HW126771   3.475   4.376   5.642
 8624SOL    HW226772   3.406   4.458   5.519
 8625SOL     OW26773   4.667   3.835   6.017
 8625SOL    HW126774   4.707   3.920   5.985
 8625SOL    HW226775   4.666   3.834   6.117
 8626SOL     OW26776   4.868   1.818   1.539
 8626SOL    HW126777   4.924   1.772   1.470
 8626SOL    HW226778   4.777   1.777   1.540
 8627SOL     OW26779   1.595   0.075   2.692
 8627SOL    HW126780   1.547   0.146   2.640
 8627SOL    HW226781   1.543   7.005   2.688
 8628SOL     OW26782   1.068   6.941   1.044
 8628SOL    HW126783   1.073   7.010   1.117
 8628SOL    HW226784   1.079   6.850   1.084
 8629SOL     OW26785   0.328   6.857   4.485
 8629SOL    HW126786   0.351   6.942   4.438
 8629SOL    HW226787   0.244   6.819   4.446
 8630SOL     OW26788   4.806   2.755   1.560
 8630SOL    HW126789   4.877   2.811   1.517
 8630SOL    HW226790   4.721   2.763   1.508
 8631SOL     OW26791   2.185   5.921   6.216
 8631SOL    HW126792   2.108   5.985   6.216
 8631SOL    HW226793   2.228   5.921   6.125
 8632SOL     OW26794   6.288   5.502   3.887
 8632SOL    HW126795   6.345   5.437   3.838
 8632SOL    HW226796   6.193   5.492   3.857
 8633SOL     OW26797   6.153   3.934   5.445
 8633SOL    HW126798   6.211   4.012   5.467
 8633SOL    HW226799   6.170   3.904   5.351
 8634SOL     OW26800   5.314   4.746   6.739
 8634SOL    HW126801   5.366   4.714   6.660
 8634SOL    HW226802   5.245   4.811   6.710
 8635SOL     OW26803   4.777   2.780   6.749
 8635SOL    HW126804   4.817   2.869   6.727
 8635SOL    HW226805   4.681   2.792   6.775
 8636SOL     OW26806   4.113   6.099   1.831
 8636SOL    HW126807   4.153   6.180   1.873
 8636SOL    HW226808   4.031   6.071   1.883
 8637SOL     OW26809   1.966   2.454   6.969
 8637SOL    HW126810   1.975   2.355   6.961
 8637SOL    HW226811   1.968   2.495   6.877
 8638SOL     OW26812   4.814   2.875   4.360
 8638SOL    HW126813   4.835   2.965   4.398
 8638SOL    HW226814   4.791   2.813   4.435
 8639SOL     OW26815   2.999   4.609   0.374
 8639SOL    HW126816   2.987   4.587   0.471
 8639SOL    HW226817   3.013   4.707   0.364
 8640SOL     OW26818   4.126   2.488   0.661
 8640SOL    HW126819   4.104   2.474   0.758
 8640SOL    HW226820   4.223   2.468   0.646
 8641SOL     OW26821   3.165   4.883   3.060
 8641SOL    HW126822   3.231   4.924   2.997
 8641SOL    HW226823   3.099   4.828   3.009
 8642SOL     OW26824   2.360   5.906   3.137
 8642SOL    HW126825   2.325   5.875   3.048
 8642SOL    HW226826   2.300   5.872   3.210
 8643SOL     OW26827   3.628   6.598   1.410
 8643SOL    HW126828   3.626   6.634   1.317
 8643SOL    HW226829   3.718   6.558   1.428
 8644SOL     OW26830   6.010   2.957   6.015
 8644SOL    HW126831   5.927   2.905   6.001
 8644SOL    HW226832   6.052   2.930   6.102
 8645SOL     OW26833   5.219   5.284   2.907
 8645SOL    HW126834   5.161   5.288   2.988
 8645SOL    HW226835   5.212   5.369   2.856
 8646SOL     OW26836   0.219   2.838   5.318
 8646SOL    HW126837   0.135   2.786   5.303
 8646SOL    HW226838   0.298   2.779   5.300
 8647SOL     OW26839   1.561   5.314   1.812
 8647SOL    HW126840   1.491   5.284   1.876
 8647SOL    HW226841   1.649   5.321   1.860
 8648SOL     OW26842   4.760   5.223   0.323
 8648SOL    HW126843   4.751   5.172   0.408
 8648SOL    HW226844   4.681   5.283   0.310
 8649SOL     OW26845   5.155   1.915   0.936
 8649SOL    HW126846   5.153   1.818   0.962
 8649SOL    HW226847   5.220   1.928   0.862
 8650SOL     OW26848   2.086   0.522   5.801
 8650SOL    HW126849   2.149   0.445   5.787
 8650SOL    HW226850   2.007   0.512   5.741
 8651SOL     OW26851   3.990   1.859   1.795
 8651SOL    HW126852   3.937   1.935   1.832
 8651SOL    HW226853   3.930   1.781   1.778
 8652SOL     OW26854   0.710   2.482   3.882
 8652SOL    HW126855   0.618   2.469   3.846
 8652SOL    HW226856   0.717   2.440   3.972
 8653SOL     OW26857   6.013   1.160   6.881
 8653SOL    HW126858   5.979   1.081   6.931
 8653SOL    HW226859   5.938   1.224   6.866
 8654SOL     OW26860   6.919   4.722   2.872
 8654SOL    HW126861   6.875   4.685   2.791
 8654SOL    HW226862   6.957   4.812   2.851
 8655SOL     OW26863   0.841   0.056   4.916
 8655SOL    HW126864   0.769   0.021   4.976
 8655SOL    HW226865   0.831   0.155   4.905
 8656SOL     OW26866   4.413   6.719   0.809
 8656SOL    HW126867   4.489   6.654   0.812
 8656SOL    HW226868   4.331   6.673   0.776
 8657SOL     OW26869   2.863   1.851   2.901
 8657SOL    HW126870   2.818   1.762   2.889
 8657SOL    HW226871   2.838   1.911   2.825
 8658SOL     OW26872   6.646   3.764   1.296
 8658SOL    HW126873   6.653   3.720   1.385
 8658SOL    HW226874   6.592   3.707   1.234
 8659SOL     OW26875   3.983   0.661   2.874
 8659SOL    HW126876   3.986   0.608   2.959
 8659SOL    HW226877   4.071   0.653   2.826
 8660SOL     OW26878   0.538   3.684   1.428
 8660SOL    HW126879   0.633   3.698   1.456
 8660SOL    HW226880   0.487   3.642   1.504
 8661SOL     OW26881   6.271   3.588   1.874
 8661SOL    HW126882   6.369   3.606   1.888
 8661SOL    HW226883   6.217   3.657   1.922
 8662SOL     OW26884   1.261   2.043   2.546
 8662SOL    HW126885   1.273   2.123   2.487
 8662SOL    HW226886   1.345   2.027   2.598
 8663SOL     OW26887   3.966   4.869   2.648
 8663SOL    HW126888   3.881   4.860   2.597
 8663SOL    HW226889   4.036   4.910   2.590
 8664SOL     OW26890   3.234   6.418   4.475
 8664SOL    HW126891   3.284   6.345   4.429
 8664SOL    HW226892   3.178   6.379   4.549
 8665SOL     OW26893   5.828   4.026   6.764
 8665SOL    HW126894   5.910   4.014   6.820
 8665SOL    HW226895   5.838   4.107   6.706
 8666SOL     OW26896   4.890   0.703   3.078
 8666SOL    HW126897   4.906   0.679   3.174
 8666SOL    HW226898   4.933   0.636   3.019
 8667SOL     OW26899   5.420   2.465   2.072
 8667SOL    HW126900   5.490   2.393   2.073
 8667SOL    HW226901   5.465   2.555   2.069
 8668SOL     OW26902   4.426   2.107   4.560
 8668SOL    HW126903   4.428   2.015   4.601
 8668SOL    HW226904   4.352   2.160   4.601
 8669SOL     OW26905   6.757   6.177   6.561
 8669SOL    HW126906   6.774   6.225   6.647
 8669SOL    HW226907   6.802   6.226   6.486
 8670SOL     OW26908   0.172   5.225   5.332
 8670SOL    HW126909   0.187   5.185   5.242
 8670SOL    HW226910   0.199   5.159   5.403
 8671SOL     OW26911   0.293   2.945   3.009
 8671SOL    HW126912   0.259   2.851   3.023
 8671SOL    HW226913   0.216   3.008   3.002
 8672SOL     OW26914   6.970   1.382   2.370
 8672SOL    HW126915   0.039   1.381   2.423
 8672SOL    HW226916   6.893   1.358   2.429
 8673SOL     OW26917   1.006   1.352   1.295
 8673SOL    HW126918   1.082   1.334   1.232
 8673SOL    HW226919   0.957   1.433   1.265
 8674SOL     OW26920   6.921   4.231   3.325
 8674SOL    HW126921   6.939   4.326   3.349
 8674SOL    HW226922   7.004   4.189   3.288
 8675SOL     OW26923   4.569   2.738   5.079
 8675SOL    HW126924   4.520   2.796   5.144
 8675SOL    HW226925   4.531   2.646   5.081
 8676SOL     OW26926   4.674   2.407   0.977
 8676SOL    HW126927   4.602   2.458   0.931
 8676SOL    HW226928   4.672   2.312   0.947
 8677SOL     OW26929   2.898   0.216   6.761
 8677SOL    HW126930   2.918   0.133   6.814
 8677SOL    HW226931   2.825   0.267   6.806
 8678SOL     OW26932   2.822   2.350   0.059
 8678SOL    HW126933   2.818   2.370   0.157
 8678SOL    HW226934   2.863   2.260   0.045
 8679SOL     OW26935   1.775   1.913   6.483
 8679SOL    HW126936   1.797   1.815   6.478
 8679SOL    HW226937   1.717   1.930   6.562
 8680SOL     OW26938   0.018   0.393   0.899
 8680SOL    HW126939   0.035   0.487   0.872
 8680SOL    HW226940   0.065   0.374   0.985
 8681SOL     OW26941   5.595   5.145   1.401
 8681SOL    HW126942   5.647   5.084   1.342
 8681SOL    HW226943   5.584   5.234   1.355
 8682SOL     OW26944   2.695   0.909   2.471
 8682SOL    HW126945   2.766   0.891   2.538
 8682SOL    HW226946   2.621   0.961   2.513
 8683SOL     OW26947   2.421   4.397   4.013
 8683SOL    HW126948   2.450   4.369   3.922
 8683SOL    HW226949   2.440   4.325   4.079
 8684SOL     OW26950   2.256   4.186   3.351
 8684SOL    HW126951   2.320   4.261   3.333
 8684SOL    HW226952   2.216   4.154   3.266
 8685SOL     OW26953   5.020   3.522   4.875
 8685SOL    HW126954   4.931   3.565   4.891
 8685SOL    HW226955   5.042   3.461   4.951
 8686SOL     OW26956   1.104   4.825   2.536
 8686SOL    HW126957   1.044   4.794   2.463
 8686SOL    HW226958   1.189   4.772   2.534
 8687SOL     OW26959   5.139   4.495   5.490
 8687SOL    HW126960   5.082   4.428   5.539
 8687SOL    HW226961   5.172   4.564   5.554
 8688SOL     OW26962   1.097   3.932   4.671
 8688SOL    HW126963   1.081   3.958   4.576
 8688SOL    HW226964   1.193   3.907   4.683
 8689SOL     OW26965   4.433   3.544   0.927
 8689SOL    HW126966   4.421   3.489   1.010
 8689SOL    HW226967   4.424   3.641   0.950
 8690SOL     OW26968   1.023   1.649   2.316
 8690SOL    HW126969   1.085   1.708   2.264
 8690SOL    HW226970   1.045   1.553   2.298
 8691SOL     OW26971   3.595   2.104   6.959
 8691SOL    HW126972   3.519   2.046   6.927
 8691SOL    HW226973   3.573   2.141   0.034
 8692SOL     OW26974   5.078   2.645   4.483
 8692SOL    HW126975   5.043   2.703   4.557
 8692SOL    HW226976   5.103   2.703   4.405
 8693SOL     OW26977   6.875   6.903   5.230
 8693SOL    HW126978   6.908   6.933   5.319
 8693SOL    HW226979   6.843   6.981   5.177
 8694SOL     OW26980   4.508   3.807   5.756
 8694SOL    HW126981   4.493   3.712   5.728
 8694SOL    HW226982   4.420   3.854   5.763
 8695SOL     OW26983   3.489   5.123   1.066
 8695SOL    HW126984   3.475   5.098   0.971
 8695SOL    HW226985   3.586   5.125   1.087
 8696SOL     OW26986   2.500   6.072   6.430
 8696SOL    HW126987   2.567   6.125   6.377
 8696SOL    HW226988   2.529   5.976   6.432
 8697SOL     OW26989   1.078   3.466   5.068
 8697SOL    HW126990   1.166   3.511   5.050
 8697SOL    HW226991   1.005   3.535   5.067
 8698SOL     OW26992   4.424   4.415   6.709
 8698SOL    HW126993   4.332   4.453   6.717
 8698SOL    HW226994   4.441   4.386   6.615
 8699SOL     OW26995   2.491   2.265   1.025
 8699SOL    HW126996   2.441   2.233   1.105
 8699SOL    HW226997   2.427   2.301   0.957
 8700SOL     OW26998   0.281   1.552   4.469
 8700SOL    HW126999   0.292   1.508   4.558
 8700SOL    HW227000   0.336   1.635   4.466
 8701SOL     OW27001   1.702   4.029   6.473
 8701SOL    HW127002   1.727   4.039   6.377
 8701SOL    HW227003   1.603   4.026   6.482
 8702SOL     OW27004   5.990   4.363   1.603
 8702SOL    HW127005   5.941   4.335   1.521
 8702SOL    HW227006   5.991   4.463   1.609
 8703SOL     OW27007   2.258   5.800   2.006
 8703SOL    HW127008   2.284   5.725   1.945
 8703SOL    HW227009   2.303   5.789   2.094
 8704SOL     OW27010   6.917   1.744   4.153
 8704SOL    HW127011   6.822   1.733   4.183
 8704SOL    HW227012   6.963   1.655   4.159
 8705SOL     OW27013   3.791   2.076   0.791
 8705SOL    HW127014   3.786   2.170   0.825
 8705SOL    HW227015   3.703   2.031   0.805
 8706SOL     OW27016   5.153   2.847   6.286
 8706SOL    HW127017   5.102   2.828   6.370
 8706SOL    HW227018   5.232   2.905   6.307
 8707SOL     OW27019   1.211   0.881   4.265
 8707SOL    HW127020   1.253   0.839   4.346
 8707SOL    HW227021   1.112   0.890   4.281
 8708SOL     OW27022   5.744   2.509   0.746
 8708SOL    HW127023   5.833   2.538   0.712
 8708SOL    HW227024   5.725   2.554   0.833
 8709SOL     OW27025   6.803   6.139   3.923
 8709SOL    HW127026   6.821   6.207   3.853
 8709SOL    HW227027   6.886   6.085   3.938
 8710SOL     OW27028   2.186   2.265   3.651
 8710SOL    HW127029   2.222   2.196   3.713
 8710SOL    HW227030   2.168   2.223   3.562
 8711SOL     OW27031   1.820   1.235   2.104
 8711SOL    HW127032   1.896   1.287   2.064
 8711SOL    HW227033   1.767   1.294   2.164
 8712SOL     OW27034   1.078   4.331   4.236
 8712SOL    HW127035   1.015   4.253   4.237
 8712SOL    HW227036   1.120   4.339   4.146
 8713SOL     OW27037   0.405   3.609   2.594
 8713SOL    HW127038   0.354   3.695   2.602
 8713SOL    HW227039   0.420   3.588   2.497
 8714SOL     OW27040   6.392   4.448   6.335
 8714SOL    HW127041   6.384   4.418   6.430
 8714SOL    HW227042   6.323   4.518   6.316
 8715SOL     OW27043   2.378   5.197   1.210
 8715SOL    HW127044   2.291   5.158   1.180
 8715SOL    HW227045   2.451   5.132   1.191
 8716SOL     OW27046   6.081   0.502   2.248
 8716SOL    HW127047   6.130   0.418   2.268
 8716SOL    HW227048   6.142   0.567   2.204
 8717SOL     OW27049   3.436   2.306   0.737
 8717SOL    HW127050   3.388   2.263   0.813
 8717SOL    HW227051   3.520   2.255   0.717
 8718SOL     OW27052   2.784   5.600   6.340
 8718SOL    HW127053   2.833   5.597   6.253
 8718SOL    HW227054   2.832   5.545   6.408
 8719SOL     OW27055   2.875   1.474   4.910
 8719SOL    HW127056   2.857   1.490   4.813
 8719SOL    HW227057   2.792   1.490   4.963
 8720SOL     OW27058   0.687   6.349   4.783
 8720SOL    HW127059   0.600   6.307   4.807
 8720SOL    HW227060   0.725   6.398   4.862
 8721SOL     OW27061   1.416   0.241   1.017
 8721SOL    HW127062   1.329   0.284   1.044
 8721SOL    HW227063   1.416   0.225   0.919
 8722SOL     OW27064   3.656   1.107   0.445
 8722SOL    HW127065   3.582   1.059   0.492
 8722SOL    HW227066   3.688   1.183   0.502
 8723SOL     OW27067   3.599   6.500   2.710
 8723SOL    HW127068   3.610   6.484   2.808
 8723SOL    HW227069   3.650   6.583   2.684
 8724SOL     OW27070   3.592   1.074   5.231
 8724SOL    HW127071   3.655   1.061   5.308
 8724SOL    HW227072   3.536   1.155   5.248
 8725SOL     OW27073   0.244   0.694   2.464
 8725SOL    HW127074   0.190   0.760   2.516
 8725SOL    HW227075   0.286   0.629   2.527
 8726SOL     OW27076   6.796   1.054   0.377
 8726SOL    HW127077   6.806   1.024   0.471
 8726SOL    HW227078   6.767   1.150   0.375
 8727SOL     OW27079   5.116   5.244   6.459
 8727SOL    HW127080   5.184   5.194   6.404
 8727SOL    HW227081   5.163   5.313   6.514
 8728SOL     OW27082   6.271   6.184   4.520
 8728SOL    HW127083   6.201   6.191   4.449
 8728SOL    HW227084   6.259   6.258   4.586
 8729SOL     OW27085   5.749   5.915   5.967
 8729SOL    HW127086   5.681   5.956   5.906
 8729SOL    HW227087   5.836   5.905   5.919
 8730SOL     OW27088   4.062   4.766   1.824
 8730SOL    HW127089   4.131   4.745   1.754
 8730SOL    HW227090   4.088   4.851   1.871
 8731SOL     OW27091   0.087   1.966   3.751
 8731SOL    HW127092   0.061   1.976   3.655
 8731SOL    HW227093   0.009   1.987   3.809
 8732SOL     OW27094   5.086   6.411   5.582
 8732SOL    HW127095   5.078   6.323   5.630
 8732SOL    HW227096   5.177   6.419   5.542
 8733SOL     OW27097   6.977   4.271   1.975
 8733SOL    HW127098   0.013   4.287   2.060
 8733SOL    HW227099   6.893   4.326   1.976
 8734SOL     OW27100   1.123   5.068   0.399
 8734SOL    HW127101   1.157   5.022   0.481
 8734SOL    HW227102   1.047   5.015   0.360
 8735SOL     OW27103   1.369   2.700   5.888
 8735SOL    HW127104   1.358   2.631   5.959
 8735SOL    HW227105   1.302   2.773   5.901
 8736SOL     OW27106   2.064   5.755   3.413
 8736SOL    HW127107   2.107   5.790   3.497
 8736SOL    HW227108   2.026   5.832   3.361
 8737SOL     OW27109   0.189   5.592   6.962
 8737SOL    HW127110   0.198   5.623   6.868
 8737SOL    HW227111   0.098   5.616   6.997
 8738SOL     OW27112   1.824   2.645   2.100
 8738SOL    HW127113   1.766   2.567   2.076
 8738SOL    HW227114   1.920   2.620   2.085
 8739SOL     OW27115   5.486   4.372   3.046
 8739SOL    HW127116   5.478   4.316   2.963
 8739SOL    HW227117   5.395   4.388   3.085
 8740SOL     OW27118   3.070   1.226   3.187
 8740SOL    HW127119   3.059   1.249   3.091
 8740SOL    HW227120   2.983   1.194   3.224
 8741SOL     OW27121   0.882   1.757   2.520
 8741SOL    HW127122   0.921   1.697   2.451
 8741SOL    HW227123   0.907   1.852   2.500
 8742SOL     OW27124   2.322   2.785   1.936
 8742SOL    HW127125   2.391   2.724   1.974
 8742SOL    HW227126   2.282   2.743   1.855
 8743SOL     OW27127   1.198   3.663   6.804
 8743SOL    HW127128   1.163   3.638   6.894
 8743SOL    HW227129   1.141   3.620   6.733
 8744SOL     OW27130   3.142   3.873   6.101
 8744SOL    HW127131   3.042   3.868   6.109
 8744SOL    HW227132   3.176   3.790   6.056
 8745SOL     OW27133   5.569   1.858   6.585
 8745SOL    HW127134   5.503   1.881   6.657
 8745SOL    HW227135   5.635   1.932   6.574
 8746SOL     OW27136   4.177   4.880   4.689
 8746SOL    HW127137   4.184   4.862   4.591
 8746SOL    HW227138   4.084   4.911   4.711
 8747SOL     OW27139   0.931   0.264   2.227
 8747SOL    HW127140   0.859   0.311   2.176
 8747SOL    HW227141   0.998   0.226   2.163
 8748SOL     OW27142   5.823   1.853   4.257
 8748SOL    HW127143   5.834   1.789   4.181
 8748SOL    HW227144   5.801   1.943   4.221
 8749SOL     OW27145   2.442   1.739   4.092
 8749SOL    HW127146   2.447   1.710   3.996
 8749SOL    HW227147   2.458   1.660   4.151
 8750SOL     OW27148   4.420   3.813   1.281
 8750SOL    HW127149   4.440   3.739   1.344
 8750SOL    HW227150   4.426   3.901   1.329
 8751SOL     OW27151   2.273   0.230   0.681
 8751SOL    HW127152   2.305   0.136   0.695
 8751SOL    HW227153   2.173   0.232   0.683
 8752SOL     OW27154   6.919   3.335   5.818
 8752SOL    HW127155   6.942   3.276   5.896
 8752SOL    HW227156   7.001   3.385   5.789
 8753SOL     OW27157   1.965   1.995   1.008
 8753SOL    HW127158   2.025   1.942   0.949
 8753SOL    HW227159   1.874   2.002   0.966
 8754SOL     OW27160   1.116   5.988   6.448
 8754SOL    HW127161   1.021   5.998   6.481
 8754SOL    HW227162   1.133   6.053   6.375
 8755SOL     OW27163   0.408   2.685   1.512
 8755SOL    HW127164   0.322   2.727   1.482
 8755SOL    HW227165   0.389   2.594   1.550
 8756SOL     OW27166   1.530   1.722   2.003
 8756SOL    HW127167   1.457   1.693   1.941
 8756SOL    HW227168   1.552   1.818   1.985
 8757SOL     OW27169   5.883   5.974   4.746
 8757SOL    HW127170   5.878   6.074   4.740
 8757SOL    HW227171   5.944   5.948   4.821
 8758SOL     OW27172   3.617   5.571   6.203
 8758SOL    HW127173   3.655   5.557   6.112
 8758SOL    HW227174   3.615   5.668   6.224
 8759SOL     OW27175   6.145   1.127   1.350
 8759SOL    HW127176   6.229   1.092   1.392
 8759SOL    HW227177   6.153   1.226   1.338
 8760SOL     OW27178   2.124   2.644   4.551
 8760SOL    HW127179   2.140   2.686   4.462
 8760SOL    HW227180   2.208   2.648   4.605
 8761SOL     OW27181   4.736   2.707   3.010
 8761SOL    HW127182   4.833   2.702   3.033
 8761SOL    HW227183   4.682   2.704   3.095
 8762SOL     OW27184   4.245   6.458   3.033
 8762SOL    HW127185   4.155   6.460   2.989
 8762SOL    HW227186   4.314   6.426   2.968
 8763SOL     OW27187   0.085   1.714   4.832
 8763SOL    HW127188   0.067   1.807   4.864
 8763SOL    HW227189   0.184   1.700   4.825
 8764SOL     OW27190   3.365   4.568   6.166
 8764SOL    HW127191   3.277   4.545   6.208
 8764SOL    HW227192   3.401   4.652   6.209
 8765SOL     OW27193   4.857   6.770   4.000
 8765SOL    HW127194   4.939   6.748   4.053
 8765SOL    HW227195   4.809   6.686   3.975
 8766SOL     OW27196   5.863   0.148   4.894
 8766SOL    HW127197   5.957   0.173   4.920
 8766SOL    HW227198   5.845   0.182   4.802
 8767SOL     OW27199   1.901   0.816   4.865
 8767SOL    HW127200   1.865   0.889   4.806
 8767SOL    HW227201   1.921   0.735   4.811
 8768SOL     OW27202   6.573   1.874   0.947
 8768SOL    HW127203   6.599   1.947   0.883
 8768SOL    HW227204   6.550   1.792   0.895
 8769SOL     OW27205   6.004   6.836   6.399
 8769SOL    HW127206   5.982   6.783   6.317
 8769SOL    HW227207   6.087   6.799   6.441
 8770SOL     OW27208   4.720   1.829   6.703
 8770SOL    HW127209   4.724   1.859   6.798
 8770SOL    HW227210   4.673   1.898   6.648
 8771SOL     OW27211   0.779   2.416   6.194
 8771SOL    HW127212   0.738   2.330   6.166
 8771SOL    HW227213   0.794   2.474   6.113
 8772SOL     OW27214   0.883   6.715   3.565
 8772SOL    HW127215   0.932   6.765   3.493
 8772SOL    HW227216   0.945   6.693   3.640
 8773SOL     OW27217   0.338   1.503   3.790
 8773SOL    HW127218   0.304   1.594   3.814
 8773SOL    HW227219   0.437   1.507   3.777
 8774SOL     OW27220   1.530   1.954   6.649
 8774SOL    HW127221   1.553   1.861   6.620
 8774SOL    HW227222   1.497   1.953   6.743
 8775SOL     OW27223   5.217   2.240   2.844
 8775SOL    HW127224   5.133   2.246   2.897
 8775SOL    HW227225   5.284   2.186   2.895
 8776SOL     OW27226   4.963   3.005   1.431
 8776SOL    HW127227   5.021   3.037   1.505
 8776SOL    HW227228   4.896   3.075   1.407
 8777SOL     OW27229   6.638   2.082   3.434
 8777SOL    HW127230   6.710   2.013   3.435
 8777SOL    HW227231   6.642   2.133   3.349
 8778SOL     OW27232   2.386   4.076   0.077
 8778SOL    HW127233   2.309   4.100   0.018
 8778SOL    HW227234   2.423   3.987   0.049
 8779SOL     OW27235   4.038   5.819   3.383
 8779SOL    HW127236   4.023   5.824   3.284
 8779SOL    HW227237   4.066   5.909   3.417
 8780SOL     OW27238   0.848   4.186   4.159
 8780SOL    HW127239   0.770   4.141   4.202
 8780SOL    HW227240   0.844   4.174   4.060
 8781SOL     OW27241   2.958   1.786   1.371
 8781SOL    HW127242   3.012   1.867   1.397
 8781SOL    HW227243   3.019   1.717   1.333
 8782SOL     OW27244   6.633   2.234   0.285
 8782SOL    HW127245   6.693   2.301   0.240
 8782SOL    HW227246   6.552   2.219   0.229
 8783SOL     OW27247   4.232   4.061   5.360
 8783SOL    HW127248   4.283   4.143   5.385
 8783SOL    HW227249   4.146   4.087   5.315
 8784SOL     OW27250   4.451   0.872   6.679
 8784SOL    HW127251   4.480   0.852   6.585
 8784SOL    HW227252   4.374   0.814   6.703
 8785SOL     OW27253   6.913   5.882   5.574
 8785SOL    HW127254   6.872   5.860   5.662
 8785SOL    HW227255   7.009   5.854   5.574
 8786SOL     OW27256   5.753   1.996   3.130
 8786SOL    HW127257   5.735   1.980   3.227
 8786SOL    HW227258   5.693   2.067   3.096
 8787SOL     OW27259   3.471   5.153   2.125
 8787SOL    HW127260   3.498   5.244   2.155
 8787SOL    HW227261   3.550   5.106   2.086
 8788SOL     OW27262   0.182   6.090   4.248
 8788SOL    HW127263   0.210   5.994   4.246
 8788SOL    HW227264   0.261   6.148   4.228
 8789SOL     OW27265   1.321   2.937   6.605
 8789SOL    HW127266   1.223   2.959   6.605
 8789SOL    HW227267   1.368   2.996   6.540
 8790SOL     OW27268   4.737   2.786   4.871
 8790SOL    HW127269   4.666   2.770   4.939
 8790SOL    HW227270   4.724   2.877   4.831
 8791SOL     OW27271   4.274   6.195   5.271
 8791SOL    HW127272   4.209   6.163   5.340
 8791SOL    HW227273   4.343   6.253   5.314
 8792SOL     OW27274   5.815   5.485   1.279
 8792SOL    HW127275   5.884   5.481   1.351
 8792SOL    HW227276   5.834   5.415   1.211
 8793SOL     OW27277   6.415   6.376   5.396
 8793SOL    HW127278   6.328   6.412   5.431
 8793SOL    HW227279   6.435   6.417   5.308
 8794SOL     OW27280   0.283   1.856   2.691
 8794SOL    HW127281   0.203   1.916   2.684
 8794SOL    HW227282   0.317   1.857   2.785
 8795SOL     OW27283   1.153   6.818   6.603
 8795SOL    HW127284   1.079   6.793   6.541
 8795SOL    HW227285   1.145   6.915   6.628
 8796SOL     OW27286   5.707   4.223   4.553
 8796SOL    HW127287   5.646   4.302   4.545
 8796SOL    HW227288   5.657   4.147   4.594
 8797SOL     OW27289   4.847   6.033   4.560
 8797SOL    HW127290   4.822   6.130   4.555
 8797SOL    HW227291   4.883   6.003   4.472
 8798SOL     OW27292   1.803   5.981   6.019
 8798SOL    HW127293   1.848   6.033   6.092
 8798SOL    HW227294   1.822   5.883   6.031
 8799SOL     OW27295   1.398   6.128   1.373
 8799SOL    HW127296   1.475   6.143   1.436
 8799SOL    HW227297   1.330   6.200   1.387
 8800SOL     OW27298   6.667   5.831   3.891
 8800SOL    HW127299   6.617   5.868   3.813
 8800SOL    HW227300   6.660   5.893   3.969
 8801SOL     OW27301   4.975   3.470   5.841
 8801SOL    HW127302   4.903   3.514   5.894
 8801SOL    HW227303   4.934   3.413   5.770
 8802SOL     OW27304   1.196   6.232   0.051
 8802SOL    HW127305   1.256   6.234   0.131
 8802SOL    HW227306   1.217   6.311   7.008
 8803SOL     OW27307   5.558   5.444   5.266
 8803SOL    HW127308   5.537   5.447   5.363
 8803SOL    HW227309   5.604   5.358   5.244
 8804SOL     OW27310   1.775   6.558   1.951
 8804SOL    HW127311   1.693   6.573   1.896
 8804SOL    HW227312   1.804   6.462   1.943
 8805SOL     OW27313   5.162   4.834   2.401
 8805SOL    HW127314   5.178   4.805   2.495
 8805SOL    HW227315   5.067   4.864   2.390
 8806SOL     OW27316   1.176   0.727   2.474
 8806SOL    HW127317   1.121   0.659   2.522
 8806SOL    HW227318   1.222   0.785   2.541
 8807SOL     OW27319   5.870   2.172   1.357
 8807SOL    HW127320   5.889   2.080   1.323
 8807SOL    HW227321   5.950   2.230   1.344
 8808SOL     OW27322   1.667   1.896   0.028
 8808SOL    HW127323   1.679   1.806   0.070
 8808SOL    HW227324   1.578   1.901   6.999
 8809SOL     OW27325   1.040   3.345   3.345
 8809SOL    HW127326   1.121   3.301   3.306
 8809SOL    HW227327   0.963   3.281   3.341
 8810SOL     OW27328   6.927   2.449   4.609
 8810SOL    HW127329   6.930   2.546   4.587
 8810SOL    HW227330   6.911   2.396   4.525
 8811SOL     OW27331   4.223   5.099   2.127
 8811SOL    HW127332   4.203   5.006   2.158
 8811SOL    HW227333   4.212   5.163   2.203
 8812SOL     OW27334   5.863   1.015   0.318
 8812SOL    HW127335   5.875   0.989   0.414
 8812SOL    HW227336   5.796   0.955   0.275
 8813SOL     OW27337   1.481   3.166   1.937
 8813SOL    HW127338   1.468   3.192   2.033
 8813SOL    HW227339   1.539   3.234   1.892
 8814SOL     OW27340   5.658   6.984   4.678
 8814SOL    HW127341   5.704   0.011   4.756
 8814SOL    HW227342   5.717   6.914   4.638
 8815SOL     OW27343   5.230   1.037   1.248
 8815SOL    HW127344   5.260   1.046   1.342
 8815SOL    HW227345   5.149   0.979   1.244
 8816SOL     OW27346   6.838   0.220   3.705
 8816SOL    HW127347   6.797   0.168   3.780
 8816SOL    HW227348   6.880   0.158   3.639
 8817SOL     OW27349   1.242   2.772   3.157
 8817SOL    HW127350   1.262   2.801   3.250
 8817SOL    HW227351   1.144   2.785   3.138
 8818SOL     OW27352   1.133   6.224   6.276
 8818SOL    HW127353   1.116   6.294   6.345
 8818SOL    HW227354   1.046   6.191   6.239
 8819SOL     OW27355   5.016   5.889   6.162
 8819SOL    HW127356   4.972   5.843   6.240
 8819SOL    HW227357   5.114   5.895   6.179
 8820SOL     OW27358   3.819   6.751   5.807
 8820SOL    HW127359   3.868   6.742   5.894
 8820SOL    HW227360   3.800   6.660   5.770
 8821SOL     OW27361   0.623   5.131   5.809
 8821SOL    HW127362   0.610   5.134   5.710
 8821SOL    HW227363   0.680   5.052   5.833
 8822SOL     OW27364   6.248   0.203   4.666
 8822SOL    HW127365   6.212   0.112   4.688
 8822SOL    HW227366   6.206   0.236   4.581
 8823SOL     OW27367   4.335   1.968   2.718
 8823SOL    HW127368   4.252   1.963   2.774
 8823SOL    HW227369   4.312   2.000   2.626
 8824SOL     OW27370   1.781   0.720   4.159
 8824SOL    HW127371   1.868   0.728   4.112
 8824SOL    HW227372   1.709   0.696   4.093
 8825SOL     OW27373   0.578   6.960   0.432
 8825SOL    HW127374   0.609   6.885   0.490
 8825SOL    HW227375   0.550   0.022   0.489
 8826SOL     OW27376   0.573   4.095   7.013
 8826SOL    HW127377   0.624   4.025   6.963
 8826SOL    HW227378   0.627   4.124   0.077
 8827SOL     OW27379   4.885   6.494   3.778
 8827SOL    HW127380   4.984   6.477   3.789
 8827SOL    HW227381   4.867   6.529   3.686
 8828SOL     OW27382   5.355   2.396   5.739
 8828SOL    HW127383   5.262   2.425   5.720
 8828SOL    HW227384   5.378   2.418   5.834
 8829SOL     OW27385   6.681   0.814   2.660
 8829SOL    HW127386   6.582   0.822   2.664
 8829SOL    HW227387   6.719   0.890   2.608
 8830SOL     OW27388   3.460   0.475   2.971
 8830SOL    HW127389   3.531   0.544   2.985
 8830SOL    HW227390   3.371   0.513   2.994
 8831SOL     OW27391   0.135   2.844   2.445
 8831SOL    HW127392   0.050   2.896   2.431
 8831SOL    HW227393   0.117   2.767   2.506
 8832SOL     OW27394   5.698   0.515   5.551
 8832SOL    HW127395   5.780   0.471   5.514
 8832SOL    HW227396   5.685   0.604   5.507
 8833SOL     OW27397   4.720   2.624   1.148
 8833SOL    HW127398   4.711   2.559   1.072
 8833SOL    HW227399   4.689   2.715   1.117
 8834SOL     OW27400   5.348   4.621   6.006
 8834SOL    HW127401   5.413   4.572   6.064
 8834SOL    HW227402   5.264   4.639   6.057
 8835SOL     OW27403   6.263   1.338   5.126
 8835SOL    HW127404   6.182   1.371   5.078
 8835SOL    HW227405   6.309   1.415   5.170
 8836SOL     OW27406   4.177   1.099   1.042
 8836SOL    HW127407   4.082   1.130   1.046
 8836SOL    HW227408   4.198   1.066   0.950
 8837SOL     OW27409   4.479   5.895   0.410
 8837SOL    HW127410   4.475   5.993   0.429
 8837SOL    HW227411   4.389   5.862   0.383
 8838SOL     OW27412   2.127   3.483   2.965
 8838SOL    HW127413   2.107   3.565   3.019
 8838SOL    HW227414   2.112   3.503   2.868
 8839SOL     OW27415   4.663   5.139   1.237
 8839SOL    HW127416   4.678   5.217   1.176
 8839SOL    HW227417   4.587   5.159   1.298
 8840SOL     OW27418   6.873   0.713   1.195
 8840SOL    HW127419   6.890   0.720   1.097
 8840SOL    HW227420   6.904   0.624   1.228
 8841SOL     OW27421   3.488   1.208   0.794
 8841SOL    HW127422   3.392   1.188   0.774
 8841SOL    HW227423   3.501   1.306   0.804
 8842SOL     OW27424   3.502   3.323   4.098
 8842SOL    HW127425   3.553   3.404   4.070
 8842SOL    HW227426   3.561   3.266   4.156
 8843SOL     OW27427   2.428   5.657   5.312
 8843SOL    HW127428   2.401   5.573   5.266
 8843SOL    HW227429   2.349   5.695   5.361
 8844SOL     OW27430   3.115   2.923   5.941
 8844SOL    HW127431   3.186   2.940   5.873
 8844SOL    HW227432   3.067   2.838   5.919
 8845SOL     OW27433   0.947   3.479   1.902
 8845SOL    HW127434   0.978   3.397   1.950
 8845SOL    HW227435   1.010   3.500   1.828
 8846SOL     OW27436   5.448   5.207   4.228
 8846SOL    HW127437   5.502   5.131   4.265
 8846SOL    HW227438   5.366   5.172   4.183
 8847SOL     OW27439   0.926   1.901   3.923
 8847SOL    HW127440   0.972   1.833   3.866
 8847SOL    HW227441   0.957   1.993   3.896
 8848SOL     OW27442   6.644   2.193   0.557
 8848SOL    HW127443   6.639   2.188   0.458
 8848SOL    HW227444   6.602   2.278   0.589
 8849SOL     OW27445   3.369   5.587   4.634
 8849SOL    HW127446   3.452   5.547   4.595
 8849SOL    HW227447   3.359   5.556   4.729
 8850SOL     OW27448   2.879   2.124   0.950
 8850SOL    HW127449   2.810   2.187   0.986
 8850SOL    HW227450   2.880   2.041   1.006
 8851SOL     OW27451   0.050   5.297   2.579
 8851SOL    HW127452   0.055   5.395   2.598
 8851SOL    HW227453   0.112   5.274   2.504
 8852SOL     OW27454   5.096   3.471   4.522
 8852SOL    HW127455   5.165   3.513   4.581
 8852SOL    HW227456   5.135   3.455   4.432
 8853SOL     OW27457   4.530   1.996   5.609
 8853SOL    HW127458   4.543   2.094   5.623
 8853SOL    HW227459   4.496   1.979   5.516
 8854SOL     OW27460   2.473   0.848   5.899
 8854SOL    HW127461   2.500   0.916   5.831
 8854SOL    HW227462   2.555   0.806   5.938
 8855SOL     OW27463   6.277   5.301   5.971
 8855SOL    HW127464   6.215   5.242   6.024
 8855SOL    HW227465   6.251   5.298   5.875
 8856SOL     OW27466   5.775   1.067   5.418
 8856SOL    HW127467   5.837   1.060   5.340
 8856SOL    HW227468   5.823   1.107   5.496
 8857SOL     OW27469   1.742   3.348   4.562
 8857SOL    HW127470   1.737   3.431   4.507
 8857SOL    HW227471   1.799   3.280   4.516
 8858SOL     OW27472   0.235   3.654   5.415
 8858SOL    HW127473   0.206   3.634   5.321
 8858SOL    HW227474   0.330   3.687   5.414
 8859SOL     OW27475   2.989   6.393   5.322
 8859SOL    HW127476   2.894   6.411   5.299
 8859SOL    HW227477   3.012   6.299   5.296
 8860SOL     OW27478   1.863   1.851   0.695
 8860SOL    HW127479   1.811   1.867   0.779
 8860SOL    HW227480   1.955   1.820   0.718
 8861SOL     OW27481   2.536   2.549   1.145
 8861SOL    HW127482   2.586   2.598   1.073
 8861SOL    HW227483   2.489   2.470   1.105
 8862SOL     OW27484   6.698   2.274   4.784
 8862SOL    HW127485   6.607   2.293   4.745
 8862SOL    HW227486   6.737   2.359   4.819
 8863SOL     OW27487   1.316   5.840   5.392
 8863SOL    HW127488   1.388   5.831   5.461
 8863SOL    HW227489   1.241   5.779   5.415
 8864SOL     OW27490   1.631   3.998   5.753
 8864SOL    HW127491   1.592   3.979   5.843
 8864SOL    HW227492   1.623   3.917   5.695
 8865SOL     OW27493   3.182   2.136   5.986
 8865SOL    HW127494   3.132   2.102   6.066
 8865SOL    HW227495   3.243   2.210   6.014
 8866SOL     OW27496   5.090   6.712   5.180
 8866SOL    HW127497   5.004   6.671   5.209
 8866SOL    HW227498   5.117   6.676   5.091
 8867SOL     OW27499   6.412   0.819   4.011
 8867SOL    HW127500   6.338   0.858   4.066
 8867SOL    HW227501   6.494   0.810   4.067
 8868SOL     OW27502   4.913   3.574   0.497
 8868SOL    HW127503   4.955   3.645   0.553
 8868SOL    HW227504   4.837   3.613   0.445
 8869SOL     OW27505   2.998   2.074   3.025
 8869SOL    HW127506   2.942   2.014   2.968
 8869SOL    HW227507   2.973   2.063   3.121
 8870SOL     OW27508   4.610   1.207   2.180
 8870SOL    HW127509   4.515   1.213   2.212
 8870SOL    HW227510   4.636   1.293   2.136
 8871SOL     OW27511   1.867   2.194   3.637
 8871SOL    HW127512   1.797   2.258   3.606
 8871SOL    HW227513   1.905   2.225   3.724
 8872SOL     OW27514   1.299   2.168   2.105
 8872SOL    HW127515   1.379   2.219   2.073
 8872SOL    HW227516   1.267   2.107   2.033
 8873SOL     OW27517   0.041   6.140   4.768
 8873SOL    HW127518   6.991   6.200   4.815
 8873SOL    HW227519   0.132   6.183   4.769
 8874SOL     OW27520   0.755   1.715   6.094
 8874SOL    HW127521   0.824   1.774   6.137
 8874SOL    HW227522   0.718   1.652   6.163
 8875SOL     OW27523   1.178   1.271   4.574
 8875SOL    HW127524   1.267   1.310   4.549
 8875SOL    HW227525   1.179   1.173   4.555
 8876SOL     OW27526   3.010   0.972   4.468
 8876SOL    HW127527   2.964   1.010   4.387
 8876SOL    HW227528   2.942   0.927   4.526
 8877SOL     OW27529   3.068   6.686   4.676
 8877SOL    HW127530   3.045   6.613   4.741
 8877SOL    HW227531   3.000   6.688   4.603
 8878SOL     OW27532   5.839   4.814   5.387
 8878SOL    HW127533   5.762   4.804   5.450
 8878SOL    HW227534   5.805   4.829   5.295
 8879SOL     OW27535   4.768   5.340   4.321
 8879SOL    HW127536   4.698   5.398   4.279
 8879SOL    HW227537   4.817   5.289   4.250
 8880SOL     OW27538   0.187   6.480   4.811
 8880SOL    HW127539   0.171   6.405   4.875
 8880SOL    HW227540   0.182   6.445   4.717
 8881SOL     OW27541   6.439   1.598   1.423
 8881SOL    HW127542   6.509   1.630   1.359
 8881SOL    HW227543   6.469   1.513   1.465
 8882SOL     OW27544   5.319   2.696   0.479
 8882SOL    HW127545   5.315   2.660   0.572
 8882SOL    HW227546   5.411   2.683   0.442
 8883SOL     OW27547   6.500   1.255   5.445
 8883SOL    HW127548   6.522   1.199   5.365
 8883SOL    HW227549   6.535   1.348   5.431
 8884SOL     OW27550   6.818   1.337   6.105
 8884SOL    HW127551   6.890   1.401   6.076
 8884SOL    HW227552   6.793   1.355   6.200
 8885SOL     OW27553   5.484   3.776   1.853
 8885SOL    HW127554   5.506   3.679   1.860
 8885SOL    HW227555   5.492   3.806   1.758
 8886SOL     OW27556   3.065   5.365   6.298
 8886SOL    HW127557   3.113   5.295   6.245
 8886SOL    HW227558   3.032   5.436   6.236
 8887SOL     OW27559   1.961   0.916   1.008
 8887SOL    HW127560   1.899   0.955   0.940
 8887SOL    HW227561   1.914   0.844   1.059
 8888SOL     OW27562   2.852   2.276   2.908
 8888SOL    HW127563   2.884   2.283   2.814
 8888SOL    HW227564   2.906   2.208   2.957
 8889SOL     OW27565   3.479   0.415   4.939
 8889SOL    HW127566   3.505   0.348   4.870
 8889SOL    HW227567   3.536   0.496   4.930
 8890SOL     OW27568   0.717   3.698   3.512
 8890SOL    HW127569   0.659   3.678   3.432
 8890SOL    HW227570   0.808   3.660   3.497
 8891SOL     OW27571   3.031   2.022   6.176
 8891SOL    HW127572   2.996   1.988   6.263
 8891SOL    HW227573   3.085   1.950   6.132
 8892SOL     OW27574   1.433   6.322   2.744
 8892SOL    HW127575   1.381   6.261   2.802
 8892SOL    HW227576   1.386   6.410   2.737
 8893SOL     OW27577   0.267   0.823   7.009
 8893SOL    HW127578   0.232   0.915   0.010
 8893SOL    HW227579   0.190   0.760   6.998
 8894SOL     OW27580   4.547   2.677   6.446
 8894SOL    HW127581   4.564   2.579   6.457
 8894SOL    HW227582   4.491   2.693   6.365
 8895SOL     OW27583   2.086   1.070   2.677
 8895SOL    HW127584   2.025   1.051   2.600
 8895SOL    HW227585   2.091   1.169   2.692
 8896SOL     OW27586   2.165   4.203   5.013
 8896SOL    HW127587   2.198   4.285   5.059
 8896SOL    HW227588   2.207   4.122   5.055
 8897SOL     OW27589   1.395   2.345   0.864
 8897SOL    HW127590   1.402   2.285   0.944
 8897SOL    HW227591   1.484   2.352   0.820
 8898SOL     OW27592   6.997   3.268   5.013
 8898SOL    HW127593   0.058   3.274   4.947
 8898SOL    HW227594   0.008   3.208   5.088
 8899SOL     OW27595   3.024   5.081   1.628
 8899SOL    HW127596   2.936   5.120   1.600
 8899SOL    HW227597   3.009   4.996   1.678
 8900SOL     OW27598   6.875   1.678   3.577
 8900SOL    HW127599   6.953   1.648   3.523
 8900SOL    HW227600   6.907   1.728   3.657
 8901SOL     OW27601   1.774   6.770   1.720
 8901SOL    HW127602   1.777   6.706   1.644
 8901SOL    HW227603   1.860   6.821   1.723
 8902SOL     OW27604   3.253   6.475   5.779
 8902SOL    HW127605   3.187   6.528   5.833
 8902SOL    HW227606   3.343   6.518   5.785
 8903SOL     OW27607   0.294   0.105   2.534
 8903SOL    HW127608   0.312   0.144   2.624
 8903SOL    HW227609   0.336   0.014   2.529
 8904SOL     OW27610   1.417   5.015   3.177
 8904SOL    HW127611   1.323   5.007   3.143
 8904SOL    HW227612   1.448   4.927   3.213
 8905SOL     OW27613   2.209   4.117   4.761
 8905SOL    HW127614   2.256   4.035   4.791
 8905SOL    HW227615   2.178   4.169   4.840
 8906SOL     OW27616   1.858   5.237   4.148
 8906SOL    HW127617   1.933   5.219   4.084
 8906SOL    HW227618   1.808   5.153   4.166
 8907SOL     OW27619   3.781   2.729   6.661
 8907SOL    HW127620   3.761   2.762   6.753
 8907SOL    HW227621   3.822   2.802   6.607
 8908SOL     OW27622   1.081   2.283   2.711
 8908SOL    HW127623   1.101   2.380   2.719
 8908SOL    HW227624   1.135   2.244   2.637
 8909SOL     OW27625   3.468   0.076   5.803
 8909SOL    HW127626   3.370   0.064   5.783
 8909SOL    HW227627   3.500   7.014   5.858
 8910SOL     OW27628   3.951   3.282   0.298
 8910SOL    HW127629   4.038   3.297   0.345
 8910SOL    HW227630   3.944   3.186   0.269
 8911SOL     OW27631   4.592   2.189   3.987
 8911SOL    HW127632   4.614   2.094   3.968
 8911SOL    HW227633   4.647   2.222   4.064
 8912SOL     OW27634   5.132   1.836   6.530
 8912SOL    HW127635   5.211   1.823   6.470
 8912SOL    HW227636   5.119   1.755   6.587
 8913SOL     OW27637   4.186   4.165   1.303
 8913SOL    HW127638   4.273   4.135   1.342
 8913SOL    HW227639   4.151   4.243   1.355
 8914SOL     OW27640   5.065   1.764   3.678
 8914SOL    HW127641   5.008   1.846   3.685
 8914SOL    HW227642   5.006   1.684   3.668
 8915SOL     OW27643   0.987   5.852   2.356
 8915SOL    HW127644   1.030   5.767   2.325
 8915SOL    HW227645   0.899   5.832   2.399
 8916SOL     OW27646   5.850   3.049   2.301
 8916SOL    HW127647   5.888   2.997   2.225
 8916SOL    HW227648   5.880   3.008   2.387
 8917SOL     OW27649   5.468   4.879   5.127
 8917SOL    HW127650   5.387   4.926   5.163
 8917SOL    HW227651   5.452   4.856   5.031
 8918SOL     OW27652   5.036   3.981   6.260
 8918SOL    HW127653   5.062   3.912   6.328
 8918SOL    HW227654   5.115   3.999   6.200
 8919SOL     OW27655   2.375   3.188   1.536
 8919SOL    HW127656   2.358   3.134   1.619
 8919SOL    HW227657   2.454   3.248   1.550
 8920SOL     OW27658   6.805   5.652   5.475
 8920SOL    HW127659   6.849   5.730   5.521
 8920SOL    HW227660   6.872   5.603   5.420
 8921SOL     OW27661   1.611   5.627   3.793
 8921SOL    HW127662   1.561   5.542   3.779
 8921SOL    HW227663   1.647   5.630   3.886
 8922SOL     OW27664   6.181   3.782   6.138
 8922SOL    HW127665   6.249   3.849   6.167
 8922SOL    HW227666   6.209   3.743   6.050
 8923SOL     OW27667   2.164   4.130   3.981
 8923SOL    HW127668   2.215   4.122   4.067
 8923SOL    HW227669   2.097   4.203   3.989
 8924SOL     OW27670   2.678   5.865   5.241
 8924SOL    HW127671   2.601   5.856   5.177
 8924SOL    HW227672   2.664   5.804   5.319
 8925SOL     OW27673   4.440   5.793   1.135
 8925SOL    HW127674   4.341   5.811   1.140
 8925SOL    HW227675   4.486   5.834   1.213
 8926SOL     OW27676   5.451   0.435   6.465
 8926SOL    HW127677   5.426   0.388   6.381
 8926SOL    HW227678   5.416   0.528   6.464
 8927SOL     OW27679   2.212   1.912   4.505
 8927SOL    HW127680   2.238   1.932   4.411
 8927SOL    HW227681   2.162   1.990   4.543
 8928SOL     OW27682   0.764   0.030   4.407
 8928SOL    HW127683   0.692   0.066   4.466
 8928SOL    HW227684   0.758   6.946   4.404
 8929SOL     OW27685   5.110   4.090   3.477
 8929SOL    HW127686   5.161   4.057   3.556
 8929SOL    HW227687   5.121   4.026   3.400
 8930SOL     OW27688   0.865   5.286   5.483
 8930SOL    HW127689   0.893   5.342   5.560
 8930SOL    HW227690   0.767   5.299   5.465
 8931SOL     OW27691   4.938   1.184   1.771
 8931SOL    HW127692   4.948   1.269   1.718
 8931SOL    HW227693   5.027   1.138   1.777
 8932SOL     OW27694   5.686   0.839   0.226
 8932SOL    HW127695   5.587   0.853   0.229
 8932SOL    HW227696   5.707   0.755   0.176
 8933SOL     OW27697   1.440   0.517   5.264
 8933SOL    HW127698   1.359   0.576   5.272
 8933SOL    HW227699   1.413   0.428   5.228
 8934SOL     OW27700   4.372   6.743   3.964
 8934SOL    HW127701   4.331   6.833   3.947
 8934SOL    HW227702   4.436   6.722   3.890
 8935SOL     OW27703   5.781   1.545   2.570
 8935SOL    HW127704   5.806   1.555   2.473
 8935SOL    HW227705   5.703   1.604   2.590
 8936SOL     OW27706   1.902   3.891   2.180
 8936SOL    HW127707   1.828   3.894   2.247
 8936SOL    HW227708   1.952   3.805   2.189
 8937SOL     OW27709   4.416   0.313   5.024
 8937SOL    HW127710   4.468   0.229   5.033
 8937SOL    HW227711   4.343   0.314   5.093
 8938SOL     OW27712   5.840   6.532   1.472
 8938SOL    HW127713   5.861   6.458   1.408
 8938SOL    HW227714   5.769   6.502   1.535
 8939SOL     OW27715   0.630   2.886   4.407
 8939SOL    HW127716   0.567   2.948   4.362
 8939SOL    HW227717   0.589   2.852   4.492
 8940SOL     OW27718   6.379   3.206   2.173
 8940SOL    HW127719   6.300   3.157   2.135
 8940SOL    HW227720   6.382   3.192   2.272
 8941SOL     OW27721   6.007   2.031   2.941
 8941SOL    HW127722   5.932   2.002   2.882
 8941SOL    HW227723   6.026   1.959   3.008
 8942SOL     OW27724   4.999   4.476   3.609
 8942SOL    HW127725   4.971   4.479   3.706
 8942SOL    HW227726   4.928   4.519   3.553
 8943SOL     OW27727   4.597   3.146   0.399
 8943SOL    HW127728   4.595   3.138   0.499
 8943SOL    HW227729   4.686   3.114   0.365
 8944SOL     OW27730   4.228   5.926   5.411
 8944SOL    HW127731   4.226   6.009   5.468
 8944SOL    HW227732   4.137   5.911   5.372
 8945SOL     OW27733   6.434   4.615   1.855
 8945SOL    HW127734   6.462   4.582   1.946
 8945SOL    HW227735   6.514   4.649   1.806
 8946SOL     OW27736   3.880   1.384   5.049
 8946SOL    HW127737   3.781   1.375   5.033
 8946SOL    HW227738   3.929   1.316   4.994
 8947SOL     OW27739   1.845   4.884   1.040
 8947SOL    HW127740   1.843   4.940   0.957
 8947SOL    HW227741   1.815   4.791   1.018
 8948SOL     OW27742   5.529   0.368   2.880
 8948SOL    HW127743   5.557   0.461   2.905
 8948SOL    HW227744   5.597   0.303   2.914
 8949SOL     OW27745   3.562   6.416   1.028
 8949SOL    HW127746   3.573   6.512   1.002
 8949SOL    HW227747   3.537   6.362   0.947
 8950SOL     OW27748   3.213   3.633   2.813
 8950SOL    HW127749   3.197   3.591   2.902
 8950SOL    HW227750   3.161   3.583   2.743
 8951SOL     OW27751   0.543   0.433   3.686
 8951SOL    HW127752   0.452   0.397   3.664
 8951SOL    HW227753   0.591   0.369   3.747
 8952SOL     OW27754   1.320   4.084   4.898
 8952SOL    HW127755   1.242   4.022   4.890
 8952SOL    HW227756   1.311   4.157   4.830
 8953SOL     OW27757   0.476   5.353   1.376
 8953SOL    HW127758   0.519   5.419   1.438
 8953SOL    HW227759   0.545   5.289   1.343
 8954SOL     OW27760   2.078   4.020   5.607
 8954SOL    HW127761   1.996   4.075   5.625
 8954SOL    HW227762   2.145   4.036   5.679
 8955SOL     OW27763   6.220   3.015   5.553
 8955SOL    HW127764   6.199   3.106   5.588
 8955SOL    HW227765   6.141   2.955   5.567
 8956SOL     OW27766   0.659   6.324   0.788
 8956SOL    HW127767   0.645   6.389   0.863
 8956SOL    HW227768   0.593   6.342   0.715
 8957SOL     OW27769   1.367   6.613   2.887
 8957SOL    HW127770   1.377   6.558   2.970
 8957SOL    HW227771   1.435   6.687   2.888
 8958SOL     OW27772   6.818   3.800   4.397
 8958SOL    HW127773   6.838   3.720   4.454
 8958SOL    HW227774   6.867   3.792   4.310
 8959SOL     OW27775   5.496   1.978   4.219
 8959SOL    HW127776   5.539   1.888   4.221
 8959SOL    HW227777   5.397   1.968   4.217
 8960SOL     OW27778   5.424   4.942   2.662
 8960SOL    HW127779   5.428   4.843   2.671
 8960SOL    HW227780   5.516   4.977   2.642
 8961SOL     OW27781   2.627   1.543   5.070
 8961SOL    HW127782   2.662   1.547   5.164
 8961SOL    HW227783   2.555   1.473   5.065
 8962SOL     OW27784   6.786   5.677   2.403
 8962SOL    HW127785   6.881   5.700   2.422
 8962SOL    HW227786   6.734   5.761   2.383
 8963SOL     OW27787   2.429   6.202   6.101
 8963SOL    HW127788   2.369   6.131   6.063
 8963SOL    HW227789   2.376   6.267   6.153
 8964SOL     OW27790   1.665   2.417   3.168
 8964SOL    HW127791   1.690   2.329   3.127
 8964SOL    HW227792   1.684   2.414   3.266
 8965SOL     OW27793   3.848   6.188   0.391
 8965SOL    HW127794   3.856   6.224   0.484
 8965SOL    HW227795   3.758   6.209   0.355
 8966SOL     OW27796   5.254   6.779   5.645
 8966SOL    HW127797   5.259   6.814   5.552
 8966SOL    HW227798   5.251   6.679   5.642
 8967SOL     OW27799   3.310   0.136   3.018
 8967SOL    HW127800   3.223   0.113   2.975
 8967SOL    HW227801   3.304   0.121   3.117
 8968SOL     OW27802   3.518   4.888   2.356
 8968SOL    HW127803   3.487   4.980   2.335
 8968SOL    HW227804   3.444   4.837   2.401
 8969SOL     OW27805   6.745   1.225   3.051
 8969SOL    HW127806   6.773   1.130   3.040
 8969SOL    HW227807   6.818   1.276   3.096
 8970SOL     OW27808   2.338   1.099   3.335
 8970SOL    HW127809   2.430   1.059   3.340
 8970SOL    HW227810   2.296   1.075   3.248
 8971SOL     OW27811   3.316   4.359   1.245
 8971SOL    HW127812   3.264   4.291   1.297
 8971SOL    HW227813   3.366   4.417   1.309
 8972SOL     OW27814   5.425   4.103   6.585
 8972SOL    HW127815   5.469   4.172   6.529
 8972SOL    HW227816   5.404   4.023   6.529
 8973SOL     OW27817   2.482   1.570   3.471
 8973SOL    HW127818   2.576   1.551   3.442
 8973SOL    HW227819   2.440   1.486   3.504
 8974SOL     OW27820   2.006   4.235   4.527
 8974SOL    HW127821   1.946   4.167   4.570
 8974SOL    HW227822   2.101   4.217   4.553
 8975SOL     OW27823   0.324   3.576   6.133
 8975SOL    HW127824   0.327   3.651   6.199
 8975SOL    HW227825   0.252   3.593   6.066
 8976SOL     OW27826   5.776   0.586   1.688
 8976SOL    HW127827   5.789   0.523   1.765
 8976SOL    HW227828   5.788   0.680   1.719
 8977SOL     OW27829   6.675   4.589   6.484
 8977SOL    HW127830   6.665   4.680   6.525
 8977SOL    HW227831   6.651   4.593   6.387
 8978SOL     OW27832   6.290   5.680   5.750
 8978SOL    HW127833   6.305   5.617   5.675
 8978SOL    HW227834   6.360   5.751   5.749
 8979SOL     OW27835   1.855   5.007   3.648
 8979SOL    HW127836   1.945   4.997   3.690
 8979SOL    HW227837   1.805   5.081   3.693
 8980SOL     OW27838   4.201   0.918   0.563
 8980SOL    HW127839   4.286   0.865   0.565
 8980SOL    HW227840   4.169   0.927   0.468
 8981SOL     OW27841   3.891   2.060   0.315
 8981SOL    HW127842   3.816   2.126   0.321
 8981SOL    HW227843   3.978   2.108   0.320
 8982SOL     OW27844   6.784   1.412   1.747
 8982SOL    HW127845   6.877   1.448   1.740
 8982SOL    HW227846   6.784   1.328   1.801
 8983SOL     OW27847   1.467   6.932   2.495
 8983SOL    HW127848   1.491   6.835   2.491
 8983SOL    HW227849   1.519   6.983   2.427
 8984SOL     OW27850   6.386   1.853   4.682
 8984SOL    HW127851   6.465   1.838   4.622
 8984SOL    HW227852   6.327   1.772   4.679
 8985SOL     OW27853   4.286   0.992   2.416
 8985SOL    HW127854   4.233   1.075   2.434
 8985SOL    HW227855   4.341   1.005   2.334
 8986SOL     OW27856   6.765   5.736   0.442
 8986SOL    HW127857   6.701   5.669   0.480
 8986SOL    HW227858   6.718   5.823   0.430
 8987SOL     OW27859   2.587   6.596   2.185
 8987SOL    HW127860   2.510   6.577   2.124
 8987SOL    HW227861   2.561   6.666   2.252
 8988SOL     OW27862   2.513   0.170   1.349
 8988SOL    HW127863   2.528   0.241   1.418
 8988SOL    HW227864   2.425   0.186   1.303
 8989SOL     OW27865   6.022   1.184   2.465
 8989SOL    HW127866   6.040   1.226   2.376
 8989SOL    HW227867   5.959   1.107   2.453
 8990SOL     OW27868   3.622   1.003   3.018
 8990SOL    HW127869   3.545   0.965   2.968
 8990SOL    HW227870   3.698   0.938   3.018
 8991SOL     OW27871   1.079   2.039   0.687
 8991SOL    HW127872   1.069   2.000   0.595
 8991SOL    HW227873   1.152   1.991   0.735
 8992SOL     OW27874   6.827   4.705   6.058
 8992SOL    HW127875   6.891   4.645   6.105
 8992SOL    HW227876   6.737   4.697   6.099
 8993SOL     OW27877   5.225   3.951   3.655
 8993SOL    HW127878   5.196   3.966   3.749
 8993SOL    HW227879   5.313   3.902   3.654
 8994SOL     OW27880   1.053   6.493   2.444
 8994SOL    HW127881   1.002   6.472   2.528
 8994SOL    HW227882   0.989   6.521   2.372
 8995SOL     OW27883   2.137   3.798   3.626
 8995SOL    HW127884   2.102   3.785   3.719
 8995SOL    HW227885   2.175   3.890   3.617
 8996SOL     OW27886   2.282   3.775   0.877
 8996SOL    HW127887   2.221   3.712   0.925
 8996SOL    HW227888   2.298   3.740   0.784
 8997SOL     OW27889   4.738   1.147   5.004
 8997SOL    HW127890   4.829   1.169   4.969
 8997SOL    HW227891   4.689   1.090   4.938
 8998SOL     OW27892   1.119   1.738   6.416
 8998SOL    HW127893   1.137   1.829   6.454
 8998SOL    HW227894   1.199   1.706   6.366
 8999SOL     OW27895   5.342   2.633   5.479
 8999SOL    HW127896   5.339   2.681   5.391
 8999SOL    HW227897   5.343   2.534   5.462
 9000SOL     OW27898   3.840   4.766   1.262
 9000SOL    HW127899   3.878   4.755   1.353
 9000SOL    HW227900   3.905   4.731   1.194
 9001SOL     OW27901   1.634   4.212   3.132
 9001SOL    HW127902   1.707   4.232   3.198
 9001SOL    HW227903   1.593   4.298   3.102
 9002SOL     OW27904   5.602   3.350   5.277
 9002SOL    HW127905   5.652   3.430   5.308
 9002SOL    HW227906   5.592   3.284   5.352
 9003SOL     OW27907   6.523   3.406   6.891
 9003SOL    HW127908   6.562   3.495   6.869
 9003SOL    HW227909   6.591   3.335   6.873
 9004SOL     OW27910   4.669   5.389   1.120
 9004SOL    HW127911   4.575   5.401   1.087
 9004SOL    HW227912   4.732   5.436   1.059
 9005SOL     OW27913   5.047   2.803   3.543
 9005SOL    HW127914   5.042   2.879   3.608
 9005SOL    HW227915   5.139   2.798   3.504
 9006SOL     OW27916   2.284   6.352   1.411
 9006SOL    HW127917   2.307   6.329   1.316
 9006SOL    HW227918   2.254   6.269   1.459
 9007SOL     OW27919   1.956   6.202   5.203
 9007SOL    HW127920   1.863   6.178   5.174
 9007SOL    HW227921   2.022   6.167   5.136
 9008SOL     OW27922   0.100   4.371   2.181
 9008SOL    HW127923   0.177   4.313   2.155
 9008SOL    HW227924   0.113   4.463   2.143
 9009SOL     OW27925   3.875   5.691   6.939
 9009SOL    HW127926   3.903   5.677   0.019
 9009SOL    HW227927   3.831   5.780   6.930
 9010SOL     OW27928   6.944   5.630   4.443
 9010SOL    HW127929   6.958   5.611   4.541
 9010SOL    HW227930   6.875   5.567   4.407
 9011SOL     OW27931   4.578   2.507   2.383
 9011SOL    HW127932   4.565   2.565   2.463
 9011SOL    HW227933   4.558   2.412   2.407
 9012SOL     OW27934   5.231   5.250   2.362
 9012SOL    HW127935   5.237   5.171   2.301
 9012SOL    HW227936   5.243   5.220   2.456
 9013SOL     OW27937   4.555   6.283   2.500
 9013SOL    HW127938   4.483   6.325   2.555
 9013SOL    HW227939   4.643   6.292   2.548
 9014SOL     OW27940   2.378   0.488   1.929
 9014SOL    HW127941   2.464   0.496   1.981
 9014SOL    HW227942   2.392   0.427   1.851
 9015SOL     OW27943   6.007   1.976   4.818
 9015SOL    HW127944   5.975   2.032   4.894
 9015SOL    HW227945   5.964   1.886   4.823
 9016SOL     OW27946   6.919   5.961   6.908
 9016SOL    HW127947   6.898   5.863   6.910
 9016SOL    HW227948   6.833   6.013   6.914
 9017SOL     OW27949   0.198   3.508   2.862
 9017SOL    HW127950   0.290   3.546   2.862
 9017SOL    HW227951   0.190   3.442   2.938
 9018SOL     OW27952   4.727   2.030   6.342
 9018SOL    HW127953   4.661   1.955   6.332
 9018SOL    HW227954   4.762   2.054   6.251
 9019SOL     OW27955   1.567   5.640   0.471
 9019SOL    HW127956   1.544   5.644   0.374
 9019SOL    HW227957   1.590   5.547   0.496
 9020SOL     OW27958   0.583   5.031   3.661
 9020SOL    HW127959   0.564   4.939   3.624
 9020SOL    HW227960   0.670   5.064   3.625
 9021SOL     OW27961   5.598   5.292   5.572
 9021SOL    HW127962   5.586   5.208   5.520
 9021SOL    HW227963   5.617   5.269   5.668
 9022SOL     OW27964   2.883   6.846   6.603
 9022SOL    HW127965   2.784   6.858   6.612
 9022SOL    HW227966   2.902   6.763   6.550
 9023SOL     OW27967   2.877   3.431   3.737
 9023SOL    HW127968   2.858   3.341   3.777
 9023SOL    HW227969   2.877   3.423   3.637
 9024SOL     OW27970   1.188   0.183   6.454
 9024SOL    HW127971   1.248   0.201   6.532
 9024SOL    HW227972   1.104   0.139   6.486
 9025SOL     OW27973   0.535   3.387   6.898
 9025SOL    HW127974   0.494   3.359   6.812
 9025SOL    HW227975   0.619   3.437   6.881
 9026SOL     OW27976   2.869   3.672   5.600
 9026SOL    HW127977   2.957   3.686   5.554
 9026SOL    HW227978   2.843   3.756   5.647
 9027SOL     OW27979   1.756   2.579   2.423
 9027SOL    HW127980   1.725   2.673   2.437
 9027SOL    HW227981   1.719   2.544   2.337
 9028SOL     OW27982   2.433   4.366   4.326
 9028SOL    HW127983   2.440   4.465   4.308
 9028SOL    HW227984   2.437   4.350   4.424
 9029SOL     OW27985   5.642   5.366   2.382
 9029SOL    HW127986   5.575   5.384   2.455
 9029SOL    HW227987   5.686   5.278   2.398
 9030SOL     OW27988   3.729   1.905   2.345
 9030SOL    HW127989   3.791   1.975   2.382
 9030SOL    HW227990   3.764   1.873   2.257
 9031SOL     OW27991   2.360   1.481   1.270
 9031SOL    HW127992   2.389   1.572   1.299
 9031SOL    HW227993   2.390   1.413   1.336
 9032SOL     OW27994   0.625   2.733   1.692
 9032SOL    HW127995   0.547   2.732   1.629
 9032SOL    HW227996   0.627   2.821   1.740
 9033SOL     OW27997   1.407   4.159   2.570
 9033SOL    HW127998   1.503   4.179   2.548
 9033SOL    HW227999   1.371   4.230   2.629
 9034SOL     OW28000   1.968   6.440   6.952
 9034SOL    HW128001   2.038   6.508   6.972
 9034SOL    HW228002   2.003   6.349   6.976
 9035SOL     OW28003   6.745   1.356   4.426
 9035SOL    HW128004   6.681   1.312   4.363
 9035SOL    HW228005   6.759   1.451   4.398
 9036SOL     OW28006   0.774   1.062   4.508
 9036SOL    HW128007   0.732   1.119   4.578
 9036SOL    HW228008   0.799   1.119   4.429
 9037SOL     OW28009   2.463   3.747   5.555
 9037SOL    HW128010   2.377   3.783   5.519
 9037SOL    HW228011   2.447   3.707   5.646
 9038SOL     OW28012   4.534   5.344   5.723
 9038SOL    HW128013   4.470   5.268   5.720
 9038SOL    HW228014   4.586   5.348   5.638
 9039SOL     OW28015   2.317   4.750   6.572
 9039SOL    HW128016   2.277   4.663   6.599
 9039SOL    HW228017   2.277   4.780   6.486
 9040SOL     OW28018   2.432   1.785   2.142
 9040SOL    HW128019   2.376   1.863   2.169
 9040SOL    HW228020   2.431   1.776   2.042
 9041SOL     OW28021   1.564   2.908   5.858
 9041SOL    HW128022   1.520   2.824   5.827
 9041SOL    HW228023   1.659   2.908   5.829
 9042SOL     OW28024   1.436   5.455   3.165
 9042SOL    HW128025   1.501   5.404   3.108
 9042SOL    HW228026   1.358   5.396   3.188
 9043SOL     OW28027   6.904   2.362   6.819
 9043SOL    HW128028   6.868   2.286   6.873
 9043SOL    HW228029   6.963   2.419   6.877
 9044SOL     OW28030   0.204   4.049   0.620
 9044SOL    HW128031   0.297   4.031   0.590
 9044SOL    HW228032   0.197   4.143   0.652
 9045SOL     OW28033   2.234   4.586   4.086
 9045SOL    HW128034   2.287   4.509   4.051
 9045SOL    HW228035   2.232   4.583   4.186
 9046SOL     OW28036   3.667   4.604   6.461
 9046SOL    HW128037   3.695   4.513   6.493
 9046SOL    HW228038   3.718   4.628   6.379
 9047SOL     OW28039   0.727   4.654   4.606
 9047SOL    HW128040   0.653   4.703   4.652
 9047SOL    HW228041   0.702   4.558   4.593
 9048SOL     OW28042   1.836   2.011   5.519
 9048SOL    HW128043   1.801   2.049   5.434
 9048SOL    HW228044   1.842   2.083   5.588
 9049SOL     OW28045   4.637   6.481   6.004
 9049SOL    HW128046   4.635   6.420   6.083
 9049SOL    HW228047   4.726   6.476   5.961
 9050SOL     OW28048   6.869   5.485   5.785
 9050SOL    HW128049   6.935   5.493   5.711
 9050SOL    HW228050   6.900   5.415   5.850
 9051SOL     OW28051   5.618   6.468   6.656
 9051SOL    HW128052   5.591   6.529   6.582
 9051SOL    HW228053   5.711   6.434   6.640
 9052SOL     OW28054   2.743   4.863   5.091
 9052SOL    HW128055   2.744   4.856   5.191
 9052SOL    HW228056   2.784   4.781   5.051
 9053SOL     OW28057   2.592   1.423   2.647
 9053SOL    HW128058   2.640   1.340   2.675
 9053SOL    HW228059   2.658   1.492   2.617
 9054SOL     OW28060   1.809   0.133   1.677
 9054SOL    HW128061   1.848   0.224   1.691
 9054SOL    HW228062   1.878   0.064   1.697
 9055SOL     OW28063   0.830   2.327   4.416
 9055SOL    HW128064   0.769   2.402   4.440
 9055SOL    HW228065   0.921   2.363   4.394
 9056SOL     OW28066   4.565   2.639   1.783
 9056SOL    HW128067   4.572   2.664   1.880
 9056SOL    HW228068   4.528   2.716   1.731
 9057SOL     OW28069   3.821   6.271   6.794
 9057SOL    HW128070   3.744   6.333   6.775
 9057SOL    HW228071   3.826   6.203   6.721
 9058SOL     OW28072   2.433   2.164   4.799
 9058SOL    HW128073   2.364   2.153   4.872
 9058SOL    HW228074   2.436   2.259   4.771
 9059SOL     OW28075   6.980   1.446   2.092
 9059SOL    HW128076   6.964   1.411   2.184
 9059SOL    HW228077   6.973   1.546   2.093
 9060SOL     OW28078   6.879   4.962   1.033
 9060SOL    HW128079   6.866   4.875   1.080
 9060SOL    HW228080   6.798   5.019   1.044
 9061SOL     OW28081   4.785   4.212   2.255
 9061SOL    HW128082   4.764   4.194   2.159
 9061SOL    HW228083   4.884   4.219   2.267
 9062SOL     OW28084   0.565   5.216   3.117
 9062SOL    HW128085   0.603   5.295   3.070
 9062SOL    HW228086   0.487   5.244   3.173
 9063SOL     OW28087   4.807   1.048   1.084
 9063SOL    HW128088   4.834   1.033   0.989
 9063SOL    HW228089   4.708   1.067   1.088
 9064SOL     OW28090   1.524   5.566   3.425
 9064SOL    HW128091   1.592   5.637   3.407
 9064SOL    HW228092   1.472   5.548   3.341
 9065SOL     OW28093   3.687   4.229   7.006
 9065SOL    HW128094   3.728   4.152   0.040
 9065SOL    HW228095   3.619   4.195   6.942
 9066SOL     OW28096   4.979   4.785   3.830
 9066SOL    HW128097   4.886   4.773   3.796
 9066SOL    HW228098   4.977   4.818   3.924
 9067SOL     OW28099   2.135   6.486   4.352
 9067SOL    HW128100   2.181   6.427   4.418
 9067SOL    HW228101   2.142   6.581   4.382
 9068SOL     OW28102   4.395   6.903   6.162
 9068SOL    HW128103   4.342   6.911   6.077
 9068SOL    HW228104   4.488   6.939   6.146
 9069SOL     OW28105   5.223   2.347   1.878
 9069SOL    HW128106   5.194   2.430   1.830
 9069SOL    HW228107   5.292   2.371   1.946
 9070SOL     OW28108   1.844   0.944   6.090
 9070SOL    HW128109   1.896   0.860   6.076
 9070SOL    HW228110   1.880   1.017   6.032
 9071SOL     OW28111   4.974   2.755   6.484
 9071SOL    HW128112   4.907   2.798   6.543
 9071SOL    HW228113   5.021   2.682   6.533
 9072SOL     OW28114   5.824   6.901   1.928
 9072SOL    HW128115   5.783   6.988   1.902
 9072SOL    HW228116   5.923   6.905   1.914
 9073SOL     OW28117   4.721   3.143   5.570
 9073SOL    HW128118   4.768   3.228   5.592
 9073SOL    HW228119   4.711   3.134   5.471
 9074SOL     OW28120   2.018   0.819   3.369
 9074SOL    HW128121   2.002   0.819   3.270
 9074SOL    HW228122   2.088   0.752   3.391
 9075SOL     OW28123   4.837   5.501   0.592
 9075SOL    HW128124   4.871   5.410   0.614
 9075SOL    HW228125   4.758   5.494   0.532
 9076SOL     OW28126   1.139   6.005   2.618
 9076SOL    HW128127   1.078   5.925   2.623
 9076SOL    HW228128   1.085   6.087   2.604
 9077SOL     OW28129   6.381   2.140   6.356
 9077SOL    HW128130   6.419   2.170   6.269
 9077SOL    HW228131   6.451   2.143   6.427
 9078SOL     OW28132   5.285   6.568   0.450
 9078SOL    HW128133   5.314   6.529   0.362
 9078SOL    HW228134   5.366   6.591   0.504
 9079SOL     OW28135   1.369   1.171   5.979
 9079SOL    HW128136   1.454   1.161   6.031
 9079SOL    HW228137   1.333   1.081   5.954
 9080SOL     OW28138   6.608   4.130   2.323
 9080SOL    HW128139   6.646   4.107   2.233
 9080SOL    HW228140   6.565   4.048   2.363
 9081SOL     OW28141   4.982   1.729   0.517
 9081SOL    HW128142   5.022   1.639   0.503
 9081SOL    HW228143   4.883   1.724   0.503
 9082SOL     OW28144   3.419   4.596   6.598
 9082SOL    HW128145   3.496   4.645   6.556
 9082SOL    HW228146   3.388   4.645   6.679
 9083SOL     OW28147   3.431   0.216   0.778
 9083SOL    HW128148   3.352   0.260   0.821
 9083SOL    HW228149   3.433   0.239   0.681
 9084SOL     OW28150   6.973   3.977   4.763
 9084SOL    HW128151   0.056   3.959   4.758
 9084SOL    HW228152   6.924   3.891   4.776
 9085SOL     OW28153   2.712   4.904   0.806
 9085SOL    HW128154   2.753   4.820   0.840
 9085SOL    HW228155   2.741   4.982   0.862
 9086SOL     OW28156   6.890   3.158   0.466
 9086SOL    HW128157   6.922   3.063   0.465
 9086SOL    HW228158   6.878   3.188   0.561
 9087SOL     OW28159   5.160   1.594   1.561
 9087SOL    HW128160   5.170   1.661   1.487
 9087SOL    HW228161   5.217   1.621   1.638
 9088SOL     OW28162   5.920   5.475   0.214
 9088SOL    HW128163   5.926   5.382   0.249
 9088SOL    HW228164   5.860   5.477   0.134
 9089SOL     OW28165   5.279   5.154   3.210
 9089SOL    HW128166   5.310   5.119   3.121
 9089SOL    HW228167   5.290   5.082   3.279
 9090SOL     OW28168   5.365   5.725   5.732
 9090SOL    HW128169   5.419   5.712   5.815
 9090SOL    HW228170   5.391   5.812   5.689
 9091SOL     OW28171   2.725   2.082   2.115
 9091SOL    HW128172   2.797   2.152   2.107
 9091SOL    HW228173   2.734   2.017   2.040
 9092SOL     OW28174   2.076   1.835   4.975
 9092SOL    HW128175   2.094   1.785   5.060
 9092SOL    HW228176   2.133   1.798   4.902
 9093SOL     OW28177   2.118   3.644   0.605
 9093SOL    HW128178   2.105   3.560   0.554
 9093SOL    HW228179   2.216   3.659   0.621
 9094SOL     OW28180   6.659   3.481   0.891
 9094SOL    HW128181   6.618   3.401   0.846
 9094SOL    HW228182   6.731   3.519   0.833
 9095SOL     OW28183   2.365   3.020   0.069
 9095SOL    HW128184   2.381   2.942   0.129
 9095SOL    HW228185   2.359   2.988   6.990
 9096SOL     OW28186   6.373   3.733   3.206
 9096SOL    HW128187   6.425   3.814   3.180
 9096SOL    HW228188   6.276   3.755   3.210
 9097SOL     OW28189   6.323   6.199   5.876
 9097SOL    HW128190   6.314   6.290   5.837
 9097SOL    HW228191   6.358   6.206   5.969
 9098SOL     OW28192   3.738   4.212   4.976
 9098SOL    HW128193   3.681   4.162   5.042
 9098SOL    HW228194   3.728   4.310   4.992
 9099SOL     OW28195   1.442   1.983   6.902
 9099SOL    HW128196   1.462   2.081   6.904
 9099SOL    HW228197   1.389   1.959   6.984
 9100SOL     OW28198   1.766   3.035   6.995
 9100SOL    HW128199   1.698   2.981   6.946
 9100SOL    HW228200   1.811   2.978   0.048
 9101SOL     OW28201   2.140   1.751   6.661
 9101SOL    HW128202   2.117   1.829   6.604
 9101SOL    HW228203   2.095   1.669   6.625
 9102SOL     OW28204   4.849   6.252   2.552
 9102SOL    HW128205   4.829   6.202   2.468
 9102SOL    HW228206   4.876   6.345   2.530
 9103SOL     OW28207   0.615   4.776   6.046
 9103SOL    HW128208   0.669   4.719   6.109
 9103SOL    HW228209   0.523   4.789   6.083
 9104SOL     OW28210   5.326   0.148   2.902
 9104SOL    HW128211   5.282   0.120   2.988
 9104SOL    HW228212   5.382   0.229   2.919
 9105SOL     OW28213   2.892   1.642   5.581
 9105SOL    HW128214   2.820   1.711   5.574
 9105SOL    HW228215   2.980   1.684   5.561
 9106SOL     OW28216   6.284   4.855   1.953
 9106SOL    HW128217   6.333   4.770   1.933
 9106SOL    HW228218   6.259   4.858   2.049
 9107SOL     OW28219   4.520   0.570   0.244
 9107SOL    HW128220   4.483   0.643   0.301
 9107SOL    HW228221   4.552   0.495   0.301
 9108SOL     OW28222   3.767   5.942   6.903
 9108SOL    HW128223   3.813   5.998   6.834
 9108SOL    HW228224   3.784   5.980   6.993
 9109SOL     OW28225   2.860   1.509   4.635
 9109SOL    HW128226   2.882   1.411   4.635
 9109SOL    HW228227   2.781   1.525   4.577
 9110SOL     OW28228   1.505   3.126   3.172
 9110SOL    HW128229   1.520   3.039   3.126
 9110SOL    HW228230   1.532   3.201   3.112
 9111SOL     OW28231   4.155   4.144   1.689
 9111SOL    HW128232   4.082   4.121   1.753
 9111SOL    HW228233   4.236   4.175   1.739
 9112SOL     OW28234   0.825   5.437   1.965
 9112SOL    HW128235   0.816   5.363   1.898
 9112SOL    HW228236   0.891   5.504   1.932
 9113SOL     OW28237   2.919   5.999   0.131
 9113SOL    HW128238   2.826   5.983   0.100
 9113SOL    HW228239   2.917   6.042   0.222
 9114SOL     OW28240   2.750   3.980   1.669
 9114SOL    HW128241   2.684   4.047   1.705
 9114SOL    HW228242   2.744   3.979   1.569
 9115SOL     OW28243   1.769   4.469   4.158
 9115SOL    HW128244   1.698   4.444   4.092
 9115SOL    HW228245   1.829   4.537   4.117
 9116SOL     OW28246   2.378   1.673   6.049
 9116SOL    HW128247   2.408   1.760   6.089
 9116SOL    HW228248   2.284   1.654   6.078
 9117SOL     OW28249   6.856   3.233   6.832
 9117SOL    HW128250   6.834   3.277   6.745
 9117SOL    HW228251   6.937   3.277   6.871
 9118SOL     OW28252   0.240   5.402   1.523
 9118SOL    HW128253   0.316   5.365   1.470
 9118SOL    HW228254   0.156   5.396   1.469
 9119SOL     OW28255   6.470   0.207   0.663
 9119SOL    HW128256   6.392   0.267   0.680
 9119SOL    HW228257   6.548   0.235   0.719
 9120SOL     OW28258   5.791   1.064   6.638
 9120SOL    HW128259   5.882   1.043   6.672
 9120SOL    HW228260   5.732   1.090   6.715
 9121SOL     OW28261   1.423   0.945   6.642
 9121SOL    HW128262   1.393   1.002   6.719
 9121SOL    HW228263   1.523   0.938   6.643
 9122SOL     OW28264   0.825   2.621   0.813
 9122SOL    HW128265   0.846   2.570   0.730
 9122SOL    HW228266   0.838   2.562   0.893
 9123SOL     OW28267   2.620   6.426   6.902
 9123SOL    HW128268   2.648   6.380   6.818
 9123SOL    HW228269   2.627   6.362   6.979
 9124SOL     OW28270   5.967   4.664   5.757
 9124SOL    HW128271   5.980   4.641   5.660
 9124SOL    HW228272   6.002   4.589   5.814
 9125SOL     OW28273   4.746   5.807   1.606
 9125SOL    HW128274   4.745   5.707   1.613
 9125SOL    HW228275   4.840   5.839   1.600
 9126SOL     OW28276   5.759   0.006   2.225
 9126SOL    HW128277   5.788   0.102   2.232
 9126SOL    HW228278   5.797   6.981   2.142
 9127SOL     OW28279   4.998   6.645   6.948
 9127SOL    HW128280   5.007   6.738   6.911
 9127SOL    HW228281   4.946   6.647   0.018
 9128SOL     OW28282   4.971   2.896   5.046
 9128SOL    HW128283   4.893   2.861   4.994
 9128SOL    HW228284   5.051   2.899   4.986
 9129SOL     OW28285   2.212   1.610   6.375
 9129SOL    HW128286   2.295   1.662   6.397
 9129SOL    HW228287   2.146   1.671   6.330
 9130SOL     OW28288   5.895   5.515   0.910
 9130SOL    HW128289   5.802   5.546   0.927
 9130SOL    HW228290   5.924   5.454   0.985
 9131SOL     OW28291   0.458   4.404   3.931
 9131SOL    HW128292   0.396   4.412   4.009
 9131SOL    HW228293   0.414   4.349   3.860
 9132SOL     OW28294   1.565   3.251   4.203
 9132SOL    HW128295   1.530   3.164   4.238
 9132SOL    HW228296   1.490   3.308   4.172
 9133SOL     OW28297   1.335   4.626   1.078
 9133SOL    HW128298   1.339   4.726   1.070
 9133SOL    HW228299   1.336   4.601   1.175
 9134SOL     OW28300   2.863   5.013   6.184
 9134SOL    HW128301   2.961   5.011   6.164
 9134SOL    HW228302   2.847   5.066   6.267
 9135SOL     OW28303   0.434   5.949   3.946
 9135SOL    HW128304   0.519   5.901   3.924
 9135SOL    HW228305   0.363   5.924   3.881
 9136SOL     OW28306   4.057   5.577   5.846
 9136SOL    HW128307   4.082   5.531   5.931
 9136SOL    HW228308   4.131   5.638   5.818
 9137SOL     OW28309   4.124   1.198   2.459
 9137SOL    HW128310   4.049   1.246   2.503
 9137SOL    HW228311   4.112   1.201   2.359
 9138SOL     OW28312   3.493   4.761   0.866
 9138SOL    HW128313   3.506   4.848   0.820
 9138SOL    HW228314   3.515   4.771   0.964
 9139SOL     OW28315   3.821   1.169   5.643
 9139SOL    HW128316   3.731   1.176   5.687
 9139SOL    HW228317   3.892   1.201   5.706
 9140SOL     OW28318   6.987   2.256   3.704
 9140SOL    HW128319   7.015   2.174   3.654
 9140SOL    HW228320   6.915   2.233   3.769
 9141SOL     OW28321   5.925   0.502   5.852
 9141SOL    HW128322   5.989   0.577   5.834
 9141SOL    HW228323   5.853   0.533   5.912
 9142SOL     OW28324   0.906   4.009   6.166
 9142SOL    HW128325   0.964   4.085   6.135
 9142SOL    HW228326   0.953   3.960   6.239
 9143SOL     OW28327   5.423   4.327   1.076
 9143SOL    HW128328   5.416   4.262   1.152
 9143SOL    HW228329   5.340   4.324   1.021
 9144SOL     OW28330   1.263   4.578   5.056
 9144SOL    HW128331   1.297   4.484   5.062
 9144SOL    HW228332   1.312   4.635   5.121
 9145SOL     OW28333   0.303   4.050   6.443
 9145SOL    HW128334   0.336   4.143   6.459
 9145SOL    HW228335   0.235   4.026   6.513
 9146SOL     OW28336   0.065   1.653   1.498
 9146SOL    HW128337   0.109   1.591   1.564
 9146SOL    HW228338   0.004   1.715   1.547
 9147SOL     OW28339   4.302   6.264   6.134
 9147SOL    HW128340   4.295   6.362   6.153
 9147SOL    HW228341   4.360   6.249   6.054
 9148SOL     OW28342   3.450   6.097   3.053
 9148SOL    HW128343   3.476   6.002   3.040
 9148SOL    HW228344   3.500   6.155   2.988
 9149SOL     OW28345   6.061   3.280   3.766
 9149SOL    HW128346   5.962   3.266   3.762
 9149SOL    HW228347   6.097   3.232   3.846
 9150SOL     OW28348   4.588   1.511   3.199
 9150SOL    HW128349   4.636   1.581   3.146
 9150SOL    HW228350   4.497   1.545   3.224
 9151SOL     OW28351   1.408   3.842   2.264
 9151SOL    HW128352   1.396   3.751   2.224
 9151SOL    HW228353   1.504   3.856   2.288
 9152SOL     OW28354   2.610   5.703   3.044
 9152SOL    HW128355   2.518   5.677   3.073
 9152SOL    HW228356   2.662   5.738   3.122
 9153SOL     OW28357   1.614   3.283   6.250
 9153SOL    HW128358   1.641   3.280   6.154
 9153SOL    HW228359   1.531   3.230   6.264
 9154SOL     OW28360   2.067   5.816   0.451
 9154SOL    HW128361   2.088   5.778   0.541
 9154SOL    HW228362   1.971   5.843   0.448
 9155SOL     OW28363   1.387   4.152   0.258
 9155SOL    HW128364   1.316   4.218   0.286
 9155SOL    HW228365   1.350   4.059   0.265
 9156SOL     OW28366   5.335   2.945   1.914
 9156SOL    HW128367   5.366   3.028   1.960
 9156SOL    HW228368   5.241   2.958   1.883
 9157SOL     OW28369   5.303   3.718   5.785
 9157SOL    HW128370   5.314   3.708   5.884
 9157SOL    HW228371   5.333   3.808   5.756
 9158SOL     OW28372   0.732   3.639   3.247
 9158SOL    HW128373   0.693   3.557   3.205
 9158SOL    HW228374   0.832   3.631   3.250
 9159SOL     OW28375   0.164   4.120   3.143
 9159SOL    HW128376   0.261   4.117   3.165
 9159SOL    HW228377   0.121   4.034   3.172
 9160SOL     OW28378   6.958   6.805   0.357
 9160SOL    HW128379   6.944   6.818   0.455
 9160SOL    HW228380   0.014   6.867   0.325
 9161SOL     OW28381   5.392   3.591   3.817
 9161SOL    HW128382   5.314   3.564   3.761
 9161SOL    HW228383   5.421   3.683   3.792
 9162SOL     OW28384   5.374   1.985   2.050
 9162SOL    HW128385   5.450   1.959   1.991
 9162SOL    HW228386   5.304   1.914   2.047
 9163SOL     OW28387   2.951   1.414   4.062
 9163SOL    HW128388   2.995   1.504   4.063
 9163SOL    HW228389   3.018   1.344   4.040
 9164SOL     OW28390   2.622   0.282   0.207
 9164SOL    HW128391   2.696   0.301   0.142
 9164SOL    HW228392   2.661   0.267   0.298
 9165SOL     OW28393   5.019   6.338   0.411
 9165SOL    HW128394   4.965   6.297   0.484
 9165SOL    HW228395   5.046   6.431   0.436
 9166SOL     OW28396   3.105   5.572   1.576
 9166SOL    HW128397   3.136   5.655   1.621
 9166SOL    HW228398   3.048   5.519   1.640
 9167SOL     OW28399   0.669   4.452   4.926
 9167SOL    HW128400   0.678   4.460   4.827
 9167SOL    HW228401   0.578   4.418   4.948
 9168SOL     OW28402   2.189   0.218   6.344
 9168SOL    HW128403   2.126   0.254   6.413
 9168SOL    HW228404   2.269   0.277   6.339
 9169SOL     OW28405   6.463   6.589   2.966
 9169SOL    HW128406   6.428   6.496   2.956
 9169SOL    HW228407   6.563   6.587   2.971
 9170SOL     OW28408   6.219   5.835   6.558
 9170SOL    HW128409   6.228   5.738   6.534
 9170SOL    HW228410   6.128   5.868   6.533
 9171SOL     OW28411   2.687   5.643   5.958
 9171SOL    HW128412   2.709   5.690   5.873
 9171SOL    HW228413   2.770   5.607   6.000
 9172SOL     OW28414   2.558   2.475   4.048
 9172SOL    HW128415   2.502   2.555   4.067
 9172SOL    HW228416   2.536   2.403   4.114
 9173SOL     OW28417   0.619   4.915   5.201
 9173SOL    HW128418   0.624   4.924   5.300
 9173SOL    HW228419   0.680   4.980   5.158
 9174SOL     OW28420   0.134   5.169   0.130
 9174SOL    HW128421   0.232   5.186   0.117
 9174SOL    HW228422   0.121   5.115   0.213
 9175SOL     OW28423   1.775   0.059   4.993
 9175SOL    HW128424   1.711   0.010   4.934
 9175SOL    HW228425   1.839   0.112   4.937
 9176SOL     OW28426   1.606   1.348   5.671
 9176SOL    HW128427   1.658   1.414   5.618
 9176SOL    HW228428   1.664   1.309   5.743
 9177SOL     OW28429   1.264   4.731   3.619
 9177SOL    HW128430   1.261   4.631   3.622
 9177SOL    HW228431   1.193   4.765   3.558
 9178SOL     OW28432   2.382   4.555   0.722
 9178SOL    HW128433   2.428   4.521   0.640
 9178SOL    HW228434   2.385   4.655   0.723
 9179SOL     OW28435   2.779   4.728   4.710
 9179SOL    HW128436   2.827   4.816   4.712
 9179SOL    HW228437   2.775   4.691   4.803
 9180SOL     OW28438   5.122   2.119   2.607
 9180SOL    HW128439   5.193   2.153   2.669
 9180SOL    HW228440   5.143   2.146   2.513
 9181SOL     OW28441   3.870   1.384   2.445
 9181SOL    HW128442   3.833   1.476   2.440
 9181SOL    HW228443   3.851   1.335   2.360
 9182SOL     OW28444   1.505   6.859   1.808
 9182SOL    HW128445   1.584   6.810   1.771
 9182SOL    HW228446   1.519   6.957   1.797
 9183SOL     OW28447   5.235   5.451   6.616
 9183SOL    HW128448   5.333   5.462   6.630
 9183SOL    HW228449   5.193   5.541   6.604
 9184SOL     OW28450   4.766   6.912   0.231
 9184SOL    HW128451   4.678   6.951   0.260
 9184SOL    HW228452   4.835   6.932   0.301
 9185SOL     OW28453   4.443   1.247   5.396
 9185SOL    HW128454   4.510   1.256   5.322
 9185SOL    HW228455   4.361   1.204   5.361
 9186SOL     OW28456   5.751   6.854   6.717
 9186SOL    HW128457   5.798   6.782   6.667
 9186SOL    HW228458   5.663   6.820   6.751
 9187SOL     OW28459   2.750   5.968   2.171
 9187SOL    HW128460   2.709   6.013   2.092
 9187SOL    HW228461   2.703   5.881   2.188
 9188SOL     OW28462   2.567   5.915   1.498
 9188SOL    HW128463   2.583   5.820   1.472
 9188SOL    HW228464   2.654   5.959   1.519
 9189SOL     OW28465   5.584   5.114   1.659
 9189SOL    HW128466   5.544   5.028   1.692
 9189SOL    HW228467   5.607   5.105   1.563
 9190SOL     OW28468   1.315   5.164   0.777
 9190SOL    HW128469   1.286   5.075   0.742
 9190SOL    HW228470   1.388   5.152   0.844
 9191SOL     OW28471   6.902   0.339   6.222
 9191SOL    HW128472   6.829   0.358   6.156
 9191SOL    HW228473   6.864   0.288   6.299
 9192SOL     OW28474   0.404   3.644   3.811
 9192SOL    HW128475   0.352   3.677   3.889
 9192SOL    HW228476   0.357   3.668   3.726
 9193SOL     OW28477   2.677   3.480   6.898
 9193SOL    HW128478   2.735   3.451   6.974
 9193SOL    HW228479   2.694   3.577   6.878
 9194SOL     OW28480   3.400   0.382   4.497
 9194SOL    HW128481   3.461   0.452   4.534
 9194SOL    HW228482   3.370   0.322   4.571
 9195SOL     OW28483   1.709   1.275   3.731
 9195SOL    HW128484   1.654   1.357   3.746
 9195SOL    HW228485   1.679   1.230   3.647
 9196SOL     OW28486   4.835   2.256   5.473
 9196SOL    HW128487   4.785   2.224   5.393
 9196SOL    HW228488   4.833   2.356   5.476
 9197SOL     OW28489   2.434   3.659   1.278
 9197SOL    HW128490   2.357   3.608   1.241
 9197SOL    HW228491   2.485   3.702   1.203
 9198SOL     OW28492   0.285   4.798   3.957
 9198SOL    HW128493   0.381   4.772   3.970
 9198SOL    HW228494   0.280   4.894   3.928
 9199SOL     OW28495   6.346   4.866   4.854
 9199SOL    HW128496   6.363   4.786   4.798
 9199SOL    HW228497   6.267   4.916   4.818
 9200SOL     OW28498   2.847   0.370   0.071
 9200SOL    HW128499   2.928   0.322   0.106
 9200SOL    HW228500   2.854   0.467   0.093
 9201SOL     OW28501   1.797   4.246   0.127
 9201SOL    HW128502   1.882   4.298   0.119
 9201SOL    HW228503   1.758   4.258   0.218
 9202SOL     OW28504   2.506   0.624   3.726
 9202SOL    HW128505   2.524   0.695   3.794
 9202SOL    HW228506   2.426   0.571   3.753
 9203SOL     OW28507   6.784   6.881   0.854
 9203SOL    HW128508   6.840   6.937   0.793
 9203SOL    HW228509   6.742   6.939   0.923
 9204SOL     OW28510   5.365   0.360   5.803
 9204SOL    HW128511   5.384   0.458   5.797
 9204SOL    HW228512   5.304   0.334   5.729
 9205SOL     OW28513   6.967   4.788   1.460
 9205SOL    HW128514   6.989   4.692   1.476
 9205SOL    HW228515   0.035   4.843   1.465
 9206SOL     OW28516   3.474   6.232   0.544
 9206SOL    HW128517   3.436   6.141   0.525
 9206SOL    HW228518   3.471   6.288   0.462
 9207SOL     OW28519   5.510   5.460   6.628
 9207SOL    HW128520   5.498   5.390   6.557
 9207SOL    HW228521   5.578   5.430   6.694
 9208SOL     OW28522   1.470   3.813   2.904
 9208SOL    HW128523   1.424   3.799   2.816
 9208SOL    HW228524   1.521   3.898   2.902
 9209SOL     OW28525   3.053   0.271   6.354
 9209SOL    HW128526   3.152   0.269   6.366
 9209SOL    HW228527   3.031   0.313   6.265
 9210SOL     OW28528   6.903   0.435   3.863
 9210SOL    HW128529   6.972   0.438   3.935
 9210SOL    HW228530   6.910   0.348   3.813
 9211SOL     OW28531   0.631   1.629   2.509
 9211SOL    HW128532   0.558   1.650   2.445
 9211SOL    HW228533   0.696   1.705   2.513
 9212SOL     OW28534   3.114   4.962   4.483
 9212SOL    HW128535   3.093   5.045   4.433
 9212SOL    HW228536   3.048   4.949   4.557
 9213SOL     OW28537   6.211   4.378   6.578
 9213SOL    HW128538   6.212   4.278   6.576
 9213SOL    HW228539   6.146   4.410   6.647
 9214SOL     OW28540   0.208   4.720   0.853
 9214SOL    HW128541   0.134   4.769   0.807
 9214SOL    HW228542   0.222   4.632   0.808
 9215SOL     OW28543   1.247   1.218   1.172
 9215SOL    HW128544   1.222   1.148   1.105
 9215SOL    HW228545   1.280   1.300   1.124
 9216SOL     OW28546   2.016   6.878   2.967
 9216SOL    HW128547   2.092   6.938   2.992
 9216SOL    HW228548   1.938   6.896   3.027
 9217SOL     OW28549   0.755   2.766   0.050
 9217SOL    HW128550   0.752   2.680   0.101
 9217SOL    HW228551   0.744   2.842   0.113
 9218SOL     OW28552   2.764   1.059   0.383
 9218SOL    HW128553   2.849   1.109   0.401
 9218SOL    HW228554   2.705   1.115   0.325
 9219SOL     OW28555   0.047   1.352   0.519
 9219SOL    HW128556   0.008   1.398   0.598
 9219SOL    HW228557   0.104   1.415   0.467
 9220SOL     OW28558   3.058   6.331   1.677
 9220SOL    HW128559   3.031   6.303   1.769
 9220SOL    HW228560   3.056   6.252   1.616
 9221SOL     OW28561   2.888   5.268   4.620
 9221SOL    HW128562   2.814   5.288   4.685
 9221SOL    HW228563   2.852   5.212   4.545
 9222SOL     OW28564   2.872   2.321   5.867
 9222SOL    HW128565   2.817   2.276   5.937
 9222SOL    HW228566   2.841   2.292   5.776
 9223SOL     OW28567   2.721   3.041   5.323
 9223SOL    HW128568   2.741   3.133   5.358
 9223SOL    HW228569   2.626   3.037   5.293
 9224SOL     OW28570   2.323   4.984   4.781
 9224SOL    HW128571   2.310   4.960   4.877
 9224SOL    HW228572   2.404   4.937   4.745
 9225SOL     OW28573   2.135   6.648   0.045
 9225SOL    HW128574   2.208   6.613   0.102
 9225SOL    HW228575   2.173   6.682   6.974
 9226SOL     OW28576   3.653   6.341   1.270
 9226SOL    HW128577   3.608   6.381   1.190
 9226SOL    HW228578   3.607   6.255   1.294
 9227SOL     OW28579   1.585   6.110   1.592
 9227SOL    HW128580   1.552   6.047   1.662
 9227SOL    HW228581   1.683   6.095   1.578
 9228SOL     OW28582   0.522   0.227   6.960
 9228SOL    HW128583   0.619   0.250   6.964
 9228SOL    HW228584   0.512   0.128   6.948
 9229SOL     OW28585   0.426   5.662   5.463
 9229SOL    HW128586   0.410   5.576   5.414
 9229SOL    HW228587   0.483   5.722   5.408
 9230SOL     OW28588   5.551   0.786   4.136
 9230SOL    HW128589   5.627   0.758   4.077
 9230SOL    HW228590   5.560   0.883   4.158
 9231SOL     OW28591   1.916   3.279   2.982
 9231SOL    HW128592   1.944   3.374   2.963
 9231SOL    HW228593   1.998   3.222   2.990
 9232SOL     OW28594   4.391   4.826   1.354
 9232SOL    HW128595   4.478   4.778   1.342
 9232SOL    HW228596   4.354   4.852   1.265
 9233SOL     OW28597   4.766   4.878   1.168
 9233SOL    HW128598   4.806   4.828   1.244
 9233SOL    HW228599   4.703   4.947   1.202
 9234SOL     OW28600   2.455   5.936   3.768
 9234SOL    HW128601   2.461   5.865   3.839
 9234SOL    HW228602   2.516   6.012   3.792
 9235SOL     OW28603   0.882   1.881   3.056
 9235SOL    HW128604   0.906   1.843   2.967
 9235SOL    HW228605   0.850   1.975   3.045
 9236SOL     OW28606   3.777   2.694   5.726
 9236SOL    HW128607   3.821   2.656   5.807
 9236SOL    HW228608   3.801   2.639   5.646
 9237SOL     OW28609   1.674   3.176   3.790
 9237SOL    HW128610   1.606   3.249   3.777
 9237SOL    HW228611   1.659   3.105   3.721
 9238SOL     OW28612   4.330   3.639   6.548
 9238SOL    HW128613   4.341   3.540   6.538
 9238SOL    HW228614   4.400   3.675   6.610
 9239SOL     OW28615   1.702   4.160   6.727
 9239SOL    HW128616   1.724   4.081   6.783
 9239SOL    HW228617   1.711   4.137   6.630
 9240SOL     OW28618   4.720   0.580   2.735
 9240SOL    HW128619   4.804   0.538   2.701
 9240SOL    HW228620   4.697   0.660   2.679
 9241SOL     OW28621   0.744   5.899   0.292
 9241SOL    HW128622   0.731   5.904   0.193
 9241SOL    HW228623   0.734   5.804   0.322
 9242SOL     OW28624   6.328   6.189   1.540
 9242SOL    HW128625   6.426   6.184   1.520
 9242SOL    HW228626   6.297   6.284   1.532
 9243SOL     OW28627   6.300   6.344   4.730
 9243SOL    HW128628   6.353   6.425   4.705
 9243SOL    HW228629   6.240   6.366   4.807
 9244SOL     OW28630   2.976   5.348   6.904
 9244SOL    HW128631   3.039   5.282   6.945
 9244SOL    HW228632   2.882   5.323   6.928
 9245SOL     OW28633   0.509   6.103   1.143
 9245SOL    HW128634   0.471   6.182   1.095
 9245SOL    HW228635   0.597   6.129   1.184
 9246SOL     OW28636   0.136   4.731   4.205
 9246SOL    HW128637   0.058   4.790   4.228
 9246SOL    HW228638   0.191   4.777   4.135
 9247SOL     OW28639   1.710   6.671   2.187
 9247SOL    HW128640   1.730   6.623   2.101
 9247SOL    HW228641   1.791   6.721   2.216
 9248SOL     OW28642   3.445   1.923   6.173
 9248SOL    HW128643   3.373   1.989   6.191
 9248SOL    HW228644   3.517   1.965   6.117
 9249SOL     OW28645   4.496   6.579   3.480
 9249SOL    HW128646   4.455   6.639   3.549
 9249SOL    HW228647   4.520   6.633   3.400
 9250SOL     OW28648   5.780   3.623   3.796
 9250SOL    HW128649   5.745   3.621   3.702
 9250SOL    HW228650   5.799   3.718   3.822
 9251SOL     OW28651   3.648   1.780   3.038
 9251SOL    HW128652   3.675   1.728   3.119
 9251SOL    HW228653   3.726   1.788   2.976
 9252SOL     OW28654   1.592   6.557   4.644
 9252SOL    HW128655   1.644   6.522   4.722
 9252SOL    HW228656   1.655   6.573   4.567
 9253SOL     OW28657   1.254   0.056   5.561
 9253SOL    HW128658   1.330   0.072   5.624
 9253SOL    HW228659   1.174   0.027   5.612
 9254SOL     OW28660   5.665   3.405   1.431
 9254SOL    HW128661   5.666   3.503   1.410
 9254SOL    HW228662   5.646   3.353   1.348
 9255SOL     OW28663   0.161   4.552   0.198
 9255SOL    HW128664   0.206   4.642   0.202
 9255SOL    HW228665   0.128   4.535   0.105
 9256SOL     OW28666   4.120   5.046   1.883
 9256SOL    HW128667   4.155   5.088   1.967
 9256SOL    HW228668   4.186   5.058   1.810
 9257SOL     OW28669   0.808   3.414   1.008
 9257SOL    HW128670   0.748   3.443   1.082
 9257SOL    HW228671   0.869   3.489   0.982
 9258SOL     OW28672   4.054   3.798   3.853
 9258SOL    HW128673   4.067   3.763   3.946
 9258SOL    HW228674   4.036   3.896   3.856
 9259SOL     OW28675   1.042   2.723   0.140
 9259SOL    HW128676   0.958   2.715   0.193
 9259SOL    HW228677   1.023   2.764   0.051
 9260SOL     OW28678   5.650   3.587   6.862
 9260SOL    HW128679   5.647   3.635   6.949
 9260SOL    HW228680   5.599   3.638   6.793
 9261SOL     OW28681   4.345   0.167   0.048
 9261SOL    HW128682   4.276   0.108   0.090
 9261SOL    HW228683   4.329   0.261   0.076
 9262SOL     OW28684   5.144   1.058   5.558
 9262SOL    HW128685   5.231   1.032   5.601
 9262SOL    HW228686   5.077   0.986   5.573
 9263SOL     OW28687   5.254   3.916   1.985
 9263SOL    HW128688   5.315   3.858   1.931
 9263SOL    HW228689   5.306   3.962   2.057
 9264SOL     OW28690   6.459   2.703   0.272
 9264SOL    HW128691   6.362   2.726   0.276
 9264SOL    HW228692   6.472   2.608   0.302
 9265SOL     OW28693   1.990   1.313   5.401
 9265SOL    HW128694   1.939   1.381   5.455
 9265SOL    HW228695   2.078   1.352   5.373
 9266SOL     OW28696   1.878   6.207   2.519
 9266SOL    HW128697   1.914   6.123   2.558
 9266SOL    HW228698   1.825   6.256   2.588
 9267SOL     OW28699   2.510   5.071   5.365
 9267SOL    HW128700   2.442   5.029   5.305
 9267SOL    HW228701   2.595   5.017   5.362
 9268SOL     OW28702   0.509   0.926   2.863
 9268SOL    HW128703   0.439   0.942   2.794
 9268SOL    HW228704   0.488   0.981   2.944
 9269SOL     OW28705   4.033   1.746   5.679
 9269SOL    HW128706   4.133   1.749   5.673
 9269SOL    HW228707   3.996   1.715   5.592
 9270SOL     OW28708   1.116   6.925   5.793
 9270SOL    HW128709   1.191   6.868   5.828
 9270SOL    HW228710   1.067   6.967   5.869
 9271SOL     OW28711   0.922   5.056   6.950
 9271SOL    HW128712   0.955   5.128   7.010
 9271SOL    HW228713   0.889   5.097   6.864
 9272SOL     OW28714   2.710   4.845   6.892
 9272SOL    HW128715   2.656   4.767   6.862
 9272SOL    HW228716   2.791   4.854   6.834
 9273SOL     OW28717   3.953   5.990   5.337
 9273SOL    HW128718   3.883   6.046   5.293
 9273SOL    HW228719   3.909   5.926   5.400
 9274SOL     OW28720   5.804   2.081   1.029
 9274SOL    HW128721   5.722   2.086   0.972
 9274SOL    HW228722   5.867   2.154   1.003
 9275SOL     OW28723   0.561   0.367   6.293
 9275SOL    HW128724   0.643   0.315   6.320
 9275SOL    HW228725   0.483   0.304   6.288
 9276SOL     OW28726   4.780   6.078   4.820
 9276SOL    HW128727   4.680   6.077   4.813
 9276SOL    HW228728   4.819   6.061   4.729
 9277SOL     OW28729   3.656   2.582   0.717
 9277SOL    HW128730   3.562   2.597   0.685
 9277SOL    HW228731   3.715   2.655   0.682
 9278SOL     OW28732   1.152   2.340   1.484
 9278SOL    HW128733   1.232   2.343   1.424
 9278SOL    HW228734   1.127   2.433   1.512
 9279SOL     OW28735   3.350   0.130   1.276
 9279SOL    HW128736   3.366   0.074   1.357
 9279SOL    HW228737   3.285   0.083   1.215
 9280SOL     OW28738   2.220   0.690   2.765
 9280SOL    HW128739   2.124   0.702   2.793
 9280SOL    HW228740   2.225   0.620   2.694
 9281SOL     OW28741   1.790   2.751   0.369
 9281SOL    HW128742   1.795   2.779   0.465
 9281SOL    HW228743   1.696   2.727   0.347
 9282SOL     OW28744   4.557   2.342   6.236
 9282SOL    HW128745   4.541   2.244   6.236
 9282SOL    HW228746   4.623   2.366   6.165
 9283SOL     OW28747   5.731   1.843   2.556
 9283SOL    HW128748   5.805   1.906   2.532
 9283SOL    HW228749   5.647   1.870   2.509
 9284SOL     OW28750   3.131   3.595   2.193
 9284SOL    HW128751   3.223   3.606   2.232
 9284SOL    HW228752   3.131   3.516   2.132
 9285SOL     OW28753   6.107   2.748   6.635
 9285SOL    HW128754   6.024   2.785   6.592
 9285SOL    HW228755   6.141   2.813   6.703
 9286SOL     OW28756   5.570   6.087   5.054
 9286SOL    HW128757   5.516   6.015   5.097
 9286SOL    HW228758   5.659   6.052   5.026
 9287SOL     OW28759   2.981   6.260   1.948
 9287SOL    HW128760   3.028   6.275   2.035
 9287SOL    HW228761   2.897   6.313   1.945
 9288SOL     OW28762   4.617   2.743   5.752
 9288SOL    HW128763   4.583   2.801   5.826
 9288SOL    HW228764   4.635   2.651   5.787
 9289SOL     OW28765   4.926   3.388   2.871
 9289SOL    HW128766   4.919   3.370   2.969
 9289SOL    HW228767   4.903   3.484   2.853
 9290SOL     OW28768   4.586   2.146   4.925
 9290SOL    HW128769   4.675   2.162   4.881
 9290SOL    HW228770   4.518   2.206   4.883
 9291SOL     OW28771   0.706   1.909   4.634
 9291SOL    HW128772   0.718   2.008   4.645
 9291SOL    HW228773   0.723   1.884   4.538
 9292SOL     OW28774   6.678   3.600   6.794
 9292SOL    HW128775   6.637   3.691   6.804
 9292SOL    HW228776   6.759   3.594   6.853
 9293SOL     OW28777   5.888   4.235   6.617
 9293SOL    HW128778   5.879   4.196   6.525
 9293SOL    HW228779   5.853   4.328   6.617
 9294SOL     OW28780   5.685   5.838   6.960
 9294SOL    HW128781   5.634   5.924   6.957
 9294SOL    HW228782   5.690   5.806   0.040
 9295SOL     OW28783   4.848   1.570   3.566
 9295SOL    HW128784   4.879   1.605   3.477
 9295SOL    HW228785   4.754   1.599   3.582
 9296SOL     OW28786   6.481   6.604   5.819
 9296SOL    HW128787   6.465   6.703   5.817
 9296SOL    HW228788   6.397   6.556   5.792
 9297SOL     OW28789   0.805   0.777   0.739
 9297SOL    HW128790   0.736   0.762   0.810
 9297SOL    HW228791   0.787   0.715   0.662
 9298SOL     OW28792   0.873   6.474   4.945
 9298SOL    HW128793   0.953   6.429   4.904
 9298SOL    HW228794   0.849   6.555   4.891
 9299SOL     OW28795   2.238   2.958   4.394
 9299SOL    HW128796   2.200   2.949   4.302
 9299SOL    HW228797   2.303   2.883   4.409
 9300SOL     OW28798   5.583   4.300   3.952
 9300SOL    HW128799   5.494   4.264   3.981
 9300SOL    HW228800   5.570   4.359   3.872
 9301SOL     OW28801   6.065   3.984   2.568
 9301SOL    HW128802   6.033   4.079   2.566
 9301SOL    HW228803   6.007   3.930   2.629
 9302SOL     OW28804   2.497   1.891   2.653
 9302SOL    HW128805   2.528   1.945   2.731
 9302SOL    HW228806   2.460   1.951   2.582
 9303SOL     OW28807   3.619   4.786   1.117
 9303SOL    HW128808   3.696   4.825   1.168
 9303SOL    HW228809   3.533   4.806   1.164
 9304SOL     OW28810   4.215   3.578   0.465
 9304SOL    HW128811   4.235   3.603   0.560
 9304SOL    HW228812   4.197   3.480   0.459
 9305SOL     OW28813   5.152   2.987   2.718
 9305SOL    HW128814   5.078   2.929   2.682
 9305SOL    HW228815   5.118   3.080   2.729
 9306SOL     OW28816   6.378   4.301   3.849
 9306SOL    HW128817   6.317   4.249   3.909
 9306SOL    HW228818   6.327   4.375   3.806
 9307SOL     OW28819   2.472   1.459   6.481
 9307SOL    HW128820   2.547   1.520   6.507
 9307SOL    HW228821   2.415   1.504   6.411
 9308SOL     OW28822   6.744   2.543   0.679
 9308SOL    HW128823   6.662   2.598   0.659
 9308SOL    HW228824   6.806   2.548   0.601
 9309SOL     OW28825   5.093   3.604   6.668
 9309SOL    HW128826   5.176   3.567   6.710
 9309SOL    HW228827   5.054   3.536   6.607
 9310SOL     OW28828   3.717   6.270   0.663
 9310SOL    HW128829   3.714   6.287   0.762
 9310SOL    HW228830   3.625   6.248   0.631
 9311SOL     OW28831   6.309   3.010   1.305
 9311SOL    HW128832   6.302   3.067   1.387
 9311SOL    HW228833   6.374   2.936   1.320
 9312SOL     OW28834   1.379   4.828   5.452
 9312SOL    HW128835   1.337   4.800   5.366
 9312SOL    HW228836   1.425   4.749   5.493
 9313SOL     OW28837   6.074   6.795   2.182
 9313SOL    HW128838   5.977   6.772   2.180
 9313SOL    HW228839   6.117   6.751   2.261
 9314SOL     OW28840   5.169   5.009   0.427
 9314SOL    HW128841   5.097   4.992   0.493
 9314SOL    HW228842   5.198   4.923   0.385
 9315SOL     OW28843   6.536   6.606   6.437
 9315SOL    HW128844   6.531   6.592   6.536
 9315SOL    HW228845   6.517   6.520   6.390
 9316SOL     OW28846   4.023   5.802   4.264
 9316SOL    HW128847   4.000   5.808   4.167
 9316SOL    HW228848   4.123   5.794   4.275
 9317SOL     OW28849   5.958   4.126   4.652
 9317SOL    HW128850   5.874   4.178   4.633
 9317SOL    HW228851   6.034   4.166   4.600
 9318SOL     OW28852   6.087   0.218   6.424
 9318SOL    HW128853   6.034   0.265   6.354
 9318SOL    HW228854   6.026   0.160   6.479
 9319SOL     OW28855   6.627   3.807   4.987
 9319SOL    HW128856   6.669   3.724   4.950
 9319SOL    HW228857   6.692   3.853   5.048
 9320SOL     OW28858   4.316   2.934   6.656
 9320SOL    HW128859   4.380   2.858   6.665
 9320SOL    HW228860   4.315   2.966   6.561
 9321SOL     OW28861   6.408   6.018   3.325
 9321SOL    HW128862   6.492   5.985   3.368
 9321SOL    HW228863   6.375   5.950   3.259
 9322SOL     OW28864   0.557   6.099   0.066
 9322SOL    HW128865   0.601   6.080   6.993
 9322SOL    HW228866   0.546   6.014   0.117
 9323SOL     OW28867   0.043   1.742   6.133
 9323SOL    HW128868   0.119   1.798   6.098
 9323SOL    HW228869   0.010   1.781   6.219
 9324SOL     OW28870   2.037   5.748   6.884
 9324SOL    HW128871   2.003   5.666   6.929
 9324SOL    HW228872   2.131   5.734   6.854
 9325SOL     OW28873   0.313   2.799   0.484
 9325SOL    HW128874   0.306   2.755   0.573
 9325SOL    HW228875   0.286   2.734   0.413
 9326SOL     OW28876   2.344   5.936   1.337
 9326SOL    HW128877   2.440   5.961   1.325
 9326SOL    HW228878   2.288   5.983   1.268
 9327SOL     OW28879   3.915   1.079   3.334
 9327SOL    HW128880   3.853   1.098   3.258
 9327SOL    HW228881   3.998   1.133   3.323
 9328SOL     OW28882   3.506   0.926   2.209
 9328SOL    HW128883   3.425   0.867   2.202
 9328SOL    HW228884   3.498   0.981   2.292
 9329SOL     OW28885   1.398   3.592   1.712
 9329SOL    HW128886   1.344   3.612   1.795
 9329SOL    HW228887   1.463   3.666   1.696
 9330SOL     OW28888   5.561   0.130   0.189
 9330SOL    HW128889   5.476   0.178   0.167
 9330SOL    HW228890   5.557   0.037   0.153
 9331SOL     OW28891   0.641   1.340   6.681
 9331SOL    HW128892   0.543   1.354   6.692
 9331SOL    HW228893   0.684   1.426   6.653
 9332SOL     OW28894   3.473   3.865   4.662
 9332SOL    HW128895   3.504   3.960   4.667
 9332SOL    HW228896   3.431   3.839   4.749
 9333SOL     OW28897   5.749   5.094   0.965
 9333SOL    HW128898   5.740   5.147   0.881
 9333SOL    HW228899   5.728   4.998   0.946
 9334SOL     OW28900   2.799   0.214   4.800
 9334SOL    HW128901   2.829   0.309   4.807
 9334SOL    HW228902   2.866   0.161   4.748
 9335SOL     OW28903   0.831   0.813   1.121
 9335SOL    HW128904   0.794   0.839   1.210
 9335SOL    HW228905   0.756   0.783   1.062
 9336SOL     OW28906   2.939   0.006   5.419
 9336SOL    HW128907   2.941   0.046   5.511
 9336SOL    HW228908   3.028   6.983   5.397
 9337SOL     OW28909   4.982   0.162   2.948
 9337SOL    HW128910   4.888   0.165   2.981
 9337SOL    HW228911   4.983   0.173   2.849
 9338SOL     OW28912   3.977   0.270   1.572
 9338SOL    HW128913   3.953   0.363   1.543
 9338SOL    HW228914   3.897   0.211   1.565
 9339SOL     OW28915   3.897   5.978   0.765
 9339SOL    HW128916   3.893   6.045   0.839
 9339SOL    HW228917   3.846   5.896   0.791
 9340SOL     OW28918   5.374   3.275   0.718
 9340SOL    HW128919   5.296   3.281   0.781
 9340SOL    HW228920   5.368   3.190   0.666
 9341SOL     OW28921   6.896   5.192   5.898
 9341SOL    HW128922   6.890   5.100   5.860
 9341SOL    HW228923   6.805   5.224   5.923
 9342SOL     OW28924   0.783   6.391   6.260
 9342SOL    HW128925   0.848   6.443   6.205
 9342SOL    HW228926   0.805   6.293   6.256
 9343SOL     OW28927   6.524   5.515   4.661
 9343SOL    HW128928   6.595   5.447   4.676
 9343SOL    HW228929   6.490   5.548   4.750
 9344SOL     OW28930   4.527   6.388   1.122
 9344SOL    HW128931   4.583   6.436   1.189
 9344SOL    HW228932   4.578   6.377   1.036
 9345SOL     OW28933   6.929   2.885   0.422
 9345SOL    HW128934   6.837   2.850   0.403
 9345SOL    HW228935   6.988   2.871   0.343
 9346SOL     OW28936   5.950   6.986   0.492
 9346SOL    HW128937   6.016   6.963   0.563
 9346SOL    HW228938   5.930   0.068   0.496
 9347SOL     OW28939   1.301   6.615   1.982
 9347SOL    HW128940   1.208   6.643   2.007
 9347SOL    HW228941   1.367   6.672   2.032
 9348SOL     OW28942   2.949   5.228   0.645
 9348SOL    HW128943   2.865   5.263   0.686
 9348SOL    HW228944   2.958   5.131   0.664
 9349SOL     OW28945   2.120   5.918   2.692
 9349SOL    HW128946   2.079   5.885   2.607
 9349SOL    HW228947   2.177   5.997   2.673
 9350SOL     OW28948   0.320   2.749   5.637
 9350SOL    HW128949   0.308   2.844   5.666
 9350SOL    HW228950   0.390   2.706   5.694
 9351SOL     OW28951   2.630   1.129   6.768
 9351SOL    HW128952   2.716   1.167   6.734
 9351SOL    HW228953   2.554   1.189   6.743
 9352SOL     OW28954   2.391   4.720   5.415
 9352SOL    HW128955   2.307   4.672   5.443
 9352SOL    HW228956   2.422   4.780   5.489
 9353SOL     OW28957   6.171   0.885   0.873
 9353SOL    HW128958   6.178   0.785   0.875
 9353SOL    HW228959   6.080   0.912   0.906
 9354SOL     OW28960   0.940   1.848   6.228
 9354SOL    HW128961   1.030   1.831   6.269
 9354SOL    HW228962   0.936   1.942   6.194
 9355SOL     OW28963   0.579   1.716   4.981
 9355SOL    HW128964   0.556   1.654   5.057
 9355SOL    HW228965   0.574   1.810   5.013
 9356SOL     OW28966   5.529   0.276   3.960
 9356SOL    HW128967   5.510   0.258   3.863
 9356SOL    HW228968   5.447   0.313   4.004
 9357SOL     OW28969   0.892   1.527   0.033
 9357SOL    HW128970   0.847   1.440   0.016
 9357SOL    HW228971   0.857   1.596   6.984
 9358SOL     OW28972   1.074   2.561   1.681
 9358SOL    HW128973   1.004   2.514   1.735
 9358SOL    HW228974   1.030   2.621   1.614
 9359SOL     OW28975   0.804   0.165   5.346
 9359SOL    HW128976   0.858   0.119   5.417
 9359SOL    HW228977   0.740   0.100   5.306
 9360SOL     OW28978   0.692   0.232   5.993
 9360SOL    HW128979   0.662   0.222   5.898
 9360SOL    HW228980   0.619   0.200   6.054
 9361SOL     OW28981   2.217   5.374   4.093
 9361SOL    HW128982   2.298   5.414   4.049
 9361SOL    HW228983   2.238   5.352   4.188
 9362SOL     OW28984   2.366   0.816   2.109
 9362SOL    HW128985   2.308   0.770   2.041
 9362SOL    HW228986   2.462   0.802   2.084
 9363SOL     OW28987   1.780   4.776   2.682
 9363SOL    HW128988   1.831   4.861   2.666
 9363SOL    HW228989   1.819   4.702   2.628
 9364SOL     OW28990   0.814   2.659   0.385
 9364SOL    HW128991   0.760   2.737   0.417
 9364SOL    HW228992   0.756   2.597   0.333
 9365SOL     OW28993   3.322   0.995   4.841
 9365SOL    HW128994   3.265   1.075   4.860
 9365SOL    HW228995   3.352   0.997   4.746
 9366SOL     OW28996   4.051   6.022   2.490
 9366SOL    HW128997   4.073   5.971   2.573
 9366SOL    HW228998   4.100   6.109   2.491
 9367SOL     OW28999   6.435   1.244   1.187
 9367SOL    HW129000   6.436   1.200   1.276
 9367SOL    HW229001   6.359   1.210   1.133
 9368SOL     OW29002   2.776   0.354   2.818
 9368SOL    HW129003   2.787   0.317   2.910
 9368SOL    HW229004   2.760   0.280   2.753
 9369SOL     OW29005   3.441   5.235   0.505
 9369SOL    HW129006   3.539   5.218   0.515
 9369SOL    HW229007   3.405   5.273   0.590
 9370SOL     OW29008   4.184   1.948   4.932
 9370SOL    HW129009   4.149   2.040   4.915
 9370SOL    HW229010   4.187   1.930   5.030
 9371SOL     OW29011   4.477   5.115   0.791
 9371SOL    HW129012   4.458   5.212   0.771
 9371SOL    HW229013   4.497   5.067   0.705
 9372SOL     OW29014   4.258   6.040   1.611
 9372SOL    HW129015   4.195   6.057   1.688
 9372SOL    HW229016   4.352   6.051   1.642
 9373SOL     OW29017   6.789   3.066   1.078
 9373SOL    HW129018   6.776   3.039   0.983
 9373SOL    HW229019   6.814   2.985   1.132
 9374SOL     OW29020   0.135   5.583   6.192
 9374SOL    HW129021   0.234   5.568   6.183
 9374SOL    HW229022   0.087   5.501   6.160
 9375SOL     OW29023   0.756   1.314   6.966
 9375SOL    HW129024   0.720   1.344   6.878
 9375SOL    HW229025   0.706   1.233   6.997
 9376SOL     OW29026   2.488   3.765   1.039
 9376SOL    HW129027   2.528   3.839   0.984
 9376SOL    HW229028   2.403   3.735   0.997
 9377SOL     OW29029   2.197   0.531   3.434
 9377SOL    HW129030   2.286   0.576   3.430
 9377SOL    HW229031   2.198   0.450   3.377
 9378SOL     OW29032   3.805   1.008   5.417
 9378SOL    HW129033   3.848   1.067   5.485
 9378SOL    HW229034   3.810   0.913   5.448
 9379SOL     OW29035   4.717   6.940   4.214
 9379SOL    HW129036   4.621   6.945   4.243
 9379SOL    HW229037   4.724   6.885   4.131
 9380SOL     OW29038   5.204   5.516   0.515
 9380SOL    HW129039   5.147   5.590   0.551
 9380SOL    HW229040   5.227   5.536   0.419
 9381SOL     OW29041   5.400   1.067   5.676
 9381SOL    HW129042   5.377   1.163   5.688
 9381SOL    HW229043   5.460   1.037   5.750
 9382SOL     OW29044   2.879   5.090   5.873
 9382SOL    HW129045   2.867   4.994   5.896
 9382SOL    HW229046   2.802   5.143   5.909
 9383SOL     OW29047   5.778   3.863   2.642
 9383SOL    HW129048   5.824   3.787   2.688
 9383SOL    HW229049   5.693   3.884   2.691
 9384SOL     OW29050   3.720   0.341   1.341
 9384SOL    HW129051   3.706   0.378   1.433
 9384SOL    HW229052   3.728   0.415   1.275
 9385SOL     OW29053   4.123   1.186   4.286
 9385SOL    HW129054   4.099   1.191   4.189
 9385SOL    HW229055   4.050   1.141   4.337
 9386SOL     OW29056   5.031   6.588   1.161
 9386SOL    HW129057   4.987   6.668   1.203
 9386SOL    HW229058   5.025   6.595   1.062
 9387SOL     OW29059   2.543   1.393   6.805
 9387SOL    HW129060   2.470   1.355   6.750
 9387SOL    HW229061   2.505   1.430   6.890
 9388SOL     OW29062   2.460   0.117   5.474
 9388SOL    HW129063   2.540   0.138   5.419
 9388SOL    HW229064   2.430   0.023   5.455
 9389SOL     OW29065   2.099   3.818   1.640
 9389SOL    HW129066   2.015   3.839   1.591
 9389SOL    HW229067   2.082   3.744   1.705
 9390SOL     OW29068   4.985   4.420   4.439
 9390SOL    HW129069   5.085   4.413   4.432
 9390SOL    HW229070   4.950   4.343   4.491
 9391SOL     OW29071   1.334   3.806   4.768
 9391SOL    HW129072   1.289   3.801   4.858
 9391SOL    HW229073   1.419   3.858   4.776
 9392SOL     OW29074   5.349   4.369   2.771
 9392SOL    HW129075   5.393   4.446   2.725
 9392SOL    HW229076   5.370   4.284   2.722
 9393SOL     OW29077   1.531   6.080   6.305
 9393SOL    HW129078   1.499   6.079   6.211
 9393SOL    HW229079   1.476   6.017   6.361
 9394SOL     OW29080   4.161   0.394   0.339
 9394SOL    HW129081   4.239   0.415   0.281
 9394SOL    HW229082   4.158   0.457   0.416
 9395SOL     OW29083   1.321   1.466   1.001
 9395SOL    HW129084   1.324   1.565   1.019
 9395SOL    HW229085   1.244   1.446   0.940
 9396SOL     OW29086   0.783   0.582   6.080
 9396SOL    HW129087   0.781   0.624   5.990
 9396SOL    HW229088   0.872   0.598   6.123
 9397SOL     OW29089   3.934   1.064   5.067
 9397SOL    HW129090   3.868   1.046   5.140
 9397SOL    HW229091   3.929   0.991   4.999
 9398SOL     OW29092   0.685   1.887   0.246
 9398SOL    HW129093   0.589   1.907   0.267
 9398SOL    HW229094   0.725   1.833   0.321
 9399SOL     OW29095   0.941   2.088   4.283
 9399SOL    HW129096   0.865   2.124   4.228
 9399SOL    HW229097   0.972   2.157   4.347
 9400SOL     OW29098   5.591   1.608   0.770
 9400SOL    HW129099   5.674   1.647   0.811
 9400SOL    HW229100   5.524   1.681   0.756
 9401SOL     OW29101   0.378   2.276   3.491
 9401SOL    HW129102   0.472   2.242   3.494
 9401SOL    HW229103   0.316   2.205   3.524
 9402SOL     OW29104   2.622   6.733   4.495
 9402SOL    HW129105   2.695   6.767   4.554
 9402SOL    HW229106   2.573   6.659   4.541
 9403SOL     OW29107   5.455   2.286   1.080
 9403SOL    HW129108   5.509   2.220   1.026
 9403SOL    HW229109   5.426   2.243   1.166
 9404SOL     OW29110   2.273   2.660   0.988
 9404SOL    HW129111   2.253   2.727   1.059
 9404SOL    HW229112   2.298   2.708   0.904
 9405SOL     OW29113   6.166   5.725   5.325
 9405SOL    HW129114   6.144   5.726   5.423
 9405SOL    HW229115   6.198   5.816   5.297
 9406SOL     OW29116   1.091   1.987   0.412
 9406SOL    HW129117   1.078   2.085   0.397
 9406SOL    HW229118   1.048   1.935   0.339
 9407SOL     OW29119   1.791   4.639   4.911
 9407SOL    HW129120   1.787   4.539   4.912
 9407SOL    HW229121   1.698   4.676   4.910
 9408SOL     OW29122   6.136   4.457   4.205
 9408SOL    HW129123   6.083   4.387   4.156
 9408SOL    HW229124   6.076   4.505   4.269
 9409SOL     OW29125   6.316   5.680   2.058
 9409SOL    HW129126   6.221   5.698   2.032
 9409SOL    HW229127   6.351   5.759   2.109
 9410SOL     OW29128   4.014   0.413   0.785
 9410SOL    HW129129   4.066   0.438   0.703
 9410SOL    HW229130   3.967   0.326   0.769
 9411SOL     OW29131   3.253   4.012   3.326
 9411SOL    HW129132   3.211   4.028   3.416
 9411SOL    HW229133   3.182   3.993   3.259
 9412SOL     OW29134   4.691   6.687   1.620
 9412SOL    HW129135   4.660   6.725   1.708
 9412SOL    HW229136   4.666   6.751   1.547
 9413SOL     OW29137   4.737   4.092   3.012
 9413SOL    HW129138   4.704   4.029   3.081
 9413SOL    HW229139   4.727   4.186   3.045
 9414SOL     OW29140   2.378   2.043   2.452
 9414SOL    HW129141   2.284   2.014   2.435
 9414SOL    HW229142   2.401   2.119   2.392
 9415SOL     OW29143   5.510   0.315   1.825
 9415SOL    HW129144   5.545   0.295   1.916
 9415SOL    HW229145   5.418   0.275   1.815
 9416SOL     OW29146   5.917   5.218   5.454
 9416SOL    HW129147   5.819   5.228   5.472
 9416SOL    HW229148   5.965   5.299   5.486
 9417SOL     OW29149   3.362   5.571   2.303
 9417SOL    HW129150   3.426   5.516   2.249
 9417SOL    HW229151   3.367   5.666   2.273
 9418SOL     OW29152   3.069   1.756   4.936
 9418SOL    HW129153   3.066   1.699   4.854
 9418SOL    HW229154   2.978   1.760   4.978
 9419SOL     OW29155   2.181   2.754   6.786
 9419SOL    HW129156   2.121   2.768   6.864
 9419SOL    HW229157   2.225   2.665   6.794
 9420SOL     OW29158   5.872   4.069   5.576
 9420SOL    HW129159   5.874   4.165   5.547
 9420SOL    HW229160   5.964   4.032   5.573
 9421SOL     OW29161   3.813   6.089   6.596
 9421SOL    HW129162   3.896   6.035   6.581
 9421SOL    HW229163   3.733   6.033   6.577
 9422SOL     OW29164   2.456   6.372   5.374
 9422SOL    HW129165   2.409   6.433   5.437
 9422SOL    HW229166   2.473   6.284   5.418
 9423SOL     OW29167   4.349   5.253   1.853
 9423SOL    HW129168   4.433   5.286   1.810
 9423SOL    HW229169   4.370   5.174   1.911
 9424SOL     OW29170   6.960   0.505   4.518
 9424SOL    HW129171   6.986   0.442   4.591
 9424SOL    HW229172   6.871   0.545   4.539
 9425SOL     OW29173   6.722   4.006   0.380
 9425SOL    HW129174   6.705   4.060   0.297
 9425SOL    HW229175   6.637   3.962   0.409
 9426SOL     OW29176   4.864   3.160   6.298
 9426SOL    HW129177   4.782   3.106   6.279
 9426SOL    HW229178   4.914   3.176   6.214
 9427SOL     OW29179   4.448   4.536   2.401
 9427SOL    HW129180   4.385   4.586   2.342
 9427SOL    HW229181   4.541   4.545   2.366
 9428SOL     OW29182   0.862   6.176   5.754
 9428SOL    HW129183   0.876   6.077   5.743
 9428SOL    HW229184   0.831   6.215   5.667
 9429SOL     OW29185   3.174   2.140   3.905
 9429SOL    HW129186   3.245   2.074   3.931
 9429SOL    HW229187   3.141   2.187   3.987
 9430SOL     OW29188   1.987   0.953   4.202
 9430SOL    HW129189   2.066   0.945   4.141
 9430SOL    HW229190   1.916   1.009   4.158
 9431SOL     OW29191   0.856   4.406   5.480
 9431SOL    HW129192   0.928   4.443   5.420
 9431SOL    HW229193   0.872   4.308   5.494
 9432SOL     OW29194   6.988   1.346   4.172
 9432SOL    HW129195   6.994   1.250   4.200
 9432SOL    HW229196   0.038   1.401   4.224
 9433SOL     OW29197   4.647   5.449   2.092
 9433SOL    HW129198   4.571   5.427   2.154
 9433SOL    HW229199   4.611   5.490   2.009
 9434SOL     OW29200   4.033   5.531   4.102
 9434SOL    HW129201   3.957   5.522   4.167
 9434SOL    HW229202   4.015   5.608   4.040
 9435SOL     OW29203   6.153   4.009   1.064
 9435SOL    HW129204   6.079   4.075   1.075
 9435SOL    HW229205   6.234   4.055   1.027
 9436SOL     OW29206   3.022   0.731   3.292
 9436SOL    HW129207   2.984   0.639   3.299
 9436SOL    HW229208   3.081   0.749   3.370
 9437SOL     OW29209   5.341   0.750   4.827
 9437SOL    HW129210   5.424   0.694   4.818
 9437SOL    HW229211   5.364   0.836   4.872
 9438SOL     OW29212   4.616   0.263   2.795
 9438SOL    HW129213   4.642   0.186   2.854
 9438SOL    HW229214   4.603   0.345   2.851
 9439SOL     OW29215   1.967   4.329   0.846
 9439SOL    HW129216   1.989   4.374   0.760
 9439SOL    HW229217   2.021   4.370   0.920
 9440SOL     OW29218   1.516   5.273   4.000
 9440SOL    HW129219   1.536   5.338   3.926
 9440SOL    HW229220   1.466   5.195   3.962
 9441SOL     OW29221   0.491   6.641   4.409
 9441SOL    HW129222   0.437   6.720   4.437
 9441SOL    HW229223   0.440   6.557   4.425
 9442SOL     OW29224   5.787   3.188   0.912
 9442SOL    HW129225   5.875   3.234   0.910
 9442SOL    HW229226   5.717   3.251   0.945
 9443SOL     OW29227   2.198   4.258   1.355
 9443SOL    HW129228   2.193   4.158   1.353
 9443SOL    HW229229   2.271   4.288   1.295
 9444SOL     OW29230   1.814   5.430   6.753
 9444SOL    HW129231   1.789   5.381   6.670
 9444SOL    HW229232   1.837   5.524   6.731
 9445SOL     OW29233   0.465   1.122   3.999
 9445SOL    HW129234   0.390   1.186   4.009
 9445SOL    HW229235   0.454   1.047   4.064
 9446SOL     OW29236   6.110   4.185   4.406
 9446SOL    HW129237   6.178   4.229   4.463
 9446SOL    HW229238   6.155   4.122   4.342
 9447SOL     OW29239   5.245   5.140   1.918
 9447SOL    HW129240   5.327   5.144   1.976
 9447SOL    HW229241   5.230   5.046   1.888
 9448SOL     OW29242   5.517   2.209   6.742
 9448SOL    HW129243   5.465   2.171   6.664
 9448SOL    HW229244   5.510   2.146   6.819
 9449SOL     OW29245   5.477   0.049   1.997
 9449SOL    HW129246   5.383   0.037   2.028
 9449SOL    HW229247   5.494   7.009   1.916
 9450SOL     OW29248   1.333   6.744   3.237
 9450SOL    HW129249   1.269   6.813   3.204
 9450SOL    HW229250   1.310   6.719   3.331
 9451SOL     OW29251   4.152   4.956   0.189
 9451SOL    HW129252   4.229   4.918   0.240
 9451SOL    HW229253   4.067   4.937   0.238
 9452SOL     OW29254   5.895   4.150   6.139
 9452SOL    HW129255   5.994   4.161   6.148
 9452SOL    HW229256   5.866   4.172   6.046
 9453SOL     OW29257   5.689   4.470   1.750
 9453SOL    HW129258   5.719   4.563   1.728
 9453SOL    HW229259   5.719   4.447   1.842
 9454SOL     OW29260   6.075   4.996   0.560
 9454SOL    HW129261   6.138   5.062   0.601
 9454SOL    HW229262   5.985   5.005   0.602
 9455SOL     OW29263   4.114   0.816   1.224
 9455SOL    HW129264   4.132   0.842   1.129
 9455SOL    HW229265   4.163   0.732   1.246
 9456SOL     OW29266   6.740   2.231   3.201
 9456SOL    HW129267   6.651   2.230   3.155
 9456SOL    HW229268   6.807   2.179   3.147
 9457SOL     OW29269   6.637   6.382   4.045
 9457SOL    HW129270   6.689   6.386   3.960
 9457SOL    HW229271   6.569   6.456   4.046
 9458SOL     OW29272   5.847   4.272   0.282
 9458SOL    HW129273   5.895   4.237   0.362
 9458SOL    HW229274   5.913   4.312   0.218
 9459SOL     OW29275   4.641   4.271   4.730
 9459SOL    HW129276   4.578   4.207   4.686
 9459SOL    HW229277   4.607   4.365   4.716
 9460SOL     OW29278   1.124   2.831   2.208
 9460SOL    HW129279   1.151   2.925   2.187
 9460SOL    HW229280   1.032   2.814   2.173
 9461SOL     OW29281   1.991   1.286   1.696
 9461SOL    HW129282   1.945   1.359   1.747
 9461SOL    HW229283   2.014   1.211   1.758
 9462SOL     OW29284   6.902   1.355   5.535
 9462SOL    HW129285   7.000   1.338   5.529
 9462SOL    HW229286   6.857   1.278   5.579
 9463SOL     OW29287   6.411   4.144   0.320
 9463SOL    HW129288   6.351   4.224   0.324
 9463SOL    HW229289   6.437   4.117   0.413
 9464SOL     OW29290   1.156   0.695   1.540
 9464SOL    HW129291   1.198   0.735   1.621
 9464SOL    HW229292   1.119   0.605   1.561
 9465SOL     OW29293   6.561   5.482   0.205
 9465SOL    HW129294   6.625   5.410   0.178
 9465SOL    HW229295   6.578   5.564   0.151
 9466SOL     OW29296   4.590   3.915   5.499
 9466SOL    HW129297   4.609   3.882   5.591
 9466SOL    HW229298   4.502   3.880   5.468
 9467SOL     OW29299   1.255   3.876   0.565
 9467SOL    HW129300   1.235   3.965   0.524
 9467SOL    HW229301   1.354   3.862   0.567
 9468SOL     OW29302   6.139   1.430   0.941
 9468SOL    HW129303   6.170   1.335   0.934
 9468SOL    HW229304   6.039   1.433   0.930
 9469SOL     OW29305   6.835   6.873   1.553
 9469SOL    HW129306   6.777   6.945   1.514
 9469SOL    HW229307   6.929   6.906   1.559
 9470SOL     OW29308   4.224   2.970   0.534
 9470SOL    HW129309   4.145   3.006   0.583
 9470SOL    HW229310   4.304   3.026   0.556
 9471SOL     OW29311   6.198   2.777   4.993
 9471SOL    HW129312   6.170   2.792   5.088
 9471SOL    HW229313   6.297   2.759   4.991
 9472SOL     OW29314   1.427   3.157   5.501
 9472SOL    HW129315   1.430   3.134   5.598
 9472SOL    HW229316   1.433   3.256   5.490
 9473SOL     OW29317   3.431   3.354   1.416
 9473SOL    HW129318   3.530   3.357   1.427
 9473SOL    HW229319   3.394   3.447   1.419
 9474SOL     OW29320   5.734   4.592   0.759
 9474SOL    HW129321   5.674   4.614   0.682
 9474SOL    HW229322   5.790   4.512   0.737
 9475SOL     OW29323   5.293   3.691   6.071
 9475SOL    HW129324   5.209   3.717   6.120
 9475SOL    HW229325   5.316   3.597   6.093
 9476SOL     OW29326   4.027   4.085   1.108
 9476SOL    HW129327   3.970   4.162   1.077
 9476SOL    HW229328   4.086   4.115   1.183
 9477SOL     OW29329   1.773   4.634   0.977
 9477SOL    HW129330   1.748   4.598   0.887
 9477SOL    HW229331   1.782   4.559   1.042
 9478SOL     OW29332   5.524   3.869   6.132
 9478SOL    HW129333   5.539   3.853   6.230
 9478SOL    HW229334   5.590   3.816   6.079
 9479SOL     OW29335   3.993   0.831   2.331
 9479SOL    HW129336   3.931   0.886   2.386
 9479SOL    HW229337   4.020   0.883   2.249
 9480SOL     OW29338   5.844   0.491   0.379
 9480SOL    HW129339   5.753   0.513   0.347
 9480SOL    HW229340   5.903   0.571   0.372
 9481SOL     OW29341   4.871   0.444   3.402
 9481SOL    HW129342   4.966   0.472   3.388
 9481SOL    HW229343   4.860   0.409   3.496
 9482SOL     OW29344   6.651   4.962   5.105
 9482SOL    HW129345   6.671   4.990   5.011
 9482SOL    HW229346   6.560   4.996   5.131
 9483SOL     OW29347   6.033   5.705   6.288
 9483SOL    HW129348   6.021   5.668   6.381
 9483SOL    HW229349   5.971   5.658   6.226
 9484SOL     OW29350   2.394   6.014   4.881
 9484SOL    HW129351   2.464   5.985   4.947
 9484SOL    HW229352   2.325   5.942   4.873
 9485SOL     OW29353   0.699   1.562   5.215
 9485SOL    HW129354   0.792   1.556   5.181
 9485SOL    HW229355   0.685   1.493   5.286
 9486SOL     OW29356   6.476   5.999   6.412
 9486SOL    HW129357   6.384   5.965   6.432
 9486SOL    HW229358   6.530   6.000   6.497
 9487SOL     OW29359   3.444   3.849   3.852
 9487SOL    HW129360   3.438   3.948   3.862
 9487SOL    HW229361   3.357   3.807   3.877
 9488SOL     OW29362   2.215   1.194   1.570
 9488SOL    HW129363   2.137   1.246   1.606
 9488SOL    HW229364   2.249   1.133   1.642
 9489SOL     OW29365   6.032   3.968   6.919
 9489SOL    HW129366   5.997   3.928   7.004
 9489SOL    HW229367   6.103   3.910   6.881
 9490SOL     OW29368   5.780   3.262   4.519
 9490SOL    HW129369   5.819   3.350   4.548
 9490SOL    HW229370   5.801   3.247   4.422
 9491SOL     OW29371   5.705   6.897   2.897
 9491SOL    HW129372   5.779   6.853   2.846
 9491SOL    HW229373   5.618   6.881   2.850
 9492SOL     OW29374   4.701   2.321   3.760
 9492SOL    HW129375   4.701   2.259   3.838
 9492SOL    HW229376   4.683   2.414   3.792
 9493SOL     OW29377   3.432   6.059   1.904
 9493SOL    HW129378   3.344   6.075   1.860
 9493SOL    HW229379   3.432   5.969   1.947
 9494SOL     OW29380   5.184   2.620   2.135
 9494SOL    HW129381   5.183   2.633   2.234
 9494SOL    HW229382   5.254   2.552   2.111
 9495SOL     OW29383   5.482   2.975   1.261
 9495SOL    HW129384   5.514   3.068   1.243
 9495SOL    HW229385   5.382   2.972   1.257
 9496SOL     OW29386   5.947   2.741   0.903
 9496SOL    HW129387   5.958   2.729   1.002
 9496SOL    HW229388   5.871   2.803   0.885
 9497SOL     OW29389   4.970   5.269   5.062
 9497SOL    HW129390   4.903   5.243   5.132
 9497SOL    HW229391   4.927   5.263   4.971
 9498SOL     OW29392   0.876   5.977   5.400
 9498SOL    HW129393   0.932   6.053   5.367
 9498SOL    HW229394   0.795   6.012   5.446
 9499SOL     OW29395   5.959   6.398   4.335
 9499SOL    HW129396   5.995   6.304   4.330
 9499SOL    HW229397   6.001   6.453   4.262
 9500SOL     OW29398   3.088   1.828   0.644
 9500SOL    HW129399   3.013   1.889   0.668
 9500SOL    HW229400   3.054   1.755   0.584
 9501SOL     OW29401   2.263   4.091   5.422
 9501SOL    HW129402   2.211   4.043   5.492
 9501SOL    HW229403   2.302   4.025   5.358
 9502SOL     OW29404   5.859   4.757   3.858
 9502SOL    HW129405   5.910   4.685   3.811
 9502SOL    HW229406   5.763   4.732   3.864
 9503SOL     OW29407   6.132   0.973   0.257
 9503SOL    HW129408   6.042   1.015   0.245
 9503SOL    HW229409   6.131   0.881   0.219
 9504SOL     OW29410   6.423   5.912   2.191
 9504SOL    HW129411   6.499   5.895   2.129
 9504SOL    HW229412   6.347   5.953   2.140
 9505SOL     OW29413   4.566   4.128   6.380
 9505SOL    HW129414   4.525   4.217   6.359
 9505SOL    HW229415   4.567   4.114   6.479
 9506SOL     OW29416   2.720   1.207   1.144
 9506SOL    HW129417   2.630   1.234   1.111
 9506SOL    HW229418   2.727   1.227   1.242
 9507SOL     OW29419   6.288   6.721   1.731
 9507SOL    HW129420   6.354   6.654   1.765
 9507SOL    HW229421   6.322   6.760   1.646
 9508SOL     OW29422   4.395   0.809   2.597
 9508SOL    HW129423   4.475   0.768   2.554
 9508SOL    HW229424   4.343   0.859   2.528
 9509SOL     OW29425   5.516   1.562   3.531
 9509SOL    HW129426   5.420   1.590   3.534
 9509SOL    HW229427   5.543   1.544   3.436
 9510SOL     OW29428   1.818   2.899   2.849
 9510SOL    HW129429   1.816   2.880   2.947
 9510SOL    HW229430   1.891   2.846   2.806
 9511SOL     OW29431   0.857   1.535   1.190
 9511SOL    HW129432   0.863   1.627   1.151
 9511SOL    HW229433   0.766   1.498   1.173
 9512SOL     OW29434   6.456   1.711   2.094
 9512SOL    HW129435   6.464   1.793   2.152
 9512SOL    HW229436   6.528   1.713   2.024
 9513SOL     OW29437   4.707   3.923   5.242
 9513SOL    HW129438   4.653   3.905   5.324
 9513SOL    HW229439   4.697   4.019   5.215
 9514SOL     OW29440   3.740   3.052   0.664
 9514SOL    HW129441   3.673   3.100   0.606
 9514SOL    HW229442   3.729   3.081   0.759
 9515SOL     OW29443   0.211   5.471   2.899
 9515SOL    HW129444   0.306   5.459   2.867
 9515SOL    HW229445   0.205   5.551   2.957
 9516SOL     OW29446   0.484   3.768   5.837
 9516SOL    HW129447   0.500   3.816   5.751
 9516SOL    HW229448   0.507   3.671   5.827
 9517SOL     OW29449   0.107   6.940   1.420
 9517SOL    HW129450   0.197   6.900   1.405
 9517SOL    HW229451   0.089   7.009   1.349
 9518SOL     OW29452   0.542   1.129   1.404
 9518SOL    HW129453   0.544   1.191   1.483
 9518SOL    HW229454   0.629   1.079   1.398
 9519SOL     OW29455   1.307   2.691   4.989
 9519SOL    HW129456   1.220   2.658   5.025
 9519SOL    HW229457   1.305   2.790   4.982
 9520SOL     OW29458   3.867   6.493   1.732
 9520SOL    HW129459   3.847   6.510   1.635
 9520SOL    HW229460   3.938   6.422   1.739
 9521SOL     OW29461   5.340   4.949   3.372
 9521SOL    HW129462   5.249   4.945   3.412
 9521SOL    HW229463   5.365   4.858   3.339
 9522SOL     OW29464   3.021   5.137   6.689
 9522SOL    HW129465   3.003   5.217   6.746
 9522SOL    HW229466   2.976   5.149   6.600
 9523SOL     OW29467   2.078   6.357   5.390
 9523SOL    HW129468   2.094   6.442   5.340
 9523SOL    HW229469   2.030   6.292   5.331
 9524SOL     OW29470   5.080   3.138   0.390
 9524SOL    HW129471   5.111   3.044   0.405
 9524SOL    HW229472   5.103   3.166   0.296
 9525SOL     OW29473   4.203   6.861   4.676
 9525SOL    HW129474   4.216   6.953   4.712
 9525SOL    HW229475   4.259   6.849   4.594
 9526SOL     OW29476   4.957   6.056   1.403
 9526SOL    HW129477   4.933   5.991   1.331
 9526SOL    HW229478   4.953   6.010   1.492
 9527SOL     OW29479   0.345   2.492   0.620
 9527SOL    HW129480   0.445   2.494   0.622
 9527SOL    HW229481   0.313   2.486   0.525
 9528SOL     OW29482   6.776   1.220   1.412
 9528SOL    HW129483   6.766   1.124   1.386
 9528SOL    HW229484   6.871   1.248   1.398
 9529SOL     OW29485   1.682   2.999   4.791
 9529SOL    HW129486   1.747   3.022   4.864
 9529SOL    HW229487   1.732   2.967   4.711
 9530SOL     OW29488   2.136   1.189   3.907
 9530SOL    HW129489   2.124   1.227   3.999
 9530SOL    HW229490   2.226   1.214   3.872
 9531SOL     OW29491   2.770   6.706   4.228
 9531SOL    HW129492   2.695   6.669   4.173
 9531SOL    HW229493   2.745   6.703   4.325
 9532SOL     OW29494   3.047   1.343   2.060
 9532SOL    HW129495   3.010   1.427   2.022
 9532SOL    HW229496   2.982   1.268   2.048
 9533SOL     OW29497   0.978   1.557   4.875
 9533SOL    HW129498   1.017   1.612   4.949
 9533SOL    HW229499   0.890   1.594   4.847
 9534SOL     OW29500   5.641   1.822   4.681
 9534SOL    HW129501   5.659   1.748   4.745
 9534SOL    HW229502   5.674   1.908   4.720
 9535SOL     OW29503   3.358   1.564   4.309
 9535SOL    HW129504   3.335   1.615   4.226
 9535SOL    HW229505   3.299   1.483   4.316
 9536SOL     OW29506   2.457   6.970   6.302
 9536SOL    HW129507   2.439   6.972   6.203
 9536SOL    HW229508   2.376   6.936   6.350
 9537SOL     OW29509   2.230   0.311   0.425
 9537SOL    HW129510   2.254   0.231   0.370
 9537SOL    HW229511   2.259   0.296   0.520
 9538SOL     OW29512   5.915   3.657   2.755
 9538SOL    HW129513   5.858   3.578   2.779
 9538SOL    HW229514   6.001   3.626   2.715
 9539SOL     OW29515   0.044   3.761   6.929
 9539SOL    HW129516   0.104   3.838   6.908
 9539SOL    HW229517   0.006   3.773   0.006
 9540SOL     OW29518   5.485   3.136   5.417
 9540SOL    HW129519   5.577   3.103   5.394
 9540SOL    HW229520   5.465   3.113   5.512
 9541SOL     OW29521   6.810   1.890   3.274
 9541SOL    HW129522   6.722   1.842   3.277
 9541SOL    HW229523   6.884   1.825   3.261
 9542SOL     OW29524   4.581   4.490   4.462
 9542SOL    HW129525   4.538   4.478   4.552
 9542SOL    HW229526   4.668   4.538   4.472
 9543SOL     OW29527   4.366   2.770   1.021
 9543SOL    HW129528   4.346   2.783   1.118
 9543SOL    HW229529   4.458   2.803   1.001
 9544SOL     OW29530   4.533   1.059   1.119
 9544SOL    HW129531   4.448   1.067   1.066
 9544SOL    HW229532   4.534   0.971   1.167
 9545SOL     OW29533   1.226   6.797   4.790
 9545SOL    HW129534   1.173   6.717   4.759
 9545SOL    HW229535   1.263   6.844   4.710
 9546SOL     OW29536   2.530   4.415   1.824
 9546SOL    HW129537   2.539   4.514   1.814
 9546SOL    HW229538   2.538   4.391   1.921
 9547SOL     OW29539   5.616   5.522   3.625
 9547SOL    HW129540   5.527   5.562   3.604
 9547SOL    HW229541   5.677   5.592   3.662
 9548SOL     OW29542   5.775   6.904   2.469
 9548SOL    HW129543   5.776   6.918   2.370
 9548SOL    HW229544   5.693   6.948   2.508
 9549SOL     OW29545   2.323   5.940   0.398
 9549SOL    HW129546   2.240   5.887   0.378
 9549SOL    HW229547   2.358   5.914   0.488
 9550SOL     OW29548   1.775   1.214   0.050
 9550SOL    HW129549   1.732   1.176   0.132
 9550SOL    HW229550   1.855   1.159   0.026
 9551SOL     OW29551   1.590   5.479   4.949
 9551SOL    HW129552   1.523   5.528   4.893
 9551SOL    HW229553   1.629   5.541   5.016
 9552SOL     OW29554   0.484   4.787   3.232
 9552SOL    HW129555   0.421   4.729   3.181
 9552SOL    HW229556   0.437   4.824   3.313
 9553SOL     OW29557   5.535   4.871   6.235
 9553SOL    HW129558   5.521   4.864   6.137
 9553SOL    HW229559   5.612   4.933   6.254
 9554SOL     OW29560   1.916   1.989   1.469
 9554SOL    HW129561   2.012   1.966   1.484
 9554SOL    HW229562   1.861   1.956   1.546
 9555SOL     OW29563   6.807   2.754   6.271
 9555SOL    HW129564   6.826   2.767   6.369
 9555SOL    HW229565   6.739   2.822   6.241
 9556SOL     OW29566   6.766   0.939   1.343
 9556SOL    HW129567   6.671   0.930   1.312
 9556SOL    HW229568   6.827   0.902   1.273
 9557SOL     OW29569   4.656   1.468   2.102
 9557SOL    HW129570   4.638   1.546   2.043
 9557SOL    HW229571   4.648   1.495   2.197
 9558SOL     OW29572   6.650   3.388   1.361
 9558SOL    HW129573   6.634   3.476   1.406
 9558SOL    HW229574   6.744   3.359   1.376
 9559SOL     OW29575   0.779   3.972   2.735
 9559SOL    HW129576   0.838   4.023   2.798
 9559SOL    HW229577   0.831   3.895   2.696
 9560SOL     OW29578   4.089   2.418   5.703
 9560SOL    HW129579   4.129   2.334   5.668
 9560SOL    HW229580   4.106   2.493   5.639
 9561SOL     OW29581   3.226   5.633   6.207
 9561SOL    HW129582   3.230   5.689   6.290
 9561SOL    HW229583   3.260   5.541   6.228
 9562SOL     OW29584   5.853   5.117   4.200
 9562SOL    HW129585   5.934   5.167   4.170
 9562SOL    HW229586   5.789   5.108   4.124
 9563SOL     OW29587   0.217   6.317   6.921
 9563SOL    HW129588   0.251   6.393   6.866
 9563SOL    HW229589   0.161   6.257   6.864
 9564SOL     OW29590   1.514   0.753   5.648
 9564SOL    HW129591   1.588   0.728   5.585
 9564SOL    HW229592   1.545   0.826   5.709
 9565SOL     OW29593   3.228   5.565   5.280
 9565SOL    HW129594   3.158   5.514   5.231
 9565SOL    HW229595   3.213   5.555   5.379
 9566SOL     OW29596   3.087   4.494   5.779
 9566SOL    HW129597   3.116   4.416   5.836
 9566SOL    HW229598   2.992   4.516   5.800
 9567SOL     OW29599   6.184   5.055   4.722
 9567SOL    HW129600   6.171   5.125   4.792
 9567SOL    HW229601   6.129   5.077   4.641
 9568SOL     OW29602   5.689   3.686   5.672
 9568SOL    HW129603   5.784   3.656   5.666
 9568SOL    HW229604   5.686   3.781   5.704
 9569SOL     OW29605   6.024   0.055   1.659
 9569SOL    HW129606   5.945   0.096   1.705
 9569SOL    HW229607   6.007   6.973   1.644
 9570SOL     OW29608   1.175   1.982   6.504
 9570SOL    HW129609   1.265   2.007   6.469
 9570SOL    HW229610   1.177   1.983   6.604
 9571SOL     OW29611   3.232   2.027   0.731
 9571SOL    HW129612   3.210   1.935   0.700
 9571SOL    HW229613   3.331   2.037   0.740
 9572SOL     OW29614   0.296   3.942   0.862
 9572SOL    HW129615   0.235   3.983   0.794
 9572SOL    HW229616   0.391   3.957   0.835
 9573SOL     OW29617   4.796   1.220   2.957
 9573SOL    HW129618   4.710   1.216   3.008
 9573SOL    HW229619   4.814   1.315   2.929
 9574SOL     OW29620   2.816   2.235   3.590
 9574SOL    HW129621   2.914   2.221   3.604
 9574SOL    HW229622   2.802   2.300   3.515
 9575SOL     OW29623   3.966   1.490   3.089
 9575SOL    HW129624   3.996   1.525   3.178
 9575SOL    HW229625   3.993   1.554   3.017
 9576SOL     OW29626   3.788   3.555   5.565
 9576SOL    HW129627   3.746   3.575   5.653
 9576SOL    HW229628   3.744   3.610   5.494
 9577SOL     OW29629   0.752   5.527   3.715
 9577SOL    HW129630   0.728   5.580   3.634
 9577SOL    HW229631   0.852   5.525   3.726
 9578SOL     OW29632   6.981   4.015   1.003
 9578SOL    HW129633   7.002   3.958   0.923
 9578SOL    HW229634   6.884   4.002   1.027
 9579SOL     OW29635   1.827   4.788   2.945
 9579SOL    HW129636   1.777   4.718   2.996
 9579SOL    HW229637   1.795   4.790   2.850
 9580SOL     OW29638   4.179   3.753   5.913
 9580SOL    HW129639   4.221   3.808   5.840
 9580SOL    HW229640   4.106   3.696   5.874
 9581SOL     OW29641   1.041   5.877   5.899
 9581SOL    HW129642   0.973   5.863   5.827
 9581SOL    HW229643   1.115   5.811   5.888
 9582SOL     OW29644   4.246   5.394   2.887
 9582SOL    HW129645   4.218   5.458   2.816
 9582SOL    HW229646   4.199   5.417   2.973
 9583SOL     OW29647   1.508   5.101   1.459
 9583SOL    HW129648   1.596   5.055   1.460
 9583SOL    HW229649   1.521   5.198   1.435
 9584SOL     OW29650   4.745   4.485   0.032
 9584SOL    HW129651   4.746   4.386   0.047
 9584SOL    HW229652   4.698   4.506   6.962
 9585SOL     OW29653   6.281   0.876   2.970
 9585SOL    HW129654   6.300   0.826   3.054
 9585SOL    HW229655   6.332   0.961   2.969
 9586SOL     OW29656   5.234   3.985   2.494
 9586SOL    HW129657   5.186   3.965   2.409
 9586SOL    HW229658   5.234   3.904   2.553
 9587SOL     OW29659   4.268   6.384   1.524
 9587SOL    HW129660   4.232   6.355   1.435
 9587SOL    HW229661   4.360   6.422   1.512
 9588SOL     OW29662   6.152   0.861   3.636
 9588SOL    HW129663   6.098   0.922   3.579
 9588SOL    HW229664   6.219   0.913   3.687
 9589SOL     OW29665   3.564   2.081   4.744
 9589SOL    HW129666   3.581   2.179   4.730
 9589SOL    HW229667   3.466   2.066   4.759
 9590SOL     OW29668   0.297   4.744   4.460
 9590SOL    HW129669   0.390   4.775   4.476
 9590SOL    HW229670   0.278   4.744   4.362
 9591SOL     OW29671   0.828   4.496   2.107
 9591SOL    HW129672   0.760   4.471   2.176
 9591SOL    HW229673   0.798   4.463   2.018
 9592SOL     OW29674   4.218   5.852   0.361
 9592SOL    HW129675   4.150   5.896   0.420
 9592SOL    HW229676   4.203   5.754   0.360
 9593SOL     OW29677   2.185   1.670   3.571
 9593SOL    HW129678   2.141   1.653   3.482
 9593SOL    HW229679   2.283   1.652   3.564
 9594SOL     OW29680   5.858   0.155   1.166
 9594SOL    HW129681   5.819   0.240   1.131
 9594SOL    HW229682   5.823   0.138   1.258
 9595SOL     OW29683   1.396   5.519   5.256
 9595SOL    HW129684   1.379   5.427   5.222
 9595SOL    HW229685   1.310   5.562   5.284
 9596SOL     OW29686   5.371   6.140   2.152
 9596SOL    HW129687   5.390   6.235   2.175
 9596SOL    HW229688   5.403   6.120   2.059
 9597SOL     OW29689   2.650   4.832   1.528
 9597SOL    HW129690   2.695   4.797   1.446
 9597SOL    HW229691   2.551   4.833   1.513
 9598SOL     OW29692   0.041   6.117   6.225
 9598SOL    HW129693   0.107   6.071   6.285
 9598SOL    HW229694   0.008   6.200   6.269
 9599SOL     OW29695   3.838   2.205   5.132
 9599SOL    HW129696   3.758   2.156   5.165
 9599SOL    HW229697   3.843   2.295   5.176
 9600SOL     OW29698   1.716   6.371   6.856
 9600SOL    HW129699   1.811   6.392   6.879
 9600SOL    HW229700   1.662   6.455   6.856
 9601SOL     OW29701   0.834   6.704   4.753
 9601SOL    HW129702   0.829   6.794   4.711
 9601SOL    HW229703   0.926   6.666   4.740
 9602SOL     OW29704   1.027   5.331   6.212
 9602SOL    HW129705   1.010   5.348   6.309
 9602SOL    HW229706   0.994   5.409   6.158
 9603SOL     OW29707   0.907   5.157   2.371
 9603SOL    HW129708   0.941   5.249   2.356
 9603SOL    HW229709   0.984   5.093   2.377
 9604SOL     OW29710   0.316   0.197   6.588
 9604SOL    HW129711   0.255   0.126   6.625
 9604SOL    HW229712   0.263   0.259   6.530
 9605SOL     OW29713   3.449   4.809   1.413
 9605SOL    HW129714   3.484   4.810   1.506
 9605SOL    HW229715   3.350   4.797   1.414
 9606SOL     OW29716   0.048   0.249   5.222
 9606SOL    HW129717   0.009   0.244   5.314
 9606SOL    HW229718   0.135   0.297   5.224
 9607SOL     OW29719   0.078   2.234   2.956
 9607SOL    HW129720   0.010   2.162   2.950
 9607SOL    HW229721   0.160   2.199   3.000
 9608SOL     OW29722   6.028   1.057   1.884
 9608SOL    HW129723   6.007   0.960   1.898
 9608SOL    HW229724   6.030   1.077   1.786
 9609SOL     OW29725   1.318   2.304   3.545
 9609SOL    HW129726   1.388   2.283   3.477
 9609SOL    HW229727   1.360   2.307   3.636
 9610SOL     OW29728   4.285   0.931   5.298
 9610SOL    HW129729   4.357   0.915   5.230
 9610SOL    HW229730   4.244   1.020   5.284
 9611SOL     OW29731   4.804   5.527   0.889
 9611SOL    HW129732   4.775   5.623   0.885
 9611SOL    HW229733   4.779   5.481   0.804
 9612SOL     OW29734   5.557   3.054   3.662
 9612SOL    HW129735   5.483   3.111   3.627
 9612SOL    HW229736   5.589   3.090   3.749
 9613SOL     OW29737   5.565   0.528   4.824
 9613SOL    HW129738   5.656   0.547   4.861
 9613SOL    HW229739   5.572   0.507   4.727
 9614SOL     OW29740   2.669   2.505   0.707
 9614SOL    HW129741   2.616   2.428   0.673
 9614SOL    HW229742   2.724   2.543   0.633
 9615SOL     OW29743   0.455   5.435   3.718
 9615SOL    HW129744   0.528   5.504   3.725
 9615SOL    HW229745   0.447   5.387   3.805
 9616SOL     OW29746   1.226   2.481   1.006
 9616SOL    HW129747   1.286   2.424   0.949
 9616SOL    HW229748   1.279   2.556   1.044
 9617SOL     OW29749   0.452   2.439   3.007
 9617SOL    HW129750   0.535   2.468   3.054
 9617SOL    HW229751   0.439   2.495   2.925
 9618SOL     OW29752   4.789   4.027   1.800
 9618SOL    HW129753   4.842   4.057   1.720
 9618SOL    HW229754   4.783   4.101   1.866
 9619SOL     OW29755   0.404   6.986   1.135
 9619SOL    HW129756   0.375   6.932   1.055
 9619SOL    HW229757   0.503   6.996   1.134
 9620SOL     OW29758   4.151   1.314   0.040
 9620SOL    HW129759   4.146   1.214   0.048
 9620SOL    HW229760   4.218   1.349   0.105
 9621SOL     OW29761   0.333   0.988   1.484
 9621SOL    HW129762   0.269   0.997   1.408
 9621SOL    HW229763   0.418   1.037   1.461
 9622SOL     OW29764   6.501   6.100   5.425
 9622SOL    HW129765   6.474   6.195   5.412
 9622SOL    HW229766   6.434   6.040   5.381
 9623SOL     OW29767   2.957   5.992   5.991
 9623SOL    HW129768   3.018   5.917   5.965
 9623SOL    HW229769   2.932   5.983   6.087
 9624SOL     OW29770   4.568   5.778   5.827
 9624SOL    HW129771   4.656   5.822   5.807
 9624SOL    HW229772   4.567   5.687   5.787
 9625SOL     OW29773   4.867   4.298   6.253
 9625SOL    HW129774   4.859   4.304   6.353
 9625SOL    HW229775   4.816   4.219   6.220
 9626SOL     OW29776   2.644   2.693   6.343
 9626SOL    HW129777   2.716   2.763   6.347
 9626SOL    HW229778   2.683   2.608   6.309
 9627SOL     OW29779   0.207   5.779   0.581
 9627SOL    HW129780   0.163   5.707   0.527
 9627SOL    HW229781   0.177   5.869   0.548
 9628SOL     OW29782   5.816   1.153   5.983
 9628SOL    HW129783   5.801   1.054   5.978
 9628SOL    HW229784   5.728   1.199   5.991
 9629SOL     OW29785   1.169   5.724   3.862
 9629SOL    HW129786   1.245   5.678   3.907
 9629SOL    HW229787   1.120   5.660   3.803
 9630SOL     OW29788   5.321   0.687   6.464
 9630SOL    HW129789   5.339   0.781   6.433
 9630SOL    HW229790   5.222   0.675   6.476
 9631SOL     OW29791   4.512   6.439   0.628
 9631SOL    HW129792   4.588   6.373   0.630
 9631SOL    HW229793   4.510   6.483   0.538
 9632SOL     OW29794   2.450   5.031   3.322
 9632SOL    HW129795   2.458   5.131   3.325
 9632SOL    HW229796   2.541   4.990   3.331
 9633SOL     OW29797   3.489   2.963   5.164
 9633SOL    HW129798   3.564   3.027   5.178
 9633SOL    HW229799   3.461   2.924   5.252
 9634SOL     OW29800   5.728   4.451   2.613
 9634SOL    HW129801   5.799   4.522   2.621
 9634SOL    HW229802   5.680   4.464   2.526
 9635SOL     OW29803   0.619   4.620   4.198
 9635SOL    HW129804   0.705   4.568   4.192
 9635SOL    HW229805   0.558   4.575   4.263
 9636SOL     OW29806   5.500   3.457   4.031
 9636SOL    HW129807   5.556   3.377   4.009
 9636SOL    HW229808   5.456   3.491   3.948
 9637SOL     OW29809   1.743   3.458   6.806
 9637SOL    HW129810   1.707   3.524   6.871
 9637SOL    HW229811   1.758   3.502   6.718
 9638SOL     OW29812   6.658   4.560   5.466
 9638SOL    HW129813   6.613   4.649   5.473
 9638SOL    HW229814   6.753   4.568   5.495
 9639SOL     OW29815   4.913   2.598   1.315
 9639SOL    HW129816   4.851   2.627   1.242
 9639SOL    HW229817   4.862   2.583   1.399
 9640SOL     OW29818   3.338   7.004   3.380
 9640SOL    HW129819   3.300   0.036   3.459
 9640SOL    HW229820   3.271   7.001   3.307
 9641SOL     OW29821   0.422   3.224   4.485
 9641SOL    HW129822   0.490   3.228   4.557
 9641SOL    HW229823   0.359   3.301   4.494
 9642SOL     OW29824   0.749   2.957   4.738
 9642SOL    HW129825   0.802   2.913   4.665
 9642SOL    HW229826   0.770   3.055   4.740
 9643SOL     OW29827   5.436   4.944   4.270
 9643SOL    HW129828   5.357   4.946   4.332
 9643SOL    HW229829   5.508   4.887   4.309
 9644SOL     OW29830   0.941   4.822   3.956
 9644SOL    HW129831   0.926   4.919   3.972
 9644SOL    HW229832   1.039   4.802   3.964
 9645SOL     OW29833   1.231   5.128   6.658
 9645SOL    HW129834   1.174   5.124   6.740
 9645SOL    HW229835   1.318   5.173   6.681
 9646SOL     OW29836   2.961   5.093   0.916
 9646SOL    HW129837   2.869   5.127   0.901
 9646SOL    HW229838   2.997   5.130   1.002
 9647SOL     OW29839   6.059   6.879   3.012
 9647SOL    HW129840   6.144   6.899   3.061
 9647SOL    HW229841   5.989   6.946   3.037
 9648SOL     OW29842   3.147   2.043   1.329
 9648SOL    HW129843   3.131   2.103   1.251
 9648SOL    HW229844   3.146   2.098   1.413
 9649SOL     OW29845   6.732   5.904   1.246
 9649SOL    HW129846   6.691   5.815   1.266
 9649SOL    HW229847   6.794   5.895   1.168
 9650SOL     OW29848   0.818   4.996   5.036
 9650SOL    HW129849   0.785   4.911   4.996
 9650SOL    HW229850   0.915   4.987   5.058
 9651SOL     OW29851   4.119   1.956   0.099
 9651SOL    HW129852   4.133   1.990   0.192
 9651SOL    HW229853   4.034   1.993   0.062
 9652SOL     OW29854   0.024   3.578   0.363
 9652SOL    HW129855   0.009   3.676   0.346
 9652SOL    HW229856   6.955   3.538   0.399
 9653SOL     OW29857   5.254   4.645   5.269
 9653SOL    HW129858   5.207   4.589   5.337
 9653SOL    HW229859   5.213   4.736   5.266
 9654SOL     OW29860   3.853   4.033   3.813
 9654SOL    HW129861   3.796   4.009   3.735
 9654SOL    HW229862   3.799   4.083   3.880
 9655SOL     OW29863   4.962   0.951   1.317
 9655SOL    HW129864   4.915   0.982   1.400
 9655SOL    HW229865   4.916   0.989   1.237
 9656SOL     OW29866   4.745   4.291   6.569
 9656SOL    HW129867   4.706   4.378   6.539
 9656SOL    HW229868   4.796   4.305   6.654
 9657SOL     OW29869   5.186   4.724   2.667
 9657SOL    HW129870   5.232   4.643   2.703
 9657SOL    HW229871   5.089   4.705   2.656
 9658SOL     OW29872   5.519   1.070   2.552
 9658SOL    HW129873   5.529   1.012   2.471
 9658SOL    HW229874   5.603   1.121   2.567
 9659SOL     OW29875   3.266   3.185   6.985
 9659SOL    HW129876   3.259   3.095   0.013
 9659SOL    HW229877   3.305   3.249   0.035
 9660SOL     OW29878   1.768   6.746   1.306
 9660SOL    HW129879   1.867   6.732   1.300
 9660SOL    HW229880   1.734   6.703   1.389
 9661SOL     OW29881   3.975   3.706   2.094
 9661SOL    HW129882   4.032   3.731   2.016
 9661SOL    HW229883   3.955   3.788   2.147
 9662SOL     OW29884   4.861   0.075   5.681
 9662SOL    HW129885   4.819   0.158   5.717
 9662SOL    HW229886   4.943   0.053   5.735
 9663SOL     OW29887   1.006   5.757   2.736
 9663SOL    HW129888   0.924   5.724   2.691
 9663SOL    HW229889   0.981   5.810   2.817
 9664SOL     OW29890   2.584   4.644   2.714
 9664SOL    HW129891   2.566   4.705   2.791
 9664SOL    HW229892   2.651   4.687   2.653
 9665SOL     OW29893   6.288   4.702   6.251
 9665SOL    HW129894   6.212   4.696   6.316
 9665SOL    HW229895   6.354   4.770   6.283
 9666SOL     OW29896   5.037   4.096   0.924
 9666SOL    HW129897   5.091   4.180   0.917
 9666SOL    HW229898   5.097   4.017   0.910
 9667SOL     OW29899   5.585   6.484   6.955
 9667SOL    HW129900   5.580   6.387   6.979
 9667SOL    HW229901   5.606   6.493   6.857
 9668SOL     OW29902   1.744   1.101   6.500
 9668SOL    HW129903   1.775   1.119   6.594
 9668SOL    HW229904   1.720   1.187   6.456
 9669SOL     OW29905   3.296   0.512   7.002
 9669SOL    HW129906   3.376   0.452   7.009
 9669SOL    HW229907   3.215   0.457   6.981
 9670SOL     OW29908   0.404   1.143   1.170
 9670SOL    HW129909   0.464   1.150   1.249
 9670SOL    HW229910   0.456   1.113   1.090
 9671SOL     OW29911   0.801   5.555   6.430
 9671SOL    HW129912   0.888   5.573   6.475
 9671SOL    HW229913   0.770   5.463   6.451
 9672SOL     OW29914   0.721   3.033   4.033
 9672SOL    HW129915   0.773   3.118   4.039
 9672SOL    HW229916   0.648   3.035   4.101
 9673SOL     OW29917   2.485   2.778   6.548
 9673SOL    HW129918   2.541   2.745   6.472
 9673SOL    HW229919   2.420   2.846   6.514
 9674SOL     OW29920   1.954   0.043   4.187
 9674SOL    HW129921   1.885   0.106   4.150
 9674SOL    HW229922   1.992   7.003   4.114
 9675SOL     OW29923   6.297   4.493   5.802
 9675SOL    HW129924   6.279   4.589   5.822
 9675SOL    HW229925   6.394   4.474   5.814
 9676SOL     OW29926   0.984   3.393   5.327
 9676SOL    HW129927   1.002   3.413   5.230
 9676SOL    HW229928   0.929   3.466   5.366
 9677SOL     OW29929   6.991   4.988   2.519
 9677SOL    HW129930   6.978   5.062   2.452
 9677SOL    HW229931   6.991   4.900   2.471
 9678SOL     OW29932   3.805   3.133   5.495
 9678SOL    HW129933   3.729   3.103   5.438
 9678SOL    HW229934   3.838   3.056   5.550
 9679SOL     OW29935   1.428   0.685   3.785
 9679SOL    HW129936   1.373   0.760   3.822
 9679SOL    HW229937   1.448   0.702   3.689
 9680SOL     OW29938   4.488   0.465   2.584
 9680SOL    HW129939   4.572   0.473   2.637
 9680SOL    HW229940   4.470   0.550   2.536
 9681SOL     OW29941   1.052   3.314   1.274
 9681SOL    HW129942   0.967   3.366   1.281
 9681SOL    HW229943   1.086   3.293   1.365
 9682SOL     OW29944   4.650   6.974   5.577
 9682SOL    HW129945   4.730   6.993   5.635
 9682SOL    HW229946   4.680   6.963   5.482
 9683SOL     OW29947   3.606   5.834   4.543
 9683SOL    HW129948   3.671   5.872   4.477
 9683SOL    HW229949   3.598   5.736   4.529
 9684SOL     OW29950   6.757   3.012   5.886
 9684SOL    HW129951   6.692   2.988   5.958
 9684SOL    HW229952   6.714   3.077   5.823
 9685SOL     OW29953   3.441   4.428   1.677
 9685SOL    HW129954   3.494   4.489   1.736
 9685SOL    HW229955   3.431   4.340   1.721
 9686SOL     OW29956   0.247   1.486   5.253
 9686SOL    HW129957   0.331   1.483   5.200
 9686SOL    HW229958   0.199   1.571   5.234
 9687SOL     OW29959   5.708   1.614   3.730
 9687SOL    HW129960   5.770   1.676   3.682
 9687SOL    HW229961   5.640   1.579   3.665
 9688SOL     OW29962   0.159   5.327   1.767
 9688SOL    HW129963   0.211   5.401   1.810
 9688SOL    HW229964   0.205   5.300   1.682
 9689SOL     OW29965   1.569   5.491   1.608
 9689SOL    HW129966   1.539   5.453   1.521
 9689SOL    HW229967   1.586   5.416   1.673
 9690SOL     OW29968   0.065   4.747   4.771
 9690SOL    HW129969   0.081   4.830   4.718
 9690SOL    HW229970   6.988   4.749   4.810
 9691SOL     OW29971   4.145   3.244   2.331
 9691SOL    HW129972   4.116   3.214   2.239
 9691SOL    HW229973   4.237   3.283   2.326
 9692SOL     OW29974   4.862   4.618   0.483
 9692SOL    HW129975   4.949   4.660   0.509
 9692SOL    HW229976   4.853   4.621   0.383
 9693SOL     OW29977   4.737   3.571   6.542
 9693SOL    HW129978   4.744   3.610   6.450
 9693SOL    HW229979   4.736   3.644   6.610
 9694SOL     OW29980   2.277   6.461   1.057
 9694SOL    HW129981   2.243   6.504   0.973
 9694SOL    HW229982   2.353   6.515   1.094
 9695SOL     OW29983   1.460   2.769   4.003
 9695SOL    HW129984   1.469   2.822   4.087
 9695SOL    HW229985   1.542   2.780   3.947
 9696SOL     OW29986   4.867   2.823   3.288
 9696SOL    HW129987   4.863   2.723   3.283
 9696SOL    HW229988   4.819   2.855   3.370
 9697SOL     OW29989   0.162   0.353   1.618
 9697SOL    HW129990   0.154   0.311   1.708
 9697SOL    HW229991   0.183   0.284   1.550
 9698SOL     OW29992   6.835   3.018   1.888
 9698SOL    HW129993   6.753   3.046   1.938
 9698SOL    HW229994   6.863   3.090   1.826
 9699SOL     OW29995   0.791   6.477   1.749
 9699SOL    HW129996   0.812   6.556   1.807
 9699SOL    HW229997   0.839   6.396   1.784
 9700SOL     OW29998   5.702   0.762   6.612
 9700SOL    HW129999   5.768   0.837   6.621
 9700SOL    HW230000   5.735   0.697   6.544
 9701SOL     OW30001   5.434   4.164   0.252
 9701SOL    HW130002   5.478   4.246   0.216
 9701SOL    HW230003   5.392   4.184   0.341
 9702SOL     OW30004   3.401   3.804   1.908
 9702SOL    HW130005   3.384   3.705   1.918
 9702SOL    HW230006   3.368   3.851   1.990
 9703SOL     OW30007   6.333   5.044   3.083
 9703SOL    HW130008   6.364   5.015   3.173
 9703SOL    HW230009   6.244   5.001   3.064
 9704SOL     OW30010   0.775   4.770   2.097
 9704SOL    HW130011   0.683   4.788   2.062
 9704SOL    HW230012   0.781   4.674   2.125
 9705SOL     OW30013   0.298   3.960   5.882
 9705SOL    HW130014   0.382   3.907   5.879
 9705SOL    HW230015   0.314   4.051   5.843
 9706SOL     OW30016   0.857   0.428   2.022
 9706SOL    HW130017   0.865   0.334   1.989
 9706SOL    HW230018   0.921   0.486   1.973
 9707SOL     OW30019   1.241   5.179   2.239
 9707SOL    HW130020   1.174   5.252   2.253
 9707SOL    HW230021   1.194   5.097   2.206
 9708SOL     OW30022   3.038   1.208   1.673
 9708SOL    HW130023   3.136   1.229   1.669
 9708SOL    HW230024   3.020   1.144   1.747
 9709SOL     OW30025   5.167   1.780   2.033
 9709SOL    HW130026   5.154   1.681   2.028
 9709SOL    HW230027   5.082   1.827   2.007
 9710SOL     OW30028   4.980   4.950   4.416
 9710SOL    HW130029   4.934   4.998   4.490
 9710SOL    HW230030   5.071   4.921   4.446
 9711SOL     OW30031   2.605   0.711   6.747
 9711SOL    HW130032   2.660   0.665   6.677
 9711SOL    HW230033   2.548   0.781   6.703
 9712SOL     OW30034   5.568   0.130   5.459
 9712SOL    HW130035   5.513   0.065   5.405
 9712SOL    HW230036   5.517   0.215   5.471
 9713SOL     OW30037   1.986   0.440   2.644
 9713SOL    HW130038   1.969   0.344   2.622
 9713SOL    HW230039   1.902   0.493   2.631
 9714SOL     OW30040   2.258   2.922   4.074
 9714SOL    HW130041   2.220   2.916   3.982
 9714SOL    HW230042   2.278   3.017   4.096
 9715SOL     OW30043   6.884   2.468   6.530
 9715SOL    HW130044   6.883   2.433   6.624
 9715SOL    HW230045   6.929   2.401   6.471
 9716SOL     OW30046   2.228   6.728   0.841
 9716SOL    HW130047   2.167   6.688   0.909
 9716SOL    HW230048   2.282   6.655   0.798
 9717SOL     OW30049   3.584   2.803   5.953
 9717SOL    HW130050   3.657   2.740   5.928
 9717SOL    HW230051   3.596   2.889   5.904
 9718SOL     OW30052   3.529   2.645   0.205
 9718SOL    HW130053   3.462   2.611   0.271
 9718SOL    HW230054   3.554   2.740   0.227
 9719SOL     OW30055   4.512   0.565   6.017
 9719SOL    HW130056   4.421   0.529   6.034
 9719SOL    HW230057   4.505   0.661   5.990
 9720SOL     OW30058   2.178   2.348   2.639
 9720SOL    HW130059   2.161   2.428   2.582
 9720SOL    HW230060   2.266   2.358   2.686
 9721SOL     OW30061   0.841   1.818   1.182
 9721SOL    HW130062   0.831   1.876   1.101
 9721SOL    HW230063   0.907   1.860   1.244
 9722SOL     OW30064   4.004   2.736   5.353
 9722SOL    HW130065   4.040   2.686   5.274
 9722SOL    HW230066   3.912   2.770   5.331
 9723SOL     OW30067   5.855   0.527   4.920
 9723SOL    HW130068   5.843   0.530   5.019
 9723SOL    HW230069   5.931   0.586   4.894
 9724SOL     OW30070   1.343   4.567   1.368
 9724SOL    HW130071   1.318   4.533   1.459
 9724SOL    HW230072   1.441   4.554   1.353
 9725SOL     OW30073   5.239   5.462   3.815
 9725SOL    HW130074   5.265   5.490   3.722
 9725SOL    HW230075   5.321   5.434   3.865
 9726SOL     OW30076   6.886   0.292   3.369
 9726SOL    HW130077   6.816   0.352   3.330
 9726SOL    HW230078   6.843   0.211   3.408
 9727SOL     OW30079   5.974   2.530   1.406
 9727SOL    HW130080   6.012   2.452   1.356
 9727SOL    HW230081   5.893   2.500   1.457
 9728SOL     OW30082   5.014   2.336   4.630
 9728SOL    HW130083   4.930   2.310   4.677
 9728SOL    HW230084   5.056   2.254   4.589
 9729SOL     OW30085   0.519   3.779   2.930
 9729SOL    HW130086   0.601   3.728   2.903
 9729SOL    HW230087   0.529   3.808   3.025
 9730SOL     OW30088   1.287   5.423   3.609
 9730SOL    HW130089   1.326   5.336   3.580
 9730SOL    HW230090   1.360   5.490   3.622
 9731SOL     OW30091   6.571   2.175   1.612
 9731SOL    HW130092   6.539   2.112   1.683
 9731SOL    HW230093   6.513   2.257   1.612
 9732SOL     OW30094   1.285   3.254   2.540
 9732SOL    HW130095   1.293   3.155   2.528
 9732SOL    HW230096   1.342   3.282   2.618
 9733SOL     OW30097   6.323   5.233   1.960
 9733SOL    HW130098   6.325   5.183   1.873
 9733SOL    HW230099   6.247   5.297   1.960
 9734SOL     OW30100   3.950   4.718   6.884
 9734SOL    HW130101   4.034   4.771   6.898
 9734SOL    HW230102   3.917   4.686   6.973
 9735SOL     OW30103   0.619   1.331   0.268
 9735SOL    HW130104   0.667   1.330   0.181
 9735SOL    HW230105   0.671   1.383   0.335
 9736SOL     OW30106   5.007   2.202   5.179
 9736SOL    HW130107   5.099   2.178   5.210
 9736SOL    HW230108   4.992   2.300   5.194
 9737SOL     OW30109   5.506   3.329   4.949
 9737SOL    HW130110   5.411   3.349   4.926
 9737SOL    HW230111   5.566   3.378   4.886
 9738SOL     OW30112   2.496   6.300   1.684
 9738SOL    HW130113   2.438   6.246   1.622
 9738SOL    HW230114   2.474   6.397   1.673
 9739SOL     OW30115   5.672   6.942   0.557
 9739SOL    HW130116   5.702   6.944   0.653
 9739SOL    HW230117   5.751   6.938   0.497
 9740SOL     OW30118   6.266   0.704   1.497
 9740SOL    HW130119   6.308   0.714   1.587
 9740SOL    HW230120   6.302   0.621   1.453
 9741SOL     OW30121   2.500   2.219   3.135
 9741SOL    HW130122   2.582   2.275   3.128
 9741SOL    HW230123   2.430   2.268   3.187
 9742SOL     OW30124   3.981   1.958   6.462
 9742SOL    HW130125   3.960   2.034   6.400
 9742SOL    HW230126   4.058   1.982   6.520
 9743SOL     OW30127   6.494   3.383   4.179
 9743SOL    HW130128   6.435   3.339   4.247
 9743SOL    HW230129   6.509   3.478   4.204
 9744SOL     OW30130   1.701   1.706   2.590
 9744SOL    HW130131   1.731   1.761   2.667
 9744SOL    HW230132   1.697   1.763   2.508
 9745SOL     OW30133   0.758   6.661   5.920
 9745SOL    HW130134   0.791   6.706   5.838
 9745SOL    HW230135   0.676   6.708   5.953
 9746SOL     OW30136   3.001   6.522   5.925
 9746SOL    HW130137   3.028   6.425   5.924
 9746SOL    HW230138   2.907   6.530   5.956
 9747SOL     OW30139   3.704   1.586   3.508
 9747SOL    HW130140   3.758   1.501   3.510
 9747SOL    HW230141   3.735   1.646   3.582
 9748SOL     OW30142   0.429   1.658   2.339
 9748SOL    HW130143   0.394   1.564   2.335
 9748SOL    HW230144   0.457   1.686   2.247
 9749SOL     OW30145   6.347   0.455   1.426
 9749SOL    HW130146   6.302   0.387   1.483
 9749SOL    HW230147   6.445   0.457   1.448
 9750SOL     OW30148   5.253   2.378   5.451
 9750SOL    HW130149   5.293   2.361   5.541
 9750SOL    HW230150   5.247   2.291   5.401
 9751SOL     OW30151   2.794   6.239   1.060
 9751SOL    HW130152   2.707   6.198   1.085
 9751SOL    HW230153   2.838   6.276   1.143
 9752SOL     OW30154   3.560   3.112   0.462
 9752SOL    HW130155   3.578   3.183   0.394
 9752SOL    HW230156   3.475   3.065   0.440
 9753SOL     OW30157   6.514   5.955   3.723
 9753SOL    HW130158   6.460   5.876   3.696
 9753SOL    HW230159   6.453   6.027   3.758
 9754SOL     OW30160   3.198   0.895   2.046
 9754SOL    HW130161   3.165   0.921   2.137
 9754SOL    HW230162   3.262   0.819   2.054
 9755SOL     OW30163   3.673   3.724   6.994
 9755SOL    HW130164   3.592   3.762   6.951
 9755SOL    HW230165   3.728   3.798   0.018
 9756SOL     OW30166   5.728   0.095   6.711
 9756SOL    HW130167   5.723   0.147   6.797
 9756SOL    HW230168   5.723   7.013   6.731
 9757SOL     OW30169   5.384   3.865   4.209
 9757SOL    HW130170   5.438   3.841   4.128
 9757SOL    HW230171   5.298   3.813   4.207
 9758SOL     OW30172   2.682   0.224   2.271
 9758SOL    HW130173   2.703   0.253   2.177
 9758SOL    HW230174   2.701   0.300   2.334
 9759SOL     OW30175   6.532   2.218   1.260
 9759SOL    HW130176   6.481   2.153   1.317
 9759SOL    HW230177   6.569   2.171   1.180
 9760SOL     OW30178   4.668   0.547   6.256
 9760SOL    HW130179   4.618   0.590   6.332
 9760SOL    HW230180   4.616   0.558   6.171
 9761SOL     OW30181   0.850   2.289   1.235
 9761SOL    HW130182   0.830   2.380   1.270
 9761SOL    HW230183   0.937   2.289   1.186
 9762SOL     OW30184   3.429   1.133   6.301
 9762SOL    HW130185   3.403   1.138   6.398
 9762SOL    HW230186   3.515   1.182   6.287
 9763SOL     OW30187   6.432   2.558   1.096
 9763SOL    HW130188   6.352   2.602   1.056
 9763SOL    HW230189   6.403   2.500   1.173
 9764SOL     OW30190   0.759   2.704   2.877
 9764SOL    HW130191   0.813   2.697   2.793
 9764SOL    HW230192   0.702   2.786   2.873
 9765SOL     OW30193   6.648   1.805   1.561
 9765SOL    HW130194   6.691   1.718   1.536
 9765SOL    HW230195   6.700   1.880   1.519
 9766SOL     OW30196   0.479   2.956   2.818
 9766SOL    HW130197   0.452   2.921   2.728
 9766SOL    HW230198   0.398   2.959   2.877
 9767SOL     OW30199   3.475   1.561   5.141
 9767SOL    HW130200   3.381   1.526   5.141
 9767SOL    HW230201   3.539   1.484   5.137
 9768SOL     OW30202   4.866   2.176   6.943
 9768SOL    HW130203   4.789   2.220   6.989
 9768SOL    HW230204   4.857   2.188   6.844
 9769SOL     OW30205   3.673   1.624   5.538
 9769SOL    HW130206   3.589   1.589   5.579
 9769SOL    HW230207   3.664   1.723   5.522
 9770SOL     OW30208   1.776   3.331   5.262
 9770SOL    HW130209   1.693   3.381   5.286
 9770SOL    HW230210   1.766   3.293   5.170
 9771SOL     OW30211   3.112   0.781   1.793
 9771SOL    HW130212   3.031   0.835   1.771
 9771SOL    HW230213   3.145   0.805   1.884
 9772SOL     OW30214   0.737   0.913   1.402
 9772SOL    HW130215   0.694   0.823   1.393
 9772SOL    HW230216   0.825   0.904   1.448
 9773SOL     OW30217   5.749   6.151   2.373
 9773SOL    HW130218   5.817   6.090   2.332
 9773SOL    HW230219   5.686   6.183   2.303
 9774SOL     OW30220   1.921   5.100   4.524
 9774SOL    HW130221   1.831   5.129   4.556
 9774SOL    HW230222   1.988   5.171   4.545
 9775SOL     OW30223   1.341   1.158   2.542
 9775SOL    HW130224   1.252   1.147   2.586
 9775SOL    HW230225   1.367   1.254   2.542
 9776SOL     OW30226   2.160   5.547   1.476
 9776SOL    HW130227   2.092   5.536   1.403
 9776SOL    HW230228   2.233   5.607   1.444
 9777SOL     OW30229   4.138   2.232   5.285
 9777SOL    HW130230   4.121   2.181   5.201
 9777SOL    HW230231   4.161   2.168   5.358
 9778SOL     OW30232   1.624   4.026   2.927
 9778SOL    HW130233   1.663   4.033   2.836
 9778SOL    HW230234   1.616   4.117   2.968
 9779SOL     OW30235   3.289   0.208   3.607
 9779SOL    HW130236   3.292   0.284   3.673
 9779SOL    HW230237   3.205   0.156   3.619
 9780SOL     OW30238   0.719   1.428   0.574
 9780SOL    HW130239   0.620   1.437   0.558
 9780SOL    HW230240   0.741   1.461   0.666
 9781SOL     OW30241   1.190   1.444   2.107
 9781SOL    HW130242   1.132   1.496   2.044
 9781SOL    HW230243   1.242   1.375   2.056
 9782SOL     OW30244   0.339   2.465   0.332
 9782SOL    HW130245   0.429   2.454   0.290
 9782SOL    HW230246   0.285   2.530   0.279
 9783SOL     OW30247   4.385   1.028   2.764
 9783SOL    HW130248   4.372   1.117   2.720
 9783SOL    HW230249   4.398   0.958   2.694
 9784SOL     OW30250   1.595   1.499   6.776
 9784SOL    HW130251   1.681   1.470   6.818
 9784SOL    HW230252   1.519   1.475   6.836
 9785SOL     OW30253   0.682   3.542   4.926
 9785SOL    HW130254   0.676   3.640   4.908
 9785SOL    HW230255   0.761   3.504   4.877
 9786SOL     OW30256   2.207   4.514   6.624
 9786SOL    HW130257   2.263   4.443   6.580
 9786SOL    HW230258   2.116   4.477   6.643
 9787SOL     OW30259   2.874   3.585   1.900
 9787SOL    HW130260   2.906   3.674   1.932
 9787SOL    HW230261   2.854   3.526   1.978
 9788SOL     OW30262   3.104   0.004   2.867
 9788SOL    HW130263   3.106   0.039   2.773
 9788SOL    HW230264   3.157   6.935   2.873
 9789SOL     OW30265   4.029   1.239   0.279
 9789SOL    HW130266   3.974   1.162   0.246
 9789SOL    HW230267   4.008   1.320   0.224
 9790SOL     OW30268   4.327   5.310   5.033
 9790SOL    HW130269   4.376   5.226   5.012
 9790SOL    HW230270   4.245   5.288   5.086
 9791SOL     OW30271   0.113   0.385   1.163
 9791SOL    HW130272   0.181   0.458   1.167
 9791SOL    HW230273   0.042   0.401   1.232
 9792SOL     OW30274   3.680   4.588   0.735
 9792SOL    HW130275   3.662   4.624   0.643
 9792SOL    HW230276   3.642   4.650   0.803
 9793SOL     OW30277   5.900   0.685   2.863
 9793SOL    HW130278   5.855   0.642   2.941
 9793SOL    HW230279   5.997   0.659   2.861
 9794SOL     OW30280   3.848   5.482   4.299
 9794SOL    HW130281   3.811   5.389   4.304
 9794SOL    HW230282   3.774   5.546   4.278
 9795SOL     OW30283   1.232   3.541   3.631
 9795SOL    HW130284   1.298   3.564   3.560
 9795SOL    HW230285   1.278   3.535   3.719
 9796SOL     OW30286   3.046   3.709   4.248
 9796SOL    HW130287   3.033   3.808   4.243
 9796SOL    HW230288   3.140   3.686   4.221
 9797SOL     OW30289   3.378   5.333   6.862
 9797SOL    HW130290   3.477   5.344   6.868
 9797SOL    HW230291   3.343   5.389   6.787
 9798SOL     OW30292   6.957   4.113   6.826
 9798SOL    HW130293   6.987   4.157   6.911
 9798SOL    HW230294   0.019   4.067   6.784
 9799SOL     OW30295   3.665   6.632   6.774
 9799SOL    HW130296   3.649   6.694   6.850
 9799SOL    HW230297   3.586   6.633   6.713
 9800SOL     OW30298   6.584   4.388   4.372
 9800SOL    HW130299   6.577   4.311   4.308
 9800SOL    HW230300   6.508   4.451   4.355
 9801SOL     OW30301   4.341   6.597   1.236
 9801SOL    HW130302   4.375   6.513   1.195
 9801SOL    HW230303   4.345   6.671   1.169
 9802SOL     OW30304   3.604   3.951   0.296
 9802SOL    HW130305   3.629   3.856   0.315
 9802SOL    HW230306   3.621   4.007   0.377
 9803SOL     OW30307   1.328   3.674   6.061
 9803SOL    HW130308   1.279   3.618   5.994
 9803SOL    HW230309   1.376   3.614   6.126
 9804SOL     OW30310   0.886   4.355   3.441
 9804SOL    HW130311   0.863   4.299   3.361
 9804SOL    HW230312   0.954   4.423   3.415
 9805SOL     OW30313   0.039   5.470   4.169
 9805SOL    HW130314   0.095   5.508   4.243
 9805SOL    HW230315   6.974   5.528   4.155
 9806SOL     OW30316   3.855   1.696   0.110
 9806SOL    HW130317   3.948   1.661   0.122
 9806SOL    HW230318   3.849   1.745   0.023
 9807SOL     OW30319   3.914   3.432   3.416
 9807SOL    HW130320   3.988   3.498   3.426
 9807SOL    HW230321   3.942   3.345   3.456
 9808SOL     OW30322   3.021   5.584   1.889
 9808SOL    HW130323   2.965   5.508   1.854
 9808SOL    HW230324   2.993   5.605   1.983
 9809SOL     OW30325   6.179   2.298   0.700
 9809SOL    HW130326   6.121   2.349   0.764
 9809SOL    HW230327   6.195   2.206   0.734
 9810SOL     OW30328   2.528   3.073   1.202
 9810SOL    HW130329   2.555   3.169   1.206
 9810SOL    HW230330   2.475   3.057   1.119
 9811SOL     OW30331   5.811   3.379   3.918
 9811SOL    HW130332   5.793   3.462   3.866
 9811SOL    HW230333   5.872   3.400   3.994
 9812SOL     OW30334   3.331   5.548   5.955
 9812SOL    HW130335   3.326   5.613   6.031
 9812SOL    HW230336   3.407   5.571   5.895
 9813SOL     OW30337   4.048   0.589   1.912
 9813SOL    HW130338   4.117   0.609   1.842
 9813SOL    HW230339   4.089   0.531   1.983
 9814SOL     OW30340   0.480   1.914   5.984
 9814SOL    HW130341   0.392   1.867   5.986
 9814SOL    HW230342   0.474   1.995   5.926
 9815SOL     OW30343   4.049   2.213   4.459
 9815SOL    HW130344   4.091   2.278   4.397
 9815SOL    HW230345   4.113   2.139   4.480
 9816SOL     OW30346   2.832   1.438   0.628
 9816SOL    HW130347   2.747   1.399   0.591
 9816SOL    HW230348   2.859   1.387   0.710
 9817SOL     OW30349   6.271   0.478   1.743
 9817SOL    HW130350   6.331   0.557   1.740
 9817SOL    HW230351   6.250   0.456   1.838
 9818SOL     OW30352   4.041   3.199   5.140
 9818SOL    HW130353   3.971   3.128   5.136
 9818SOL    HW230354   4.080   3.203   5.233
 9819SOL     OW30355   3.343   0.451   1.651
 9819SOL    HW130356   3.261   0.495   1.688
 9819SOL    HW230357   3.322   0.405   1.565
 9820SOL     OW30358   3.957   2.546   0.451
 9820SOL    HW130359   4.022   2.514   0.520
 9820SOL    HW230360   3.906   2.624   0.487
 9821SOL     OW30361   0.091   5.324   6.894
 9821SOL    HW130362   0.117   5.393   6.961
 9821SOL    HW230363   0.050   5.246   6.942
 9822SOL     OW30364   0.314   0.174   2.799
 9822SOL    HW130365   0.302   0.273   2.791
 9822SOL    HW230366   0.345   0.152   2.892
 9823SOL     OW30367   3.368   6.496   1.389
 9823SOL    HW130368   3.322   6.459   1.470
 9823SOL    HW230369   3.454   6.540   1.417
 9824SOL     OW30370   1.767   4.062   6.197
 9824SOL    HW130371   1.842   4.074   6.131
 9824SOL    HW230372   1.688   4.114   6.167
 9825SOL     OW30373   4.194   5.041   5.330
 9825SOL    HW130374   4.178   5.138   5.351
 9825SOL    HW230375   4.208   4.991   5.416
 9826SOL     OW30376   5.550   6.713   5.708
 9826SOL    HW130377   5.509   6.633   5.751
 9826SOL    HW230378   5.627   6.745   5.764
 9827SOL     OW30379   0.688   4.333   4.393
 9827SOL    HW130380   0.595   4.364   4.372
 9827SOL    HW230381   0.752   4.376   4.330
 9828SOL     OW30382   2.895   2.777   6.639
 9828SOL    HW130383   2.881   2.846   6.710
 9828SOL    HW230384   2.993   2.771   6.618
 9829SOL     OW30385   2.673   4.364   1.287
 9829SOL    HW130386   2.733   4.411   1.223
 9829SOL    HW230387   2.636   4.430   1.353
 9830SOL     OW30388   6.820   1.356   0.377
 9830SOL    HW130389   6.858   1.414   0.305
 9830SOL    HW230390   6.884   1.353   0.454
 9831SOL     OW30391   5.626   6.672   1.316
 9831SOL    HW130392   5.597   6.761   1.280
 9831SOL    HW230393   5.721   6.676   1.346
 9832SOL     OW30394   3.763   5.004   1.428
 9832SOL    HW130395   3.749   4.905   1.431
 9832SOL    HW230396   3.683   5.050   1.466
 9833SOL     OW30397   4.611   4.060   5.807
 9833SOL    HW130398   4.711   4.061   5.799
 9833SOL    HW230399   4.578   3.966   5.805
 9834SOL     OW30400   2.187   2.342   3.988
 9834SOL    HW130401   2.188   2.391   4.076
 9834SOL    HW230402   2.258   2.272   3.988
 9835SOL     OW30403   4.925   1.927   4.462
 9835SOL    HW130404   4.916   1.831   4.433
 9835SOL    HW230405   4.844   1.953   4.515
 9836SOL     OW30406   5.330   5.426   2.194
 9836SOL    HW130407   5.278   5.375   2.262
 9836SOL    HW230408   5.401   5.480   2.240
 9837SOL     OW30409   1.408   6.261   5.067
 9837SOL    HW130410   1.486   6.259   5.131
 9837SOL    HW230411   1.335   6.317   5.106
 9838SOL     OW30412   6.674   5.435   5.083
 9838SOL    HW130413   6.607   5.508   5.076
 9838SOL    HW230414   6.671   5.379   5.000
 9839SOL     OW30415   6.554   2.394   2.641
 9839SOL    HW130416   6.593   2.361   2.555
 9839SOL    HW230417   6.475   2.339   2.666
 9840SOL     OW30418   6.079   0.809   1.192
 9840SOL    HW130419   6.099   0.714   1.168
 9840SOL    HW230420   5.985   0.817   1.224
 9841SOL     OW30421   2.100   3.383   3.946
 9841SOL    HW130422   2.085   3.461   4.007
 9841SOL    HW230423   2.071   3.299   3.992
 9842SOL     OW30424   2.923   3.289   3.504
 9842SOL    HW130425   2.944   3.362   3.439
 9842SOL    HW230426   2.857   3.226   3.464
 9843SOL     OW30427   5.961   3.849   2.968
 9843SOL    HW130428   5.927   3.941   2.946
 9843SOL    HW230429   5.942   3.788   2.891
 9844SOL     OW30430   5.223   0.305   2.675
 9844SOL    HW130431   5.274   0.388   2.699
 9844SOL    HW230432   5.237   0.236   2.747
 9845SOL     OW30433   1.392   1.805   3.455
 9845SOL    HW130434   1.423   1.884   3.506
 9845SOL    HW230435   1.292   1.807   3.447
 9846SOL     OW30436   3.077   3.303   3.252
 9846SOL    HW130437   3.138   3.353   3.313
 9846SOL    HW230438   3.092   3.204   3.263
 9847SOL     OW30439   2.182   4.578   4.653
 9847SOL    HW130440   2.243   4.500   4.646
 9847SOL    HW230441   2.147   4.586   4.746
 9848SOL     OW30442   5.262   3.516   0.614
 9848SOL    HW130443   5.222   3.480   0.529
 9848SOL    HW230444   5.308   3.442   0.663
 9849SOL     OW30445   0.043   6.999   5.436
 9849SOL    HW130446   0.061   6.991   5.534
 9849SOL    HW230447   0.128   0.007   5.388
 9850SOL     OW30448   4.380   0.150   2.882
 9850SOL    HW130449   4.460   0.199   2.848
 9850SOL    HW230450   4.334   0.105   2.806
 9851SOL     OW30451   5.602   3.084   5.021
 9851SOL    HW130452   5.582   3.178   4.991
 9851SOL    HW230453   5.649   3.036   4.947
 9852SOL     OW30454   4.677   1.837   4.119
 9852SOL    HW130455   4.718   1.905   4.057
 9852SOL    HW230456   4.749   1.795   4.174
 9853SOL     OW30457   0.349   3.945   1.119
 9853SOL    HW130458   0.320   3.933   1.024
 9853SOL    HW230459   0.445   3.919   1.128
 9854SOL     OW30460   4.407   6.018   3.489
 9854SOL    HW130461   4.354   5.984   3.411
 9854SOL    HW230462   4.498   5.977   3.487
 9855SOL     OW30463   1.671   3.534   0.819
 9855SOL    HW130464   1.723   3.491   0.745
 9855SOL    HW230465   1.667   3.632   0.804
 9856SOL     OW30466   4.125   2.674   0.907
 9856SOL    HW130467   4.102   2.581   0.935
 9856SOL    HW230468   4.203   2.707   0.961
 9857SOL     OW30469   6.150   4.147   2.873
 9857SOL    HW130470   6.170   4.233   2.921
 9857SOL    HW230471   6.165   4.159   2.775
 9858SOL     OW30472   4.157   1.427   1.194
 9858SOL    HW130473   4.139   1.524   1.174
 9858SOL    HW230474   4.194   1.384   1.112
 9859SOL     OW30475   6.180   0.270   1.574
 9859SOL    HW130476   6.119   0.203   1.617
 9859SOL    HW230477   6.201   0.342   1.639
 9860SOL     OW30478   0.475   0.831   2.397
 9860SOL    HW130479   0.382   0.806   2.422
 9860SOL    HW230480   0.526   0.856   2.479
 9861SOL     OW30481   3.308   6.676   4.973
 9861SOL    HW130482   3.311   6.720   5.063
 9861SOL    HW230483   3.385   6.709   4.918
 9862SOL     OW30484   1.042   2.284   1.033
 9862SOL    HW130485   0.976   2.295   0.959
 9862SOL    HW230486   1.106   2.361   1.031
 9863SOL     OW30487   2.900   6.952   0.730
 9863SOL    HW130488   2.963   0.011   0.710
 9863SOL    HW230489   2.942   6.891   0.798
 9864SOL     OW30490   4.075   6.302   2.865
 9864SOL    HW130491   4.027   6.323   2.780
 9864SOL    HW230492   4.134   6.222   2.851
 9865SOL     OW30493   1.314   2.651   4.670
 9865SOL    HW130494   1.299   2.749   4.657
 9865SOL    HW230495   1.396   2.636   4.725
 9866SOL     OW30496   3.928   4.851   2.925
 9866SOL    HW130497   4.015   4.824   2.967
 9866SOL    HW230498   3.942   4.864   2.827
 9867SOL     OW30499   4.086   0.569   6.487
 9867SOL    HW130500   3.988   0.565   6.471
 9867SOL    HW230501   4.131   0.494   6.437
 9868SOL     OW30502   0.300   5.137   6.444
 9868SOL    HW130503   0.272   5.216   6.499
 9868SOL    HW230504   0.294   5.160   6.347
 9869SOL     OW30505   1.844   3.957   3.358
 9869SOL    HW130506   1.912   3.883   3.359
 9869SOL    HW230507   1.762   3.926   3.311
 9870SOL     OW30508   4.979   4.159   2.590
 9870SOL    HW130509   5.076   4.138   2.586
 9870SOL    HW230510   4.935   4.101   2.659
 9871SOL     OW30511   1.396   1.511   5.404
 9871SOL    HW130512   1.307   1.555   5.417
 9871SOL    HW230513   1.399   1.426   5.457
 9872SOL     OW30514   1.539   4.728   3.541
 9872SOL    HW130515   1.622   4.729   3.598
 9872SOL    HW230516   1.459   4.740   3.600
 9873SOL     OW30517   1.247   2.283   0.637
 9873SOL    HW130518   1.199   2.195   0.641
 9873SOL    HW230519   1.313   2.289   0.711
 9874SOL     OW30520   0.757   2.903   3.505
 9874SOL    HW130521   0.791   2.974   3.567
 9874SOL    HW230522   0.701   2.838   3.557
 9875SOL     OW30523   1.467   0.761   3.255
 9875SOL    HW130524   1.387   0.805   3.215
 9875SOL    HW230525   1.513   0.707   3.185
 9876SOL     OW30526   0.063   5.824   2.858
 9876SOL    HW130527   0.131   5.827   2.785
 9876SOL    HW230528   6.995   5.872   2.829
 9877SOL     OW30529   3.900   6.762   1.931
 9877SOL    HW130530   3.900   6.675   1.881
 9877SOL    HW230531   3.841   6.827   1.884
 9878SOL     OW30532   0.672   0.390   5.558
 9878SOL    HW130533   0.771   0.404   5.555
 9878SOL    HW230534   0.632   0.413   5.469
 9879SOL     OW30535   5.351   6.170   5.252
 9879SOL    HW130536   5.420   6.146   5.183
 9879SOL    HW230537   5.271   6.111   5.239
 9880SOL     OW30538   2.035   2.108   4.577
 9880SOL    HW130539   2.037   2.207   4.566
 9880SOL    HW230540   1.947   2.080   4.615
 9881SOL     OW30541   6.991   1.866   6.395
 9881SOL    HW130542   6.953   1.955   6.371
 9881SOL    HW230543   0.062   1.878   6.443
 9882SOL     OW30544   1.521   1.592   2.746
 9882SOL    HW130545   1.458   1.662   2.781
 9882SOL    HW230546   1.590   1.636   2.689
 9883SOL     OW30547   2.350   1.350   1.939
 9883SOL    HW130548   2.408   1.382   2.013
 9883SOL    HW230549   2.303   1.267   1.967
 9884SOL     OW30550   3.964   0.821   4.342
 9884SOL    HW130551   3.926   0.913   4.354
 9884SOL    HW230552   3.986   0.807   4.246
 9885SOL     OW30553   6.386   4.558   3.340
 9885SOL    HW130554   6.304   4.570   3.284
 9885SOL    HW230555   6.415   4.463   3.336
 9886SOL     OW30556   1.197   3.648   1.985
 9886SOL    HW130557   1.137   3.620   2.060
 9886SOL    HW230558   1.145   3.704   1.920
 9887SOL     OW30559   4.358   0.214   6.070
 9887SOL    HW130560   4.338   0.312   6.067
 9887SOL    HW230561   4.348   0.181   6.163
 9888SOL     OW30562   6.810   4.827   0.343
 9888SOL    HW130563   6.712   4.809   0.339
 9888SOL    HW230564   6.831   4.910   0.291
 9889SOL     OW30565   0.660   5.003   0.534
 9889SOL    HW130566   0.744   4.961   0.500
 9889SOL    HW230567   0.673   5.030   0.629
 9890SOL     OW30568   1.281   3.452   0.487
 9890SOL    HW130569   1.371   3.481   0.520
 9890SOL    HW230570   1.210   3.512   0.525
 9891SOL     OW30571   4.849   1.663   1.832
 9891SOL    HW130572   4.897   1.750   1.827
 9891SOL    HW230573   4.891   1.598   1.769
 9892SOL     OW30574   0.342   5.961   6.788
 9892SOL    HW130575   0.257   5.908   6.781
 9892SOL    HW230576   0.373   5.986   6.696
 9893SOL     OW30577   2.398   1.752   1.315
 9893SOL    HW130578   2.434   1.793   1.399
 9893SOL    HW230579   2.301   1.772   1.306
 9894SOL     OW30580   1.724   1.547   1.033
 9894SOL    HW130581   1.768   1.570   0.946
 9894SOL    HW230582   1.670   1.464   1.022
 9895SOL     OW30583   5.007   3.709   6.126
 9895SOL    HW130584   4.969   3.790   6.170
 9895SOL    HW230585   4.947   3.682   6.050
 9896SOL     OW30586   6.781   6.786   6.481
 9896SOL    HW130587   6.702   6.726   6.472
 9896SOL    HW230588   6.830   6.789   6.394
 9897SOL     OW30589   5.929   4.784   4.115
 9897SOL    HW130590   5.881   4.845   4.179
 9897SOL    HW230591   5.890   4.793   4.024
 9898SOL     OW30592   2.689   6.519   5.576
 9898SOL    HW130593   2.630   6.446   5.613
 9898SOL    HW230594   2.660   6.542   5.484
 9899SOL     OW30595   6.944   5.503   6.693
 9899SOL    HW130596   6.860   5.558   6.699
 9899SOL    HW230597   6.975   5.478   6.784
 9900SOL     OW30598   2.110   3.414   3.411
 9900SOL    HW130599   2.110   3.401   3.510
 9900SOL    HW230600   2.037   3.477   3.385
 9901SOL     OW30601   2.014   2.462   5.500
 9901SOL    HW130602   2.042   2.375   5.540
 9901SOL    HW230603   1.978   2.521   5.572
 9902SOL     OW30604   2.732   4.275   6.631
 9902SOL    HW130605   2.655   4.218   6.602
 9902SOL    HW230606   2.810   4.216   6.655
 9903SOL     OW30607   5.832   0.647   4.376
 9903SOL    HW130608   5.870   0.731   4.336
 9903SOL    HW230609   5.742   0.630   4.337
 9904SOL     OW30610   6.646   2.453   0.016
 9904SOL    HW130611   6.717   2.394   6.995
 9904SOL    HW230612   6.559   2.432   6.988
 9905SOL     OW30613   4.803   0.917   0.256
 9905SOL    HW130614   4.880   0.907   0.193
 9905SOL    HW230615   4.837   0.920   0.350
 9906SOL     OW30616   3.842   3.244   4.770
 9906SOL    HW130617   3.872   3.245   4.675
 9906SOL    HW230618   3.777   3.169   4.784
 9907SOL     OW30619   1.082   0.422   1.663
 9907SOL    HW130620   1.145   0.345   1.673
 9907SOL    HW230621   1.113   0.498   1.721
 9908SOL     OW30622   4.915   3.270   3.144
 9908SOL    HW130623   4.889   3.179   3.110
 9908SOL    HW230624   5.000   3.262   3.197
 9909SOL     OW30625   2.195   0.216   5.130
 9909SOL    HW130626   2.177   0.251   5.221
 9909SOL    HW230627   2.293   0.218   5.112
 9910SOL     OW30628   0.415   4.123   3.254
 9910SOL    HW130629   0.475   4.162   3.185
 9910SOL    HW230630   0.470   4.083   3.328
 9911SOL     OW30631   2.509   5.869   2.737
 9911SOL    HW130632   2.433   5.815   2.774
 9911SOL    HW230633   2.593   5.815   2.744
 9912SOL     OW30634   5.435   0.824   6.681
 9912SOL    HW130635   5.532   0.805   6.667
 9912SOL    HW230636   5.381   0.767   6.618
 9913SOL     OW30637   4.752   3.409   6.235
 9913SOL    HW130638   4.743   3.317   6.274
 9913SOL    HW230639   4.691   3.471   6.284
 9914SOL     OW30640   6.858   4.055   4.534
 9914SOL    HW130641   6.848   3.973   4.478
 9914SOL    HW230642   6.884   4.029   4.628
 9915SOL     OW30643   5.597   1.080   4.138
 9915SOL    HW130644   5.658   1.112   4.210
 9915SOL    HW230645   5.609   1.136   4.056
 9916SOL     OW30646   2.313   2.384   1.529
 9916SOL    HW130647   2.254   2.459   1.499
 9916SOL    HW230648   2.405   2.397   1.492
 9917SOL     OW30649   6.289   4.665   4.626
 9917SOL    HW130650   6.203   4.713   4.608
 9917SOL    HW230651   6.272   4.590   4.690
 9918SOL     OW30652   4.417   2.213   2.677
 9918SOL    HW130653   4.472   2.261   2.746
 9918SOL    HW230654   4.406   2.117   2.704
 9919SOL     OW30655   6.536   6.290   0.545
 9919SOL    HW130656   6.500   6.370   0.497
 9919SOL    HW230657   6.627   6.312   0.582
 9920SOL     OW30658   4.629   1.699   1.981
 9920SOL    HW130659   4.562   1.720   1.909
 9920SOL    HW230660   4.719   1.688   1.940
 9921SOL     OW30661   3.402   5.144   6.320
 9921SOL    HW130662   3.490   5.097   6.307
 9921SOL    HW230663   3.345   5.090   6.382
 9922SOL     OW30664   0.412   5.146   0.759
 9922SOL    HW130665   0.469   5.167   0.679
 9922SOL    HW230666   0.461   5.173   0.842
 9923SOL     OW30667   5.291   4.771   0.915
 9923SOL    HW130668   5.369   4.733   0.964
 9923SOL    HW230669   5.217   4.789   0.980
 9924SOL     OW30670   0.532   3.753   4.608
 9924SOL    HW130671   0.476   3.824   4.565
 9924SOL    HW230672   0.559   3.783   4.699
 9925SOL     OW30673   5.471   2.436   3.489
 9925SOL    HW130674   5.371   2.439   3.478
 9925SOL    HW230675   5.509   2.526   3.469
 9926SOL     OW30676   2.369   5.316   6.848
 9926SOL    HW130677   2.432   5.257   6.798
 9926SOL    HW230678   2.275   5.296   6.819
 9927SOL     OW30679   5.906   0.181   3.148
 9927SOL    HW130680   5.962   0.123   3.206
 9927SOL    HW230681   5.890   0.269   3.193
 9928SOL     OW30682   4.577   4.763   2.156
 9928SOL    HW130683   4.621   4.715   2.232
 9928SOL    HW230684   4.531   4.696   2.096
 9929SOL     OW30685   1.421   4.473   2.570
 9929SOL    HW130686   1.405   4.570   2.551
 9929SOL    HW230687   1.363   4.444   2.646
 9930SOL     OW30688   6.703   0.526   3.680
 9930SOL    HW130689   6.781   0.499   3.737
 9930SOL    HW230690   6.626   0.464   3.697
 9931SOL     OW30691   0.580   4.806   5.720
 9931SOL    HW130692   0.628   4.840   5.801
 9931SOL    HW230693   0.482   4.818   5.732
 9932SOL     OW30694   0.979   6.145   4.936
 9932SOL    HW130695   1.035   6.100   5.006
 9932SOL    HW230696   0.882   6.133   4.958
 9933SOL     OW30697   0.288   6.125   2.382
 9933SOL    HW130698   0.258   6.202   2.327
 9933SOL    HW230699   0.282   6.148   2.479
 9934SOL     OW30700   6.605   2.098   5.963
 9934SOL    HW130701   6.610   1.998   5.972
 9934SOL    HW230702   6.658   2.127   5.884
 9935SOL     OW30703   3.331   0.584   6.198
 9935SOL    HW130704   3.321   0.511   6.266
 9935SOL    HW230705   3.318   0.547   6.106
 9936SOL     OW30706   0.800   4.199   3.642
 9936SOL    HW130707   0.822   4.280   3.588
 9936SOL    HW230708   0.854   4.122   3.609
 9937SOL     OW30709   6.660   2.018   6.388
 9937SOL    HW130710   6.737   2.058   6.338
 9937SOL    HW230711   6.687   2.000   6.482
 9938SOL     OW30712   6.788   6.413   2.686
 9938SOL    HW130713   6.694   6.381   2.691
 9938SOL    HW230714   6.793   6.493   2.626
 9939SOL     OW30715   3.499   3.012   3.042
 9939SOL    HW130716   3.491   2.981   2.948
 9939SOL    HW230717   3.594   3.032   3.064
 9940SOL     OW30718   0.103   0.984   0.247
 9940SOL    HW130719   0.132   0.904   0.300
 9940SOL    HW230720   0.003   0.987   0.243
 9941SOL     OW30721   2.993   5.192   5.630
 9941SOL    HW130722   3.070   5.129   5.616
 9941SOL    HW230723   2.940   5.162   5.709
 9942SOL     OW30724   3.100   5.720   3.814
 9942SOL    HW130725   3.147   5.693   3.898
 9942SOL    HW230726   3.010   5.677   3.810
 9943SOL     OW30727   1.453   6.798   4.989
 9943SOL    HW130728   1.386   6.785   4.916
 9943SOL    HW230729   1.538   6.834   4.951
 9944SOL     OW30730   1.504   3.762   6.793
 9944SOL    HW130731   1.536   3.685   6.849
 9944SOL    HW230732   1.451   3.824   6.850
 9945SOL     OW30733   6.418   5.863   6.767
 9945SOL    HW130734   6.503   5.893   6.723
 9945SOL    HW230735   6.343   5.868   6.701
 9946SOL     OW30736   5.333   1.505   4.819
 9946SOL    HW130737   5.253   1.508   4.758
 9946SOL    HW230738   5.379   1.594   4.819
 9947SOL     OW30739   5.681   4.744   3.421
 9947SOL    HW130740   5.693   4.690   3.504
 9947SOL    HW230741   5.664   4.683   3.344
 9948SOL     OW30742   5.153   3.939   3.976
 9948SOL    HW130743   5.119   3.866   4.036
 9948SOL    HW230744   5.090   4.016   3.978
 9949SOL     OW30745   5.671   5.237   2.126
 9949SOL    HW130746   5.615   5.154   2.121
 9949SOL    HW230747   5.658   5.281   2.214
 9950SOL     OW30748   3.509   5.896   5.893
 9950SOL    HW130749   3.495   5.920   5.989
 9950SOL    HW230750   3.548   5.975   5.845
 9951SOL     OW30751   6.238   2.177   2.959
 9951SOL    HW130752   6.242   2.196   3.057
 9951SOL    HW230753   6.160   2.118   2.939
 9952SOL     OW30754   0.410   5.212   0.097
 9952SOL    HW130755   0.446   5.217   0.004
 9952SOL    HW230756   0.455   5.137   0.145
 9953SOL     OW30757   6.411   2.396   3.851
 9953SOL    HW130758   6.434   2.482   3.898
 9953SOL    HW230759   6.401   2.413   3.753
 9954SOL     OW30760   4.114   0.197   5.472
 9954SOL    HW130761   4.042   0.140   5.434
 9954SOL    HW230762   4.201   0.147   5.468
 9955SOL     OW30763   0.441   4.441   4.344
 9955SOL    HW130764   0.370   4.454   4.275
 9955SOL    HW230765   0.399   4.417   4.431
 9956SOL     OW30766   0.968   6.103   0.644
 9956SOL    HW130767   0.944   6.031   0.579
 9956SOL    HW230768   0.926   6.082   0.732
 9957SOL     OW30769   5.963   5.374   2.538
 9957SOL    HW130770   6.029   5.434   2.583
 9957SOL    HW230771   6.000   5.344   2.450
 9958SOL     OW30772   2.319   4.324   0.895
 9958SOL    HW130773   2.281   4.235   0.872
 9958SOL    HW230774   2.415   4.327   0.868
 9959SOL     OW30775   3.655   3.421   1.170
 9959SOL    HW130776   3.567   3.458   1.141
 9959SOL    HW230777   3.651   3.398   1.267
 9960SOL     OW30778   0.549   1.347   1.975
 9960SOL    HW130779   0.466   1.330   2.028
 9960SOL    HW230780   0.629   1.319   2.029
 9961SOL     OW30781   2.191   3.993   4.422
 9961SOL    HW130782   2.238   3.910   4.451
 9961SOL    HW230783   2.127   4.022   4.493
 9962SOL     OW30784   5.123   6.526   4.648
 9962SOL    HW130785   5.107   6.433   4.615
 9962SOL    HW230786   5.071   6.591   4.591
 9963SOL     OW30787   3.128   0.793   0.710
 9963SOL    HW130788   3.158   0.728   0.781
 9963SOL    HW230789   3.122   0.745   0.622
 9964SOL     OW30790   4.957   5.855   4.878
 9964SOL    HW130791   4.894   5.778   4.860
 9964SOL    HW230792   4.906   5.941   4.875
 9965SOL     OW30793   3.678   6.815   6.995
 9965SOL    HW130794   3.640   6.900   0.016
 9965SOL    HW230795   3.778   6.823   6.992
 9966SOL     OW30796   0.058   0.014   3.223
 9966SOL    HW130797   0.007   0.048   3.143
 9966SOL    HW230798   0.078   0.090   3.284
 9967SOL     OW30799   0.922   5.394   0.560
 9967SOL    HW130800   0.897   5.316   0.503
 9967SOL    HW230801   0.855   5.467   0.548
 9968SOL     OW30802   2.890   3.464   2.811
 9968SOL    HW130803   2.878   3.421   2.901
 9968SOL    HW230804   2.960   3.415   2.760
 9969SOL     OW30805   1.649   3.185   1.624
 9969SOL    HW130806   1.665   3.100   1.574
 9969SOL    HW230807   1.551   3.206   1.625
 9970SOL     OW30808   5.742   4.711   1.637
 9970SOL    HW130809   5.838   4.690   1.617
 9970SOL    HW230810   5.704   4.766   1.563
 9971SOL     OW30811   2.311   6.189   0.526
 9971SOL    HW130812   2.317   6.090   0.517
 9971SOL    HW230813   2.254   6.226   0.452
 9972SOL     OW30814   6.756   4.963   1.432
 9972SOL    HW130815   6.681   4.900   1.450
 9972SOL    HW230816   6.843   4.915   1.442
 9973SOL     OW30817   6.105   6.769   3.823
 9973SOL    HW130818   6.008   6.779   3.799
 9973SOL    HW230819   6.160   6.773   3.739
 9974SOL     OW30820   2.510   0.383   4.164
 9974SOL    HW130821   2.431   0.426   4.120
 9974SOL    HW230822   2.480   0.303   4.216
 9975SOL     OW30823   6.361   3.628   0.393
 9975SOL    HW130824   6.304   3.641   0.312
 9975SOL    HW230825   6.313   3.570   0.459
 9976SOL     OW30826   2.013   6.864   5.145
 9976SOL    HW130827   2.011   6.874   5.244
 9976SOL    HW230828   1.949   6.791   5.118
 9977SOL     OW30829   6.631   4.455   4.043
 9977SOL    HW130830   6.549   4.513   4.041
 9977SOL    HW230831   6.675   4.463   4.132
 9978SOL     OW30832   0.122   3.070   5.183
 9978SOL    HW130833   0.145   2.993   5.243
 9978SOL    HW230834   0.171   3.060   5.096
 9979SOL     OW30835   0.659   4.061   4.828
 9979SOL    HW130836   0.736   4.085   4.769
 9979SOL    HW230837   0.671   4.102   4.918
 9980SOL     OW30838   3.072   6.504   4.883
 9980SOL    HW130839   3.144   6.563   4.921
 9980SOL    HW230840   3.113   6.419   4.851
 9981SOL     OW30841   3.820   2.179   4.178
 9981SOL    HW130842   3.841   2.137   4.267
 9981SOL    HW230843   3.873   2.263   4.168
 9982SOL     OW30844   6.330   6.295   2.932
 9982SOL    HW130845   6.409   6.268   2.987
 9982SOL    HW230846   6.255   6.320   2.992
 9983SOL     OW30847   6.605   1.032   1.100
 9983SOL    HW130848   6.654   1.090   1.035
 9983SOL    HW230849   6.523   1.080   1.132
 9984SOL     OW30850   2.649   0.976   6.993
 9984SOL    HW130851   2.646   1.037   6.914
 9984SOL    HW230852   2.575   0.910   6.989
 9985SOL     OW30853   1.458   1.364   1.666
 9985SOL    HW130854   1.528   1.344   1.598
 9985SOL    HW230855   1.485   1.326   1.755
 9986SOL     OW30856   5.053   4.224   4.835
 9986SOL    HW130857   5.126   4.292   4.840
 9986SOL    HW230858   5.092   4.132   4.837
 9987SOL     OW30859   0.264   4.596   5.907
 9987SOL    HW130860   0.213   4.540   5.972
 9987SOL    HW230861   0.253   4.559   5.815
 9988SOL     OW30862   6.762   6.836   4.726
 9988SOL    HW130863   6.678   6.889   4.730
 9988SOL    HW230864   6.766   6.786   4.640
 9989SOL     OW30865   1.162   2.951   4.343
 9989SOL    HW130866   1.151   2.864   4.392
 9989SOL    HW230867   1.083   2.965   4.283
 9990SOL     OW30868   1.496   5.494   2.081
 9990SOL    HW130869   1.553   5.519   2.003
 9990SOL    HW230870   1.459   5.402   2.067
 9991SOL     OW30871   4.121   2.168   3.098
 9991SOL    HW130872   4.107   2.174   3.197
 9991SOL    HW230873   4.196   2.228   3.072
 9992SOL     OW30874   6.723   5.688   6.144
 9992SOL    HW130875   6.802   5.628   6.157
 9992SOL    HW230876   6.750   5.783   6.165
 9993SOL     OW30877   1.293   0.726   2.007
 9993SOL    HW130878   1.260   0.786   2.080
 9993SOL    HW230879   1.388   0.699   2.027
 9994SOL     OW30880   6.109   4.900   3.085
 9994SOL    HW130881   6.013   4.924   3.099
 9994SOL    HW230882   6.132   4.820   3.142
 9995SOL     OW30883   4.994   1.271   4.295
 9995SOL    HW130884   5.010   1.249   4.391
 9995SOL    HW230885   4.904   1.314   4.285
 9996SOL     OW30886   2.495   3.294   0.007
 9996SOL    HW130887   2.565   3.350   6.979
 9996SOL    HW230888   2.407   3.341   0.003
 9997SOL     OW30889   2.544   0.140   4.614
 9997SOL    HW130890   2.625   0.157   4.671
 9997SOL    HW230891   2.571   0.096   4.529
 9998SOL     OW30892   5.670   6.120   5.483
 9998SOL    HW130893   5.721   6.141   5.566
 9998SOL    HW230894   5.610   6.197   5.461
 9999SOL     OW30895   6.607   2.369   4.495
 9999SOL    HW130896   6.541   2.313   4.545
 9999SOL    HW230897   6.627   2.327   4.407
10000SOL     OW30898   6.706   4.519   0.102
10000SOL    HW130899   6.622   4.572   0.107
10000SOL    HW230900   6.746   4.528   0.011
10001SOL     OW30901   3.870   0.060   3.538
10001SOL    HW130902   3.856   6.976   3.539
10001SOL    HW230903   3.925   0.084   3.458
10002SOL     OW30904   1.354   1.600   1.790
10002SOL    HW130905   1.394   1.517   1.750
10002SOL    HW230906   1.266   1.577   1.832
10003SOL     OW30907   5.306   2.910   3.421
10003SOL    HW130908   5.368   2.927   3.498
10003SOL    HW230909   5.352   2.856   3.351
10004SOL     OW30910   0.284   2.616   2.811
10004SOL    HW130911   0.232   2.672   2.746
10004SOL    HW230912   0.231   2.606   2.895
10005SOL     OW30913   5.105   0.206   4.498
10005SOL    HW130914   5.106   0.130   4.561
10005SOL    HW230915   5.166   0.279   4.532
10006SOL     OW30916   4.788   1.939   4.812
10006SOL    HW130917   4.806   1.960   4.908
10006SOL    HW230918   4.768   1.842   4.802
10007SOL     OW30919   6.660   3.845   3.769
10007SOL    HW130920   6.720   3.785   3.821
10007SOL    HW230921   6.630   3.797   3.686
10008SOL     OW30922   3.609   6.659   4.328
10008SOL    HW130923   3.665   6.594   4.379
10008SOL    HW230924   3.668   6.727   4.284
10009SOL     OW30925   1.908   4.414   1.581
10009SOL    HW130926   1.879   4.324   1.613
10009SOL    HW230927   1.993   4.440   1.626
10010SOL     OW30928   6.015   1.394   6.460
10010SOL    HW130929   6.108   1.363   6.481
10010SOL    HW230930   5.981   1.345   6.379
10011SOL     OW30931   6.981   6.951   4.188
10011SOL    HW130932   6.938   6.873   4.143
10011SOL    HW230933   0.023   6.919   4.264
10012SOL     OW30934   5.919   0.494   4.599
10012SOL    HW130935   5.860   0.512   4.678
10012SOL    HW230936   5.888   0.549   4.521
10013SOL     OW30937   1.560   0.653   2.051
10013SOL    HW130938   1.614   0.621   1.973
10013SOL    HW230939   1.612   0.722   2.102
10014SOL     OW30940   1.387   4.690   5.960
10014SOL    HW130941   1.433   4.696   6.048
10014SOL    HW230942   1.291   4.717   5.970
10015SOL     OW30943   2.321   4.955   6.750
10015SOL    HW130944   2.244   4.976   6.809
10015SOL    HW230945   2.295   4.885   6.684
10016SOL     OW30946   2.489   0.519   5.290
10016SOL    HW130947   2.513   0.458   5.366
10016SOL    HW230948   2.481   0.466   5.206
10017SOL     OW30949   0.715   2.125   4.147
10017SOL    HW130950   0.687   2.046   4.092
10017SOL    HW230951   0.635   2.182   4.167
10018SOL     OW30952   5.006   6.775   5.961
10018SOL    HW130953   4.961   6.733   6.040
10018SOL    HW230954   4.976   6.729   5.878
10019SOL     OW30955   1.625   1.067   2.639
10019SOL    HW130956   1.701   1.104   2.693
10019SOL    HW230957   1.568   1.141   2.606
10020SOL     OW30958   0.114   3.173   0.107
10020SOL    HW130959   0.031   3.219   0.139
10020SOL    HW230960   0.188   3.239   0.100
10021SOL     OW30961   5.387   3.176   1.704
10021SOL    HW130962   5.307   3.116   1.713
10021SOL    HW230963   5.402   3.225   1.789
10022SOL     OW30964   1.606   0.546   6.587
10022SOL    HW130965   1.552   0.624   6.621
10022SOL    HW230966   1.703   0.571   6.587
10023SOL     OW30967   0.346   3.136   0.786
10023SOL    HW130968   0.433   3.089   0.774
10023SOL    HW230969   0.273   3.081   0.747
10024SOL     OW30970   1.076   4.532   3.381
10024SOL    HW130971   1.026   4.615   3.357
10024SOL    HW230972   1.168   4.536   3.342
10025SOL     OW30973   0.984   0.837   0.508
10025SOL    HW130974   1.078   0.805   0.498
10025SOL    HW230975   0.983   0.937   0.508
10026SOL     OW30976   6.679   0.461   4.051
10026SOL    HW130977   6.628   0.422   4.128
10026SOL    HW230978   6.689   0.393   3.979
10027SOL     OW30979   5.667   2.603   5.826
10027SOL    HW130980   5.602   2.547   5.878
10027SOL    HW230981   5.716   2.664   5.888
10028SOL     OW30982   2.232   0.603   1.470
10028SOL    HW130983   2.159   0.659   1.509
10028SOL    HW230984   2.262   0.535   1.538
10029SOL     OW30985   4.381   1.348   4.164
10029SOL    HW130986   4.460   1.301   4.125
10029SOL    HW230987   4.297   1.310   4.125
10030SOL     OW30988   1.521   0.677   3.012
10030SOL    HW130989   1.480   0.606   2.956
10030SOL    HW230990   1.542   0.757   2.954
10031SOL     OW30991   6.537   4.625   3.764
10031SOL    HW130992   6.496   4.595   3.851
10031SOL    HW230993   6.524   4.554   3.695
10032SOL     OW30994   3.314   1.471   5.446
10032SOL    HW130995   3.267   1.515   5.370
10032SOL    HW230996   3.258   1.395   5.481
10033SOL     OW30997   4.960   2.909   4.137
10033SOL    HW130998   4.897   2.917   4.214
10033SOL    HW230999   5.027   2.837   4.156
10034SOL     OW31000   4.270   0.484   6.044
10034SOL    HW131001   4.210   0.453   5.969
10034SOL    HW231002   4.226   0.560   6.092
10035SOL     OW31003   0.517   6.552   3.715
10035SOL    HW131004   0.558   6.636   3.679
10035SOL    HW231005   0.537   6.476   3.653
10036SOL     OW31006   6.768   0.059   0.463
10036SOL    HW131007   6.788   6.979   0.483
10036SOL    HW231008   6.669   0.073   0.464
10037SOL     OW31009   6.871   6.821   1.147
10037SOL    HW131010   6.922   6.812   1.061
10037SOL    HW231011   6.886   6.740   1.203
10038SOL     OW31012   6.082   0.267   1.048
10038SOL    HW131013   6.006   0.212   1.084
10038SOL    HW231014   6.158   0.265   1.113
10039SOL     OW31015   3.946   0.392   3.322
10039SOL    HW131016   3.976   0.466   3.382
10039SOL    HW231017   3.862   0.351   3.358
10040SOL     OW31018   0.330   2.250   0.760
10040SOL    HW131019   0.295   2.343   0.745
10040SOL    HW231020   0.430   2.252   0.763
10041SOL     OW31021   1.241   6.442   0.631
10041SOL    HW131022   1.162   6.494   0.599
10041SOL    HW231023   1.236   6.349   0.596
10042SOL     OW31024   6.304   1.854   3.384
10042SOL    HW131025   6.215   1.812   3.398
10042SOL    HW231026   6.338   1.890   3.471
10043SOL     OW31027   1.444   3.134   4.894
10043SOL    HW131028   1.375   3.155   4.826
10043SOL    HW231029   1.529   3.106   4.849
10044SOL     OW31030   4.498   1.833   6.415
10044SOL    HW131031   4.466   1.875   6.330
10044SOL    HW231032   4.426   1.836   6.483
10045SOL     OW31033   2.581   0.947   0.992
10045SOL    HW131034   2.569   0.864   1.047
10045SOL    HW231035   2.679   0.968   0.986
10046SOL     OW31036   0.850   5.299   1.111
10046SOL    HW131037   0.814   5.361   1.042
10046SOL    HW231038   0.775   5.259   1.164
10047SOL     OW31039   1.376   3.034   0.261
10047SOL    HW131040   1.372   3.035   0.161
10047SOL    HW231041   1.316   2.963   0.296
10048SOL     OW31042   5.939   4.555   2.111
10048SOL    HW131043   5.944   4.598   2.021
10048SOL    HW231044   5.866   4.487   2.112
10049SOL     OW31045   5.880   1.291   5.110
10049SOL    HW131046   5.937   1.366   5.079
10049SOL    HW231047   5.820   1.322   5.183
10050SOL     OW31048   6.805   2.829   5.473
10050SOL    HW131049   6.786   2.927   5.482
10050SOL    HW231050   6.903   2.814   5.482
10051SOL     OW31051   2.571   1.149   4.486
10051SOL    HW131052   2.532   1.065   4.522
10051SOL    HW231053   2.577   1.218   4.559
10052SOL     OW31054   1.096   0.505   3.889
10052SOL    HW131055   1.096   0.571   3.964
10052SOL    HW231056   1.189   0.470   3.875
10053SOL     OW31057   5.828   4.925   3.101
10053SOL    HW131058   5.767   4.981   3.157
10053SOL    HW231059   5.793   4.921   3.007
10054SOL     OW31060   6.522   3.871   3.998
10054SOL    HW131061   6.556   3.855   3.905
10054SOL    HW231062   6.556   3.958   4.031
10055SOL     OW31063   1.645   1.668   6.529
10055SOL    HW131064   1.639   1.601   6.603
10055SOL    HW231065   1.690   1.627   6.450
10056SOL     OW31066   5.739   2.351   4.544
10056SOL    HW131067   5.644   2.341   4.517
10056SOL    HW231068   5.781   2.261   4.554
10057SOL     OW31069   5.617   4.776   5.534
10057SOL    HW131070   5.548   4.721   5.487
10057SOL    HW231071   5.637   4.737   5.624
10058SOL     OW31072   6.630   3.981   4.276
10058SOL    HW131073   6.701   3.917   4.304
10058SOL    HW231074   6.672   4.067   4.248
10059SOL     OW31075   5.210   6.488   6.977
10059SOL    HW131076   5.159   6.574   6.985
10059SOL    HW231077   5.227   6.469   6.880
10060SOL     OW31078   2.949   1.789   2.161
10060SOL    HW131079   2.925   1.866   2.221
10060SOL    HW231080   3.031   1.812   2.109
10061SOL     OW31081   3.420   0.123   2.187
10061SOL    HW131082   3.453   0.158   2.100
10061SOL    HW231083   3.477   0.045   2.215
10062SOL     OW31084   6.976   6.882   4.877
10062SOL    HW131085   0.045   6.895   4.826
10062SOL    HW231086   6.902   6.860   4.813
10063SOL     OW31087   3.171   2.120   4.528
10063SOL    HW131088   3.103   2.138   4.600
10063SOL    HW231089   3.226   2.203   4.514
10064SOL     OW31090   2.904   0.031   2.190
10064SOL    HW131091   2.864   0.039   2.099
10064SOL    HW231092   2.891   6.953   2.224
10065SOL     OW31093   6.915   2.025   1.686
10065SOL    HW131094   6.850   2.071   1.626
10065SOL    HW231095   7.008   2.041   1.653
10066SOL     OW31096   6.418   4.282   3.279
10066SOL    HW131097   6.335   4.297   3.226
10066SOL    HW231098   6.441   4.184   3.277
10067SOL     OW31099   6.085   4.154   5.014
10067SOL    HW131100   6.110   4.137   4.918
10067SOL    HW231101   6.147   4.104   5.074
10068SOL     OW31102   1.814   2.904   2.138
10068SOL    HW131103   1.823   2.810   2.105
10068SOL    HW231104   1.841   2.908   2.234
10069SOL     OW31105   3.209   4.717   1.539
10069SOL    HW131106   3.235   4.724   1.636
10069SOL    HW231107   3.179   4.623   1.521
10070SOL     OW31108   5.255   0.363   0.803
10070SOL    HW131109   5.318   0.441   0.802
10070SOL    HW231110   5.161   0.397   0.795
10071SOL     OW31111   5.479   0.630   5.707
10071SOL    HW131112   5.574   0.598   5.709
10071SOL    HW231113   5.470   0.712   5.764
10072SOL     OW31114   6.003   2.598   2.040
10072SOL    HW131115   5.942   2.519   2.043
10072SOL    HW231116   6.052   2.598   1.954
10073SOL     OW31117   5.655   5.666   5.168
10073SOL    HW131118   5.627   5.575   5.198
10073SOL    HW231119   5.695   5.716   5.245
10074SOL     OW31120   2.103   4.706   0.703
10074SOL    HW131121   2.168   4.643   0.745
10074SOL    HW231122   2.094   4.684   0.606
10075SOL     OW31123   1.289   2.487   1.842
10075SOL    HW131124   1.229   2.522   1.770
10075SOL    HW231125   1.285   2.547   1.921
10076SOL     OW31126   5.801   3.895   3.869
10076SOL    HW131127   5.843   3.946   3.943
10076SOL    HW231128   5.844   3.920   3.782
10077SOL     OW31129   4.118   3.730   6.417
10077SOL    HW131130   4.204   3.705   6.462
10077SOL    HW231131   4.113   3.684   6.328
10078SOL     OW31132   5.978   5.284   4.622
10078SOL    HW131133   5.908   5.216   4.601
10078SOL    HW231134   5.959   5.368   4.572
10079SOL     OW31135   5.104   4.844   3.024
10079SOL    HW131136   5.068   4.843   2.931
10079SOL    HW231137   5.193   4.890   3.025
10080SOL     OW31138   5.078   2.060   5.759
10080SOL    HW131139   5.053   2.078   5.664
10080SOL    HW231140   5.134   2.135   5.794
10081SOL     OW31141   1.427   4.794   6.829
10081SOL    HW131142   1.329   4.794   6.812
10081SOL    HW231143   1.474   4.841   6.754
10082SOL     OW31144   1.076   4.438   1.106
10082SOL    HW131145   1.002   4.384   1.065
10082SOL    HW231146   1.144   4.459   1.035
10083SOL     OW31147   2.807   6.225   2.869
10083SOL    HW131148   2.773   6.314   2.839
10083SOL    HW231149   2.731   6.162   2.882
10084SOL     OW31150   1.896   2.569   4.038
10084SOL    HW131151   1.908   2.541   3.943
10084SOL    HW231152   1.831   2.507   4.083
10085SOL     OW31153   4.880   0.018   1.627
10085SOL    HW131154   4.843   0.094   1.680
10085SOL    HW231155   4.896   6.955   1.687
10086SOL     OW31156   3.578   0.066   3.264
10086SOL    HW131157   3.629   0.120   3.331
10086SOL    HW231158   3.487   0.046   3.300
10087SOL     OW31159   1.588   5.700   5.309
10087SOL    HW131160   1.652   5.681   5.234
10087SOL    HW231161   1.505   5.646   5.297
10088SOL     OW31162   6.358   2.415   1.370
10088SOL    HW131163   6.413   2.340   1.333
10088SOL    HW231164   6.366   2.416   1.470
10089SOL     OW31165   4.378   6.911   2.017
10089SOL    HW131166   4.281   6.900   1.997
10089SOL    HW231167   4.390   6.958   2.104
10090SOL     OW31168   1.977   5.928   2.455
10090SOL    HW131169   1.944   5.847   2.407
10090SOL    HW231170   2.035   5.982   2.395
10091SOL     OW31171   5.164   4.916   4.049
10091SOL    HW131172   5.198   4.851   4.117
10091SOL    HW231173   5.231   4.927   3.976
10092SOL     OW31174   0.685   1.125   2.724
10092SOL    HW131175   0.642   1.203   2.770
10092SOL    HW231176   0.702   1.052   2.790
10093SOL     OW31177   4.254   3.985   6.496
10093SOL    HW131178   4.193   3.906   6.480
10093SOL    HW231179   4.342   3.952   6.530
10094SOL     OW31180   3.990   2.136   0.611
10094SOL    HW131181   3.914   2.097   0.663
10094SOL    HW231182   3.966   2.229   0.582
10095SOL     OW31183   4.188   3.416   5.569
10095SOL    HW131184   4.102   3.365   5.577
10095SOL    HW231185   4.171   3.502   5.521
10096SOL     OW31186   6.728   4.011   2.638
10096SOL    HW131187   6.635   4.048   2.642
10096SOL    HW231188   6.794   4.086   2.644
10097SOL     OW31189   1.090   1.642   0.720
10097SOL    HW131190   1.095   1.542   0.727
10097SOL    HW231191   1.113   1.670   0.627
10098SOL     OW31192   3.619   6.131   5.847
10098SOL    HW131193   3.583   6.175   5.764
10098SOL    HW231194   3.586   6.180   5.928
10099SOL     OW31195   6.901   5.629   3.262
10099SOL    HW131196   6.947   5.608   3.177
10099SOL    HW231197   6.966   5.669   3.327
10100SOL     OW31198   5.180   4.674   4.154
10100SOL    HW131199   5.083   4.694   4.168
10100SOL    HW231200   5.195   4.640   4.061
10101SOL     OW31201   6.992   2.388   0.103
10101SOL    HW131202   0.051   2.353   0.160
10101SOL    HW231203   6.977   2.485   0.124
10102SOL     OW31204   6.693   4.722   2.999
10102SOL    HW131205   6.784   4.723   2.959
10102SOL    HW231206   6.656   4.814   3.002
10103SOL     OW31207   0.241   6.495   6.708
10103SOL    HW131208   0.260   6.463   6.616
10103SOL    HW231209   0.145   6.522   6.716
10104SOL     OW31210   2.934   1.081   4.787
10104SOL    HW131211   2.934   1.150   4.715
10104SOL    HW231212   2.854   1.023   4.777
10105SOL     OW31213   3.268   1.239   3.849
10105SOL    HW131214   3.202   1.175   3.809
10105SOL    HW231215   3.298   1.304   3.779
10106SOL     OW31216   6.172   4.154   1.628
10106SOL    HW131217   6.121   4.240   1.619
10106SOL    HW231218   6.177   4.109   1.539
10107SOL     OW31219   5.533   5.978   6.327
10107SOL    HW131220   5.483   5.972   6.413
10107SOL    HW231221   5.548   6.074   6.303
10108SOL     OW31222   2.480   2.571   5.072
10108SOL    HW131223   2.457   2.631   4.995
10108SOL    HW231224   2.526   2.625   5.143
10109SOL     OW31225   1.254   3.280   1.072
10109SOL    HW131226   1.172   3.314   1.118
10109SOL    HW231227   1.266   3.329   0.986
10110SOL     OW31228   6.329   6.266   2.442
10110SOL    HW131229   6.260   6.198   2.415
10110SOL    HW231230   6.373   6.303   2.360
10111SOL     OW31231   6.380   2.365   1.646
10111SOL    HW131232   6.298   2.312   1.668
10111SOL    HW231233   6.380   2.450   1.700
10112SOL     OW31234   6.718   2.854   3.879
10112SOL    HW131235   6.696   2.911   3.959
10112SOL    HW231236   6.635   2.808   3.847
10113SOL     OW31237   0.026   6.388   5.773
10113SOL    HW131238   6.956   6.395   5.720
10113SOL    HW231239   0.018   6.315   5.841
10114SOL     OW31240   5.179   4.065   1.713
10114SOL    HW131241   5.155   3.979   1.758
10114SOL    HW231242   5.107   4.089   1.648
10115SOL     OW31243   3.631   2.942   6.394
10115SOL    HW131244   3.724   2.933   6.430
10115SOL    HW231245   3.588   3.023   6.434
10116SOL     OW31246   0.542   6.772   6.464
10116SOL    HW131247   0.622   6.809   6.511
10116SOL    HW231248   0.560   6.678   6.437
10117SOL     OW31249   0.378   4.545   1.043
10117SOL    HW131250   0.374   4.508   1.136
10117SOL    HW231251   0.297   4.603   1.027
10118SOL     OW31252   4.141   4.729   3.807
10118SOL    HW131253   4.152   4.635   3.840
10118SOL    HW231254   4.111   4.728   3.712
10119SOL     OW31255   5.999   6.013   6.643
10119SOL    HW131256   5.906   6.048   6.651
10119SOL    HW231257   6.059   6.062   6.705
10120SOL     OW31258   2.660   2.411   2.800
10120SOL    HW131259   2.726   2.358   2.854
10120SOL    HW231260   2.658   2.377   2.706
10121SOL     OW31261   6.340   5.638   1.778
10121SOL    HW131262   6.345   5.730   1.738
10121SOL    HW231263   6.359   5.643   1.876
10122SOL     OW31264   2.125   0.388   3.133
10122SOL    HW131265   2.072   0.322   3.186
10122SOL    HW231266   2.093   0.389   3.039
10123SOL     OW31267   6.078   5.989   6.364
10123SOL    HW131268   6.004   5.981   6.431
10123SOL    HW231269   6.101   5.899   6.329
10124SOL     OW31270   2.662   5.256   2.318
10124SOL    HW131271   2.566   5.270   2.293
10124SOL    HW231272   2.720   5.313   2.259
10125SOL     OW31273   1.740   1.561   4.713
10125SOL    HW131274   1.685   1.478   4.708
10125SOL    HW231275   1.700   1.631   4.654
10126SOL     OW31276   6.513   6.098   4.671
10126SOL    HW131277   6.420   6.133   4.656
10126SOL    HW231278   6.565   6.165   4.724
10127SOL     OW31279   2.249   0.160   5.651
10127SOL    HW131280   2.171   0.175   5.589
10127SOL    HW231281   2.331   0.144   5.597
10128SOL     OW31282   2.305   2.044   0.182
10128SOL    HW131283   2.295   2.135   0.142
10128SOL    HW231284   2.372   1.991   0.129
10129SOL     OW31285   0.218   2.315   4.716
10129SOL    HW131286   0.249   2.305   4.811
10129SOL    HW231287   0.133   2.264   4.704
10130SOL     OW31288   1.587   1.869   3.247
10130SOL    HW131289   1.513   1.841   3.308
10130SOL    HW231290   1.551   1.928   3.175
10131SOL     OW31291   2.089   0.385   5.382
10131SOL    HW131292   2.142   0.467   5.405
10131SOL    HW231293   2.068   0.334   5.465
10132SOL     OW31294   6.033   0.478   2.548
10132SOL    HW131295   5.956   0.429   2.588
10132SOL    HW231296   6.103   0.413   2.518
10133SOL     OW31297   4.174   5.604   0.884
10133SOL    HW131298   4.226   5.545   0.945
10133SOL    HW231299   4.238   5.656   0.827
10134SOL     OW31300   0.256   6.279   3.161
10134SOL    HW131301   0.188   6.306   3.229
10134SOL    HW231302   0.216   6.214   3.097
10135SOL     OW31303   6.460   6.630   3.760
10135SOL    HW131304   6.438   6.622   3.857
10135SOL    HW231305   6.557   6.652   3.749
10136SOL     OW31306   4.773   0.843   3.644
10136SOL    HW131307   4.841   0.807   3.580
10136SOL    HW231308   4.716   0.911   3.598
10137SOL     OW31309   6.940   5.467   3.869
10137SOL    HW131310   7.007   5.435   3.936
10137SOL    HW231311   6.942   5.567   3.865
10138SOL     OW31312   0.070   1.840   2.098
10138SOL    HW131313   0.112   1.790   2.174
10138SOL    HW231314   0.026   1.922   2.133
10139SOL     OW31315   4.062   3.083   0.144
10139SOL    HW131316   4.144   3.112   0.194
10139SOL    HW231317   4.066   3.119   0.051
10140SOL     OW31318   6.446   6.150   5.105
10140SOL    HW131319   6.443   6.246   5.076
10140SOL    HW231320   6.541   6.123   5.121
10141SOL     OW31321   1.241   1.909   5.064
10141SOL    HW131322   1.312   1.936   5.129
10141SOL    HW231323   1.283   1.858   4.989
10142SOL     OW31324   4.743   5.881   2.149
10142SOL    HW131325   4.664   5.821   2.159
10142SOL    HW231326   4.753   5.907   2.053
10143SOL     OW31327   5.919   3.550   6.487
10143SOL    HW131328   5.856   3.619   6.454
10143SOL    HW231329   5.877   3.460   6.479
10144SOL     OW31330   3.648   0.174   0.904
10144SOL    HW131331   3.563   0.198   0.857
10144SOL    HW231332   3.634   0.181   1.003
10145SOL     OW31333   6.508   0.405   5.047
10145SOL    HW131334   6.546   0.491   5.082
10145SOL    HW231335   6.567   0.329   5.073
10146SOL     OW31336   1.692   2.738   5.573
10146SOL    HW131337   1.663   2.723   5.479
10146SOL    HW231338   1.632   2.687   5.635
10147SOL     OW31339   3.768   5.240   0.528
10147SOL    HW131340   3.845   5.179   0.510
10147SOL    HW231341   3.760   5.256   0.626
10148SOL     OW31342   0.522   5.362   6.271
10148SOL    HW131343   0.434   5.320   6.253
10148SOL    HW231344   0.595   5.306   6.232
10149SOL     OW31345   3.407   3.025   3.281
10149SOL    HW131346   3.419   3.124   3.292
10149SOL    HW231347   3.438   2.998   3.189
10150SOL     OW31348   5.015   4.445   1.456
10150SOL    HW131349   4.928   4.435   1.504
10150SOL    HW231350   5.085   4.477   1.520
10151SOL     OW31351   0.115   0.520   6.491
10151SOL    HW131352   0.027   0.520   6.444
10151SOL    HW231353   0.173   0.593   6.455
10152SOL     OW31354   3.957   6.174   3.965
10152SOL    HW131355   3.979   6.223   3.880
10152SOL    HW231356   3.900   6.095   3.944
10153SOL     OW31357   5.112   3.743   1.621
10153SOL    HW131358   5.041   3.684   1.582
10153SOL    HW231359   5.120   3.826   1.566
10154SOL     OW31360   4.413   5.233   5.374
10154SOL    HW131361   4.405   5.260   5.469
10154SOL    HW231362   4.335   5.267   5.322
10155SOL     OW31363   4.062   1.921   4.185
10155SOL    HW131364   3.999   1.914   4.262
10155SOL    HW231365   4.155   1.939   4.218
10156SOL     OW31366   3.798   2.261   6.588
10156SOL    HW131367   3.842   2.171   6.586
10156SOL    HW231368   3.770   2.283   6.681
10157SOL     OW31369   1.052   4.643   0.634
10157SOL    HW131370   1.104   4.688   0.705
10157SOL    HW231371   1.027   4.550   0.664
10158SOL     OW31372   5.478   5.151   7.004
10158SOL    HW131373   5.392   5.195   0.013
10158SOL    HW231374   5.462   5.085   6.930
10159SOL     OW31375   4.001   2.889   1.777
10159SOL    HW131376   4.080   2.846   1.733
10159SOL    HW231377   3.932   2.911   1.709
10160SOL     OW31378   0.342   3.893   2.600
10160SOL    HW131379   0.312   3.987   2.584
10160SOL    HW231380   0.354   3.878   2.698
10161SOL     OW31381   6.088   3.171   6.842
10161SOL    HW131382   6.019   3.241   6.858
10161SOL    HW231383   6.163   3.182   6.907
10162SOL     OW31384   1.828   2.082   2.275
10162SOL    HW131385   1.878   2.155   2.323
10162SOL    HW231386   1.730   2.096   2.287
10163SOL     OW31387   3.475   4.966   4.746
10163SOL    HW131388   3.558   4.930   4.789
10163SOL    HW231389   3.489   4.974   4.648
10164SOL     OW31390   0.429   0.921   4.229
10164SOL    HW131391   0.434   1.011   4.273
10164SOL    HW231392   0.335   0.886   4.236
10165SOL     OW31393   1.568   3.436   3.801
10165SOL    HW131394   1.505   3.490   3.857
10165SOL    HW231395   1.662   3.455   3.830
10166SOL     OW31396   3.407   6.434   3.189
10166SOL    HW131397   3.359   6.357   3.147
10166SOL    HW231398   3.373   6.448   3.282
10167SOL     OW31399   3.550   1.780   6.877
10167SOL    HW131400   3.629   1.841   6.890
10167SOL    HW231401   3.475   1.810   6.934
10168SOL     OW31402   1.013   1.458   6.115
10168SOL    HW131403   0.946   1.469   6.189
10168SOL    HW231404   1.079   1.387   6.140
10169SOL     OW31405   4.145   5.606   2.734
10169SOL    HW131406   4.243   5.589   2.722
10169SOL    HW231407   4.129   5.705   2.736
10170SOL     OW31408   4.895   6.955   0.474
10170SOL    HW131409   4.909   0.038   0.472
10170SOL    HW231410   4.973   6.911   0.520
10171SOL     OW31411   1.533   4.467   3.709
10171SOL    HW131412   1.441   4.430   3.726
10171SOL    HW231413   1.559   4.449   3.614
10172SOL     OW31414   0.924   0.774   2.885
10172SOL    HW131415   0.964   0.684   2.870
10172SOL    HW231416   0.923   0.794   2.983
10173SOL     OW31417   4.437   3.261   5.526
10173SOL    HW131418   4.414   3.179   5.578
10173SOL    HW231419   4.360   3.324   5.527
10174SOL     OW31420   5.033   4.603   2.032
10174SOL    HW131421   5.120   4.596   2.079
10174SOL    HW231422   4.990   4.691   2.054
10175SOL     OW31423   6.621   0.219   3.934
10175SOL    HW131424   6.707   0.189   3.976
10175SOL    HW231425   6.548   0.154   3.957
10176SOL     OW31426   0.422   1.143   4.427
10176SOL    HW131427   0.500   1.183   4.475
10176SOL    HW231428   0.391   1.206   4.356
10177SOL     OW31429   3.139   1.192   4.095
10177SOL    HW131430   3.185   1.146   4.170
10177SOL    HW231431   3.187   1.174   4.010
10178SOL     OW31432   6.803   0.992   2.053
10178SOL    HW131433   6.865   1.026   2.124
10178SOL    HW231434   6.749   0.916   2.089
10179SOL     OW31435   0.495   6.079   0.799
10179SOL    HW131436   0.448   6.044   0.718
10179SOL    HW231437   0.496   6.179   0.796
10180SOL     OW31438   2.967   0.086   6.087
10180SOL    HW131439   2.945   0.100   6.183
10180SOL    HW231440   3.065   0.075   6.076
10181SOL     OW31441   6.881   3.807   2.534
10181SOL    HW131442   6.799   3.850   2.573
10181SOL    HW231443   6.961   3.835   2.586
10182SOL     OW31444   4.195   0.018   0.222
10182SOL    HW131445   4.170   0.040   0.317
10182SOL    HW231446   4.111   0.002   0.170
10183SOL     OW31447   3.780   6.333   6.107
10183SOL    HW131448   3.823   6.297   6.189
10183SOL    HW231449   3.688   6.295   6.099
10184SOL     OW31450   5.239   2.873   4.951
10184SOL    HW131451   5.251   2.787   4.901
10184SOL    HW231452   5.282   2.948   4.900
10185SOL     OW31453   3.007   4.787   2.377
10185SOL    HW131454   2.925   4.759   2.329
10185SOL    HW231455   3.012   4.741   2.466
10186SOL     OW31456   3.335   2.967   1.034
10186SOL    HW131457   3.392   2.929   1.106
10186SOL    HW231458   3.240   2.940   1.048
10187SOL     OW31459   1.841   3.639   5.539
10187SOL    HW131460   1.842   3.565   5.473
10187SOL    HW231461   1.902   3.712   5.508
10188SOL     OW31462   2.120   6.783   6.811
10188SOL    HW131463   2.175   6.798   6.729
10188SOL    HW231464   2.024   6.778   6.787
10189SOL     OW31465   2.237   1.887   5.330
10189SOL    HW131466   2.265   1.934   5.414
10189SOL    HW231467   2.270   1.937   5.251
10190SOL     OW31468   3.879   3.601   0.763
10190SOL    HW131469   3.896   3.665   0.688
10190SOL    HW231470   3.960   3.545   0.779
10191SOL     OW31471   5.568   0.809   0.507
10191SOL    HW131472   5.640   0.850   0.452
10191SOL    HW231473   5.496   0.774   0.447
10192SOL     OW31474   2.238   0.436   4.068
10192SOL    HW131475   2.182   0.517   4.085
10192SOL    HW231476   2.205   0.360   4.123
10193SOL     OW31477   3.722   3.782   3.903
10193SOL    HW131478   3.627   3.777   3.872
10193SOL    HW231479   3.756   3.875   3.894
10194SOL     OW31480   3.266   5.943   3.724
10194SOL    HW131481   3.356   5.909   3.751
10194SOL    HW231482   3.199   5.868   3.728
10195SOL     OW31483   5.071   0.526   2.948
10195SOL    HW131484   5.080   0.426   2.949
10195SOL    HW231485   5.098   0.560   2.858
10196SOL     OW31486   4.976   4.145   4.010
10196SOL    HW131487   4.954   4.216   3.943
10196SOL    HW231488   4.899   4.134   4.073
10197SOL     OW31489   4.791   1.972   2.706
10197SOL    HW131490   4.870   1.977   2.766
10197SOL    HW231491   4.793   2.048   2.641
10198SOL     OW31492   2.977   1.565   2.339
10198SOL    HW131493   2.973   1.637   2.271
10198SOL    HW231494   3.001   1.478   2.295
10199SOL     OW31495   0.835   2.015   6.777
10199SOL    HW131496   0.793   2.093   6.822
10199SOL    HW231497   0.898   2.048   6.707
10200SOL     OW31498   6.004   6.572   4.126
10200SOL    HW131499   5.987   6.520   4.043
10200SOL    HW231500   5.960   6.662   4.118
10201SOL     OW31501   1.400   4.465   2.241
10201SOL    HW131502   1.367   4.489   2.333
10201SOL    HW231503   1.381   4.368   2.223
10202SOL     OW31504   1.229   2.168   3.244
10202SOL    HW131505   1.179   2.207   3.322
10202SOL    HW231506   1.191   2.078   3.222
10203SOL     OW31507   0.501   1.926   1.085
10203SOL    HW131508   0.491   1.839   1.134
10203SOL    HW231509   0.527   1.908   0.990
10204SOL     OW31510   2.700   5.848   4.178
10204SOL    HW131511   2.729   5.929   4.126
10204SOL    HW231512   2.622   5.872   4.235
10205SOL     OW31513   3.620   0.151   1.168
10205SOL    HW131514   3.662   0.217   1.230
10205SOL    HW231515   3.521   0.148   1.184
10206SOL     OW31516   5.733   6.053   0.516
10206SOL    HW131517   5.781   6.129   0.558
10206SOL    HW231518   5.785   5.969   0.530
10207SOL     OW31519   4.082   1.508   2.783
10207SOL    HW131520   4.174   1.493   2.748
10207SOL    HW231521   4.060   1.605   2.779
10208SOL     OW31522   6.979   3.495   6.205
10208SOL    HW131523   0.010   3.410   6.178
10208SOL    HW231524   0.010   3.573   6.162
10209SOL     OW31525   3.507   6.135   0.011
10209SOL    HW131526   3.438   6.145   6.954
10209SOL    HW231527   3.591   6.180   6.998
10210SOL     OW31528   5.241   5.580   6.969
10210SOL    HW131529   5.251   5.559   0.051
10210SOL    HW231530   5.187   5.508   6.925
10211SOL     OW31531   3.746   5.905   5.563
10211SOL    HW131532   3.832   5.913   5.612
10211SOL    HW231533   3.703   5.995   5.555
10212SOL     OW31534   6.134   6.538   6.192
10212SOL    HW131535   6.045   6.574   6.165
10212SOL    HW231536   6.129   6.438   6.199
10213SOL     OW31537   4.266   0.080   4.784
10213SOL    HW131538   4.332   0.150   4.760
10213SOL    HW231539   4.218   0.106   4.868
10214SOL     OW31540   0.296   0.541   0.248
10214SOL    HW131541   0.299   0.465   0.313
10214SOL    HW231542   0.216   0.531   0.189
10215SOL     OW31543   4.368   2.595   0.419
10215SOL    HW131544   4.304   2.650   0.364
10215SOL    HW231545   4.351   2.611   0.516
10216SOL     OW31546   4.862   0.189   2.714
10216SOL    HW131547   4.769   0.213   2.745
10216SOL    HW231548   4.856   0.127   2.637
10217SOL     OW31549   3.729   2.417   5.536
10217SOL    HW131550   3.802   2.401   5.470
10217SOL    HW231551   3.741   2.356   5.615
10218SOL     OW31552   3.636   1.315   6.632
10218SOL    HW131553   3.729   1.292   6.661
10218SOL    HW231554   3.585   1.353   6.710
10219SOL     OW31555   1.271   5.294   0.351
10219SOL    HW131556   1.349   5.308   0.412
10219SOL    HW231557   1.216   5.217   0.383
10220SOL     OW31558   4.212   2.345   0.068
10220SOL    HW131559   4.211   2.285   0.148
10220SOL    HW231560   4.143   2.417   0.079
10221SOL     OW31561   2.658   0.928   4.190
10221SOL    HW131562   2.699   0.838   4.176
10221SOL    HW231563   2.730   0.994   4.213
10222SOL     OW31564   1.821   4.209   5.285
10222SOL    HW131565   1.844   4.113   5.272
10222SOL    HW231566   1.766   4.241   5.208
10223SOL     OW31567   0.907   4.807   6.131
10223SOL    HW131568   0.856   4.729   6.167
10223SOL    HW231569   0.889   4.887   6.188
10224SOL     OW31570   2.518   6.606   4.964
10224SOL    HW131571   2.612   6.618   4.996
10224SOL    HW231572   2.503   6.511   4.937
10225SOL     OW31573   5.153   5.998   4.624
10225SOL    HW131574   5.225   6.000   4.693
10225SOL    HW231575   5.064   6.009   4.668
10226SOL     OW31576   6.506   2.636   5.809
10226SOL    HW131577   6.498   2.733   5.785
10226SOL    HW231578   6.603   2.610   5.808
10227SOL     OW31579   4.824   4.805   5.390
10227SOL    HW131580   4.745   4.827   5.446
10227SOL    HW231581   4.801   4.733   5.325
10228SOL     OW31582   0.894   2.867   1.803
10228SOL    HW131583   0.922   2.773   1.782
10228SOL    HW231584   0.823   2.866   1.872
10229SOL     OW31585   2.786   0.523   1.703
10229SOL    HW131586   2.705   0.571   1.672
10229SOL    HW231587   2.852   0.516   1.628
10230SOL     OW31588   5.927   6.592   3.411
10230SOL    HW131589   5.885   6.609   3.321
10230SOL    HW231590   5.892   6.658   3.477
10231SOL     OW31591   4.448   6.160   4.518
10231SOL    HW131592   4.486   6.067   4.523
10231SOL    HW231593   4.367   6.159   4.458
10232SOL     OW31594   3.704   2.032   3.412
10232SOL    HW131595   3.638   2.054   3.485
10232SOL    HW231596   3.792   2.075   3.432
10233SOL     OW31597   4.935   6.942   5.450
10233SOL    HW131598   4.924   6.990   5.537
10233SOL    HW231599   5.023   6.964   5.410
10234SOL     OW31600   4.241   5.445   1.171
10234SOL    HW131601   4.162   5.395   1.135
10234SOL    HW231602   4.214   5.493   1.255
10235SOL     OW31603   5.138   0.828   0.219
10235SOL    HW131604   5.132   0.778   0.305
10235SOL    HW231605   5.234   0.851   0.200
10236SOL     OW31606   1.593   5.734   1.251
10236SOL    HW131607   1.691   5.738   1.232
10236SOL    HW231608   1.548   5.680   1.181
10237SOL     OW31609   5.973   2.487   2.951
10237SOL    HW131610   5.875   2.506   2.944
10237SOL    HW231611   6.006   2.450   2.864
10238SOL     OW31612   4.591   5.880   5.112
10238SOL    HW131613   4.651   5.826   5.054
10238SOL    HW231614   4.534   5.940   5.055
10239SOL     OW31615   6.095   2.896   4.770
10239SOL    HW131616   6.031   2.967   4.800
10239SOL    HW231617   6.155   2.872   4.846
10240SOL     OW31618   4.909   3.596   3.559
10240SOL    HW131619   4.888   3.570   3.465
10240SOL    HW231620   4.893   3.694   3.572
10241SOL     OW31621   1.570   2.437   2.742
10241SOL    HW131622   1.638   2.390   2.685
10241SOL    HW231623   1.507   2.488   2.684
10242SOL     OW31624   0.956   5.143   5.957
10242SOL    HW131625   0.910   5.057   5.935
10242SOL    HW231626   1.038   5.125   6.011
10243SOL     OW31627   0.683   5.685   2.958
10243SOL    HW131628   0.674   5.656   2.862
10243SOL    HW231629   0.763   5.745   2.967
10244SOL     OW31630   1.133   5.554   0.445
10244SOL    HW131631   1.180   5.478   0.401
10244SOL    HW231632   1.041   5.526   0.473
10245SOL     OW31633   2.345   2.759   0.727
10245SOL    HW131634   2.311   2.678   0.678
10245SOL    HW231635   2.444   2.752   0.736
10246SOL     OW31636   3.035   3.988   4.402
10246SOL    HW131637   3.003   4.009   4.494
10246SOL    HW231638   3.135   3.985   4.402
10247SOL     OW31639   0.693   6.403   5.828
10247SOL    HW131640   0.716   6.493   5.865
10247SOL    HW231641   0.775   6.346   5.827
10248SOL     OW31642   5.932   0.690   3.711
10248SOL    HW131643   5.916   0.592   3.723
10248SOL    HW231644   6.026   0.704   3.680
10249SOL     OW31645   5.039   0.604   6.048
10249SOL    HW131646   5.005   0.550   5.971
10249SOL    HW231647   4.987   0.690   6.053
10250SOL     OW31648   4.567   6.158   0.548
10250SOL    HW131649   4.594   6.143   0.453
10250SOL    HW231650   4.467   6.162   0.554
10251SOL     OW31651   3.921   4.403   1.410
10251SOL    HW131652   3.850   4.460   1.368
10251SOL    HW231653   3.886   4.310   1.423
10252SOL     OW31654   0.347   4.288   0.802
10252SOL    HW131655   0.332   4.373   0.752
10252SOL    HW231656   0.287   4.284   0.882
10253SOL     OW31657   3.878   4.910   0.320
10253SOL    HW131658   3.806   4.950   0.263
10253SOL    HW231659   3.862   4.812   0.331
10254SOL     OW31660   2.420   1.796   4.920
10254SOL    HW131661   2.340   1.810   4.861
10254SOL    HW231662   2.440   1.881   4.969
10255SOL     OW31663   3.510   5.710   3.725
10255SOL    HW131664   3.574   5.773   3.681
10255SOL    HW231665   3.517   5.619   3.683
10256SOL     OW31666   5.517   6.250   0.827
10256SOL    HW131667   5.424   6.270   0.859
10256SOL    HW231668   5.519   6.245   0.728
10257SOL     OW31669   1.294   5.640   5.761
10257SOL    HW131670   1.345   5.723   5.736
10257SOL    HW231671   1.303   5.624   5.859
10258SOL     OW31672   4.319   0.660   3.173
10258SOL    HW131673   4.237   0.610   3.145
10258SOL    HW231674   4.346   0.723   3.100
10259SOL     OW31675   0.218   2.909   3.745
10259SOL    HW131676   0.259   2.896   3.655
10259SOL    HW231677   0.227   2.825   3.799
10260SOL     OW31678   0.141   5.910   2.242
10260SOL    HW131679   0.202   5.985   2.268
10260SOL    HW231680   0.088   5.881   2.322
10261SOL     OW31681   2.313   0.206   2.115
10261SOL    HW131682   2.358   0.137   2.172
10261SOL    HW231683   2.361   0.293   2.125
10262SOL     OW31684   1.486   6.604   3.925
10262SOL    HW131685   1.550   6.561   3.989
10262SOL    HW231686   1.462   6.538   3.853
10263SOL     OW31687   6.735   3.591   4.787
10263SOL    HW131688   6.665   3.521   4.775
10263SOL    HW231689   6.734   3.653   4.708
10264SOL     OW31690   0.391   6.315   0.122
10264SOL    HW131691   0.466   6.250   0.110
10264SOL    HW231692   0.322   6.300   0.051
10265SOL     OW31693   4.366   2.039   3.165
10265SOL    HW131694   4.311   2.121   3.179
10265SOL    HW231695   4.393   2.001   3.253
10266SOL     OW31696   3.770   3.594   6.777
10266SOL    HW131697   3.852   3.635   6.736
10266SOL    HW231698   3.743   3.647   6.857
10267SOL     OW31699   6.206   1.106   6.415
10267SOL    HW131700   6.120   1.063   6.388
10267SOL    HW231701   6.239   1.165   6.341
10268SOL     OW31702   6.716   3.920   1.060
10268SOL    HW131703   6.704   3.844   1.124
10268SOL    HW231704   6.651   3.912   0.985
10269SOL     OW31705   4.054   1.887   6.204
10269SOL    HW131706   4.017   1.799   6.175
10269SOL    HW231707   4.034   1.902   6.301
10270SOL     OW31708   2.919   5.932   2.464
10270SOL    HW131709   2.985   5.957   2.394
10270SOL    HW231710   2.913   6.004   2.532
10271SOL     OW31711   1.836   5.290   1.650
10271SOL    HW131712   1.862   5.386   1.654
10271SOL    HW231713   1.836   5.251   1.742
10272SOL     OW31714   1.652   2.253   3.850
10272SOL    HW131715   1.645   2.153   3.844
10272SOL    HW231716   1.746   2.278   3.872
10273SOL     OW31717   4.587   6.359   4.118
10273SOL    HW131718   4.622   6.351   4.211
10273SOL    HW231719   4.488   6.373   4.120
10274SOL     OW31720   2.797   4.898   6.533
10274SOL    HW131721   2.817   4.996   6.526
10274SOL    HW231722   2.868   4.847   6.485
10275SOL     OW31723   0.770   6.403   1.295
10275SOL    HW131724   0.777   6.303   1.294
10275SOL    HW231725   0.830   6.440   1.366
10276SOL     OW31726   0.875   6.816   0.376
10276SOL    HW131727   0.863   6.795   0.473
10276SOL    HW231728   0.894   6.732   0.325
10277SOL     OW31729   0.330   6.362   1.944
10277SOL    HW131730   0.308   6.450   1.904
10277SOL    HW231731   0.258   6.296   1.923
10278SOL     OW31732   6.618   0.848   5.499
10278SOL    HW131733   6.635   0.931   5.552
10278SOL    HW231734   6.621   0.769   5.560
10279SOL     OW31735   3.717   6.060   5.223
10279SOL    HW131736   3.675   5.976   5.188
10279SOL    HW231737   3.659   6.098   5.296
10280SOL     OW31738   2.957   2.862   0.402
10280SOL    HW131739   2.939   2.905   0.313
10280SOL    HW231740   3.045   2.893   0.436
10281SOL     OW31741   4.974   0.610   4.160
10281SOL    HW131742   5.037   0.677   4.120
10281SOL    HW231743   4.997   0.597   4.256
10282SOL     OW31744   1.291   2.544   4.171
10282SOL    HW131745   1.365   2.587   4.118
10282SOL    HW231746   1.241   2.480   4.113
10283SOL     OW31747   1.756   4.566   5.653
10283SOL    HW131748   1.672   4.619   5.647
10283SOL    HW231749   1.748   4.485   5.595
10284SOL     OW31750   5.053   3.399   6.967
10284SOL    HW131751   5.110   3.419   6.886
10284SOL    HW231752   5.029   3.484   7.013
10285SOL     OW31753   5.134   1.637   1.068
10285SOL    HW131754   5.221   1.647   1.116
10285SOL    HW231755   5.146   1.574   0.991
10286SOL     OW31756   4.215   0.471   4.419
10286SOL    HW131757   4.208   0.376   4.450
10286SOL    HW231758   4.180   0.532   4.491
10287SOL     OW31759   1.353   4.735   1.808
10287SOL    HW131760   1.320   4.828   1.819
10287SOL    HW231761   1.308   4.675   1.874
10288SOL     OW31762   3.965   6.316   4.757
10288SOL    HW131763   3.908   6.393   4.729
10288SOL    HW231764   4.060   6.345   4.766
10289SOL     OW31765   2.904   1.570   2.007
10289SOL    HW131766   2.959   1.601   1.930
10289SOL    HW231767   2.894   1.645   2.073
10290SOL     OW31768   3.150   3.046   3.249
10290SOL    HW131769   3.248   3.031   3.261
10290SOL    HW231770   3.099   2.987   3.312
10291SOL     OW31771   4.225   0.585   4.974
10291SOL    HW131772   4.250   0.627   5.061
10291SOL    HW231773   4.202   0.489   4.988
10292SOL     OW31774   0.170   2.308   4.300
10292SOL    HW131775   0.146   2.346   4.211
10292SOL    HW231776   0.099   2.332   4.367
10293SOL     OW31777   3.175   5.019   2.705
10293SOL    HW131778   3.246   5.016   2.776
10293SOL    HW231779   3.139   5.112   2.698
10294SOL     OW31780   6.507   1.121   3.459
10294SOL    HW131781   6.603   1.115   3.433
10294SOL    HW231782   6.453   1.147   3.380
10295SOL     OW31783   1.649   4.067   4.163
10295SOL    HW131784   1.707   4.133   4.212
10295SOL    HW231785   1.553   4.093   4.174
10296SOL     OW31786   6.246   3.101   1.777
10296SOL    HW131787   6.306   3.033   1.735
10296SOL    HW231788   6.302   3.171   1.822
10297SOL     OW31789   2.969   4.999   5.319
10297SOL    HW131790   2.878   4.968   5.345
10297SOL    HW231791   3.008   4.935   5.253
10298SOL     OW31792   6.111   3.167   3.223
10298SOL    HW131793   6.096   3.073   3.256
10298SOL    HW231794   6.145   3.223   3.298
10299SOL     OW31795   4.646   4.234   2.464
10299SOL    HW131796   4.548   4.217   2.450
10299SOL    HW231797   4.694   4.226   2.377
10300SOL     OW31798   0.861   6.029   2.031
10300SOL    HW131799   0.957   6.016   2.056
10300SOL    HW231800   0.826   5.946   1.988
10301SOL     OW31801   4.664   0.722   1.863
10301SOL    HW131802   4.629   0.807   1.903
10301SOL    HW231803   4.678   0.654   1.935
10302SOL     OW31804   1.954   4.236   3.722
10302SOL    HW131805   1.955   4.333   3.697
10302SOL    HW231806   1.961   4.228   3.822
10303SOL     OW31807   4.482   3.100   1.485
10303SOL    HW131808   4.507   3.189   1.449
10303SOL    HW231809   4.387   3.080   1.463
10304SOL     OW31810   5.800   6.536   3.709
10304SOL    HW131811   5.804   6.470   3.633
10304SOL    HW231812   5.853   6.501   3.786
10305SOL     OW31813   1.696   5.296   1.222
10305SOL    HW131814   1.770   5.254   1.275
10305SOL    HW231815   1.637   5.348   1.283
10306SOL     OW31816   4.141   4.383   0.566
10306SOL    HW131817   4.184   4.397   0.655
10306SOL    HW231818   4.204   4.410   0.494
10307SOL     OW31819   2.698   2.034   5.674
10307SOL    HW131820   2.776   2.019   5.735
10307SOL    HW231821   2.695   2.130   5.647
10308SOL     OW31822   2.616   5.045   3.665
10308SOL    HW131823   2.674   4.968   3.690
10308SOL    HW231824   2.525   5.011   3.642
10309SOL     OW31825   0.468   5.984   3.568
10309SOL    HW131826   0.495   5.971   3.473
10309SOL    HW231827   0.490   6.077   3.597
10310SOL     OW31828   2.958   3.272   4.429
10310SOL    HW131829   2.968   3.189   4.485
10310SOL    HW231830   2.885   3.329   4.465
10311SOL     OW31831   1.134   0.829   1.061
10311SOL    HW131832   1.218   0.775   1.070
10311SOL    HW231833   1.090   0.837   1.151
10312SOL     OW31834   2.472   4.802   0.703
10312SOL    HW131835   2.406   4.877   0.709
10312SOL    HW231836   2.557   4.830   0.748
10313SOL     OW31837   6.941   5.774   4.208
10313SOL    HW131838   6.906   5.731   4.292
10313SOL    HW231839   6.953   5.872   4.224
10314SOL     OW31840   6.891   5.818   5.195
10314SOL    HW131841   6.838   5.877   5.257
10314SOL    HW231842   6.831   5.748   5.157
10315SOL     OW31843   4.427   6.897   5.751
10315SOL    HW131844   4.454   6.826   5.817
10315SOL    HW231845   4.508   6.930   5.703
10316SOL     OW31846   0.318   4.055   2.864
10316SOL    HW131847   0.295   3.958   2.877
10316SOL    HW231848   0.287   4.108   2.943
10317SOL     OW31849   4.763   4.204   7.002
10317SOL    HW131850   4.797   4.146   6.927
10317SOL    HW231851   4.665   4.217   6.990
10318SOL     OW31852   5.656   5.055   2.648
10318SOL    HW131853   5.695   5.039   2.557
10318SOL    HW231854   5.713   5.121   2.698
10319SOL     OW31855   5.488   6.700   4.118
10319SOL    HW131856   5.518   6.622   4.064
10319SOL    HW231857   5.467   6.671   4.211
10320SOL     OW31858   4.445   6.485   2.259
10320SOL    HW131859   4.401   6.520   2.176
10320SOL    HW231860   4.458   6.560   2.324
10321SOL     OW31861   4.501   6.622   4.595
10321SOL    HW131862   4.492   6.620   4.694
10321SOL    HW231863   4.478   6.714   4.562
10322SOL     OW31864   0.350   2.123   0.090
10322SOL    HW131865   0.382   2.063   0.163
10322SOL    HW231866   0.339   2.070   0.005
10323SOL     OW31867   0.905   2.408   5.431
10323SOL    HW131868   0.910   2.316   5.394
10323SOL    HW231869   0.956   2.413   5.517
10324SOL     OW31870   3.774   2.943   4.142
10324SOL    HW131871   3.683   2.929   4.181
10324SOL    HW231872   3.770   2.931   4.043
10325SOL     OW31873   6.692   3.470   3.427
10325SOL    HW131874   6.718   3.391   3.373
10325SOL    HW231875   6.747   3.549   3.399
10326SOL     OW31876   5.885   1.932   1.238
10326SOL    HW131877   5.852   1.968   1.151
10326SOL    HW231878   5.983   1.916   1.233
10327SOL     OW31879   5.842   1.339   3.483
10327SOL    HW131880   5.853   1.338   3.582
10327SOL    HW231881   5.763   1.283   3.457
10328SOL     OW31882   6.169   3.614   2.178
10328SOL    HW131883   6.176   3.714   2.180
10328SOL    HW231884   6.073   3.588   2.187
10329SOL     OW31885   3.599   6.017   3.292
10329SOL    HW131886   3.526   6.053   3.233
10329SOL    HW231887   3.663   5.964   3.237
10330SOL     OW31888   3.246   3.903   1.152
10330SOL    HW131889   3.226   3.992   1.191
10330SOL    HW231890   3.345   3.892   1.141
10331SOL     OW31891   5.300   1.446   4.113
10331SOL    HW131892   5.379   1.428   4.172
10331SOL    HW231893   5.229   1.491   4.167
10332SOL     OW31894   1.263   1.977   6.125
10332SOL    HW131895   1.228   1.887   6.099
10332SOL    HW231896   1.362   1.972   6.139
10333SOL     OW31897   6.608   4.682   5.173
10333SOL    HW131898   6.683   4.706   5.234
10333SOL    HW231899   6.569   4.765   5.134
10334SOL     OW31900   0.613   5.320   5.331
10334SOL    HW131901   0.671   5.289   5.255
10334SOL    HW231902   0.557   5.397   5.300
10335SOL     OW31903   3.455   5.298   2.889
10335SOL    HW131904   3.553   5.283   2.877
10335SOL    HW231905   3.410   5.301   2.800
10336SOL     OW31906   5.096   6.875   2.863
10336SOL    HW131907   5.058   6.967   2.868
10336SOL    HW231908   5.152   6.858   2.944
10337SOL     OW31909   0.545   4.097   6.079
10337SOL    HW131910   0.598   4.047   6.010
10337SOL    HW231911   0.537   4.041   6.161
10338SOL     OW31912   2.682   4.836   2.553
10338SOL    HW131913   2.681   4.901   2.477
10338SOL    HW231914   2.666   4.886   2.639
10339SOL     OW31915   2.793   5.451   0.183
10339SOL    HW131916   2.858   5.399   0.238
10339SOL    HW231917   2.764   5.396   0.104
10340SOL     OW31918   1.570   6.540   0.866
10340SOL    HW131919   1.617   6.629   0.864
10340SOL    HW231920   1.472   6.554   0.855
10341SOL     OW31921   0.494   2.293   1.716
10341SOL    HW131922   0.485   2.356   1.794
10341SOL    HW231923   0.534   2.207   1.747
10342SOL     OW31924   3.378   5.972   4.614
10342SOL    HW131925   3.328   5.983   4.528
10342SOL    HW231926   3.466   5.929   4.596
10343SOL     OW31927   2.409   2.715   4.371
10343SOL    HW131928   2.429   2.623   4.405
10343SOL    HW231929   2.388   2.710   4.273
10344SOL     OW31930   4.514   3.771   1.692
10344SOL    HW131931   4.518   3.869   1.674
10344SOL    HW231932   4.598   3.742   1.738
10345SOL     OW31933   3.429   2.333   6.715
10345SOL    HW131934   3.448   2.269   6.641
10345SOL    HW231935   3.484   2.415   6.703
10346SOL     OW31936   6.435   5.373   0.449
10346SOL    HW131937   6.479   5.367   0.359
10346SOL    HW231938   6.339   5.397   0.437
10347SOL     OW31939   4.349   7.010   1.608
10347SOL    HW131940   4.316   6.934   1.552
10347SOL    HW231941   4.438   0.024   1.574
10348SOL     OW31942   6.761   5.005   5.538
10348SOL    HW131943   6.832   5.064   5.499
10348SOL    HW231944   6.710   5.056   5.607
10349SOL     OW31945   6.303   2.316   6.848
10349SOL    HW131946   6.343   2.230   6.817
10349SOL    HW231947   6.308   2.383   6.775
10350SOL     OW31948   1.794   4.514   4.646
10350SOL    HW131949   1.829   4.539   4.555
10350SOL    HW231950   1.805   4.591   4.708
10351SOL     OW31951   3.864   5.090   5.107
10351SOL    HW131952   3.837   5.186   5.097
10351SOL    HW231953   3.962   5.085   5.123
10352SOL     OW31954   6.976   0.712   0.917
10352SOL    HW131955   6.951   0.764   0.835
10352SOL    HW231956   0.059   0.719   0.932
10353SOL     OW31957   5.755   2.557   3.939
10353SOL    HW131958   5.742   2.468   3.983
10353SOL    HW231959   5.846   2.592   3.961
10354SOL     OW31960   6.816   2.822   1.186
10354SOL    HW131961   6.755   2.772   1.247
10354SOL    HW231962   6.907   2.779   1.188
10355SOL     OW31963   0.851   1.992   0.910
10355SOL    HW131964   0.935   1.963   0.863
10355SOL    HW231965   0.824   2.082   0.876
10356SOL     OW31966   5.887   2.762   6.948
10356SOL    HW131967   5.883   2.702   0.012
10356SOL    HW231968   5.966   2.824   6.957
10357SOL     OW31969   0.930   0.318   6.106
10357SOL    HW131970   0.982   0.241   6.070
10357SOL    HW231971   0.838   0.318   6.066
10358SOL     OW31972   0.702   2.534   3.099
10358SOL    HW131973   0.703   2.593   3.018
10358SOL    HW231974   0.795   2.526   3.135
10359SOL     OW31975   0.621   2.249   2.221
10359SOL    HW131976   0.526   2.235   2.193
10359SOL    HW231977   0.644   2.182   2.292
10360SOL     OW31978   6.002   4.216   1.098
10360SOL    HW131979   6.048   4.281   1.159
10360SOL    HW231980   5.904   4.230   1.102
10361SOL     OW31981   6.339   1.336   2.388
10361SOL    HW131982   6.252   1.379   2.415
10361SOL    HW231983   6.370   1.375   2.302
10362SOL     OW31984   0.731   6.020   1.510
10362SOL    HW131985   0.811   6.079   1.526
10362SOL    HW231986   0.695   5.989   1.598
10363SOL     OW31987   5.451   4.711   6.495
10363SOL    HW131988   5.535   4.674   6.535
10363SOL    HW231989   5.459   4.713   6.396
10364SOL     OW31990   6.033   5.531   2.261
10364SOL    HW131991   6.094   5.562   2.334
10364SOL    HW231992   5.939   5.560   2.282
10365SOL     OW31993   6.253   5.340   0.184
10365SOL    HW131994   6.234   5.420   0.127
10365SOL    HW231995   6.191   5.340   0.263
10366SOL     OW31996   2.970   0.129   4.051
10366SOL    HW131997   2.881   0.157   4.015
10366SOL    HW231998   2.962   0.037   4.091
10367SOL     OW31999   5.335   6.505   1.991
10367SOL    HW132000   5.245   6.537   2.018
10367SOL    HW232001   5.383   6.468   2.070
10368SOL     OW32002   0.877   6.230   1.852
10368SOL    HW132003   0.936   6.260   1.927
10368SOL    HW232004   0.832   6.144   1.878
10369SOL     OW32005   2.564   0.505   5.760
10369SOL    HW132006   2.588   0.594   5.720
10369SOL    HW232007   2.512   0.520   5.844
10370SOL     OW32008   2.303   1.938   5.653
10370SOL    HW132009   2.244   1.912   5.730
10370SOL    HW232010   2.350   1.858   5.618
10371SOL     OW32011   4.155   5.912   3.123
10371SOL    HW132012   4.180   6.008   3.111
10371SOL    HW232013   4.238   5.856   3.123
10372SOL     OW32014   1.988   6.467   0.781
10372SOL    HW132015   2.064   6.401   0.784
10372SOL    HW232016   1.901   6.417   0.787
10373SOL     OW32017   6.331   0.726   0.253
10373SOL    HW132018   6.381   0.775   0.325
10373SOL    HW232019   6.342   0.773   0.166
10374SOL     OW32020   2.758   4.763   3.053
10374SOL    HW132021   2.673   4.803   3.018
10374SOL    HW232022   2.830   4.772   2.984
10375SOL     OW32023   2.396   5.245   0.213
10375SOL    HW132024   2.383   5.198   0.126
10375SOL    HW232025   2.469   5.199   0.265
10376SOL     OW32026   2.223   4.787   3.485
10376SOL    HW132027   2.225   4.699   3.532
10376SOL    HW232028   2.137   4.797   3.435
10377SOL     OW32029   2.487   0.953   2.936
10377SOL    HW132030   2.396   0.970   2.973
10377SOL    HW232031   2.549   1.026   2.964
10378SOL     OW32032   0.518   6.395   5.094
10378SOL    HW132033   0.611   6.361   5.110
10378SOL    HW232034   0.467   6.328   5.041
10379SOL     OW32035   2.010   6.598   3.666
10379SOL    HW132036   1.922   6.621   3.707
10379SOL    HW232037   2.065   6.546   3.732
10380SOL     OW32038   3.511   1.125   3.926
10380SOL    HW132039   3.570   1.139   3.846
10380SOL    HW232040   3.417   1.147   3.902
10381SOL     OW32041   4.087   6.871   2.944
10381SOL    HW132042   4.051   6.799   2.885
10381SOL    HW232043   4.132   6.941   2.888
10382SOL     OW32044   4.215   5.684   1.658
10382SOL    HW132045   4.224   5.656   1.562
10382SOL    HW232046   4.204   5.603   1.715
10383SOL     OW32047   0.530   5.646   6.655
10383SOL    HW132048   0.460   5.630   6.586
10383SOL    HW232049   0.489   5.687   6.736
10384SOL     OW32050   4.753   5.543   1.614
10384SOL    HW132051   4.736   5.474   1.543
10384SOL    HW232052   4.843   5.529   1.654
10385SOL     OW32053   4.146   4.621   0.058
10385SOL    HW132054   4.231   4.665   0.086
10385SOL    HW232055   4.125   4.545   0.121
10386SOL     OW32056   0.329   0.564   1.512
10386SOL    HW132057   0.272   0.639   1.545
10386SOL    HW232058   0.296   0.477   1.549
10387SOL     OW32059   5.169   2.995   2.300
10387SOL    HW132060   5.162   2.999   2.201
10387SOL    HW232061   5.265   2.987   2.326
10388SOL     OW32062   1.942   0.354   4.610
10388SOL    HW132063   1.941   0.431   4.675
10388SOL    HW232064   2.028   0.355   4.559
10389SOL     OW32065   0.521   3.729   0.028
10389SOL    HW132066   0.536   3.673   0.110
10389SOL    HW232067   0.608   3.765   7.011
10390SOL     OW32068   1.874   2.342   1.765
10390SOL    HW132069   1.936   2.302   1.698
10390SOL    HW232070   1.853   2.273   1.835
10391SOL     OW32071   6.559   0.150   3.528
10391SOL    HW132072   6.553   0.196   3.617
10391SOL    HW232073   6.567   0.052   3.542
10392SOL     OW32074   6.280   4.171   4.097
10392SOL    HW132075   6.346   4.110   4.141
10392SOL    HW232076   6.283   4.260   4.142
10393SOL     OW32077   2.037   2.543   2.408
10393SOL    HW132078   1.942   2.569   2.423
10393SOL    HW232079   2.079   2.605   2.343
10394SOL     OW32080   3.104   6.581   4.285
10394SOL    HW132081   3.089   6.569   4.186
10394SOL    HW232082   3.135   6.494   4.324
10395SOL     OW32083   1.181   0.391   1.073
10395SOL    HW132084   1.223   0.451   1.005
10395SOL    HW232085   1.153   0.444   1.152
10396SOL     OW32086   3.335   2.122   4.896
10396SOL    HW132087   3.241   2.128   4.930
10396SOL    HW232088   3.394   2.181   4.951
10397SOL     OW32089   5.026   1.671   3.989
10397SOL    HW132090   5.097   1.739   3.971
10397SOL    HW232091   5.059   1.606   4.058
10398SOL     OW32092   5.710   2.011   2.320
10398SOL    HW132093   5.745   2.006   2.227
10398SOL    HW232094   5.620   2.054   2.320
10399SOL     OW32095   0.849   3.752   2.257
10399SOL    HW132096   0.897   3.839   2.249
10399SOL    HW232097   0.783   3.757   2.332
10400SOL     OW32098   2.181   6.159   0.896
10400SOL    HW132099   2.099   6.179   0.842
10400SOL    HW232100   2.239   6.241   0.901
10401SOL     OW32101   0.438   0.646   5.614
10401SOL    HW132102   0.435   0.570   5.679
10401SOL    HW232103   0.344   0.672   5.590
10402SOL     OW32104   6.499   4.173   5.133
10402SOL    HW132105   6.528   4.115   5.058
10402SOL    HW232106   6.413   4.139   5.171
10403SOL     OW32107   3.200   0.019   1.054
10403SOL    HW132108   3.109   0.004   1.094
10403SOL    HW232109   3.196   0.097   0.992
10404SOL     OW32110   7.008   6.519   6.075
10404SOL    HW132111   6.918   6.489   6.107
10404SOL    HW232112   7.001   6.548   5.979
10405SOL     OW32113   0.256   2.626   6.617
10405SOL    HW132114   0.334   2.590   6.667
10405SOL    HW232115   0.181   2.646   6.680
10406SOL     OW32116   1.506   5.416   1.353
10406SOL    HW132117   1.422   5.411   1.407
10406SOL    HW232118   1.493   5.479   1.276
10407SOL     OW32119   1.974   5.791   5.621
10407SOL    HW132120   1.883   5.758   5.595
10407SOL    HW232121   1.972   5.891   5.627
10408SOL     OW32122   4.558   0.943   0.103
10408SOL    HW132123   4.628   0.915   0.169
10408SOL    HW232124   4.601   0.961   0.014
10409SOL     OW32125   6.218   3.747   0.897
10409SOL    HW132126   6.207   3.665   0.952
10409SOL    HW232127   6.231   3.826   0.958
10410SOL     OW32128   4.086   0.142   0.444
10410SOL    HW132129   4.091   0.241   0.433
10410SOL    HW232130   4.137   0.115   0.526
10411SOL     OW32131   1.852   4.700   4.437
10411SOL    HW132132   1.952   4.698   4.428
10411SOL    HW232133   1.816   4.777   4.385
10412SOL     OW32134   5.280   6.866   0.708
10412SOL    HW132135   5.345   6.808   0.660
10412SOL    HW232136   5.278   6.957   0.666
10413SOL     OW32137   6.121   3.131   2.085
10413SOL    HW132138   6.074   3.098   2.003
10413SOL    HW232139   6.119   3.060   2.155
10414SOL     OW32140   4.613   2.667   4.158
10414SOL    HW132141   4.701   2.619   4.158
10414SOL    HW232142   4.625   2.759   4.196
10415SOL     OW32143   0.394   0.629   6.497
10415SOL    HW132144   0.411   0.588   6.408
10415SOL    HW232145   0.452   0.585   6.566
10416SOL     OW32146   5.385   3.048   3.956
10416SOL    HW132147   5.309   2.993   3.922
10416SOL    HW232148   5.419   3.107   3.883
10417SOL     OW32149   2.155   4.115   3.077
10417SOL    HW132150   2.080   4.077   3.023
10417SOL    HW232151   2.173   4.209   3.048
10418SOL     OW32152   1.384   5.876   5.697
10418SOL    HW132153   1.482   5.878   5.717
10418SOL    HW232154   1.354   5.966   5.665
10419SOL     OW32155   1.014   1.089   0.363
10419SOL    HW132156   0.968   1.142   0.434
10419SOL    HW232157   1.110   1.116   0.358
10420SOL     OW32158   0.644   2.998   3.059
10420SOL    HW132159   0.596   2.996   2.971
10420SOL    HW232160   0.738   3.027   3.045
10421SOL     OW32161   0.346   1.482   3.206
10421SOL    HW132162   0.304   1.477   3.297
10421SOL    HW232163   0.332   1.395   3.159
10422SOL     OW32164   5.514   3.450   5.687
10422SOL    HW132165   5.576   3.528   5.673
10422SOL    HW232166   5.438   3.456   5.622
10423SOL     OW32167   5.189   4.065   2.774
10423SOL    HW132168   5.203   4.004   2.695
10423SOL    HW232169   5.099   4.047   2.814
10424SOL     OW32170   5.317   1.400   6.391
10424SOL    HW132171   5.370   1.405   6.475
10424SOL    HW232172   5.220   1.412   6.412
10425SOL     OW32173   1.900   6.352   1.528
10425SOL    HW132174   1.864   6.258   1.521
10425SOL    HW232175   1.962   6.358   1.605
10426SOL     OW32176   6.172   3.993   0.289
10426SOL    HW132177   6.244   4.062   0.289
10426SOL    HW232178   6.133   3.985   0.381
10427SOL     OW32179   4.514   0.650   1.057
10427SOL    HW132180   4.529   0.689   1.148
10427SOL    HW232181   4.588   0.587   1.035
10428SOL     OW32182   4.340   0.811   3.730
10428SOL    HW132183   4.350   0.904   3.766
10428SOL    HW232184   4.429   0.766   3.729
10429SOL     OW32185   5.777   6.022   1.933
10429SOL    HW132186   5.813   6.004   1.842
10429SOL    HW232187   5.760   6.121   1.942
10430SOL     OW32188   4.292   6.448   3.321
10430SOL    HW132189   4.292   6.463   3.223
10430SOL    HW232190   4.374   6.490   3.361
10431SOL     OW32191   2.008   1.233   5.102
10431SOL    HW132192   1.977   1.241   5.197
10431SOL    HW232193   1.985   1.316   5.052
10432SOL     OW32194   5.070   1.478   5.053
10432SOL    HW132195   5.132   1.542   5.008
10432SOL    HW232196   5.119   1.430   5.126
10433SOL     OW32197   3.013   6.853   1.207
10433SOL    HW132198   2.948   6.877   1.279
10433SOL    HW232199   3.104   6.845   1.246
10434SOL     OW32200   2.436   2.516   4.550
10434SOL    HW132201   2.476   2.425   4.539
10434SOL    HW232202   2.386   2.520   4.636
10435SOL     OW32203   5.965   5.633   6.542
10435SOL    HW132204   6.041   5.584   6.586
10435SOL    HW232205   5.908   5.674   6.613
10436SOL     OW32206   1.235   0.349   1.967
10436SOL    HW132207   1.171   0.425   1.954
10436SOL    HW232208   1.243   0.297   1.882
10437SOL     OW32209   6.758   4.634   5.799
10437SOL    HW132210   6.808   4.646   5.885
10437SOL    HW232211   6.816   4.664   5.723
10438SOL     OW32212   3.721   0.050   6.029
10438SOL    HW132213   3.676   6.988   5.984
10438SOL    HW232214   3.735   0.123   5.963
10439SOL     OW32215   4.221   1.022   5.584
10439SOL    HW132216   4.215   0.984   5.677
10439SOL    HW232217   4.265   0.956   5.524
10440SOL     OW32218   1.926   6.168   0.735
10440SOL    HW132219   1.839   6.203   0.769
10440SOL    HW232220   1.911   6.117   0.650
10441SOL     OW32221   3.733   0.636   0.034
10441SOL    HW132222   3.649   0.687   0.054
10441SOL    HW232223   3.786   0.626   0.119
10442SOL     OW32224   4.748   6.341   5.421
10442SOL    HW132225   4.696   6.297   5.347
10442SOL    HW232226   4.835   6.294   5.432
10443SOL     OW32227   6.053   3.118   5.081
10443SOL    HW132228   6.001   3.186   5.029
10443SOL    HW232229   6.001   3.033   5.088
10444SOL     OW32230   3.411   5.018   4.467
10444SOL    HW132231   3.424   5.115   4.446
10444SOL    HW232232   3.313   4.998   4.470
10445SOL     OW32233   6.019   5.982   3.182
10445SOL    HW132234   5.931   6.008   3.221
10445SOL    HW232235   6.069   5.924   3.247
10446SOL     OW32236   0.759   6.380   6.563
10446SOL    HW132237   0.785   6.414   6.654
10446SOL    HW232238   0.827   6.408   6.496
10447SOL     OW32239   6.332   1.905   0.553
10447SOL    HW132240   6.242   1.877   0.587
10447SOL    HW232241   6.325   1.929   0.457
10448SOL     OW32242   3.598   3.928   2.313
10448SOL    HW132243   3.646   3.842   2.299
10448SOL    HW232244   3.614   3.960   2.407
10449SOL     OW32245   1.940   5.422   4.339
10449SOL    HW132246   1.870   5.473   4.390
10449SOL    HW232247   1.896   5.344   4.293
10450SOL     OW32248   6.974   2.811   0.687
10450SOL    HW132249   6.962   2.833   0.590
10450SOL    HW232250   0.023   2.735   0.696
10451SOL     OW32251   2.323   4.269   2.588
10451SOL    HW132252   2.341   4.367   2.585
10451SOL    HW232253   2.311   4.240   2.683
10452SOL     OW32254   1.242   3.195   4.716
10452SOL    HW132255   1.170   3.173   4.781
10452SOL    HW232256   1.229   3.288   4.682
10453SOL     OW32257   5.288   0.545   1.390
10453SOL    HW132258   5.368   0.515   1.441
10453SOL    HW232259   5.238   0.613   1.444
10454SOL     OW32260   4.791   3.966   2.365
10454SOL    HW132261   4.776   4.062   2.390
10454SOL    HW232262   4.747   3.947   2.278
10455SOL     OW32263   0.031   4.559   2.570
10455SOL    HW132264   6.954   4.570   2.606
10455SOL    HW232265   0.064   4.645   2.533
10456SOL     OW32266   3.854   6.133   1.616
10456SOL    HW132267   3.772   6.119   1.671
10456SOL    HW232268   3.911   6.051   1.619
10457SOL     OW32269   3.626   3.149   4.275
10457SOL    HW132270   3.687   3.092   4.221
10457SOL    HW232271   3.591   3.096   4.352
10458SOL     OW32272   6.267   6.375   1.798
10458SOL    HW132273   6.215   6.290   1.796
10458SOL    HW232274   6.211   6.450   1.764
10459SOL     OW32275   6.668   4.933   2.144
10459SOL    HW132276   6.635   5.018   2.105
10459SOL    HW232277   6.651   4.932   2.243
10460SOL     OW32278   1.579   4.595   1.789
10460SOL    HW132279   1.489   4.637   1.799
10460SOL    HW232280   1.624   4.632   1.707
10461SOL     OW32281   2.919   1.632   6.273
10461SOL    HW132282   2.828   1.638   6.233
10461SOL    HW232283   2.911   1.607   6.370
10462SOL     OW32284   5.255   6.794   1.036
10462SOL    HW132285   5.248   6.825   0.941
10462SOL    HW232286   5.323   6.720   1.041
10463SOL     OW32287   3.227   3.383   1.781
10463SOL    HW132288   3.152   3.448   1.773
10463SOL    HW232289   3.229   3.325   1.699
10464SOL     OW32290   5.420   6.598   1.543
10464SOL    HW132291   5.347   6.665   1.526
10464SOL    HW232292   5.491   6.608   1.474
10465SOL     OW32293   6.717   5.058   4.851
10465SOL    HW132294   6.686   5.040   4.758
10465SOL    HW232295   6.738   5.155   4.861
10466SOL     OW32296   4.960   6.147   6.249
10466SOL    HW132297   4.886   6.158   6.315
10466SOL    HW232298   4.975   6.050   6.231
10467SOL     OW32299   4.340   1.293   3.608
10467SOL    HW132300   4.384   1.281   3.519
10467SOL    HW232301   4.410   1.297   3.679
10468SOL     OW32302   3.453   5.370   3.351
10468SOL    HW132303   3.412   5.359   3.261
10468SOL    HW232304   3.535   5.426   3.344
10469SOL     OW32305   1.541   5.480   6.992
10469SOL    HW132306   1.444   5.468   7.015
10469SOL    HW232307   1.549   5.510   6.897
10470SOL     OW32308   2.614   1.891   4.590
10470SOL    HW132309   2.564   1.977   4.582
10470SOL    HW232310   2.637   1.857   4.499
10471SOL     OW32311   3.984   3.977   0.084
10471SOL    HW132312   4.060   4.040   0.067
10471SOL    HW232313   4.018   3.883   0.078
10472SOL     OW32314   4.334   1.598   3.277
10472SOL    HW132315   4.309   1.658   3.201
10472SOL    HW232316   4.343   1.653   3.361
10473SOL     OW32317   4.680   5.501   0.084
10473SOL    HW132318   4.779   5.510   0.083
10473SOL    HW232319   4.650   5.442   0.009
10474SOL     OW32320   4.942   1.143   3.619
10474SOL    HW132321   4.880   1.210   3.662
10474SOL    HW232322   4.901   1.110   3.535
10475SOL     OW32323   4.702   6.269   1.658
10475SOL    HW132324   4.622   6.291   1.602
10475SOL    HW232325   4.676   6.267   1.755
10476SOL     OW32326   0.542   4.720   6.721
10476SOL    HW132327   0.448   4.714   6.688
10476SOL    HW232328   0.551   4.797   6.784
10477SOL     OW32329   4.786   4.586   5.200
10477SOL    HW132330   4.768   4.499   5.247
10477SOL    HW232331   4.866   4.576   5.141
10478SOL     OW32332   0.309   5.962   2.987
10478SOL    HW132333   0.374   6.017   2.934
10478SOL    HW232334   0.236   6.022   3.021
10479SOL     OW32335   1.057   4.481   2.231
10479SOL    HW132336   1.042   4.414   2.304
10479SOL    HW232337   0.974   4.488   2.175
10480SOL     OW32338   5.567   0.539   1.532
10480SOL    HW132339   5.633   0.554   1.606
10480SOL    HW232340   5.564   0.441   1.510
10481SOL     OW32341   2.604   1.381   4.661
10481SOL    HW132342   2.608   1.330   4.747
10481SOL    HW232343   2.601   1.479   4.681
10482SOL     OW32344   1.034   5.732   6.477
10482SOL    HW132345   1.070   5.717   6.569
10482SOL    HW232346   1.063   5.823   6.445
10483SOL     OW32347   6.437   5.172   0.971
10483SOL    HW132348   6.520   5.119   0.987
10483SOL    HW232349   6.389   5.185   1.058
10484SOL     OW32350   6.110   2.119   1.602
10484SOL    HW132351   6.029   2.172   1.629
10484SOL    HW232352   6.111   2.032   1.651
10485SOL     OW32353   3.460   4.130   3.934
10485SOL    HW132354   3.413   4.157   4.019
10485SOL    HW232355   3.559   4.133   3.949
10486SOL     OW32356   6.030   5.427   5.597
10486SOL    HW132357   6.011   5.489   5.674
10486SOL    HW232358   6.097   5.470   5.536
10487SOL     OW32359   5.273   3.091   3.104
10487SOL    HW132360   5.193   3.119   3.157
10487SOL    HW232361   5.292   2.995   3.120
10488SOL     OW32362   0.433   2.762   4.603
10488SOL    HW132363   0.397   2.833   4.543
10488SOL    HW232364   0.375   2.681   4.598
10489SOL     OW32365   5.735   4.611   4.268
10489SOL    HW132366   5.681   4.581   4.189
10489SOL    HW232367   5.830   4.624   4.240
10490SOL     OW32368   5.928   6.643   6.666
10490SOL    HW132369   5.933   6.581   6.587
10490SOL    HW232370   6.020   6.661   6.700
10491SOL     OW32371   1.876   2.977   5.852
10491SOL    HW132372   1.953   2.916   5.872
10491SOL    HW232373   1.894   3.026   5.767
10492SOL     OW32374   2.718   6.333   0.506
10492SOL    HW132375   2.624   6.353   0.477
10492SOL    HW232376   2.723   6.337   0.605
10493SOL     OW32377   4.152   5.636   1.387
10493SOL    HW132378   4.058   5.633   1.420
10493SOL    HW232379   4.162   5.708   1.319
10494SOL     OW32380   0.539   4.795   4.017
10494SOL    HW132381   0.582   4.764   3.932
10494SOL    HW232382   0.578   4.744   4.094
10495SOL     OW32383   0.112   7.003   0.373
10495SOL    HW132384   0.195   0.004   0.320
10495SOL    HW232385   0.073   0.076   0.400
10496SOL     OW32386   0.461   4.768   6.275
10496SOL    HW132387   0.362   4.757   6.266
10496SOL    HW232388   0.498   4.690   6.326
10497SOL     OW32389   3.307   0.018   1.533
10497SOL    HW132390   3.253   0.075   1.596
10497SOL    HW232391   3.339   6.952   1.582
10498SOL     OW32392   3.888   3.352   6.784
10498SOL    HW132393   3.826   3.431   6.783
10498SOL    HW232394   3.981   3.384   6.797
10499SOL     OW32395   4.914   4.024   2.820
10499SOL    HW132396   4.877   3.954   2.760
10499SOL    HW232397   4.843   4.056   2.882
10500SOL     OW32398   1.334   3.154   5.142
10500SOL    HW132399   1.399   3.131   5.214
10500SOL    HW232400   1.379   3.148   5.053
10501SOL     OW32401   3.913   4.896   3.247
10501SOL    HW132402   3.907   4.931   3.341
10501SOL    HW232403   3.821   4.878   3.213
10502SOL     OW32404   2.926   3.671   2.639
10502SOL    HW132405   2.904   3.580   2.672
10502SOL    HW232406   2.911   3.676   2.540
10503SOL     OW32407   6.924   0.974   6.585
10503SOL    HW132408   0.002   1.004   6.570
10503SOL    HW232409   6.918   0.924   6.672
10504SOL     OW32410   1.166   4.031   5.814
10504SOL    HW132411   1.150   4.025   5.913
10504SOL    HW232412   1.200   3.942   5.781
10505SOL     OW32413   6.764   6.589   0.874
10505SOL    HW132414   6.776   6.682   0.840
10505SOL    HW232415   6.776   6.524   0.799
10506SOL     OW32416   1.580   4.771   5.772
10506SOL    HW132417   1.547   4.766   5.678
10506SOL    HW232418   1.515   4.725   5.833
10507SOL     OW32419   1.070   6.315   5.914
10507SOL    HW132420   0.994   6.282   5.859
10507SOL    HW232421   1.035   6.371   5.990
10508SOL     OW32422   1.263   5.969   0.261
10508SOL    HW132423   1.218   5.929   0.181
10508SOL    HW232424   1.298   5.896   0.319
10509SOL     OW32425   4.535   2.509   2.902
10509SOL    HW132426   4.593   2.586   2.931
10509SOL    HW232427   4.592   2.428   2.889
10510SOL     OW32428   5.262   5.795   3.336
10510SOL    HW132429   5.243   5.881   3.288
10510SOL    HW232430   5.237   5.718   3.279
10511SOL     OW32431   4.497   2.058   1.079
10511SOL    HW132432   4.443   2.081   1.160
10511SOL    HW232433   4.448   1.989   1.025
10512SOL     OW32434   4.450   1.392   6.124
10512SOL    HW132435   4.525   1.367   6.185
10512SOL    HW232436   4.463   1.486   6.092
10513SOL     OW32437   3.429   3.574   1.104
10513SOL    HW132438   3.391   3.520   1.029
10513SOL    HW232439   3.366   3.571   1.182
10514SOL     OW32440   1.300   5.313   1.498
10514SOL    HW132441   1.217   5.364   1.478
10514SOL    HW232442   1.287   5.216   1.476
10515SOL     OW32443   2.156   3.620   4.682
10515SOL    HW132444   2.069   3.663   4.658
10515SOL    HW232445   2.159   3.527   4.644
10516SOL     OW32446   5.837   1.769   2.011
10516SOL    HW132447   5.819   1.716   1.928
10516SOL    HW232448   5.761   1.758   2.075
10517SOL     OW32449   0.381   2.526   1.835
10517SOL    HW132450   0.390   2.581   1.918
10517SOL    HW232451   0.285   2.500   1.822
10518SOL     OW32452   0.551   6.348   2.098
10518SOL    HW132453   0.480   6.355   2.027
10518SOL    HW232454   0.517   6.389   2.183
10519SOL     OW32455   3.260   6.746   1.311
10519SOL    HW132456   3.294   6.652   1.309
10519SOL    HW232457   3.288   6.789   1.397
10520SOL     OW32458   1.957   2.046   6.135
10520SOL    HW132459   1.928   2.133   6.093
10520SOL    HW232460   1.898   1.972   6.102
10521SOL     OW32461   6.347   2.433   2.913
10521SOL    HW132462   6.314   2.485   2.834
10521SOL    HW232463   6.287   2.354   2.929
10522SOL     OW32464   5.229   1.357   3.665
10522SOL    HW132465   5.236   1.446   3.619
10522SOL    HW232466   5.133   1.337   3.684
10523SOL     OW32467   0.720   4.034   1.640
10523SOL    HW132468   0.679   4.111   1.592
10523SOL    HW232469   0.820   4.036   1.628
10524SOL     OW32470   6.784   5.959   4.711
10524SOL    HW132471   6.868   5.920   4.750
10524SOL    HW232472   6.796   6.057   4.696
10525SOL     OW32473   4.591   1.167   4.084
10525SOL    HW132474   4.665   1.213   4.035
10525SOL    HW232475   4.583   1.073   4.052
10526SOL     OW32476   1.395   5.472   6.247
10526SOL    HW132477   1.332   5.403   6.284
10526SOL    HW232478   1.442   5.517   6.323
10527SOL     OW32479   6.966   6.188   5.487
10527SOL    HW132480   6.938   6.275   5.527
10527SOL    HW232481   6.911   6.169   5.407
10528SOL     OW32482   1.662   4.919   5.113
10528SOL    HW132483   1.590   4.958   5.055
10528SOL    HW232484   1.751   4.935   5.072
10529SOL     OW32485   0.127   4.804   1.083
10529SOL    HW132486   0.052   4.868   1.069
10529SOL    HW232487   0.148   4.758   0.996
10530SOL     OW32488   0.058   0.097   0.846
10530SOL    HW132489   0.077   0.158   0.923
10530SOL    HW232490   7.007   0.139   0.785
10531SOL     OW32491   3.590   2.149   6.028
10531SOL    HW132492   3.530   2.127   5.951
10531SOL    HW232493   3.683   2.118   6.007
10532SOL     OW32494   4.788   5.927   5.787
10532SOL    HW132495   4.746   5.961   5.703
10532SOL    HW232496   4.790   5.999   5.856
10533SOL     OW32497   4.008   6.767   3.490
10533SOL    HW132498   4.103   6.788   3.513
10533SOL    HW232499   3.998   6.760   3.391
10534SOL     OW32500   1.437   6.164   3.833
10534SOL    HW132501   1.509   6.148   3.901
10534SOL    HW232502   1.364   6.097   3.846
10535SOL     OW32503   3.914   2.113   2.410
10535SOL    HW132504   3.936   2.131   2.314
10535SOL    HW232505   3.971   2.171   2.468
10536SOL     OW32506   5.551   3.980   5.035
10536SOL    HW132507   5.468   3.989   4.980
10536SOL    HW232508   5.605   4.064   5.029
10537SOL     OW32509   3.825   1.345   3.502
10537SOL    HW132510   3.807   1.262   3.448
10537SOL    HW232511   3.909   1.332   3.556
10538SOL     OW32512   0.005   2.641   3.594
10538SOL    HW132513   0.039   2.624   3.687
10538SOL    HW232514   6.924   2.612   3.588
10539SOL     OW32515   6.731   6.385   3.170
10539SOL    HW132516   6.690   6.409   3.258
10539SOL    HW232517   6.722   6.461   3.106
10540SOL     OW32518   1.738   3.871   6.825
10540SOL    HW132519   1.646   3.833   6.819
10540SOL    HW232520   1.788   3.851   6.740
10541SOL     OW32521   3.433   2.722   5.718
10541SOL    HW132522   3.467   2.720   5.812
10541SOL    HW232523   3.506   2.697   5.656
10542SOL     OW32524   4.386   6.368   2.767
10542SOL    HW132525   4.406   6.466   2.776
10542SOL    HW232526   4.439   6.317   2.834
10543SOL     OW32527   2.385   2.693   4.104
10543SOL    HW132528   2.345   2.613   4.059
10543SOL    HW232529   2.337   2.775   4.075
10544SOL     OW32530   3.051   1.646   2.647
10544SOL    HW132531   2.963   1.598   2.643
10544SOL    HW232532   3.039   1.739   2.611
10545SOL     OW32533   1.887   3.158   2.038
10545SOL    HW132534   1.867   3.068   2.078
10545SOL    HW232535   1.885   3.151   1.938
10546SOL     OW32536   2.701   6.846   6.295
10546SOL    HW132537   2.766   6.909   6.338
10546SOL    HW232538   2.610   6.888   6.294
10547SOL     OW32539   3.504   6.594   5.862
10547SOL    HW132540   3.568   6.518   5.870
10547SOL    HW232541   3.476   6.624   5.954
10548SOL     OW32542   1.146   6.166   3.167
10548SOL    HW132543   1.157   6.078   3.213
10548SOL    HW232544   1.099   6.230   3.228
10549SOL     OW32545   0.086   0.853   2.617
10549SOL    HW132546   0.067   0.780   2.682
10549SOL    HW232547   0.005   0.871   2.561
10550SOL     OW32548   4.889   5.958   3.264
10550SOL    HW132549   4.912   5.920   3.353
10550SOL    HW232550   4.916   5.894   3.192
10551SOL     OW32551   3.894   0.890   4.873
10551SOL    HW132552   3.863   0.800   4.903
10551SOL    HW232553   3.988   0.884   4.839
10552SOL     OW32554   3.066   0.066   3.652
10552SOL    HW132555   2.996   0.113   3.706
10552SOL    HW232556   3.025   7.002   3.606
10553SOL     OW32557   5.807   5.858   1.399
10553SOL    HW132558   5.749   5.898   1.470
10553SOL    HW232559   5.760   5.780   1.358
10554SOL     OW32560   6.030   6.350   2.421
10554SOL    HW132561   6.121   6.375   2.387
10554SOL    HW232562   5.986   6.431   2.460
10555SOL     OW32563   3.511   3.075   1.665
10555SOL    HW132564   3.423   3.123   1.665
10555SOL    HW232565   3.572   3.118   1.732
10556SOL     OW32566   2.433   1.814   1.882
10556SOL    HW132567   2.364   1.856   1.823
10556SOL    HW232568   2.498   1.763   1.826
10557SOL     OW32569   1.644   4.322   2.594
10557SOL    HW132570   1.708   4.369   2.655
10557SOL    HW232571   1.555   4.366   2.599
10558SOL     OW32572   4.258   4.856   4.394
10558SOL    HW132573   4.317   4.918   4.447
10558SOL    HW232574   4.181   4.908   4.356
10559SOL     OW32575   3.670   6.067   1.812
10559SOL    HW132576   3.740   6.014   1.861
10559SOL    HW232577   3.581   6.051   1.854
10560SOL     OW32578   6.143   0.164   3.571
10560SOL    HW132579   6.190   0.139   3.656
10560SOL    HW232580   6.175   0.254   3.541
10561SOL     OW32581   0.740   5.245   6.126
10561SOL    HW132582   0.830   5.204   6.108
10561SOL    HW232583   0.696   5.267   6.039
10562SOL     OW32584   4.040   6.188   2.218
10562SOL    HW132585   4.126   6.205   2.265
10562SOL    HW232586   4.047   6.102   2.167
10563SOL     OW32587   1.323   6.500   2.425
10563SOL    HW132588   1.224   6.506   2.417
10563SOL    HW232589   1.357   6.424   2.370
10564SOL     OW32590   5.384   4.208   3.347
10564SOL    HW132591   5.382   4.236   3.251
10564SOL    HW232592   5.436   4.123   3.356
10565SOL     OW32593   0.472   1.445   5.092
10565SOL    HW132594   0.456   1.353   5.056
10565SOL    HW232595   0.571   1.464   5.091
10566SOL     OW32596   3.357   1.944   1.015
10566SOL    HW132597   3.298   1.876   0.972
10566SOL    HW232598   3.452   1.929   0.986
10567SOL     OW32599   2.518   2.478   6.166
10567SOL    HW132600   2.427   2.495   6.129
10567SOL    HW232601   2.585   2.483   6.091
10568SOL     OW32602   5.089   2.376   5.984
10568SOL    HW132603   5.030   2.384   5.903
10568SOL    HW232604   5.121   2.467   6.010
10569SOL     OW32605   5.612   0.685   0.764
10569SOL    HW132606   5.647   0.696   0.671
10569SOL    HW232607   5.684   0.651   0.824
10570SOL     OW32608   1.630   3.933   3.209
10570SOL    HW132609   1.619   4.011   3.147
10570SOL    HW232610   1.571   3.858   3.179
10571SOL     OW32611   6.964   4.362   5.758
10571SOL    HW132612   6.895   4.289   5.764
10571SOL    HW232613   7.015   4.367   5.843
10572SOL     OW32614   6.391   4.209   0.672
10572SOL    HW132615   6.326   4.282   0.695
10572SOL    HW232616   6.353   4.121   0.701
10573SOL     OW32617   6.988   2.019   3.508
10573SOL    HW132618   6.938   1.953   3.452
10573SOL    HW232619   0.039   2.068   3.452
10574SOL     OW32620   5.886   2.347   2.622
10574SOL    HW132621   5.885   2.256   2.582
10574SOL    HW232622   5.795   2.388   2.614
10575SOL     OW32623   5.365   6.636   2.845
10575SOL    HW132624   5.324   6.560   2.795
10575SOL    HW232625   5.462   6.617   2.861
10576SOL     OW32626   1.155   3.438   4.613
10576SOL    HW132627   1.238   3.494   4.622
10576SOL    HW232628   1.101   3.471   4.536
10577SOL     OW32629   4.225   4.131   0.434
10577SOL    HW132630   4.264   4.222   0.416
10577SOL    HW232631   4.275   4.088   0.508
10578SOL     OW32632   0.838   3.377   2.400
10578SOL    HW132633   0.824   3.473   2.422
10578SOL    HW232634   0.919   3.343   2.448
10579SOL     OW32635   0.309   3.345   0.039
10579SOL    HW132636   0.298   3.389   0.128
10579SOL    HW232637   0.400   3.364   0.003
10580SOL     OW32638   5.613   6.256   0.117
10580SOL    HW132639   5.697   6.239   0.067
10580SOL    HW232640   5.587   6.175   0.169
10581SOL     OW32641   4.458   0.496   3.725
10581SOL    HW132642   4.369   0.535   3.702
10581SOL    HW232643   4.526   0.568   3.728
10582SOL     OW32644   6.415   3.378   6.595
10582SOL    HW132645   6.471   3.385   6.678
10582SOL    HW232646   6.337   3.317   6.613
10583SOL     OW32647   4.154   2.154   5.673
10583SOL    HW132648   4.080   2.088   5.669
10583SOL    HW232649   4.227   2.119   5.732
10584SOL     OW32650   0.589   0.448   3.389
10584SOL    HW132651   0.684   0.432   3.362
10584SOL    HW232652   0.583   0.452   3.489
10585SOL     OW32653   1.441   1.174   5.552
10585SOL    HW132654   1.500   1.237   5.602
10585SOL    HW232655   1.496   1.118   5.490
10586SOL     OW32656   4.538   4.180   5.564
10586SOL    HW132657   4.532   4.101   5.504
10586SOL    HW232658   4.574   4.152   5.653
10587SOL     OW32659   1.985   4.993   5.326
10587SOL    HW132660   1.955   5.058   5.395
10587SOL    HW232661   1.948   5.020   5.237
10588SOL     OW32662   1.582   4.108   3.849
10588SOL    HW132663   1.660   4.066   3.802
10588SOL    HW232664   1.561   4.056   3.932
10589SOL     OW32665   6.663   6.911   3.867
10589SOL    HW132666   6.578   6.920   3.920
10589SOL    HW232667   6.650   6.952   3.777
10590SOL     OW32668   0.898   5.305   2.657
10590SOL    HW132669   0.944   5.348   2.734
10590SOL    HW232670   0.966   5.262   2.597
10591SOL     OW32671   6.879   3.638   2.330
10591SOL    HW132672   6.886   3.694   2.413
10591SOL    HW232673   6.953   3.664   2.267
10592SOL     OW32674   6.965   2.711   4.527
10592SOL    HW132675   6.932   2.711   4.432
10592SOL    HW232676   0.041   2.752   4.530
10593SOL     OW32677   3.289   6.192   3.628
10593SOL    HW132678   3.272   6.098   3.657
10593SOL    HW232679   3.325   6.245   3.705
10594SOL     OW32680   3.678   5.659   3.936
10594SOL    HW132681   3.614   5.695   3.868
10594SOL    HW232682   3.755   5.616   3.889
10595SOL     OW32683   4.676   6.992   1.046
10595SOL    HW132684   4.768   6.984   1.009
10595SOL    HW232685   4.642   6.901   1.072
10596SOL     OW32686   4.886   3.979   0.724
10596SOL    HW132687   4.958   3.988   0.792
10596SOL    HW232688   4.844   3.889   0.731
10597SOL     OW32689   2.030   0.106   4.944
10597SOL    HW132690   2.088   0.134   5.020
10597SOL    HW232691   1.968   0.034   4.974
10598SOL     OW32692   3.107   0.687   0.419
10598SOL    HW132693   3.020   0.726   0.389
10598SOL    HW232694   3.166   0.671   0.340
10599SOL     OW32695   0.941   2.472   0.569
10599SOL    HW132696   1.027   2.522   0.573
10599SOL    HW232697   0.889   2.502   0.489
10600SOL     OW32698   4.233   0.916   1.922
10600SOL    HW132699   4.303   0.969   1.874
10600SOL    HW232700   4.215   0.831   1.872
10601SOL     OW32701   1.992   1.564   4.597
10601SOL    HW132702   1.906   1.567   4.648
10601SOL    HW232703   2.031   1.472   4.603
10602SOL     OW32704   6.356   6.846   1.498
10602SOL    HW132705   6.295   6.905   1.444
10602SOL    HW232706   6.451   6.870   1.477
10603SOL     OW32707   5.984   0.289   2.893
10603SOL    HW132708   6.060   0.248   2.843
10603SOL    HW232709   5.984   0.256   2.987
10604SOL     OW32710   4.495   1.836   4.902
10604SOL    HW132711   4.543   1.921   4.881
10604SOL    HW232712   4.407   1.857   4.944
10605SOL     OW32713   3.378   1.852   1.376
10605SOL    HW132714   3.421   1.888   1.458
10605SOL    HW232715   3.352   1.928   1.316
10606SOL     OW32716   6.614   1.509   0.067
10606SOL    HW132717   6.520   1.480   0.084
10606SOL    HW232718   6.631   1.596   0.114
10607SOL     OW32719   3.098   4.347   1.037
10607SOL    HW132720   3.163   4.406   0.990
10607SOL    HW232721   3.143   4.303   1.114
10608SOL     OW32722   5.613   3.749   3.457
10608SOL    HW132723   5.576   3.686   3.389
10608SOL    HW232724   5.700   3.714   3.492
10609SOL     OW32725   5.955   0.027   6.558
10609SOL    HW132726   5.931   6.964   6.501
10609SOL    HW232727   5.872   0.063   6.601
10610SOL     OW32728   0.620   1.200   3.109
10610SOL    HW132729   0.685   1.240   3.045
10610SOL    HW232730   0.662   1.193   3.200
10611SOL     OW32731   4.417   5.014   4.987
10611SOL    HW132732   4.472   5.064   4.920
10611SOL    HW232733   4.394   4.924   4.950
10612SOL     OW32734   6.447   2.513   3.206
10612SOL    HW132735   6.348   2.503   3.222
10612SOL    HW232736   6.469   2.478   3.115
10613SOL     OW32737   5.095   5.524   4.558
10613SOL    HW132738   5.159   5.513   4.482
10613SOL    HW232739   5.141   5.569   4.634
10614SOL     OW32740   3.960   2.503   6.788
10614SOL    HW132741   3.925   2.579   6.734
10614SOL    HW232742   3.884   2.454   6.830
10615SOL     OW32743   2.625   2.697   5.265
10615SOL    HW132744   2.702   2.759   5.255
10615SOL    HW232745   2.557   2.739   5.326
10616SOL     OW32746   1.321   5.768   0.423
10616SOL    HW132747   1.249   5.699   0.425
10616SOL    HW232748   1.405   5.730   0.463
10617SOL     OW32749   1.489   2.881   0.941
10617SOL    HW132750   1.467   2.978   0.932
10617SOL    HW232751   1.579   2.871   0.982
10618SOL     OW32752   0.949   5.298   4.269
10618SOL    HW132753   0.977   5.380   4.320
10618SOL    HW232754   0.960   5.218   4.327
10619SOL     OW32755   0.787   2.700   1.197
10619SOL    HW132756   0.706   2.649   1.224
10619SOL    HW232757   0.785   2.791   1.237
10620SOL     OW32758   3.584   1.162   5.781
10620SOL    HW132759   3.615   1.115   5.863
10620SOL    HW232760   3.509   1.224   5.805
10621SOL     OW32761   1.060   3.906   3.242
10621SOL    HW132762   0.967   3.933   3.217
10621SOL    HW232763   1.114   3.890   3.160
10622SOL     OW32764   4.148   2.336   6.517
10622SOL    HW132765   4.195   2.332   6.429
10622SOL    HW232766   4.054   2.304   6.505
10623SOL     OW32767   5.077   5.318   5.803
10623SOL    HW132768   5.056   5.398   5.859
10623SOL    HW232769   5.064   5.341   5.706
10624SOL     OW32770   0.763   1.798   6.435
10624SOL    HW132771   0.851   1.813   6.391
10624SOL    HW232772   0.690   1.823   6.371
10625SOL     OW32773   6.833   5.643   0.992
10625SOL    HW132774   6.836   5.545   0.969
10625SOL    HW232775   6.854   5.697   0.911
10626SOL     OW32776   5.908   2.886   2.065
10626SOL    HW132777   5.918   2.788   2.049
10626SOL    HW232778   5.936   2.937   1.983
10627SOL     OW32779   5.488   4.590   5.404
10627SOL    HW132780   5.390   4.600   5.387
10627SOL    HW232781   5.533   4.555   5.322
10628SOL     OW32782   2.779   6.311   0.775
10628SOL    HW132783   2.776   6.304   0.875
10628SOL    HW232784   2.852   6.373   0.748
10629SOL     OW32785   4.697   4.878   4.049
10629SOL    HW132786   4.654   4.888   4.139
10629SOL    HW232787   4.626   4.875   3.979
10630SOL     OW32788   3.961   1.020   1.330
10630SOL    HW132789   4.040   0.962   1.311
10630SOL    HW232790   3.957   1.039   1.428
10631SOL     OW32791   3.266   5.318   1.830
10631SOL    HW132792   3.312   5.398   1.792
10631SOL    HW232793   3.185   5.296   1.776
10632SOL     OW32794   5.843   6.798   4.136
10632SOL    HW132795   5.794   6.766   4.217
10632SOL    HW232796   5.825   6.896   4.122
10633SOL     OW32797   2.592   3.408   0.301
10633SOL    HW132798   2.641   3.411   0.388
10633SOL    HW232799   2.656   3.421   0.226
10634SOL     OW32800   0.607   4.629   6.454
10634SOL    HW132801   0.706   4.632   6.469
10634SOL    HW232802   0.560   4.667   6.533
10635SOL     OW32803   3.194   5.387   6.532
10635SOL    HW132804   3.275   5.329   6.548
10635SOL    HW232805   3.151   5.359   6.446
10636SOL     OW32806   5.949   2.624   0.608
10636SOL    HW132807   5.973   2.708   0.656
10636SOL    HW232808   6.014   2.608   0.533
10637SOL     OW32809   2.485   0.659   6.446
10637SOL    HW132810   2.580   0.640   6.471
10637SOL    HW232811   2.429   0.577   6.465
10638SOL     OW32812   4.738   5.189   0.829
10638SOL    HW132813   4.799   5.147   0.897
10638SOL    HW232814   4.645   5.154   0.841
10639SOL     OW32815   6.621   4.898   0.909
10639SOL    HW132816   6.552   4.895   0.837
10639SOL    HW232817   6.581   4.863   0.995
10640SOL     OW32818   3.997   6.314   4.457
10640SOL    HW132819   3.953   6.396   4.420
10640SOL    HW232820   3.939   6.275   4.528
10641SOL     OW32821   1.248   1.151   3.068
10641SOL    HW132822   1.216   1.088   3.138
10641SOL    HW232823   1.348   1.156   3.070
10642SOL     OW32824   6.913   2.124   6.276
10642SOL    HW132825   6.972   2.191   6.319
10642SOL    HW232826   6.873   2.163   6.193
10643SOL     OW32827   2.687   5.334   5.856
10643SOL    HW132828   2.615   5.359   5.920
10643SOL    HW232829   2.658   5.357   5.763
10644SOL     OW32830   0.315   3.428   3.284
10644SOL    HW132831   0.245   3.385   3.226
10644SOL    HW232832   0.404   3.388   3.263
10645SOL     OW32833   2.301   2.524   3.074
10645SOL    HW132834   2.243   2.604   3.093
10645SOL    HW232835   2.315   2.472   3.159
10646SOL     OW32836   4.970   0.581   3.821
10646SOL    HW132837   4.993   0.507   3.884
10646SOL    HW232838   4.982   0.669   3.868
10647SOL     OW32839   3.843   5.361   5.120
10647SOL    HW132840   3.747   5.385   5.133
10647SOL    HW232841   3.872   5.388   5.029
10648SOL     OW32842   4.863   4.294   5.317
10648SOL    HW132843   4.939   4.345   5.278
10648SOL    HW232844   4.842   4.330   5.408
10649SOL     OW32845   6.264   3.196   2.982
10649SOL    HW132846   6.207   3.204   3.064
10649SOL    HW232847   6.359   3.216   3.005
10650SOL     OW32848   0.462   6.890   2.473
10650SOL    HW132849   0.521   6.857   2.399
10650SOL    HW232850   0.430   6.813   2.527
10651SOL     OW32851   2.433   5.527   5.935
10651SOL    HW132852   2.371   5.517   6.013
10651SOL    HW232853   2.520   5.564   5.966
10652SOL     OW32854   2.002   0.357   6.850
10652SOL    HW132855   2.060   0.329   6.925
10652SOL    HW232856   2.028   0.449   6.820
10653SOL     OW32857   5.630   5.901   4.756
10653SOL    HW132858   5.637   5.804   4.777
10653SOL    HW232859   5.721   5.941   4.753
10654SOL     OW32860   6.570   1.918   3.899
10654SOL    HW132861   6.486   1.969   3.880
10654SOL    HW232862   6.614   1.893   3.813
10655SOL     OW32863   6.999   4.715   0.668
10655SOL    HW132864   6.971   4.809   0.648
10655SOL    HW232865   7.013   4.665   0.583
10656SOL     OW32866   5.649   1.730   5.405
10656SOL    HW132867   5.644   1.826   5.434
10656SOL    HW232868   5.720   1.683   5.457
10657SOL     OW32869   5.023   0.295   5.480
10657SOL    HW132870   4.943   0.350   5.503
10657SOL    HW232871   5.038   0.299   5.381
10658SOL     OW32872   0.662   1.891   5.309
10658SOL    HW132873   0.705   1.834   5.379
10658SOL    HW232874   0.632   1.977   5.350
10659SOL     OW32875   0.110   5.397   0.574
10659SOL    HW132876   0.136   5.446   0.657
10659SOL    HW232877   0.038   5.448   0.526
10660SOL     OW32878   5.872   3.104   6.329
10660SOL    HW132879   5.798   3.170   6.336
10660SOL    HW232880   5.960   3.151   6.341
10661SOL     OW32881   3.315   4.755   5.238
10661SOL    HW132882   3.219   4.739   5.214
10661SOL    HW232883   3.357   4.811   5.167
10662SOL     OW32884   3.057   1.499   0.929
10662SOL    HW132885   3.124   1.506   0.856
10662SOL    HW232886   3.019   1.406   0.931
10663SOL     OW32887   0.290   2.473   3.288
10663SOL    HW132888   0.371   2.529   3.306
10663SOL    HW232889   0.291   2.393   3.348
10664SOL     OW32890   1.297   5.924   4.643
10664SOL    HW132891   1.339   6.002   4.691
10664SOL    HW232892   1.250   5.957   4.561
10665SOL     OW32893   3.196   3.671   0.665
10665SOL    HW132894   3.244   3.756   0.644
10665SOL    HW232895   3.184   3.664   0.764
10666SOL     OW32896   3.889   3.673   1.071
10666SOL    HW132897   3.828   3.722   1.008
10666SOL    HW232898   3.851   3.584   1.093
10667SOL     OW32899   5.469   2.646   4.476
10667SOL    HW132900   5.516   2.644   4.388
10667SOL    HW232901   5.375   2.615   4.464
10668SOL     OW32902   3.179   2.682   6.090
10668SOL    HW132903   3.134   2.628   6.018
10668SOL    HW232904   3.164   2.779   6.073
10669SOL     OW32905   6.183   1.901   1.235
10669SOL    HW132906   6.231   1.920   1.149
10669SOL    HW232907   6.233   1.943   1.311
10670SOL     OW32908   4.801   4.116   4.224
10670SOL    HW132909   4.725   4.180   4.235
10670SOL    HW232910   4.824   4.076   4.312
10671SOL     OW32911   1.599   3.105   4.474
10671SOL    HW132912   1.609   3.199   4.505
10671SOL    HW232913   1.690   3.066   4.456
10672SOL     OW32914   6.218   3.930   1.784
10672SOL    HW132915   6.154   3.911   1.859
10672SOL    HW232916   6.184   4.008   1.731
10673SOL     OW32917   2.818   1.296   0.884
10673SOL    HW132918   2.767   1.249   0.812
10673SOL    HW232919   2.778   1.273   0.973
10674SOL     OW32920   3.798   3.640   4.269
10674SOL    HW132921   3.738   3.622   4.347
10674SOL    HW232922   3.847   3.556   4.245
10675SOL     OW32923   3.196   7.005   5.364
10675SOL    HW132924   3.248   0.075   5.359
10675SOL    HW232925   3.222   6.946   5.287
10676SOL     OW32926   1.523   0.454   5.623
10676SOL    HW132927   1.493   0.549   5.637
10676SOL    HW232928   1.565   0.446   5.532
10677SOL     OW32929   0.549   2.234   6.686
10677SOL    HW132930   0.503   2.175   6.752
10677SOL    HW232931   0.603   2.177   6.624
10678SOL     OW32932   4.034   5.393   2.567
10678SOL    HW132933   4.065   5.305   2.601
10678SOL    HW232934   3.976   5.437   2.636
10679SOL     OW32935   4.818   4.245   0.696
10679SOL    HW132936   4.809   4.236   0.596
10679SOL    HW232937   4.863   4.164   0.733
10680SOL     OW32938   4.261   1.466   5.886
10680SOL    HW132939   4.315   1.449   5.969
10680SOL    HW232940   4.282   1.395   5.818
10681SOL     OW32941   2.432   3.244   5.362
10681SOL    HW132942   2.500   3.204   5.423
10681SOL    HW232943   2.433   3.195   5.274
10682SOL     OW32944   5.198   3.857   6.814
10682SOL    HW132945   5.242   3.794   6.877
10682SOL    HW232946   5.134   3.807   6.755
10683SOL     OW32947   2.891   0.450   3.693
10683SOL    HW132948   2.830   0.503   3.633
10683SOL    HW232949   2.881   0.353   3.673
10684SOL     OW32950   4.435   4.630   1.569
10684SOL    HW132951   4.518   4.624   1.514
10684SOL    HW232952   4.356   4.644   1.509
10685SOL     OW32953   0.868   6.541   2.232
10685SOL    HW132954   0.786   6.573   2.280
10685SOL    HW232955   0.856   6.445   2.207
10686SOL     OW32956   2.892   0.819   7.011
10686SOL    HW132957   2.816   0.880   6.991
10686SOL    HW232958   2.888   0.738   6.953
10687SOL     OW32959   0.993   3.539   3.508
10687SOL    HW132960   1.086   3.555   3.541
10687SOL    HW232961   0.992   3.458   3.450
10688SOL     OW32962   4.971   0.971   3.025
10688SOL    HW132963   4.924   0.883   3.024
10688SOL    HW232964   4.905   1.045   3.013
10689SOL     OW32965   0.876   0.316   2.489
10689SOL    HW132966   0.873   0.271   2.399
10689SOL    HW232967   0.799   0.378   2.498
10690SOL     OW32968   1.108   6.284   4.098
10690SOL    HW132969   1.170   6.345   4.147
10690SOL    HW232970   1.017   6.290   4.138
10691SOL     OW32971   3.565   6.915   2.288
10691SOL    HW132972   3.660   6.918   2.255
10691SOL    HW232973   3.550   6.830   2.339
10692SOL     OW32974   2.380   1.686   4.456
10692SOL    HW132975   2.330   1.772   4.470
10692SOL    HW232976   2.410   1.650   4.544
10693SOL     OW32977   1.636   5.612   0.201
10693SOL    HW132978   1.697   5.547   0.247
10693SOL    HW232979   1.597   5.568   0.120
10694SOL     OW32980   4.811   0.454   5.572
10694SOL    HW132981   4.757   0.382   5.616
10694SOL    HW232982   4.749   0.525   5.539
10695SOL     OW32983   5.501   4.653   1.906
10695SOL    HW132984   5.532   4.621   1.817
10695SOL    HW232985   5.462   4.577   1.958
10696SOL     OW32986   6.396   4.627   4.026
10696SOL    HW132987   6.302   4.644   3.997
10696SOL    HW232988   6.424   4.696   4.093
10697SOL     OW32989   2.620   5.301   5.201
10697SOL    HW132990   2.535   5.329   5.157
10697SOL    HW232991   2.602   5.224   5.262
10698SOL     OW32992   3.255   3.502   0.167
10698SOL    HW132993   3.277   3.553   0.084
10698SOL    HW232994   3.337   3.456   0.200
10699SOL     OW32995   3.911   2.850   0.931
10699SOL    HW132996   3.960   2.764   0.913
10699SOL    HW232997   3.894   2.859   1.029
10700SOL     OW32998   4.569   0.686   1.588
10700SOL    HW132999   4.608   0.663   1.677
10700SOL    HW233000   4.569   0.785   1.575
10701SOL     OW33001   3.285   6.929   6.433
10701SOL    HW133002   3.268   6.848   6.488
10701SOL    HW233003   3.382   6.932   6.407
10702SOL     OW33004   5.608   2.255   1.866
10702SOL    HW133005   5.609   2.160   1.899
10702SOL    HW233006   5.571   2.257   1.773
10703SOL     OW33007   0.410   2.644   5.193
10703SOL    HW133008   0.400   2.585   5.273
10703SOL    HW233009   0.381   2.595   5.111
10704SOL     OW33010   5.032   6.815   2.189
10704SOL    HW133011   4.991   6.749   2.253
10704SOL    HW233012   4.968   6.890   2.173
10705SOL     OW33013   5.058   3.462   1.095
10705SOL    HW133014   5.065   3.389   1.027
10705SOL    HW233015   5.111   3.541   1.065
10706SOL     OW33016   3.532   0.918   1.091
10706SOL    HW133017   3.441   0.959   1.091
10706SOL    HW233018   3.585   0.954   1.167
10707SOL     OW33019   5.150   0.129   3.808
10707SOL    HW133020   5.142   0.204   3.874
10707SOL    HW233021   5.108   0.155   3.721
10708SOL     OW33022   4.314   1.368   2.184
10708SOL    HW133023   4.223   1.333   2.207
10708SOL    HW233024   4.327   1.365   2.085
10709SOL     OW33025   5.736   4.673   3.159
10709SOL    HW133026   5.762   4.764   3.126
10709SOL    HW233027   5.682   4.626   3.090
10710SOL     OW33028   4.763   1.981   3.906
10710SOL    HW133029   4.791   1.956   3.813
10710SOL    HW233030   4.839   2.024   3.954
10711SOL     OW33031   3.217   6.997   2.300
10711SOL    HW133032   3.134   0.020   2.260
10711SOL    HW233033   3.297   0.031   2.264
10712SOL     OW33034   5.450   0.057   3.494
10712SOL    HW133035   5.473   0.008   3.410
10712SOL    HW233036   5.370   0.115   3.478
10713SOL     OW33037   1.779   4.055   1.756
10713SOL    HW133038   1.695   4.093   1.716
10713SOL    HW233039   1.859   4.097   1.712
10714SOL     OW33040   2.992   3.949   5.090
10714SOL    HW133041   2.985   3.849   5.097
10714SOL    HW233042   2.922   3.991   5.148
10715SOL     OW33043   5.792   0.650   2.039
10715SOL    HW133044   5.876   0.680   1.995
10715SOL    HW233045   5.806   0.646   2.138
10716SOL     OW33046   5.210   0.961   3.132
10716SOL    HW133047   5.120   0.950   3.090
10716SOL    HW233048   5.270   1.011   3.069
10717SOL     OW33049   2.258   2.562   6.429
10717SOL    HW133050   2.326   2.566   6.502
10717SOL    HW233051   2.187   2.631   6.447
10718SOL     OW33052   1.798   5.421   5.404
10718SOL    HW133053   1.780   5.490   5.475
10718SOL    HW233054   1.818   5.334   5.448
10719SOL     OW33055   0.180   5.348   4.514
10719SOL    HW133056   0.222   5.433   4.481
10719SOL    HW233057   0.233   5.270   4.483
10720SOL     OW33058   6.943   4.865   3.434
10720SOL    HW133059   0.002   4.811   3.394
10720SOL    HW233060   6.887   4.806   3.492
10721SOL     OW33061   5.185   3.367   5.412
10721SOL    HW133062   5.152   3.278   5.442
10721SOL    HW233063   5.175   3.433   5.486
10722SOL     OW33064   6.637   4.197   5.681
10722SOL    HW133065   6.685   4.139   5.615
10722SOL    HW233066   6.594   4.273   5.633
10723SOL     OW33067   6.061   6.898   0.765
10723SOL    HW133068   6.026   6.915   0.857
10723SOL    HW233069   6.115   6.814   0.764
10724SOL     OW33070   6.493   6.333   0.120
10724SOL    HW133071   6.468   6.338   0.023
10724SOL    HW233072   6.418   6.368   0.176
10725SOL     OW33073   1.787   6.034   5.445
10725SOL    HW133074   1.756   5.969   5.515
10725SOL    HW233075   1.853   6.097   5.485
10726SOL     OW33076   5.064   1.554   4.232
10726SOL    HW133077   5.013   1.607   4.300
10726SOL    HW233078   5.037   1.458   4.238
10727SOL     OW33079   2.061   6.564   5.635
10727SOL    HW133080   2.069   6.661   5.660
10727SOL    HW233081   1.984   6.552   5.572
10728SOL     OW33082   5.018   6.324   0.758
10728SOL    HW133083   5.021   6.406   0.701
10728SOL    HW233084   4.962   6.254   0.712
10729SOL     OW33085   6.496   2.864   1.432
10729SOL    HW133086   6.570   2.901   1.488
10729SOL    HW233087   6.528   2.782   1.384
10730SOL     OW33088   4.677   0.068   2.521
10730SOL    HW133089   4.622   0.098   2.599
10730SOL    HW233090   4.634   0.100   2.436
10731SOL     OW33091   4.691   0.453   1.075
10731SOL    HW133092   4.662   0.358   1.081
10731SOL    HW233093   4.751   0.474   1.152
10732SOL     OW33094   0.493   3.997   5.607
10732SOL    HW133095   0.417   3.999   5.543
10732SOL    HW233096   0.501   4.085   5.653
10733SOL     OW33097   6.432   2.611   6.851
10733SOL    HW133098   6.470   2.526   6.815
10733SOL    HW233099   6.343   2.628   6.809
10734SOL     OW33100   6.980   2.478   1.926
10734SOL    HW133101   6.962   2.572   1.956
10734SOL    HW233102   6.987   2.475   1.827
10735SOL     OW33103   0.008   4.286   2.915
10735SOL    HW133104   6.936   4.322   2.946
10735SOL    HW233105   0.049   4.231   2.987
10736SOL     OW33106   2.593   0.849   3.557
10736SOL    HW133107   2.571   0.943   3.585
10736SOL    HW233108   2.534   0.785   3.605
10737SOL     OW33109   6.731   2.435   1.638
10737SOL    HW133110   6.706   2.341   1.660
10737SOL    HW233111   6.715   2.452   1.540
10738SOL     OW33112   4.315   7.013   3.864
10738SOL    HW133113   4.245   0.059   3.900
10738SOL    HW233114   4.304   7.004   3.765
10739SOL     OW33115   2.034   1.747   1.833
10739SOL    HW133116   2.059   1.838   1.799
10739SOL    HW233117   2.101   1.717   1.900
10740SOL     OW33118   4.863   5.039   3.155
10740SOL    HW133119   4.781   5.091   3.129
10740SOL    HW233120   4.866   4.954   3.101
10741SOL     OW33121   4.036   0.630   3.460
10741SOL    HW133122   4.061   0.599   3.551
10741SOL    HW233123   4.068   0.724   3.446
10742SOL     OW33124   6.777   5.362   0.928
10742SOL    HW133125   6.747   5.282   0.877
10742SOL    HW233126   6.723   5.371   1.012
10743SOL     OW33127   2.499   2.021   5.093
10743SOL    HW133128   2.405   2.038   5.121
10743SOL    HW233129   2.562   2.075   5.149
10744SOL     OW33130   4.569   1.524   0.836
10744SOL    HW133131   4.668   1.524   0.828
10744SOL    HW233132   4.535   1.430   0.842
10745SOL     OW33133   6.562   5.880   5.712
10745SOL    HW133134   6.641   5.820   5.726
10745SOL    HW233135   6.509   5.885   5.797
10746SOL     OW33136   0.475   4.258   5.752
10746SOL    HW133137   0.482   4.340   5.809
10746SOL    HW233138   0.379   4.232   5.741
10747SOL     OW33139   3.081   1.683   4.653
10747SOL    HW133140   3.024   1.601   4.663
10747SOL    HW233141   3.025   1.765   4.666
10748SOL     OW33142   4.967   1.606   2.305
10748SOL    HW133143   5.009   1.573   2.221
10748SOL    HW233144   4.869   1.584   2.304
10749SOL     OW33145   2.157   6.611   6.332
10749SOL    HW133146   2.059   6.617   6.313
10749SOL    HW233147   2.193   6.702   6.351
10750SOL     OW33148   3.998   0.366   6.803
10750SOL    HW133149   3.995   0.351   6.704
10750SOL    HW233150   3.953   0.452   6.825
10751SOL     OW33151   2.302   4.754   3.907
10751SOL    HW133152   2.400   4.761   3.888
10751SOL    HW233153   2.287   4.688   3.981
10752SOL     OW33154   4.666   4.817   3.530
10752SOL    HW133155   4.715   4.903   3.549
10752SOL    HW233156   4.579   4.837   3.487
10753SOL     OW33157   6.649   3.457   4.472
10753SOL    HW133158   6.622   3.538   4.524
10753SOL    HW233159   6.698   3.484   4.389
10754SOL     OW33160   1.715   0.266   2.395
10754SOL    HW133161   1.738   0.325   2.317
10754SOL    HW233162   1.796   0.215   2.423
10755SOL     OW33163   6.695   5.879   2.086
10755SOL    HW133164   6.770   5.820   2.057
10755SOL    HW233165   6.717   5.922   2.173
10756SOL     OW33166   0.426   0.061   5.104
10756SOL    HW133167   0.512   0.100   5.138
10756SOL    HW233168   0.404   6.994   5.158
10757SOL     OW33169   2.704   3.474   1.393
10757SOL    HW133170   2.653   3.560   1.386
10757SOL    HW233171   2.802   3.494   1.396
10758SOL     OW33172   0.640   5.589   4.133
10758SOL    HW133173   0.685   5.502   4.117
10758SOL    HW233174   0.544   5.584   4.104
10759SOL     OW33175   0.082   2.718   6.828
10759SOL    HW133176   7.002   2.688   6.839
10759SOL    HW233177   0.087   2.817   6.839
10760SOL     OW33178   6.125   1.115   3.967
10760SOL    HW133179   6.035   1.070   3.963
10760SOL    HW233180   6.187   1.070   3.903
10761SOL     OW33181   2.739   4.890   5.381
10761SOL    HW133182   2.758   4.793   5.367
10761SOL    HW233183   2.735   4.910   5.479
10762SOL     OW33184   3.489   0.785   4.734
10762SOL    HW133185   3.418   0.841   4.775
10762SOL    HW233186   3.548   0.747   4.806
10763SOL     OW33187   4.348   6.383   3.759
10763SOL    HW133188   4.294   6.418   3.683
10763SOL    HW233189   4.325   6.434   3.842
10764SOL     OW33190   5.390   0.492   5.164
10764SOL    HW133191   5.438   0.492   5.252
10764SOL    HW233192   5.358   0.399   5.145
10765SOL     OW33193   5.269   3.651   1.096
10765SOL    HW133194   5.362   3.666   1.061
10765SOL    HW233195   5.274   3.630   1.194
10766SOL     OW33196   4.223   2.956   1.504
10766SOL    HW133197   4.197   2.865   1.539
10766SOL    HW233198   4.146   2.996   1.455
10767SOL     OW33199   3.761   1.351   2.190
10767SOL    HW133200   3.742   1.259   2.156
10767SOL    HW233201   3.704   1.417   2.141
10768SOL     OW33202   6.377   4.709   0.658
10768SOL    HW133203   6.280   4.730   0.644
10768SOL    HW233204   6.424   4.792   0.689
10769SOL     OW33205   1.864   4.188   5.718
10769SOL    HW133206   1.796   4.115   5.729
10769SOL    HW233207   1.833   4.251   5.646
10770SOL     OW33208   4.318   5.997   3.970
10770SOL    HW133209   4.354   6.046   3.890
10770SOL    HW233210   4.286   5.906   3.942
10771SOL     OW33211   2.538   1.359   3.209
10771SOL    HW133212   2.448   1.402   3.203
10771SOL    HW233213   2.557   1.335   3.304
10772SOL     OW33214   5.426   5.300   3.931
10772SOL    HW133215   5.453   5.260   4.019
10772SOL    HW233216   5.379   5.231   3.876
10773SOL     OW33217   5.260   4.581   3.509
10773SOL    HW133218   5.309   4.522   3.445
10773SOL    HW233219   5.180   4.532   3.544
10774SOL     OW33220   1.002   0.634   3.627
10774SOL    HW133221   0.909   0.663   3.607
10774SOL    HW233222   1.000   0.562   3.697
10775SOL     OW33223   0.614   3.607   2.161
10775SOL    HW133224   0.694   3.668   2.165
10775SOL    HW233225   0.573   3.614   2.070
10776SOL     OW33226   1.582   0.013   6.768
10776SOL    HW133227   1.610   6.962   6.838
10776SOL    HW233228   1.663   0.057   6.730
10777SOL     OW33229   2.568   5.772   1.198
10777SOL    HW133230   2.536   5.857   1.157
10777SOL    HW233231   2.602   5.711   1.127
10778SOL     OW33232   5.945   5.572   2.871
10778SOL    HW133233   5.928   5.660   2.827
10778SOL    HW233234   6.030   5.533   2.835
10779SOL     OW33235   5.209   2.448   3.452
10779SOL    HW133236   5.161   2.482   3.533
10779SOL    HW233237   5.147   2.449   3.374
10780SOL     OW33238   0.229   0.408   2.733
10780SOL    HW133239   0.139   0.377   2.704
10780SOL    HW233240   0.219   0.487   2.794
10781SOL     OW33241   3.512   0.264   4.722
10781SOL    HW133242   3.572   0.232   4.649
10781SOL    HW233243   3.456   0.188   4.755
10782SOL     OW33244   6.361   5.766   3.981
10782SOL    HW133245   6.342   5.670   3.960
10782SOL    HW233246   6.457   5.786   3.963
10783SOL     OW33247   6.920   2.057   3.063
10783SOL    HW133248   6.941   2.010   2.977
10783SOL    HW233249   6.897   1.989   3.133
10784SOL     OW33250   3.135   1.410   4.328
10784SOL    HW133251   3.084   1.495   4.343
10784SOL    HW233252   3.074   1.340   4.292
10785SOL     OW33253   1.060   3.607   6.205
10785SOL    HW133254   1.030   3.691   6.249
10785SOL    HW233255   1.066   3.621   6.106
10786SOL     OW33256   0.690   5.006   3.229
10786SOL    HW133257   0.645   5.088   3.195
10786SOL    HW233258   0.655   4.926   3.180
10787SOL     OW33259   1.544   1.988   6.175
10787SOL    HW133260   1.624   1.934   6.147
10787SOL    HW233261   1.547   2.077   6.129
10788SOL     OW33262   5.791   4.087   6.398
10788SOL    HW133263   5.815   4.116   6.305
10788SOL    HW233264   5.854   4.015   6.427
10789SOL     OW33265   6.217   1.650   0.349
10789SOL    HW133266   6.155   1.663   0.271
10789SOL    HW233267   6.239   1.553   0.358
10790SOL     OW33268   0.091   6.116   3.001
10790SOL    HW133269   0.055   6.025   3.021
10790SOL    HW233270   0.053   6.149   2.915
10791SOL     OW33271   0.653   6.498   3.084
10791SOL    HW133272   0.751   6.519   3.086
10791SOL    HW233273   0.604   6.574   3.041
10792SOL     OW33274   4.015   4.185   5.224
10792SOL    HW133275   4.092   4.247   5.208
10792SOL    HW233276   3.937   4.237   5.260
10793SOL     OW33277   5.524   3.394   4.430
10793SOL    HW133278   5.595   3.325   4.444
10793SOL    HW233279   5.564   3.477   4.391
10794SOL     OW33280   3.025   3.732   3.646
10794SOL    HW133281   3.121   3.753   3.624
10794SOL    HW233282   3.020   3.693   3.737
10795SOL     OW33283   0.304   4.085   3.544
10795SOL    HW133284   0.334   4.001   3.498
10795SOL    HW233285   0.206   4.080   3.561
10796SOL     OW33286   1.641   5.909   4.913
10796SOL    HW133287   1.681   5.844   4.977
10796SOL    HW233288   1.564   5.956   4.956
10797SOL     OW33289   3.829   2.770   0.655
10797SOL    HW133290   3.883   2.811   0.729
10797SOL    HW233291   3.793   2.843   0.596
10798SOL     OW33292   6.793   1.702   0.590
10798SOL    HW133293   6.694   1.717   0.586
10798SOL    HW233294   6.827   1.729   0.680
10799SOL     OW33295   3.850   1.650   1.683
10799SOL    HW133296   3.876   1.630   1.588
10799SOL    HW233297   3.821   1.566   1.728
10800SOL     OW33298   1.329   0.173   1.444
10800SOL    HW133299   1.410   0.231   1.453
10800SOL    HW233300   1.323   0.138   1.351
10801SOL     OW33301   1.616   0.609   1.252
10801SOL    HW133302   1.535   0.663   1.232
10801SOL    HW233303   1.592   0.537   1.318
10802SOL     OW33304   6.626   0.397   3.385
10802SOL    HW133305   6.599   0.321   3.443
10802SOL    HW233306   6.641   0.478   3.441
10803SOL     OW33307   2.236   5.240   6.502
10803SOL    HW133308   2.319   5.186   6.500
10803SOL    HW233309   2.258   5.336   6.482
10804SOL     OW33310   6.976   3.479   4.340
10804SOL    HW133311   6.962   3.416   4.416
10804SOL    HW233312   6.888   3.500   4.297
10805SOL     OW33313   6.660   1.552   5.717
10805SOL    HW133314   6.629   1.555   5.622
10805SOL    HW233315   6.760   1.556   5.720
10806SOL     OW33316   1.788   5.017   0.065
10806SOL    HW133317   1.773   5.102   0.015
10806SOL    HW233318   1.746   4.941   0.016
10807SOL     OW33319   2.804   6.557   4.998
10807SOL    HW133320   2.776   6.463   5.017
10807SOL    HW233321   2.889   6.557   4.946
10808SOL     OW33322   0.566   3.104   6.153
10808SOL    HW133323   0.559   3.027   6.089
10808SOL    HW233324   0.491   3.168   6.135
10809SOL     OW33325   2.202   0.205   4.303
10809SOL    HW133326   2.173   0.274   4.370
10809SOL    HW233327   2.128   0.139   4.290
10810SOL     OW33328   6.867   0.135   4.551
10810SOL    HW133329   6.925   0.172   4.624
10810SOL    HW233330   6.773   0.169   4.563
10811SOL     OW33331   5.171   4.945   4.970
10811SOL    HW133332   5.188   5.022   5.031
10811SOL    HW233333   5.258   4.910   4.936
10812SOL     OW33334   6.138   2.548   0.427
10812SOL    HW133335   6.237   2.535   0.422
10812SOL    HW233336   6.093   2.460   0.421
10813SOL     OW33337   0.039   4.109   5.949
10813SOL    HW133338   6.998   4.069   6.020
10813SOL    HW233339   0.116   4.048   5.929
10814SOL     OW33340   2.790   0.934   1.232
10814SOL    HW133341   2.888   0.918   1.226
10814SOL    HW233342   2.761   0.995   1.158
10815SOL     OW33343   5.267   1.027   4.719
10815SOL    HW133344   5.214   0.943   4.709
10815SOL    HW233345   5.311   1.028   4.809
10816SOL     OW33346   4.144   3.522   4.450
10816SOL    HW133347   4.056   3.530   4.498
10816SOL    HW233348   4.190   3.611   4.452
10817SOL     OW33349   2.334   6.305   3.652
10817SOL    HW133350   2.312   6.285   3.557
10817SOL    HW233351   2.420   6.356   3.656
10818SOL     OW33352   3.687   4.507   6.908
10818SOL    HW133353   3.692   4.426   6.967
10818SOL    HW233354   3.764   4.507   6.845
10819SOL     OW33355   6.673   6.638   5.306
10819SOL    HW133356   6.707   6.707   5.371
10819SOL    HW233357   6.751   6.589   5.267
10820SOL     OW33358   2.077   4.292   6.288
10820SOL    HW133359   2.108   4.253   6.201
10820SOL    HW233360   2.100   4.389   6.290
10821SOL     OW33361   4.878   5.730   3.038
10821SOL    HW133362   4.892   5.632   3.021
10821SOL    HW233363   4.782   5.747   3.058
10822SOL     OW33364   5.113   1.304   2.318
10822SOL    HW133365   5.026   1.256   2.311
10822SOL    HW233366   5.111   1.368   2.395
10823SOL     OW33367   5.170   6.764   1.523
10823SOL    HW133368   5.171   6.827   1.601
10823SOL    HW233369   5.091   6.703   1.531
10824SOL     OW33370   0.947   2.751   3.367
10824SOL    HW133371   1.000   2.747   3.452
10824SOL    HW233372   0.876   2.821   3.375
10825SOL     OW33373   0.666   2.223   0.336
10825SOL    HW133374   0.642   2.133   0.374
10825SOL    HW233375   0.755   2.217   0.291
10826SOL     OW33376   0.422   3.247   2.815
10826SOL    HW133377   0.431   3.148   2.823
10826SOL    HW233378   0.392   3.271   2.723
10827SOL     OW33379   6.520   4.040   4.612
10827SOL    HW133380   6.550   4.029   4.517
10827SOL    HW233381   6.451   3.971   4.633
10828SOL     OW33382   6.184   4.576   5.169
10828SOL    HW133383   6.135   4.514   5.231
10828SOL    HW233384   6.274   4.537   5.149
10829SOL     OW33385   3.475   2.833   4.920
10829SOL    HW133386   3.485   2.873   5.011
10829SOL    HW233387   3.442   2.739   4.929
10830SOL     OW33388   4.122   2.217   3.379
10830SOL    HW133389   4.031   2.195   3.415
10830SOL    HW233390   4.171   2.273   3.445
10831SOL     OW33391   4.118   0.255   3.889
10831SOL    HW133392   4.142   0.318   3.815
10831SOL    HW233393   4.143   0.296   3.977
10832SOL     OW33394   6.630   3.642   0.381
10832SOL    HW133395   6.532   3.624   0.390
10832SOL    HW233396   6.645   3.706   0.305
10833SOL     OW33397   0.669   1.067   6.556
10833SOL    HW133398   0.590   1.009   6.577
10833SOL    HW233399   0.679   1.136   6.628
10834SOL     OW33400   6.241   6.410   1.456
10834SOL    HW133401   6.156   6.419   1.508
10834SOL    HW233402   6.226   6.446   1.363
10835SOL     OW33403   0.331   2.069   5.497
10835SOL    HW133404   0.280   2.142   5.542
10835SOL    HW233405   0.306   1.981   5.539
10836SOL     OW33406   0.074   1.041   4.069
10836SOL    HW133407   0.114   1.132   4.065
10836SOL    HW233408   0.033   1.018   3.981
10837SOL     OW33409   0.611   3.063   2.510
10837SOL    HW133410   0.550   3.090   2.436
10837SOL    HW233411   0.571   2.987   2.561
10838SOL     OW33412   0.551   5.925   2.052
10838SOL    HW133413   0.619   5.853   2.037
10838SOL    HW233414   0.591   6.013   2.027
10839SOL     OW33415   5.101   2.703   0.787
10839SOL    HW133416   5.083   2.613   0.828
10839SOL    HW233417   5.094   2.773   0.858
10840SOL     OW33418   2.508   0.091   1.876
10840SOL    HW133419   2.483   0.002   1.837
10840SOL    HW233420   2.428   0.133   1.918
10841SOL     OW33421   2.202   5.177   4.602
10841SOL    HW133422   2.176   5.091   4.559
10841SOL    HW233423   2.208   5.165   4.702
10842SOL     OW33424   5.217   4.274   1.340
10842SOL    HW133425   5.246   4.187   1.378
10842SOL    HW233426   5.161   4.323   1.406
10843SOL     OW33427   2.448   2.164   1.415
10843SOL    HW133428   2.532   2.219   1.405
10843SOL    HW233429   2.386   2.210   1.478
10844SOL     OW33430   1.388   5.193   5.035
10844SOL    HW133431   1.324   5.269   5.044
10844SOL    HW233432   1.435   5.178   5.122
10845SOL     OW33433   3.906   0.637   4.992
10845SOL    HW133434   3.962   0.622   4.911
10845SOL    HW233435   3.956   0.607   5.074
10846SOL     OW33436   5.225   0.147   6.733
10846SOL    HW133437   5.271   0.134   6.645
10846SOL    HW233438   5.153   0.079   6.743
10847SOL     OW33439   2.985   0.626   6.365
10847SOL    HW133440   3.083   0.614   6.383
10847SOL    HW233441   2.973   0.690   6.290
10848SOL     OW33442   1.823   4.935   2.240
10848SOL    HW133443   1.920   4.920   2.260
10848SOL    HW233444   1.792   4.869   2.173
10849SOL     OW33445   2.343   6.769   3.412
10849SOL    HW133446   2.408   6.755   3.486
10849SOL    HW233447   2.332   6.684   3.361
10850SOL     OW33448   3.827   4.929   0.894
10850SOL    HW133449   3.750   4.951   0.955
10850SOL    HW233450   3.791   4.898   0.806
10851SOL     OW33451   1.640   4.532   0.295
10851SOL    HW133452   1.653   4.525   0.196
10851SOL    HW233453   1.641   4.441   0.336
10852SOL     OW33454   2.307   1.640   2.602
10852SOL    HW133455   2.321   1.574   2.676
10852SOL    HW233456   2.396   1.668   2.565
10853SOL     OW33457   3.395   1.442   6.306
10853SOL    HW133458   3.441   1.458   6.218
10853SOL    HW233459   3.357   1.349   6.307
10854SOL     OW33460   2.832   6.929   5.113
10854SOL    HW133461   2.844   6.854   5.179
10854SOL    HW233462   2.735   6.935   5.088
10855SOL     OW33463   3.797   1.413   0.052
10855SOL    HW133464   3.800   1.425   6.968
10855SOL    HW233465   3.819   1.500   0.096
10856SOL     OW33466   0.266   1.115   0.499
10856SOL    HW133467   0.314   1.170   0.568
10856SOL    HW233468   0.168   1.123   0.513
10857SOL     OW33469   6.641   2.291   2.390
10857SOL    HW133470   6.541   2.291   2.396
10857SOL    HW233471   6.669   2.337   2.306
10858SOL     OW33472   2.679   6.422   1.874
10858SOL    HW133473   2.594   6.430   1.927
10858SOL    HW233474   2.660   6.376   1.788
10859SOL     OW33475   1.987   5.487   3.442
10859SOL    HW133476   1.939   5.471   3.528
10859SOL    HW233477   2.015   5.583   3.437
10860SOL     OW33478   6.796   3.363   3.170
10860SOL    HW133479   6.868   3.335   3.233
10860SOL    HW233480   6.768   3.285   3.114
10861SOL     OW33481   3.703   2.968   4.792
10861SOL    HW133482   3.732   2.962   4.696
10861SOL    HW233483   3.622   2.911   4.806
10862SOL     OW33484   0.794   0.392   4.649
10862SOL    HW133485   0.851   0.401   4.567
10862SOL    HW233486   0.698   0.380   4.621
10863SOL     OW33487   2.732   6.062   4.463
10863SOL    HW133488   2.817   6.012   4.475
10863SOL    HW233489   2.716   6.121   4.542
10864SOL     OW33490   3.868   6.150   3.470
10864SOL    HW133491   3.877   6.190   3.379
10864SOL    HW233492   3.779   6.173   3.508
10865SOL     OW33493   6.277   1.809   5.883
10865SOL    HW133494   6.334   1.808   5.801
10865SOL    HW233495   6.309   1.738   5.946
10866SOL     OW33496   4.880   5.065   1.018
10866SOL    HW133497   4.970   5.094   1.052
10866SOL    HW233498   4.841   4.998   1.081
10867SOL     OW33499   2.959   2.101   0.074
10867SOL    HW133500   2.990   2.046   0.152
10867SOL    HW233501   3.037   2.153   0.038
10868SOL     OW33502   2.535   2.054   2.873
10868SOL    HW133503   2.557   2.151   2.884
10868SOL    HW233504   2.560   2.004   2.956
10869NA      NA33505   6.280   2.514   5.820
10870NA      NA33506   4.560   4.617   5.088
10871NA      NA33507   2.236   3.424   1.675
10872NA      NA33508   4.873   3.765   5.197
10873NA      NA33509   4.287   2.430   5.271
10874NA      NA33510   3.821   4.795   1.735
10875NA      NA33511   6.591   5.900   4.568
10876NA      NA33512   3.686   3.885   5.182
10877NA      NA33513   4.469   0.161   6.869
10878NA      NA33514   3.268   0.337   5.004
10879NA      NA33515   0.065   5.109   2.734
10880NA      NA33516   2.929   0.539   2.755
10881NA      NA33517   3.740   4.028   1.413
10882NA      NA33518   3.953   3.528   3.007
   7.01534   7.01534   7.01534
