Generated by trjconv : CNT in water t= 314.00000
33518
    1C        C    1   2.838   2.766   4.747
    1C        C    2   2.897   2.721   4.867
    1C        C    3   2.847   2.777   4.986
    1C        C    4   2.844   2.770   4.263
    1C        C    5   2.900   2.725   4.384
    1C        C    6   2.844   2.772   4.506
    1C        C    7   3.009   2.637   4.625
    1C        C    8   2.894   2.718   4.627
    1C        C    9   3.074   2.600   4.745
    1C        C   10   3.006   2.632   4.864
    1C        C   11   3.181   2.501   4.978
    1C        C   12   3.056   2.563   4.976
    1C        C   13   2.851   2.774   3.772
    1C        C   14   2.901   2.724   3.894
    1C        C   15   2.854   2.775   4.017
    1C        C   16   3.018   2.647   4.138
    1C        C   17   2.902   2.728   4.141
    1C        C   18   3.081   2.618   4.261
    1C        C   19   3.018   2.647   4.383
    1C        C   20   3.207   2.552   4.503
    1C        C   21   3.076   2.606   4.505
    1C        C   22   3.278   2.534   4.624
    1C        C   23   3.207   2.547   4.745
    1C        C   24   3.412   2.488   4.866
    1C        C   25   3.270   2.506   4.865
    1C        C   26   3.490   2.478   4.982
    1C        C   27   2.851   2.770   3.282
    1C        C   28   2.905   2.723   3.404
    1C        C   29   2.853   2.772   3.527
    1C        C   30   3.021   2.646   3.652
    1C        C   31   2.908   2.731   3.651
    1C        C   32   3.082   2.608   3.773
    1C        C   33   3.019   2.646   3.894
    1C        C   34   3.210   2.554   4.019
    1C        C   35   3.080   2.611   4.016
    1C        C   36   3.279   2.537   4.141
    1C        C   37   3.212   2.564   4.262
    1C        C   38   3.419   2.517   4.384
    1C        C   39   3.279   2.534   4.383
    1C        C   40   3.491   2.510   4.505
    1C        C   41   3.418   2.514   4.626
    1C        C   42   3.630   2.497   4.749
    1C        C   43   3.488   2.490   4.747
    1C        C   44   3.707   2.489   4.867
    1C        C   45   3.629   2.478   4.983
    1C        C   46   2.843   2.760   2.795
    1C        C   47   2.898   2.715   2.918
    1C        C   48   2.845   2.767   3.038
    1C        C   49   3.016   2.638   3.165
    1C        C   50   2.902   2.722   3.160
    1C        C   51   3.082   2.607   3.285
    1C        C   52   3.021   2.643   3.407
    1C        C   53   3.210   2.549   3.529
    1C        C   54   3.081   2.607   3.530
    1C        C   55   3.275   2.526   3.652
    1C        C   56   3.210   2.548   3.775
    1C        C   57   3.418   2.511   3.900
    1C        C   58   3.278   2.532   3.898
    1C        C   59   3.490   2.501   4.021
    1C        C   60   3.417   2.508   4.142
    1C        C   61   3.631   2.500   4.260
    1C        C   62   3.490   2.505   4.263
    1C        C   63   3.703   2.508   4.382
    1C        C   64   3.632   2.504   4.503
    1C        C   65   3.837   2.545   4.624
    1C        C   66   3.700   2.507   4.627
    1C        C   67   3.906   2.567   4.746
    1C        C   68   3.843   2.528   4.866
    1C        C   69   4.057   2.581   4.977
    1C        C   70   3.924   2.535   4.980
    1C        C   71   2.828   2.733   2.311
    1C        C   72   2.886   2.692   2.433
    1C        C   73   2.833   2.745   2.553
    1C        C   74   3.009   2.625   2.675
    1C        C   75   2.895   2.708   2.674
    1C        C   76   3.076   2.600   2.797
    1C        C   77   3.015   2.636   2.919
    1C        C   78   3.204   2.545   3.038
    1C        C   79   3.075   2.601   3.042
    1C        C   80   3.275   2.527   3.159
    1C        C   81   3.211   2.547   3.284
    1C        C   82   3.416   2.501   3.406
    1C        C   83   3.276   2.523   3.406
    1C        C   84   3.483   2.500   3.530
    1C        C   85   3.415   2.503   3.654
    1C        C   86   3.627   2.501   3.771
    1C        C   87   3.486   2.499   3.776
    1C        C   88   3.699   2.510   3.892
    1C        C   89   3.631   2.501   4.015
    1C        C   90   3.838   2.544   4.137
    1C        C   91   3.700   2.514   4.138
    1C        C   92   3.903   2.572   4.259
    1C        C   93   3.838   2.550   4.383
    1C        C   94   4.033   2.633   4.497
    1C        C   95   3.907   2.571   4.505
    1C        C   96   4.092   2.672   4.620
    1C        C   97   4.031   2.634   4.741
    1C        C   98   4.197   2.761   4.859
    1C        C   99   4.103   2.653   4.862
    1C        C  100   4.223   2.833   4.976
    1C        C  101   2.818   2.723   2.070
    1C        C  102   2.991   2.594   2.191
    1C        C  103   2.875   2.677   2.189
    1C        C  104   3.061   2.570   2.312
    1C        C  105   3.003   2.612   2.433
    1C        C  106   3.201   2.532   2.551
    1C        C  107   3.069   2.582   2.554
    1C        C  108   3.271   2.513   2.673
    1C        C  109   3.206   2.545   2.794
    1C        C  110   3.411   2.495   2.915
    1C        C  111   3.273   2.523   2.916
    1C        C  112   3.483   2.493   3.037
    1C        C  113   3.413   2.500   3.160
    1C        C  114   3.625   2.496   3.280
    1C        C  115   3.484   2.495   3.282
    1C        C  116   3.693   2.511   3.403
    1C        C  117   3.624   2.507   3.526
    1C        C  118   3.834   2.540   3.646
    1C        C  119   3.696   2.509   3.648
    1C        C  120   3.901   2.566   3.767
    1C        C  121   3.836   2.546   3.891
    1C        C  122   4.026   2.639   4.011
    1C        C  123   3.903   2.569   4.013
    1C        C  124   4.087   2.675   4.133
    1C        C  125   4.028   2.639   4.256
    1C        C  126   4.202   2.764   4.374
    1C        C  127   4.092   2.676   4.376
    1C        C  128   4.247   2.820   4.496
    1C        C  129   4.197   2.767   4.616
    1C        C  130   4.327   2.936   4.739
    1C        C  131   4.243   2.821   4.738
    1C        C  132   4.351   3.007   4.859
    1C        C  133   4.284   2.958   4.971
    1C        C  134   3.173   2.469   2.082
    1C        C  135   3.041   2.516   2.081
    1C        C  136   3.260   2.478   2.192
    1C        C  137   3.192   2.515   2.310
    1C        C  138   3.406   2.481   2.427
    1C        C  139   3.267   2.503   2.430
    1C        C  140   3.480   2.480   2.548
    1C        C  141   3.411   2.494   2.671
    1C        C  142   3.623   2.495   2.790
    1C        C  143   3.482   2.486   2.793
    1C        C  144   3.693   2.511   2.912
    1C        C  145   3.624   2.499   3.035
    1C        C  146   3.829   2.545   3.157
    1C        C  147   3.694   2.503   3.157
    1C        C  148   3.896   2.570   3.278
    1C        C  149   3.831   2.542   3.401
    1C        C  150   4.026   2.625   3.523
    1C        C  151   3.900   2.560   3.522
    1C        C  152   4.079   2.674   3.644
    1C        C  153   4.021   2.641   3.769
    1C        C  154   4.197   2.764   3.889
    1C        C  155   4.084   2.679   3.889
    1C        C  156   4.251   2.812   4.011
    1C        C  157   4.199   2.762   4.132
    1C        C  158   4.343   2.922   4.251
    1C        C  159   4.255   2.811   4.252
    1C        C  160   4.373   2.988   4.372
    1C        C  161   4.329   2.935   4.496
    1C        C  162   4.443   3.114   4.615
    1C        C  163   4.373   2.991   4.618
    1C        C  164   4.467   3.184   4.736
    1C        C  165   4.434   3.121   4.858
    1C        C  166   4.526   3.320   4.976
    1C        C  167   4.477   3.190   4.973
    1C        C  168   3.480   2.443   2.074
    1C        C  169   3.400   2.460   2.188
    1C        C  170   3.619   2.469   2.306
    1C        C  171   3.477   2.467   2.306
    1C        C  172   3.693   2.487   2.425
    1C        C  173   3.621   2.487   2.546
    1C        C  174   3.829   2.537   2.667
    1C        C  175   3.691   2.505   2.667
    1C        C  176   3.896   2.566   2.788
    1C        C  177   3.829   2.549   2.911
    1C        C  178   4.024   2.626   3.032
    1C        C  179   3.896   2.567   3.034
    1C        C  180   4.082   2.665   3.155
    1C        C  181   4.025   2.629   3.279
    1C        C  182   4.196   2.753   3.401
    1C        C  183   4.088   2.662   3.401
    1C        C  184   4.244   2.807   3.522
    1C        C  185   4.190   2.762   3.644
    1C        C  186   4.339   2.917   3.763
    1C        C  187   4.246   2.810   3.765
    1C        C  188   4.376   2.979   3.884
    1C        C  189   4.336   2.925   4.008
    1C        C  190   4.448   3.107   4.128
    1C        C  191   4.381   2.982   4.129
    1C        C  192   4.472   3.175   4.250
    1C        C  193   4.439   3.113   4.373
    1C        C  194   4.511   3.314   4.492
    1C        C  195   4.473   3.178   4.493
    1C        C  196   4.521   3.386   4.613
    1C        C  197   4.511   3.319   4.737
    1C        C  198   4.552   3.534   4.853
    1C        C  199   4.539   3.391   4.856
    1C        C  200   4.584   3.620   4.962
    1C        C  201   3.619   2.427   2.069
    1C        C  202   3.828   2.513   2.183
    1C        C  203   3.695   2.460   2.186
    1C        C  204   3.902   2.536   2.303
    1C        C  205   3.830   2.521   2.424
    1C        C  206   4.024   2.616   2.544
    1C        C  207   3.897   2.554   2.544
    1C        C  208   4.081   2.662   2.664
    1C        C  209   4.025   2.623   2.788
    1C        C  210   4.194   2.752   2.909
    1C        C  211   4.083   2.665   2.909
    1C        C  212   4.247   2.800   3.031
    1C        C  213   4.192   2.753   3.153
    1C        C  214   4.334   2.908   3.273
    1C        C  215   4.242   2.800   3.276
    1C        C  216   4.367   2.972   3.395
    1C        C  217   4.328   2.921   3.520
    1C        C  218   4.433   3.107   3.640
    1C        C  219   4.375   2.978   3.641
    1C        C  220   4.464   3.171   3.761
    1C        C  221   4.443   3.103   3.884
    1C        C  222   4.503   3.308   4.004
    1C        C  223   4.473   3.170   4.004
    1C        C  224   4.515   3.381   4.124
    1C        C  225   4.507   3.311   4.247
    1C        C  226   4.526   3.523   4.367
    1C        C  227   4.522   3.382   4.369
    1C        C  228   4.523   3.597   4.487
    1C        C  229   4.529   3.527   4.610
    1C        C  230   4.510   3.741   4.725
    1C        C  231   4.541   3.602   4.729
    1C        C  232   4.498   3.819   4.842
    1C        C  233   4.546   3.755   4.958
    1C        C  234   4.015   2.611   2.062
    1C        C  235   3.894   2.544   2.063
    1C        C  236   4.081   2.649   2.180
    1C        C  237   4.027   2.603   2.303
    1C        C  238   4.198   2.739   2.422
    1C        C  239   4.087   2.651   2.422
    1C        C  240   4.254   2.788   2.543
    1C        C  241   4.196   2.745   2.664
    1C        C  242   4.337   2.906   2.784
    1C        C  243   4.246   2.798   2.786
    1C        C  244   4.375   2.968   2.905
    1C        C  245   4.334   2.911   3.027
    1C        C  246   4.434   3.094   3.150
    1C        C  247   4.374   2.966   3.151
    1C        C  248   4.457   3.163   3.271
    1C        C  249   4.430   3.099   3.394
    1C        C  250   4.491   3.304   3.513
    1C        C  251   4.458   3.166   3.514
    1C        C  252   4.507   3.374   3.634
    1C        C  253   4.502   3.307   3.759
    1C        C  254   4.520   3.519   3.877
    1C        C  255   4.513   3.378   3.881
    1C        C  256   4.517   3.590   3.999
    1C        C  257   4.519   3.522   4.123
    1C        C  258   4.498   3.733   4.243
    1C        C  259   4.521   3.593   4.245
    1C        C  260   4.475   3.804   4.362
    1C        C  261   4.489   3.734   4.484
    1C        C  262   4.436   3.942   4.602
    1C        C  263   4.480   3.807   4.605
    1C        C  264   4.399   4.008   4.721
    1C        C  265   4.434   3.944   4.842
    1C        C  266   4.317   4.129   4.959
    1C        C  267   4.388   4.009   4.957
    1C        C  268   4.263   2.774   2.067
    1C        C  269   4.194   2.733   2.181
    1C        C  270   4.345   2.892   2.299
    1C        C  271   4.250   2.786   2.299
    1C        C  272   4.389   2.953   2.419
    1C        C  273   4.347   2.893   2.540
    1C        C  274   4.444   3.085   2.663
    1C        C  275   4.381   2.959   2.661
    1C        C  276   4.472   3.155   2.783
    1C        C  277   4.446   3.091   2.906
    1C        C  278   4.498   3.296   3.026
    1C        C  279   4.464   3.159   3.028
    1C        C  280   4.505   3.369   3.147
    1C        C  281   4.492   3.300   3.270
    1C        C  282   4.519   3.513   3.389
    1C        C  283   4.507   3.372   3.390
    1C        C  284   4.522   3.585   3.511
    1C        C  285   4.516   3.515   3.634
    1C        C  286   4.498   3.729   3.755
    1C        C  287   4.516   3.588   3.754
    1C        C  288   4.484   3.799   3.876
    1C        C  289   4.499   3.730   3.999
    1C        C  290   4.430   3.933   4.119
    1C        C  291   4.481   3.801   4.120
    1C        C  292   4.394   3.998   4.238
    1C        C  293   4.423   3.936   4.362
    1C        C  294   4.327   4.127   4.482
    1C        C  295   4.401   4.007   4.482
    1C        C  296   4.285   4.189   4.602
    1C        C  297   4.329   4.132   4.723
    1C        C  298   4.203   4.315   4.837
    1C        C  299   4.282   4.195   4.841
    1C        C  300   4.171   4.403   4.945
    1C        C  301   4.349   2.884   2.062
    1C        C  302   4.466   3.071   2.173
    1C        C  303   4.397   2.945   2.178
    1C        C  304   4.489   3.139   2.296
    1C        C  305   4.455   3.078   2.418
    1C        C  306   4.513   3.283   2.537
    1C        C  307   4.475   3.147   2.540
    1C        C  308   4.518   3.358   2.657
    1C        C  309   4.500   3.293   2.782
    1C        C  310   4.523   3.505   2.900
    1C        C  311   4.510   3.365   2.903
    1C        C  312   4.521   3.578   3.021
    1C        C  313   4.514   3.510   3.145
    1C        C  314   4.489   3.720   3.265
    1C        C  315   4.517   3.582   3.266
    1C        C  316   4.478   3.790   3.387
    1C        C  317   4.494   3.723   3.510
    1C        C  318   4.436   3.929   3.630
    1C        C  319   4.478   3.795   3.631
    1C        C  320   4.405   3.993   3.752
    1C        C  321   4.433   3.930   3.876
    1C        C  322   4.321   4.114   3.993
    1C        C  323   4.398   3.995   3.996
    1C        C  324   4.280   4.173   4.114
    1C        C  325   4.322   4.120   4.238
    1C        C  326   4.186   4.284   4.354
    1C        C  327   4.287   4.185   4.359
    1C        C  328   4.137   4.341   4.474
    1C        C  329   4.190   4.293   4.596
    1C        C  330   4.025   4.435   4.713
    1C        C  331   4.140   4.351   4.714
    1C        C  332   3.971   4.495   4.828
    1C        C  333   4.056   4.482   4.939
    1C        C  334   4.544   3.272   2.061
    1C        C  335   4.527   3.133   2.060
    1C        C  336   4.535   3.351   2.176
    1C        C  337   4.512   3.280   2.296
    1C        C  338   4.530   3.495   2.413
    1C        C  339   4.521   3.354   2.416
    1C        C  340   4.530   3.570   2.532
    1C        C  341   4.524   3.499   2.654
    1C        C  342   4.492   3.710   2.774
    1C        C  343   4.517   3.571   2.775
    1C        C  344   4.482   3.783   2.895
    1C        C  345   4.500   3.718   3.019
    1C        C  346   4.433   3.920   3.142
    1C        C  347   4.473   3.785   3.140
    1C        C  348   4.403   3.989   3.262
    1C        C  349   4.434   3.925   3.384
    1C        C  350   4.324   4.107   3.505
    1C        C  351   4.403   3.990   3.506
    1C        C  352   4.279   4.161   3.627
    1C        C  353   4.322   4.107   3.750
    1C        C  354   4.188   4.276   3.869
    1C        C  355   4.281   4.169   3.870
    1C        C  356   4.130   4.321   3.990
    1C        C  357   4.184   4.277   4.113
    1C        C  358   4.013   4.407   4.231
    1C        C  359   4.130   4.329   4.233
    1C        C  360   3.955   4.451   4.352
    1C        C  361   4.019   4.419   4.474
    1C        C  362   3.827   4.519   4.594
    1C        C  363   3.957   4.463   4.593
    1C        C  364   3.761   4.550   4.715
    1C        C  365   3.839   4.544   4.833
    1C        C  366   3.629   4.594   4.952
    1C        C  367   3.766   4.570   4.949
    1C        C  368   4.513   3.566   2.053
    1C        C  369   4.523   3.491   2.172
    1C        C  370   4.505   3.707   2.286
    1C        C  371   4.520   3.566   2.291
    1C        C  372   4.489   3.778   2.407
    1C        C  373   4.506   3.710   2.529
    1C        C  374   4.437   3.912   2.652
    1C        C  375   4.484   3.779   2.650
    1C        C  376   4.404   3.979   2.772
    1C        C  377   4.432   3.915   2.895
    1C        C  378   4.323   4.095   3.015
    1C        C  379   4.405   3.981   3.018
    1C        C  380   4.277   4.157   3.134
    1C        C  381   4.320   4.103   3.258
    1C        C  382   4.183   4.262   3.378
    1C        C  383   4.277   4.156   3.381
    1C        C  384   4.132   4.313   3.500
    1C        C  385   4.183   4.265   3.623
    1C        C  386   4.011   4.388   3.742
    1C        C  387   4.133   4.316   3.745
    1C        C  388   3.948   4.426   3.862
    1C        C  389   4.009   4.395   3.986
    1C        C  390   3.819   4.487   4.108
    1C        C  391   3.950   4.435   4.108
    1C        C  392   3.753   4.514   4.229
    1C        C  393   3.826   4.509   4.350
    1C        C  394   3.620   4.563   4.470
    1C        C  395   3.759   4.536   4.471
    1C        C  396   3.549   4.574   4.592
    1C        C  397   3.621   4.566   4.714
    1C        C  398   3.413   4.555   4.840
    1C        C  399   3.552   4.581   4.836
    1C        C  400   3.344   4.515   4.956
    1C        C  401   4.509   3.705   2.054
    1C        C  402   4.458   3.920   2.167
    1C        C  403   4.499   3.785   2.169
    1C        C  404   4.413   3.980   2.287
    1C        C  405   4.434   3.909   2.407
    1C        C  406   4.331   4.093   2.528
    1C        C  407   4.407   3.974   2.529
    1C        C  408   4.282   4.148   2.648
    1C        C  409   4.325   4.095   2.772
    1C        C  410   4.181   4.253   2.888
    1C        C  411   4.278   4.151   2.893
    1C        C  412   4.122   4.296   3.010
    1C        C  413   4.175   4.254   3.134
    1C        C  414   4.003   4.375   3.253
    1C        C  415   4.125   4.303   3.257
    1C        C  416   3.943   4.412   3.376
    1C        C  417   4.012   4.387   3.497
    1C        C  418   3.819   4.473   3.619
    1C        C  419   3.952   4.424   3.619
    1C        C  420   3.752   4.502   3.739
    1C        C  421   3.820   4.484   3.862
    1C        C  422   3.614   4.530   3.984
    1C        C  423   3.754   4.510   3.984
    1C        C  424   3.542   4.539   4.105
    1C        C  425   3.613   4.538   4.227
    1C        C  426   3.405   4.544   4.357
    1C        C  427   3.546   4.549   4.351
    1C        C  428   3.335   4.551   4.480
    1C        C  429   3.409   4.561   4.600
    1C        C  430   3.198   4.521   4.722
    1C        C  431   3.338   4.549   4.721
    1C        C  432   3.129   4.497   4.843
    1C        C  433   3.207   4.497   4.960
    1C        C  434   4.386   4.125   2.050
    1C        C  435   4.444   3.998   2.052
    1C        C  436   4.308   4.165   2.163
    1C        C  437   4.335   4.099   2.286
    1C        C  438   4.183   4.249   2.404
    1C        C  439   4.284   4.151   2.407
    1C        C  440   4.126   4.295   2.525
    1C        C  441   4.180   4.246   2.646
    1C        C  442   4.004   4.370   2.767
    1C        C  443   4.123   4.294   2.766
    1C        C  444   3.941   4.407   2.888
    1C        C  445   4.007   4.376   3.009
    1C        C  446   3.813   4.466   3.130
    1C        C  447   3.943   4.411   3.131
    1C        C  448   3.746   4.486   3.253
    1C        C  449   3.814   4.468   3.376
    1C        C  450   3.612   4.532   3.497
    1C        C  451   3.749   4.496   3.498
    1C        C  452   3.544   4.540   3.621
    1C        C  453   3.614   4.536   3.743
    1C        C  454   3.401   4.543   3.865
    1C        C  455   3.542   4.548   3.864
    1C        C  456   3.334   4.533   3.989
    1C        C  457   3.401   4.539   4.113
    1C        C  458   3.195   4.502   4.238
    1C        C  459   3.332   4.533   4.237
    1C        C  460   3.129   4.484   4.362
    1C        C  461   3.199   4.515   4.481
    1C        C  462   3.003   4.432   4.605
    1C        C  463   3.126   4.501   4.602
    1C        C  464   2.936   4.400   4.725
    1C        C  465   2.994   4.447   4.846
    1C        C  466   2.804   4.339   4.959
    1C        C  467   2.910   4.430   4.960
    1C        C  468   4.131   4.289   2.041
    1C        C  469   4.190   4.245   2.161
    1C        C  470   4.007   4.364   2.279
    1C        C  471   4.126   4.288   2.281
    1C        C  472   3.938   4.391   2.400
    1C        C  473   4.003   4.365   2.522
    1C        C  474   3.812   4.458   2.643
    1C        C  475   3.943   4.404   2.644
    1C        C  476   3.748   4.489   2.765
    1C        C  477   3.812   4.465   2.888
    1C        C  478   3.603   4.508   3.008
    1C        C  479   3.743   4.487   3.009
    1C        C  480   3.537   4.526   3.132
    1C        C  481   3.609   4.519   3.253
    1C        C  482   3.400   4.537   3.379
    1C        C  483   3.541   4.538   3.375
    1C        C  484   3.331   4.532   3.502
    1C        C  485   3.403   4.541   3.623
    1C        C  486   3.191   4.502   3.746
    1C        C  487   3.330   4.530   3.744
    1C        C  488   3.128   4.480   3.871
    1C        C  489   3.196   4.500   3.993
    1C        C  490   3.000   4.421   4.117
    1C        C  491   3.127   4.482   4.115
    1C        C  492   2.938   4.388   4.240
    1C        C  493   3.000   4.429   4.361
    1C        C  494   2.834   4.301   4.483
    1C        C  495   2.941   4.393   4.484
    1C        C  496   2.778   4.257   4.605
    1C        C  497   2.824   4.312   4.727
    1C        C  498   2.666   4.164   4.845
    1C        C  499   2.762   4.268   4.845
    1C        C  500   2.592   4.120   4.955
    1C        C  501   4.010   4.357   2.039
    1C        C  502   3.820   4.461   2.160
    1C        C  503   3.946   4.400   2.156
    1C        C  504   3.744   4.477   2.279
    1C        C  505   3.810   4.449   2.401
    1C        C  506   3.605   4.511   2.521
    1C        C  507   3.741   4.476   2.522
    1C        C  508   3.536   4.516   2.644
    1C        C  509   3.609   4.512   2.765
    1C        C  510   3.394   4.527   2.888
    1C        C  511   3.536   4.522   2.885
    1C        C  512   3.323   4.527   3.010
    1C        C  513   3.395   4.534   3.131
    1C        C  514   3.195   4.490   3.259
    1C        C  515   3.330   4.529   3.256
    1C        C  516   3.127   4.467   3.381
    1C        C  517   3.194   4.498   3.502
    1C        C  518   3.002   4.408   3.625
    1C        C  519   3.126   4.475   3.624
    1C        C  520   2.946   4.370   3.749
    1C        C  521   3.003   4.414   3.871
    1C        C  522   2.845   4.280   3.997
    1C        C  523   2.943   4.382   3.994
    1C        C  524   2.791   4.236   4.120
    1C        C  525   2.832   4.295   4.241
    1C        C  526   2.695   4.135   4.366
    1C        C  527   2.780   4.248   4.364
    1C        C  528   2.656   4.077   4.488
    1C        C  529   2.690   4.146   4.607
    1C        C  530   2.588   3.958   4.733
    1C        C  531   2.644   4.089   4.727
    1C        C  532   2.543   3.901   4.855
    1C        C  533   2.528   3.996   4.961
    1C        C  534   3.620   4.560   2.040
    1C        C  535   3.752   4.514   2.049
    1C        C  536   3.538   4.543   2.156
    1C        C  537   3.608   4.517   2.277
    1C        C  538   3.395   4.523   2.401
    1C        C  539   3.536   4.524   2.398
    1C        C  540   3.324   4.517   2.523
    1C        C  541   3.395   4.519   2.645
    1C        C  542   3.184   4.487   2.768
    1C        C  543   3.323   4.513   2.767
    1C        C  544   3.120   4.465   2.892
    1C        C  545   3.186   4.493   3.014
    1C        C  546   2.996   4.409   3.138
    1C        C  547   3.123   4.471   3.139
    1C        C  548   2.939   4.367   3.260
    1C        C  549   3.000   4.405   3.381
    1C        C  550   2.833   4.277   3.507
    1C        C  551   2.941   4.368   3.504
    1C        C  552   2.782   4.232   3.631
    1C        C  553   2.834   4.284   3.751
    1C        C  554   2.702   4.123   3.874
    1C        C  555   2.791   4.232   3.875
    1C        C  556   2.663   4.067   3.998
    1C        C  557   2.700   4.128   4.121
    1C        C  558   2.604   3.942   4.247
    1C        C  559   2.662   4.071   4.244
    1C        C  560   2.575   3.879   4.370
    1C        C  561   2.592   3.951   4.491
    1C        C  562   2.532   3.750   4.617
    1C        C  563   2.565   3.887   4.614
    1C        C  564   2.512   3.682   4.740
    1C        C  565   2.518   3.760   4.859
    1C        C  566   2.529   3.544   4.980
    1C        C  567   2.531   3.683   4.976
    1C        C  568   3.334   4.472   2.042
    1C        C  569   3.398   4.516   2.159
    1C        C  570   3.186   4.480   2.282
    1C        C  571   3.324   4.516   2.280
    1C        C  572   3.117   4.462   2.404
    1C        C  573   3.186   4.485   2.525
    1C        C  574   2.990   4.407   2.649
    1C        C  575   3.115   4.472   2.646
    1C        C  576   2.934   4.362   2.771
    1C        C  577   2.994   4.401   2.893
    1C        C  578   2.828   4.276   3.017
    1C        C  579   2.937   4.366   3.017
    1C        C  580   2.783   4.222   3.140
    1C        C  581   2.833   4.273   3.262
    1C        C  582   2.699   4.112   3.386
    1C        C  583   2.784   4.224   3.385
    1C        C  584   2.659   4.056   3.510
    1C        C  585   2.697   4.119   3.630
    1C        C  586   2.600   3.933   3.756
    1C        C  587   2.662   4.060   3.754
    1C        C  588   2.577   3.872   3.881
    1C        C  589   2.603   3.940   4.002
    1C        C  590   2.542   3.739   4.127
    1C        C  591   2.580   3.875   4.125
    1C        C  592   2.528   3.673   4.251
    1C        C  593   2.540   3.742   4.373
    1C        C  594   2.517   3.535   4.496
    1C        C  595   2.525   3.676   4.497
    1C        C  596   2.521   3.467   4.620
    1C        C  597   2.514   3.540   4.741
    1C        C  598   2.538   3.328   4.864
    1C        C  599   2.520   3.468   4.862
    1C        C  600   2.537   3.250   4.980
    1C        C  601   3.199   4.441   2.044
    1C        C  602   2.987   4.396   2.162
    1C        C  603   3.123   4.440   2.161
    1C        C  604   2.923   4.369   2.286
    1C        C  605   2.989   4.402   2.406
    1C        C  606   2.818   4.277   2.531
    1C        C  607   2.928   4.366   2.529
    1C        C  608   2.773   4.221   2.653
    1C        C  609   2.825   4.272   2.774
    1C        C  610   2.691   4.110   2.895
    1C        C  611   2.777   4.222   2.897
    1C        C  612   2.655   4.052   3.019
    1C        C  613   2.694   4.112   3.141
    1C        C  614   2.594   3.927   3.266
    1C        C  615   2.656   4.054   3.264
    1C        C  616   2.567   3.865   3.390
    1C        C  617   2.596   3.930   3.512
    1C        C  618   2.531   3.729   3.640
    1C        C  619   2.572   3.865   3.635
    1C        C  620   2.521   3.662   3.764
    1C        C  621   2.533   3.737   3.883
    1C        C  622   2.514   3.527   4.012
    1C        C  623   2.523   3.668   4.006
    1C        C  624   2.515   3.457   4.134
    1C        C  625   2.517   3.532   4.253
    1C        C  626   2.541   3.321   4.382
    1C        C  627   2.522   3.461   4.376
    1C        C  628   2.559   3.254   4.505
    1C        C  629   2.544   3.327   4.625
    1C        C  630   2.602   3.119   4.746
    1C        C  631   2.556   3.254   4.745
    1C        C  632   2.620   3.049   4.868
    1C        C  633   2.573   3.115   4.986
    1C        C  634   2.783   4.303   2.058
    1C        C  635   2.896   4.386   2.051
    1C        C  636   2.751   4.230   2.172
    1C        C  637   2.808   4.285   2.289
    1C        C  638   2.688   4.109   2.411
    1C        C  639   2.764   4.228   2.410
    1C        C  640   2.646   4.049   2.532
    1C        C  641   2.685   4.111   2.653
    1C        C  642   2.587   3.922   2.779
    1C        C  643   2.648   4.050   2.775
    1C        C  644   2.565   3.858   2.903
    1C        C  645   2.591   3.926   3.024
    1C        C  646   2.525   3.724   3.150
    1C        C  647   2.564   3.860   3.145
    1C        C  648   2.516   3.656   3.274
    1C        C  649   2.533   3.728   3.394
    1C        C  650   2.513   3.519   3.523
    1C        C  651   2.520   3.660   3.518
    1C        C  652   2.517   3.449   3.646
    1C        C  653   2.509   3.521   3.768
    1C        C  654   2.532   3.313   3.891
    1C        C  655   2.516   3.453   3.891
    1C        C  656   2.548   3.248   4.015
    1C        C  657   2.535   3.317   4.138
    1C        C  658   2.609   3.119   4.259
    1C        C  659   2.559   3.251   4.261
    1C        C  660   2.635   3.056   4.383
    1C        C  661   2.598   3.119   4.504
    1C        C  662   2.705   2.933   4.626
    1C        C  663   2.627   3.051   4.625
    1C        C  664   2.747   2.875   4.748
    1C        C  665   2.697   2.928   4.870
    1C        C  666   2.748   2.874   4.988
    1C        C  667   2.677   4.025   2.053
    1C        C  668   2.695   4.100   2.170
    1C        C  669   2.601   3.909   2.292
    1C        C  670   2.659   4.040   2.292
    1C        C  671   2.565   3.849   2.414
    1C        C  672   2.590   3.919   2.534
    1C        C  673   2.518   3.721   2.659
    1C        C  674   2.560   3.856   2.657
    1C        C  675   2.518   3.651   2.782
    1C        C  676   2.538   3.719   2.904
    1C        C  677   2.504   3.513   3.033
    1C        C  678   2.519   3.654   3.028
    1C        C  679   2.506   3.443   3.155
    1C        C  680   2.504   3.515   3.277
    1C        C  681   2.526   3.308   3.403
    1C        C  682   2.509   3.448   3.401
    1C        C  683   2.544   3.240   3.525
    1C        C  684   2.531   3.308   3.649
    1C        C  685   2.587   3.104   3.771
    1C        C  686   2.550   3.240   3.771
    1C        C  687   2.631   3.050   3.895
    1C        C  688   2.601   3.117   4.015
    1C        C  689   2.712   2.934   4.138
    1C        C  690   2.636   3.053   4.137
    1C        C  691   2.753   2.878   4.261
    1C        C  692   2.712   2.938   4.383
    1C        C  693   2.752   2.879   4.505
    1C        C  694   2.637   3.891   2.057
    1C        C  695   2.525   3.706   2.179
    1C        C  696   2.583   3.835   2.174
    1C        C  697   2.512   3.636   2.301
    1C        C  698   2.528   3.713   2.419
    1C        C  699   2.490   3.504   2.544
    1C        C  700   2.506   3.645   2.541
    1C        C  701   2.501   3.438   2.668
    1C        C  702   2.501   3.511   2.789
    1C        C  703   2.526   3.302   2.915
    1C        C  704   2.500   3.441   2.912
    1C        C  705   2.547   3.233   3.037
    1C        C  706   2.524   3.302   3.158
    1C        C  707   2.601   3.108   3.282
    1C        C  708   2.544   3.237   3.281
    1C        C  709   2.634   3.049   3.406
    1C        C  710   2.598   3.109   3.529
    1C        C  711   2.710   2.932   3.648
    1C        C  712   2.619   3.039   3.650
    1C        C  713   2.756   2.879   3.771
    1C        C  714   2.714   2.935   3.894
    1C        C  715   2.758   2.880   4.016
    1C        C  716   2.456   3.500   2.063
    1C        C  717   2.500   3.633   2.062
    1C        C  718   2.469   3.422   2.183
    1C        C  719   2.489   3.496   2.302
    1C        C  720   2.519   3.289   2.427
    1C        C  721   2.488   3.427   2.426
    1C        C  722   2.537   3.222   2.550
    1C        C  723   2.520   3.298   2.668
    1C        C  724   2.589   3.101   2.791
    1C        C  725   2.539   3.233   2.793
    1C        C  726   2.620   3.036   2.913
    1C        C  727   2.596   3.101   3.037
    1C        C  728   2.708   2.923   3.160
    1C        C  729   2.633   3.043   3.160
    1C        C  730   2.754   2.873   3.284
    1C        C  731   2.717   2.934   3.406
    1C        C  732   2.756   2.874   3.528
    1C        C  733   2.488   3.197   2.077
    1C        C  734   2.480   3.280   2.190
    1C        C  735   2.581   3.083   2.307
    1C        C  736   2.523   3.213   2.308
    1C        C  737   2.614   3.021   2.429
    1C        C  738   2.590   3.092   2.549
    1C        C  739   2.697   2.912   2.670
    1C        C  740   2.624   3.033   2.673
    1C        C  741   2.745   2.862   2.793
    1C        C  742   2.699   2.919   2.913
    1C        C  743   2.749   2.870   3.036
    1C        C  744   2.539   3.068   2.077
    1C        C  745   2.684   2.897   2.188
    1C        C  746   2.613   3.019   2.186
    1C        C  747   2.734   2.840   2.308
    1C        C  748   2.692   2.903   2.427
    1C        C  749   2.739   2.851   2.550
    1C        C  750   2.742   2.839   2.075
    1C        C  751   3.665   2.337   1.961
    1C        O  752   3.716   2.223   1.980
    1C        O  753   3.676   2.376   1.827
    1C        C  754   4.621   3.069   1.964
    1C        O  755   4.584   3.035   1.849
    1C        O  756   4.760   3.079   1.975
    1C        C  757   4.435   4.212   1.941
    1C        O  758   4.558   4.236   1.924
    1C        O  759   4.386   4.188   1.812
    1C        C  760   3.590   4.657   1.932
    1C        O  761   3.652   4.766   1.928
    1C        O  762   3.580   4.604   1.803
    1C        C  763   2.895   4.480   1.936
    1C        O  764   2.914   4.445   1.817
    1C        O  765   2.836   4.606   1.945
    1C        C  766   2.342   3.482   1.970
    1C        O  767   2.360   3.497   1.846
    1C        O  768   2.226   3.410   2.001
    1C        C  769   4.709   3.599   5.038
    1C        O  770   4.702   3.594   5.164
    1C        O  771   4.827   3.651   4.985
    1C        C  772   4.274   4.441   5.045
    1C        O  773   4.274   4.376   5.153
    1C        O  774   4.345   4.560   5.027
    1C        C  775   4.148   2.515   5.073
    1C        O  776   4.185   2.397   5.047
    1C        O  777   4.149   2.546   5.209
    1C        C  778   2.883   4.557   5.033
    1C        O  779   2.781   4.626   5.011
    1C        O  780   2.942   4.573   5.159
    1C        C  781   2.489   3.034   5.078
    1C        O  782   2.383   2.987   5.030
    1C        O  783   2.512   3.012   5.213
    1C        C  784   2.446   3.984   5.084
    1C        O  785   2.320   3.988   5.090
    1C        O  786   2.508   3.968   5.209
    1C        C  787   2.941   2.431   2.014
    1C        O  788   2.924   2.449   1.890
    1C        O  789   2.940   2.298   2.054
    1C        C  790   3.204   2.437   5.110
    1C        O  791   3.168   2.317   5.123
    1C        O  792   3.222   2.515   5.225
    1C        H  793   4.268   3.021   5.056
    1C        H  794   4.221   2.779   5.068
    1C        H  795   4.462   3.140   5.066
    1C        H  796   4.577   3.352   5.064
    1C        H  797   4.582   3.821   5.034
    1C        H  798   4.366   3.939   5.035
    1C        H  799   4.278   4.164   5.053
    1C        H  800   4.046   4.556   5.016
    1C        H  801   3.812   4.572   5.046
    1C        H  802   3.592   4.634   5.045
    1C        H  803   3.400   4.498   5.045
    1C        H  804   3.167   4.476   5.057
    1C        H  805   3.890   2.486   5.069
    1C        H  806   3.666   2.409   5.055
    1C        H  807   3.001   2.568   5.068
    1C        H  808   3.437   2.487   5.075
    1C        H  809   2.901   2.763   5.078
    1C        H  810   2.724   2.923   5.080
    1C        H  811   2.468   3.281   5.057
    1C        H  812   2.514   3.503   5.077
    1C        H  813   2.574   3.737   5.058
    1C        H  814   2.593   4.179   5.044
    1C        H  815   2.762   4.315   5.054
    1C        H  816   2.717   2.879   1.978
    1C        H  817   2.829   2.668   1.978
    1C        H  818   3.202   2.410   1.998
    1C        H  819   3.433   2.456   1.978
    1C        H  820   3.837   2.557   1.974
    1C        H  821   4.047   2.643   1.965
    1C        H  822   4.277   2.701   1.990
    1C        H  823   4.433   2.861   2.000
    1C        H  824   4.561   3.318   1.966
    1C        H  825   4.507   3.515   1.959
    1C        H  826   4.511   3.754   1.959
    1C        H  827   3.805   4.516   1.956
    1C        H  828   3.959   4.378   1.948
    1C        H  829   4.160   4.238   1.951
    1C        H  830   4.487   3.956   1.963
    1C        H  831   2.665   3.829   1.975
    1C        H  832   2.695   4.067   1.956
    1C        H  833   2.699   4.349   2.010
    1C        H  834   3.392   4.414   1.973
    1C        H  835   3.150   4.417   1.952
    1C        H  836   2.470   2.998   2.035
    1C        H  837   2.492   3.248   1.983
    1C        H  838   2.488   3.685   1.969
    2V3OU   H29  839   2.806   3.548   3.231
    2V3OU   C27  840   2.792   3.500   3.331
    2V3OU   H27  841   2.732   3.565   3.400
    2V3OU   H28  842   2.743   3.402   3.308
    2V3OU   O11  843   2.922   3.475   3.386
    2V3OU   C15  844   2.934   3.402   3.503
    2V3OU   C13  845   3.058   3.376   3.565
    2V3OU   C14  846   3.084   3.269   3.652
    2V3OU   C16  847   2.982   3.183   3.691
    2V3OU    H6  848   2.990   3.109   3.772
    2V3OU   C12  849   3.216   3.239   3.711
    2V3OU    O2  850   3.242   3.128   3.763
    2V3OU   C10  851   3.330   3.313   3.655
    2V3OU    C8  852   3.461   3.271   3.673
    2V3OU   O10  853   3.491   3.152   3.732
    2V3OU   H26  854   3.408   3.112   3.762
    2V3OU    C6  855   3.571   3.349   3.625
    2V3OU    C5  856   3.542   3.466   3.556
    2V3OU    C4  857   3.708   3.292   3.624
    2V3OU    H4  858   3.726   3.228   3.716
    2V3OU    H5  859   3.715   3.229   3.531
    2V3OU    C2  860   3.818   3.398   3.619
    2V3OU    O6  861   3.805   3.471   3.741
    2V3OU   H21  862   3.764   3.555   3.715
    2V3OU    C3  863   3.785   3.500   3.510
    2V3OU    H2  864   3.869   3.573   3.508
    2V3OU    H3  865   3.785   3.440   3.415
    2V3OU   C25  866   3.955   3.333   3.599
    2V3OU    O7  867   4.002   3.290   3.494
    2V3OU   C26  868   4.035   3.291   3.722
    2V3OU   H22  869   4.074   3.381   3.776
    2V3OU   H23  870   4.121   3.226   3.691
    2V3OU    O8  871   3.968   3.209   3.814
    2V3OU   H24  872   3.926   3.270   3.876
    2V3OU    C1  873   3.648   3.566   3.522
    2V3OU    H1  874   3.630   3.624   3.427
    2V3OU    O3  875   3.658   3.659   3.631
    2V3OU   C19  876   3.614   3.794   3.615
    2V3OU    H9  877   3.519   3.810   3.556
    2V3OU    O4  878   3.711   3.849   3.527
    2V3OU   C20  879   3.841   3.870   3.583
    2V3OU   H10  880   3.899   3.773   3.583
    2V3OU   C24  881   3.616   3.852   3.757
    2V3OU   H16  882   3.549   3.789   3.821
    2V3OU   H17  883   3.572   3.955   3.761
    2V3OU   C23  884   3.755   3.874   3.817
    2V3OU   H15  885   3.794   3.771   3.844
    2V3OU    N1  886   3.736   3.956   3.935
    2V3OU   H19  887   3.808   3.921   3.995
    2V3OU   H20  888   3.646   3.937   3.974
    2V3OU   C21  889   3.846   3.948   3.714
    2V3OU   H11  890   3.950   3.926   3.753
    2V3OU    O5  891   3.821   4.087   3.703
    2V3OU   H18  892   3.782   4.099   3.791
    2V3OU   C22  893   3.912   3.952   3.477
    2V3OU   H12  894   3.858   4.049   3.463
    2V3OU   H13  895   3.914   3.895   3.380
    2V3OU   H14  896   4.019   3.966   3.508
    2V3OU   C11  897   3.166   3.473   3.545
    2V3OU    O1  898   3.136   3.587   3.502
    2V3OU    C9  899   3.303   3.427   3.575
    2V3OU    C7  900   3.408   3.504   3.526
    2V3OU    O9  901   3.384   3.620   3.454
    2V3OU   H25  902   3.288   3.632   3.453
    2V3OU   C17  903   2.833   3.316   3.552
    2V3OU    H7  904   2.735   3.352   3.518
    2V3OU   C18  905   2.855   3.216   3.645
    2V3OU    H8  906   2.787   3.174   3.720
    3SOL     OW  907   2.580   5.108   5.987
    3SOL    HW1  908   2.649   5.037   5.977
    3SOL    HW2  909   2.557   5.119   6.084
    4SOL     OW  910   6.837   0.115   0.310
    4SOL    HW1  911   6.913   0.162   0.357
    4SOL    HW2  912   6.794   0.051   0.374
    5SOL     OW  913   5.124   2.486   1.900
    5SOL    HW1  914   5.073   2.515   1.819
    5SOL    HW2  915   5.072   2.511   1.982
    6SOL     OW  916   4.567   2.122   2.452
    6SOL    HW1  917   4.467   2.116   2.460
    6SOL    HW2  918   4.605   2.162   2.535
    7SOL     OW  919   0.534   4.287   3.556
    7SOL    HW1  920   0.550   4.288   3.457
    7SOL    HW2  921   0.588   4.214   3.597
    8SOL     OW  922   2.389   2.319   5.961
    8SOL    HW1  923   2.374   2.226   5.926
    8SOL    HW2  924   2.483   2.329   5.991
    9SOL     OW  925   5.948   2.453   6.002
    9SOL    HW1  926   5.879   2.451   5.930
    9SOL    HW2  927   5.967   2.360   6.033
   10SOL     OW  928   3.242   5.284   4.829
   10SOL    HW1  929   3.305   5.322   4.897
   10SOL    HW2  930   3.155   5.333   4.832
   11SOL     OW  931   2.022   1.411   6.162
   11SOL    HW1  932   1.967   1.458   6.094
   11SOL    HW2  933   1.980   1.420   6.252
   12SOL     OW  934   3.064   4.853   3.762
   12SOL    HW1  935   3.009   4.912   3.820
   12SOL    HW2  936   3.160   4.880   3.767
   13SOL     OW  937   3.811   6.189   3.872
   13SOL    HW1  938   3.733   6.136   3.837
   13SOL    HW2  939   3.813   6.278   3.827
   14SOL     OW  940   4.113   4.828   5.877
   14SOL    HW1  941   4.127   4.903   5.812
   14SOL    HW2  942   4.053   4.858   5.951
   15SOL     OW  943   0.901   6.379   0.342
   15SOL    HW1  944   0.919   6.408   0.247
   15SOL    HW2  945   0.977   6.408   0.400
   16SOL     OW  946   5.546   2.549   6.663
   16SOL    HW1  947   5.477   2.479   6.644
   16SOL    HW2  948   5.636   2.515   6.635
   17SOL     OW  949   5.102   0.119   6.684
   17SOL    HW1  950   5.144   0.092   6.597
   17SOL    HW2  951   5.034   0.052   6.711
   18SOL     OW  952   3.250   0.911   4.925
   18SOL    HW1  953   3.207   0.826   4.895
   18SOL    HW2  954   3.192   0.955   4.993
   19SOL     OW  955   0.066   2.425   2.291
   19SOL    HW1  956   0.125   2.506   2.299
   19SOL    HW2  957   0.038   2.414   2.196
   20SOL     OW  958   4.562   2.205   5.478
   20SOL    HW1  959   4.607   2.167   5.397
   20SOL    HW2  960   4.606   2.170   5.560
   21SOL     OW  961   2.890   0.926   3.159
   21SOL    HW1  962   2.825   0.984   3.110
   21SOL    HW2  963   2.855   0.905   3.250
   22SOL     OW  964   1.721   6.067   0.359
   22SOL    HW1  965   1.633   6.115   0.362
   22SOL    HW2  966   1.793   6.130   0.390
   23SOL     OW  967   4.052   5.259   2.121
   23SOL    HW1  968   4.054   5.352   2.157
   23SOL    HW2  969   3.957   5.229   2.111
   24SOL     OW  970   3.714   0.577   2.454
   24SOL    HW1  971   3.706   0.625   2.367
   24SOL    HW2  972   3.681   0.484   2.445
   25SOL     OW  973   2.367   6.824   3.753
   25SOL    HW1  974   2.452   6.802   3.801
   25SOL    HW2  975   2.386   6.836   3.656
   26SOL     OW  976   6.587   2.038   0.142
   26SOL    HW1  977   6.615   2.081   0.227
   26SOL    HW2  978   6.503   2.081   0.108
   27SOL     OW  979   1.725   1.400   1.723
   27SOL    HW1  980   1.754   1.494   1.704
   27SOL    HW2  981   1.782   1.361   1.795
   28SOL     OW  982   1.118   0.802   4.755
   28SOL    HW1  983   1.026   0.827   4.724
   28SOL    HW2  984   1.113   0.723   4.815
   29SOL     OW  985   6.549   1.428   0.854
   29SOL    HW1  986   6.458   1.398   0.823
   29SOL    HW2  987   6.538   1.492   0.930
   30SOL     OW  988   4.683   0.238   5.049
   30SOL    HW1  989   4.635   0.325   5.059
   30SOL    HW2  990   4.651   0.174   5.120
   31SOL     OW  991   0.423   2.287   5.955
   31SOL    HW1  992   0.476   2.238   5.886
   31SOL    HW2  993   0.351   2.228   5.991
   32SOL     OW  994   0.975   1.841   2.344
   32SOL    HW1  995   0.991   1.762   2.284
   32SOL    HW2  996   0.984   1.925   2.291
   33SOL     OW  997   1.052   4.729   4.947
   33SOL    HW1  998   1.060   4.820   4.906
   33SOL    HW2  999   1.037   4.737   5.045
   34SOL     OW 1000   2.576   5.938   4.960
   34SOL    HW1 1001   2.657   5.882   4.942
   34SOL    HW2 1002   2.569   5.956   5.058
   35SOL     OW 1003   4.200   2.296   5.688
   35SOL    HW1 1004   4.230   2.373   5.745
   35SOL    HW2 1005   4.102   2.280   5.703
   36SOL     OW 1006   4.328   1.871   3.833
   36SOL    HW1 1007   4.357   1.965   3.817
   36SOL    HW2 1008   4.380   1.832   3.909
   37SOL     OW 1009   1.272   2.127   5.028
   37SOL    HW1 1010   1.243   2.092   5.117
   37SOL    HW2 1011   1.338   2.065   4.987
   38SOL     OW 1012   1.326   4.760   1.457
   38SOL    HW1 1013   1.411   4.796   1.418
   38SOL    HW2 1014   1.249   4.785   1.398
   39SOL     OW 1015   6.114   4.885   5.968
   39SOL    HW1 1016   6.037   4.853   5.913
   39SOL    HW2 1017   6.163   4.956   5.917
   40SOL     OW 1018   3.660   2.237   0.392
   40SOL    HW1 1019   3.631   2.146   0.362
   40SOL    HW2 1020   3.700   2.286   0.314
   41SOL     OW 1021   5.668   3.490   3.301
   41SOL    HW1 1022   5.727   3.569   3.286
   41SOL    HW2 1023   5.662   3.437   3.217
   42SOL     OW 1024   3.112   6.157   4.395
   42SOL    HW1 1025   3.195   6.144   4.341
   42SOL    HW2 1026   3.127   6.228   4.464
   43SOL     OW 1027   4.755   0.947   5.432
   43SOL    HW1 1028   4.716   0.919   5.520
   43SOL    HW2 1029   4.692   0.923   5.359
   44SOL     OW 1030   5.621   2.835   5.030
   44SOL    HW1 1031   5.679   2.778   5.088
   44SOL    HW2 1032   5.676   2.910   4.993
   45SOL     OW 1033   4.558   5.176   1.957
   45SOL    HW1 1034   4.486   5.224   2.008
   45SOL    HW2 1035   4.641   5.231   1.956
   46SOL     OW 1036   1.383   2.361   3.846
   46SOL    HW1 1037   1.348   2.271   3.821
   46SOL    HW2 1038   1.467   2.350   3.899
   47SOL     OW 1039   3.887   4.043   1.173
   47SOL    HW1 1040   3.933   3.956   1.153
   47SOL    HW2 1041   3.923   4.114   1.112
   48SOL     OW 1042   6.932   2.336   6.947
   48SOL    HW1 1043   6.847   2.300   6.908
   48SOL    HW2 1044   6.994   2.363   6.874
   49SOL     OW 1045   5.888   2.730   2.001
   49SOL    HW1 1046   5.900   2.827   2.022
   49SOL    HW2 1047   5.970   2.679   2.029
   50SOL     OW 1048   6.497   1.208   5.569
   50SOL    HW1 1049   6.480   1.110   5.567
   50SOL    HW2 1050   6.574   1.230   5.508
   51SOL     OW 1051   1.940   6.480   2.699
   51SOL    HW1 1052   2.013   6.461   2.634
   51SOL    HW2 1053   1.926   6.578   2.706
   52SOL     OW 1054   5.080   3.636   1.499
   52SOL    HW1 1055   5.062   3.729   1.528
   52SOL    HW2 1056   5.179   3.619   1.498
   53SOL     OW 1057   4.654   0.966   3.580
   53SOL    HW1 1058   4.698   0.986   3.492
   53SOL    HW2 1059   4.633   0.868   3.584
   54SOL     OW 1060   5.690   6.533   1.191
   54SOL    HW1 1061   5.767   6.578   1.147
   54SOL    HW2 1062   5.704   6.530   1.290
   55SOL     OW 1063   2.067   2.854   4.954
   55SOL    HW1 1064   2.071   2.948   4.920
   55SOL    HW2 1065   2.158   2.827   4.986
   56SOL     OW 1066   0.886   0.867   1.153
   56SOL    HW1 1067   0.951   0.894   1.082
   56SOL    HW2 1068   0.890   0.767   1.165
   57SOL     OW 1069   3.993   1.019   0.984
   57SOL    HW1 1070   3.916   1.039   1.045
   57SOL    HW2 1071   4.079   1.042   1.030
   58SOL     OW 1072   0.602   6.452   6.009
   58SOL    HW1 1073   0.574   6.439   5.913
   58SOL    HW2 1074   0.699   6.478   6.012
   59SOL     OW 1075   0.048   3.728   6.018
   59SOL    HW1 1076   0.126   3.782   5.987
   59SOL    HW2 1077   0.039   3.735   6.117
   60SOL     OW 1078   4.698   2.708   4.178
   60SOL    HW1 1079   4.732   2.735   4.088
   60SOL    HW2 1080   4.706   2.786   4.241
   61SOL     OW 1081   0.182   1.155   4.498
   61SOL    HW1 1082   0.128   1.235   4.472
   61SOL    HW2 1083   0.272   1.184   4.529
   62SOL     OW 1084   2.327   1.509   2.141
   62SOL    HW1 1085   2.243   1.495   2.088
   62SOL    HW2 1086   2.340   1.607   2.157
   63SOL     OW 1087   3.381   0.214   4.427
   63SOL    HW1 1088   3.419   0.153   4.357
   63SOL    HW2 1089   3.283   0.223   4.414
   64SOL     OW 1090   0.161   2.947   5.982
   64SOL    HW1 1091   0.228   2.920   6.050
   64SOL    HW2 1092   0.176   2.895   5.897
   65SOL     OW 1093   0.917   5.631   6.104
   65SOL    HW1 1094   1.015   5.641   6.123
   65SOL    HW2 1095   0.865   5.645   6.188
   66SOL     OW 1096   3.422   0.639   3.416
   66SOL    HW1 1097   3.465   0.699   3.348
   66SOL    HW2 1098   3.489   0.572   3.448
   67SOL     OW 1099   0.194   3.175   6.226
   67SOL    HW1 1100   0.207   3.217   6.136
   67SOL    HW2 1101   0.276   3.124   6.251
   68SOL     OW 1102   0.201   1.696   6.684
   68SOL    HW1 1103   0.198   1.721   6.781
   68SOL    HW2 1104   0.172   1.773   6.628
   69SOL     OW 1105   1.245   2.846   5.379
   69SOL    HW1 1106   1.338   2.844   5.342
   69SOL    HW2 1107   1.189   2.779   5.331
   70SOL     OW 1108   5.051   5.031   4.666
   70SOL    HW1 1109   4.992   5.111   4.651
   70SOL    HW2 1110   5.048   5.007   4.763
   71SOL     OW 1111   5.061   2.376   3.462
   71SOL    HW1 1112   4.989   2.423   3.411
   71SOL    HW2 1113   5.057   2.278   3.443
   72SOL     OW 1114   0.675   1.051   3.155
   72SOL    HW1 1115   0.700   1.144   3.182
   72SOL    HW2 1116   0.694   0.989   3.231
   73SOL     OW 1117   3.332   0.477   1.193
   73SOL    HW1 1118   3.272   0.454   1.116
   73SOL    HW2 1119   3.427   0.473   1.164
   74SOL     OW 1120   3.360   1.127   6.807
   74SOL    HW1 1121   3.329   1.220   6.822
   74SOL    HW2 1122   3.301   1.064   6.858
   75SOL     OW 1123   4.148   1.079   1.446
   75SOL    HW1 1124   4.175   0.998   1.498
   75SOL    HW2 1125   4.116   1.150   1.509
   76SOL     OW 1126   3.170   3.447   6.579
   76SOL    HW1 1127   3.186   3.357   6.540
   76SOL    HW2 1128   3.088   3.487   6.539
   77SOL     OW 1129   1.535   6.373   2.938
   77SOL    HW1 1130   1.506   6.466   2.914
   77SOL    HW2 1131   1.557   6.323   2.855
   78SOL     OW 1132   4.774   1.451   1.125
   78SOL    HW1 1133   4.721   1.490   1.200
   78SOL    HW2 1134   4.713   1.428   1.049
   79SOL     OW 1135   3.095   6.517   1.588
   79SOL    HW1 1136   3.167   6.504   1.520
   79SOL    HW2 1137   3.135   6.526   1.679
   80SOL     OW 1138   4.167   1.516   4.408
   80SOL    HW1 1139   4.127   1.599   4.447
   80SOL    HW2 1140   4.263   1.511   4.433
   81SOL     OW 1141   1.552   6.757   1.677
   81SOL    HW1 1142   1.613   6.724   1.605
   81SOL    HW2 1143   1.502   6.681   1.717
   82SOL     OW 1144   6.590   5.670   1.452
   82SOL    HW1 1145   6.500   5.626   1.449
   82SOL    HW2 1146   6.655   5.615   1.399
   83SOL     OW 1147   0.736   0.853   6.697
   83SOL    HW1 1148   0.646   0.846   6.654
   83SOL    HW2 1149   0.762   0.764   6.734
   84SOL     OW 1150   5.621   3.868   3.346
   84SOL    HW1 1151   5.714   3.850   3.375
   84SOL    HW2 1152   5.617   3.871   3.246
   85SOL     OW 1153   1.467   0.991   3.258
   85SOL    HW1 1154   1.464   0.913   3.319
   85SOL    HW2 1155   1.452   0.961   3.164
   86SOL     OW 1156   6.858   1.354   6.934
   86SOL    HW1 1157   6.804   1.364   7.017
   86SOL    HW2 1158   6.798   1.344   6.855
   87SOL     OW 1159   3.567   4.126   0.867
   87SOL    HW1 1160   3.536   4.197   0.804
   87SOL    HW2 1161   3.657   4.093   0.838
   88SOL     OW 1162   3.056   2.319   6.123
   88SOL    HW1 1163   3.032   2.246   6.186
   88SOL    HW2 1164   2.973   2.370   6.097
   89SOL     OW 1165   3.281   3.433   0.084
   89SOL    HW1 1166   3.202   3.374   0.096
   89SOL    HW2 1167   3.258   3.526   0.114
   90SOL     OW 1168   3.739   5.070   3.004
   90SOL    HW1 1169   3.726   5.018   3.088
   90SOL    HW2 1170   3.830   5.052   2.967
   91SOL     OW 1171   6.320   3.863   5.837
   91SOL    HW1 1172   6.265   3.932   5.883
   91SOL    HW2 1173   6.296   3.859   5.740
   92SOL     OW 1174   4.670   4.238   0.469
   92SOL    HW1 1175   4.728   4.284   0.401
   92SOL    HW2 1176   4.676   4.287   0.556
   93SOL     OW 1177   3.137   3.359   6.854
   93SOL    HW1 1178   3.131   3.421   6.775
   93SOL    HW2 1179   3.218   3.383   6.908
   94SOL     OW 1180   2.313   5.821   0.177
   94SOL    HW1 1181   2.369   5.788   0.101
   94SOL    HW2 1182   2.216   5.814   0.153
   95SOL     OW 1183   1.850   0.729   3.352
   95SOL    HW1 1184   1.846   0.761   3.258
   95SOL    HW2 1185   1.758   0.736   3.393
   96SOL     OW 1186   4.394   5.693   5.654
   96SOL    HW1 1187   4.337   5.619   5.690
   96SOL    HW2 1188   4.441   5.661   5.571
   97SOL     OW 1189   2.182   3.769   5.200
   97SOL    HW1 1190   2.204   3.831   5.125
   97SOL    HW2 1191   2.261   3.762   5.262
   98SOL     OW 1192   0.875   1.802   0.220
   98SOL    HW1 1193   0.844   1.889   0.257
   98SOL    HW2 1194   0.866   1.731   0.290
   99SOL     OW 1195   3.689   3.754   2.290
   99SOL    HW1 1196   3.591   3.754   2.313
   99SOL    HW2 1197   3.704   3.816   2.213
  100SOL     OW 1198   6.958   7.001   4.271
  100SOL    HW1 1199   6.865   7.014   4.305
  100SOL    HW2 1200   6.974   0.036   4.193
  101SOL     OW 1201   6.876   5.421   2.381
  101SOL    HW1 1202   6.814   5.499   2.385
  101SOL    HW2 1203   6.907   5.398   2.473
  102SOL     OW 1204   3.752   5.765   1.900
  102SOL    HW1 1205   3.758   5.692   1.832
  102SOL    HW2 1206   3.840   5.773   1.948
  103SOL     OW 1207   2.107   2.275   2.661
  103SOL    HW1 1208   2.131   2.318   2.748
  103SOL    HW2 1209   2.014   2.238   2.666
  104SOL     OW 1210   1.330   5.047   1.877
  104SOL    HW1 1211   1.390   5.037   1.797
  104SOL    HW2 1212   1.342   4.968   1.937
  105SOL     OW 1213   5.687   0.914   6.349
  105SOL    HW1 1214   5.607   0.962   6.313
  105SOL    HW2 1215   5.666   0.817   6.358
  106SOL     OW 1216   4.098   6.270   3.325
  106SOL    HW1 1217   4.193   6.239   3.330
  106SOL    HW2 1218   4.040   6.204   3.373
  107SOL     OW 1219   0.112   1.344   0.228
  107SOL    HW1 1220   0.123   1.440   0.254
  107SOL    HW2 1221   0.065   1.295   0.301
  108SOL     OW 1222   3.953   6.633   6.172
  108SOL    HW1 1223   3.860   6.660   6.148
  108SOL    HW2 1224   3.955   6.597   6.265
  109SOL     OW 1225   2.874   0.855   2.781
  109SOL    HW1 1226   2.893   0.940   2.731
  109SOL    HW2 1227   2.944   0.842   2.851
  110SOL     OW 1228   2.607   4.720   4.121
  110SOL    HW1 1229   2.684   4.714   4.184
  110SOL    HW2 1230   2.524   4.691   4.166
  111SOL     OW 1231   2.047   1.132   3.532
  111SOL    HW1 1232   1.990   1.070   3.586
  111SOL    HW2 1233   2.143   1.105   3.541
  112SOL     OW 1234   5.268   6.266   0.860
  112SOL    HW1 1235   5.325   6.297   0.784
  112SOL    HW2 1236   5.309   6.295   0.947
  113SOL     OW 1237   1.221   5.707   2.753
  113SOL    HW1 1238   1.242   5.670   2.663
  113SOL    HW2 1239   1.262   5.649   2.824
  114SOL     OW 1240   1.656   6.369   1.928
  114SOL    HW1 1241   1.697   6.384   2.018
  114SOL    HW2 1242   1.720   6.397   1.857
  115SOL     OW 1243   5.348   0.018   3.038
  115SOL    HW1 1244   5.311   6.972   3.097
  115SOL    HW2 1245   5.421   0.067   3.085
  116SOL     OW 1246   0.270   5.820   1.313
  116SOL    HW1 1247   0.205   5.762   1.362
  116SOL    HW2 1248   0.273   5.794   1.217
  117SOL     OW 1249   1.086   0.380   0.559
  117SOL    HW1 1250   0.991   0.410   0.552
  117SOL    HW2 1251   1.124   0.410   0.647
  118SOL     OW 1252   1.638   2.112   2.984
  118SOL    HW1 1253   1.626   2.051   3.062
  118SOL    HW2 1254   1.594   2.073   2.904
  119SOL     OW 1255   7.002   0.870   6.783
  119SOL    HW1 1256   7.000   0.777   6.820
  119SOL    HW2 1257   0.035   0.927   6.841
  120SOL     OW 1258   4.695   0.500   4.632
  120SOL    HW1 1259   4.655   0.410   4.648
  120SOL    HW2 1260   4.676   0.529   4.538
  121SOL     OW 1261   1.087   4.069   0.611
  121SOL    HW1 1262   1.062   3.974   0.592
  121SOL    HW2 1263   1.012   4.130   0.584
  122SOL     OW 1264   1.730   3.581   0.390
  122SOL    HW1 1265   1.697   3.650   0.326
  122SOL    HW2 1266   1.676   3.585   0.474
  123SOL     OW 1267   0.939   1.198   2.137
  123SOL    HW1 1268   0.953   1.274   2.201
  123SOL    HW2 1269   1.003   1.207   2.061
  124SOL     OW 1270   3.406   2.338   0.799
  124SOL    HW1 1271   3.490   2.331   0.745
  124SOL    HW2 1272   3.356   2.420   0.772
  125SOL     OW 1273   3.354   2.957   0.659
  125SOL    HW1 1274   3.452   2.940   0.643
  125SOL    HW2 1275   3.339   2.979   0.755
  126SOL     OW 1276   3.689   2.945   2.844
  126SOL    HW1 1277   3.687   3.044   2.850
  126SOL    HW2 1278   3.769   2.910   2.892
  127SOL     OW 1279   6.626   5.999   6.118
  127SOL    HW1 1280   6.711   5.966   6.077
  127SOL    HW2 1281   6.592   5.931   6.184
  128SOL     OW 1282   4.859   3.282   1.259
  128SOL    HW1 1283   4.859   3.375   1.297
  128SOL    HW2 1284   4.831   3.218   1.331
  129SOL     OW 1285   2.738   4.145   0.431
  129SOL    HW1 1286   2.644   4.178   0.438
  129SOL    HW2 1287   2.788   4.201   0.365
  130SOL     OW 1288   6.294   0.480   4.508
  130SOL    HW1 1289   6.213   0.517   4.554
  130SOL    HW2 1290   6.358   0.554   4.489
  131SOL     OW 1291   5.535   0.323   4.089
  131SOL    HW1 1292   5.568   0.295   4.179
  131SOL    HW2 1293   5.531   0.423   4.085
  132SOL     OW 1294   2.893   2.789   1.111
  132SOL    HW1 1295   2.852   2.698   1.102
  132SOL    HW2 1296   2.993   2.781   1.109
  133SOL     OW 1297   5.500   0.584   4.064
  133SOL    HW1 1298   5.508   0.645   3.985
  133SOL    HW2 1299   5.409   0.595   4.104
  134SOL     OW 1300   0.032   0.345   2.845
  134SOL    HW1 1301   6.975   0.378   2.800
  134SOL    HW2 1302   0.111   0.360   2.786
  135SOL     OW 1303   5.309   3.508   4.171
  135SOL    HW1 1304   5.225   3.519   4.224
  135SOL    HW2 1305   5.386   3.494   4.233
  136SOL     OW 1306   1.710   5.946   4.453
  136SOL    HW1 1307   1.699   6.000   4.370
  136SOL    HW2 1308   1.697   6.004   4.533
  137SOL     OW 1309   4.435   1.434   4.533
  137SOL    HW1 1310   4.359   1.385   4.576
  137SOL    HW2 1311   4.515   1.428   4.592
  138SOL     OW 1312   0.567   4.188   2.904
  138SOL    HW1 1313   0.627   4.109   2.905
  138SOL    HW2 1314   0.530   4.203   2.996
  139SOL     OW 1315   2.094   5.785   6.122
  139SOL    HW1 1316   2.182   5.772   6.075
  139SOL    HW2 1317   2.031   5.834   6.062
  140SOL     OW 1318   1.070   6.511   3.703
  140SOL    HW1 1319   1.069   6.580   3.631
  140SOL    HW2 1320   1.093   6.422   3.665
  141SOL     OW 1321   6.430   2.632   6.197
  141SOL    HW1 1322   6.451   2.577   6.116
  141SOL    HW2 1323   6.510   2.634   6.257
  142SOL     OW 1324   2.122   3.540   2.214
  142SOL    HW1 1325   2.153   3.490   2.133
  142SOL    HW2 1326   2.117   3.477   2.292
  143SOL     OW 1327   5.671   5.889   0.800
  143SOL    HW1 1328   5.639   5.798   0.775
  143SOL    HW2 1329   5.594   5.953   0.802
  144SOL     OW 1330   1.914   4.818   5.610
  144SOL    HW1 1331   1.870   4.803   5.522
  144SOL    HW2 1332   2.012   4.834   5.596
  145SOL     OW 1333   1.876   5.467   1.098
  145SOL    HW1 1334   1.877   5.474   1.197
  145SOL    HW2 1335   1.968   5.446   1.065
  146SOL     OW 1336   5.027   0.829   6.722
  146SOL    HW1 1337   5.102   0.887   6.756
  146SOL    HW2 1338   5.066   0.749   6.675
  147SOL     OW 1339   5.134   1.428   5.758
  147SOL    HW1 1340   5.203   1.372   5.804
  147SOL    HW2 1341   5.112   1.508   5.814
  148SOL     OW 1342   0.522   5.594   1.539
  148SOL    HW1 1343   0.496   5.690   1.529
  148SOL    HW2 1344   0.568   5.581   1.627
  149SOL     OW 1345   3.219   1.661   4.943
  149SOL    HW1 1346   3.154   1.590   4.969
  149SOL    HW2 1347   3.273   1.688   5.022
  150SOL     OW 1348   4.975   0.306   6.177
  150SOL    HW1 1349   4.941   0.313   6.270
  150SOL    HW2 1350   5.018   0.216   6.163
  151SOL     OW 1351   3.540   1.067   1.600
  151SOL    HW1 1352   3.486   1.056   1.683
  151SOL    HW2 1353   3.634   1.038   1.617
  152SOL     OW 1354   0.161   1.641   0.307
  152SOL    HW1 1355   0.174   1.610   0.401
  152SOL    HW2 1356   0.092   1.714   0.305
  153SOL     OW 1357   2.819   6.807   2.944
  153SOL    HW1 1358   2.905   6.856   2.928
  153SOL    HW2 1359   2.824   6.759   3.031
  154SOL     OW 1360   0.179   3.126   0.498
  154SOL    HW1 1361   0.203   3.047   0.554
  154SOL    HW2 1362   0.224   3.118   0.409
  155SOL     OW 1363   0.952   0.238   2.978
  155SOL    HW1 1364   0.986   0.167   3.038
  155SOL    HW2 1365   1.006   0.321   2.990
  156SOL     OW 1366   6.290   0.203   6.914
  156SOL    HW1 1367   6.296   0.217   6.815
  156SOL    HW2 1368   6.371   0.242   6.958
  157SOL     OW 1369   5.575   3.337   0.640
  157SOL    HW1 1370   5.583   3.241   0.665
  157SOL    HW2 1371   5.479   3.365   0.645
  158SOL     OW 1372   1.968   2.530   1.015
  158SOL    HW1 1373   1.944   2.497   0.923
  158SOL    HW2 1374   1.900   2.499   1.081
  159SOL     OW 1375   4.137   5.127   1.408
  159SOL    HW1 1376   4.040   5.134   1.382
  159SOL    HW2 1377   4.162   5.206   1.464
  160SOL     OW 1378   6.195   0.152   0.727
  160SOL    HW1 1379   6.242   0.167   0.640
  160SOL    HW2 1380   6.241   0.205   0.799
  161SOL     OW 1381   1.962   0.107   2.293
  161SOL    HW1 1382   1.975   0.017   2.252
  161SOL    HW2 1383   1.991   0.105   2.389
  162SOL     OW 1384   3.360   6.864   7.013
  162SOL    HW1 1385   3.355   6.902   0.080
  162SOL    HW2 1386   3.316   6.926   6.949
  163SOL     OW 1387   0.702   5.726   2.728
  163SOL    HW1 1388   0.686   5.824   2.716
  163SOL    HW2 1389   0.619   5.676   2.703
  164SOL     OW 1390   1.204   3.051   2.416
  164SOL    HW1 1391   1.204   3.133   2.474
  164SOL    HW2 1392   1.134   3.061   2.345
  165SOL     OW 1393   5.611   4.927   0.327
  165SOL    HW1 1394   5.696   4.917   0.379
  165SOL    HW2 1395   5.538   4.958   0.388
  166SOL     OW 1396   0.226   3.730   2.298
  166SOL    HW1 1397   0.174   3.742   2.213
  166SOL    HW2 1398   0.291   3.655   2.287
  167SOL     OW 1399   6.483   1.404   6.413
  167SOL    HW1 1400   6.423   1.473   6.454
  167SOL    HW2 1401   6.578   1.435   6.418
  168SOL     OW 1402   4.248   2.179   1.376
  168SOL    HW1 1403   4.319   2.196   1.308
  168SOL    HW2 1404   4.247   2.082   1.400
  169SOL     OW 1405   5.838   2.266   0.013
  169SOL    HW1 1406   5.889   2.315   0.084
  169SOL    HW2 1407   5.820   2.172   0.044
  170SOL     OW 1408   6.697   5.794   2.866
  170SOL    HW1 1409   6.759   5.866   2.835
  170SOL    HW2 1410   6.605   5.831   2.875
  171SOL     OW 1411   2.473   4.366   0.470
  171SOL    HW1 1412   2.503   4.460   0.456
  171SOL    HW2 1413   2.410   4.340   0.397
  172SOL     OW 1414   5.960   2.100   2.705
  172SOL    HW1 1415   5.877   2.154   2.722
  172SOL    HW2 1416   5.939   2.003   2.717
  173SOL     OW 1417   5.955   1.392   4.724
  173SOL    HW1 1418   6.038   1.402   4.669
  173SOL    HW2 1419   5.975   1.335   4.804
  174SOL     OW 1420   4.314   5.507   3.728
  174SOL    HW1 1421   4.232   5.563   3.742
  174SOL    HW2 1422   4.346   5.520   3.634
  175SOL     OW 1423   3.409   1.142   1.157
  175SOL    HW1 1424   3.477   1.079   1.120
  175SOL    HW2 1425   3.452   1.229   1.180
  176SOL     OW 1426   5.304   4.442   2.412
  176SOL    HW1 1427   5.327   4.430   2.316
  176SOL    HW2 1428   5.229   4.381   2.436
  177SOL     OW 1429   4.815   3.127   4.500
  177SOL    HW1 1430   4.731   3.095   4.544
  177SOL    HW2 1431   4.831   3.075   4.416
  178SOL     OW 1432   2.646   5.052   5.171
  178SOL    HW1 1433   2.738   5.090   5.162
  178SOL    HW2 1434   2.642   4.963   5.126
  179SOL     OW 1435   4.241   0.050   6.901
  179SOL    HW1 1436   4.149   0.013   6.909
  179SOL    HW2 1437   4.295   0.025   6.981
  180SOL     OW 1438   2.151   6.766   0.460
  180SOL    HW1 1439   2.230   6.825   0.447
  180SOL    HW2 1440   2.099   6.759   0.375
  181SOL     OW 1441   3.564   3.146   6.170
  181SOL    HW1 1442   3.470   3.170   6.146
  181SOL    HW2 1443   3.627   3.212   6.128
  182SOL     OW 1444   4.243   2.445   6.428
  182SOL    HW1 1445   4.209   2.357   6.395
  182SOL    HW2 1446   4.323   2.472   6.375
  183SOL     OW 1447   3.515   2.092   3.519
  183SOL    HW1 1448   3.609   2.121   3.538
  183SOL    HW2 1449   3.498   2.004   3.564
  184SOL     OW 1450   0.573   6.278   3.524
  184SOL    HW1 1451   0.618   6.234   3.446
  184SOL    HW2 1452   0.624   6.360   3.550
  185SOL     OW 1453   1.296   1.276   4.510
  185SOL    HW1 1454   1.222   1.210   4.503
  185SOL    HW2 1455   1.259   1.369   4.515
  186SOL     OW 1456   5.080   0.367   4.617
  186SOL    HW1 1457   5.142   0.389   4.692
  186SOL    HW2 1458   4.985   0.380   4.646
  187SOL     OW 1459   5.729   6.523   2.530
  187SOL    HW1 1460   5.654   6.566   2.581
  187SOL    HW2 1461   5.783   6.466   2.591
  188SOL     OW 1462   0.452   3.272   3.785
  188SOL    HW1 1463   0.447   3.335   3.862
  188SOL    HW2 1464   0.528   3.208   3.799
  189SOL     OW 1465   1.607   4.938   6.693
  189SOL    HW1 1466   1.588   4.846   6.661
  189SOL    HW2 1467   1.522   4.983   6.718
  190SOL     OW 1468   6.242   4.308   6.038
  190SOL    HW1 1469   6.312   4.367   5.998
  190SOL    HW2 1470   6.284   4.243   6.100
  191SOL     OW 1471   6.713   1.173   6.748
  191SOL    HW1 1472   6.702   1.087   6.796
  191SOL    HW2 1473   6.655   1.173   6.666
  192SOL     OW 1474   0.303   4.423   1.501
  192SOL    HW1 1475   0.234   4.353   1.483
  192SOL    HW2 1476   0.373   4.386   1.563
  193SOL     OW 1477   4.748   4.083   5.162
  193SOL    HW1 1478   4.736   3.990   5.127
  193SOL    HW2 1479   4.671   4.140   5.133
  194SOL     OW 1480   3.704   6.342   3.509
  194SOL    HW1 1481   3.685   6.246   3.487
  194SOL    HW2 1482   3.769   6.379   3.442
  195SOL     OW 1483   1.660   1.173   3.314
  195SOL    HW1 1484   1.586   1.106   3.307
  195SOL    HW2 1485   1.690   1.199   3.223
  196SOL     OW 1486   3.158   0.102   0.263
  196SOL    HW1 1487   3.133   0.180   0.321
  196SOL    HW2 1488   3.195   0.135   0.176
  197SOL     OW 1489   2.543   6.837   0.353
  197SOL    HW1 1490   2.514   6.787   0.272
  197SOL    HW2 1491   2.593   6.919   0.326
  198SOL     OW 1492   4.675   6.730   2.061
  198SOL    HW1 1493   4.665   6.740   1.962
  198SOL    HW2 1494   4.697   6.635   2.082
  199SOL     OW 1495   6.210   0.959   2.969
  199SOL    HW1 1496   6.289   0.897   2.969
  199SOL    HW2 1497   6.237   1.048   3.005
  200SOL     OW 1498   0.993   4.337   2.421
  200SOL    HW1 1499   1.075   4.353   2.476
  200SOL    HW2 1500   0.912   4.370   2.471
  201SOL     OW 1501   4.393   6.796   6.347
  201SOL    HW1 1502   4.472   6.745   6.380
  201SOL    HW2 1503   4.361   6.859   6.418
  202SOL     OW 1504   5.673   0.513   5.462
  202SOL    HW1 1505   5.763   0.477   5.435
  202SOL    HW2 1506   5.604   0.483   5.396
  203SOL     OW 1507   5.371   2.348   4.750
  203SOL    HW1 1508   5.325   2.334   4.837
  203SOL    HW2 1509   5.465   2.379   4.767
  204SOL     OW 1510   0.434   0.646   6.723
  204SOL    HW1 1511   0.359   0.589   6.687
  204SOL    HW2 1512   0.437   0.732   6.673
  205SOL     OW 1513   0.668   1.227   2.187
  205SOL    HW1 1514   0.654   1.249   2.091
  205SOL    HW2 1515   0.762   1.194   2.200
  206SOL     OW 1516   0.244   5.029   2.596
  206SOL    HW1 1517   0.167   4.980   2.636
  206SOL    HW2 1518   0.256   5.002   2.500
  207SOL     OW 1519   4.352   0.106   4.967
  207SOL    HW1 1520   4.277   0.157   4.923
  207SOL    HW2 1521   4.429   0.099   4.904
  208SOL     OW 1522   5.222   3.963   5.766
  208SOL    HW1 1523   5.202   3.865   5.767
  208SOL    HW2 1524   5.288   3.983   5.694
  209SOL     OW 1525   0.745   5.457   5.496
  209SOL    HW1 1526   0.837   5.419   5.505
  209SOL    HW2 1527   0.703   5.420   5.413
  210SOL     OW 1528   4.172   2.224   1.646
  210SOL    HW1 1529   4.072   2.225   1.641
  210SOL    HW2 1530   4.210   2.209   1.554
  211SOL     OW 1531   0.995   6.564   4.428
  211SOL    HW1 1532   0.935   6.630   4.474
  211SOL    HW2 1533   0.945   6.519   4.354
  212SOL     OW 1534   2.217   4.706   1.818
  212SOL    HW1 1535   2.119   4.711   1.837
  212SOL    HW2 1536   2.261   4.792   1.844
  213SOL     OW 1537   3.884   0.812   6.375
  213SOL    HW1 1538   3.930   0.809   6.286
  213SOL    HW2 1539   3.952   0.826   6.447
  214SOL     OW 1540   3.350   6.032   2.467
  214SOL    HW1 1541   3.354   5.947   2.414
  214SOL    HW2 1542   3.442   6.071   2.473
  215SOL     OW 1543   3.298   4.031   1.809
  215SOL    HW1 1544   3.316   3.979   1.726
  215SOL    HW2 1545   3.364   4.005   1.880
  216SOL     OW 1546   1.890   6.612   5.179
  216SOL    HW1 1547   1.958   6.647   5.115
  216SOL    HW2 1548   1.879   6.514   5.165
  217SOL     OW 1549   2.621   2.206   3.900
  217SOL    HW1 1550   2.577   2.243   3.818
  217SOL    HW2 1551   2.638   2.280   3.965
  218SOL     OW 1552   0.852   3.401   4.639
  218SOL    HW1 1553   0.897   3.320   4.601
  218SOL    HW2 1554   0.797   3.374   4.718
  219SOL     OW 1555   3.151   6.409   6.700
  219SOL    HW1 1556   3.115   6.353   6.775
  219SOL    HW2 1557   3.075   6.452   6.651
  220SOL     OW 1558   3.528   6.230   6.438
  220SOL    HW1 1559   3.512   6.132   6.451
  220SOL    HW2 1560   3.615   6.242   6.390
  221SOL     OW 1561   6.891   3.876   2.728
  221SOL    HW1 1562   6.818   3.820   2.767
  221SOL    HW2 1563   6.919   3.838   2.639
  222SOL     OW 1564   1.874   4.993   5.843
  222SOL    HW1 1565   1.914   5.081   5.816
  222SOL    HW2 1566   1.857   4.938   5.761
  223SOL     OW 1567   6.576   3.834   0.552
  223SOL    HW1 1568   6.633   3.899   0.600
  223SOL    HW2 1569   6.566   3.751   0.607
  224SOL     OW 1570   2.835   1.876   3.734
  224SOL    HW1 1571   2.822   1.783   3.770
  224SOL    HW2 1572   2.932   1.901   3.742
  225SOL     OW 1573   5.207   1.265   6.430
  225SOL    HW1 1574   5.276   1.295   6.495
  225SOL    HW2 1575   5.242   1.187   6.378
  226SOL     OW 1576   0.523   7.022   6.308
  226SOL    HW1 1577   0.585   6.998   6.383
  226SOL    HW2 1578   0.501   6.940   6.255
  227SOL     OW 1579   1.500   4.298   2.170
  227SOL    HW1 1580   1.477   4.234   2.243
  227SOL    HW2 1581   1.492   4.251   2.081
  228SOL     OW 1582   3.351   6.268   3.618
  228SOL    HW1 1583   3.302   6.303   3.698
  228SOL    HW2 1584   3.321   6.316   3.536
  229SOL     OW 1585   5.847   6.077   0.393
  229SOL    HW1 1586   5.893   5.989   0.379
  229SOL    HW2 1587   5.755   6.061   0.428
  230SOL     OW 1588   2.901   4.776   2.934
  230SOL    HW1 1589   2.898   4.865   2.889
  230SOL    HW2 1590   2.863   4.706   2.873
  231SOL     OW 1591   6.257   2.007   6.029
  231SOL    HW1 1592   6.201   1.929   6.001
  231SOL    HW2 1593   6.300   1.988   6.117
  232SOL     OW 1594   0.893   3.835   5.987
  232SOL    HW1 1595   0.909   3.748   5.939
  232SOL    HW2 1596   0.796   3.842   6.012
  233SOL     OW 1597   2.050   0.866   4.197
  233SOL    HW1 1598   2.139   0.877   4.154
  233SOL    HW2 1599   1.978   0.890   4.131
  234SOL     OW 1600   2.930   6.279   5.432
  234SOL    HW1 1601   2.961   6.218   5.506
  234SOL    HW2 1602   3.008   6.307   5.377
  235SOL     OW 1603   2.895   3.515   2.244
  235SOL    HW1 1604   2.953   3.578   2.192
  235SOL    HW2 1605   2.839   3.462   2.181
  236SOL     OW 1606   6.285   2.651   6.562
  236SOL    HW1 1607   6.337   2.732   6.589
  236SOL    HW2 1608   6.188   2.667   6.576
  237SOL     OW 1609   6.621   6.616   0.645
  237SOL    HW1 1610   6.704   6.572   0.611
  237SOL    HW2 1611   6.583   6.563   0.721
  238SOL     OW 1612   6.269   2.198   0.015
  238SOL    HW1 1613   6.209   2.247   0.078
  238SOL    HW2 1614   6.328   2.263   6.993
  239SOL     OW 1615   6.486   5.305   0.264
  239SOL    HW1 1616   6.398   5.299   0.218
  239SOL    HW2 1617   6.478   5.269   0.357
  240SOL     OW 1618   0.167   3.144   5.265
  240SOL    HW1 1619   0.089   3.193   5.305
  240SOL    HW2 1620   0.139   3.104   5.178
  241SOL     OW 1621   1.055   0.406   3.883
  241SOL    HW1 1622   1.006   0.417   3.970
  241SOL    HW2 1623   1.091   0.313   3.876
  242SOL     OW 1624   2.355   2.919   6.363
  242SOL    HW1 1625   2.393   2.982   6.295
  242SOL    HW2 1626   2.305   2.846   6.315
  243SOL     OW 1627   5.089   6.792   6.369
  243SOL    HW1 1628   5.111   6.744   6.454
  243SOL    HW2 1629   5.006   6.846   6.381
  244SOL     OW 1630   4.898   2.995   4.257
  244SOL    HW1 1631   4.946   2.956   4.178
  244SOL    HW2 1632   4.831   2.930   4.292
  245SOL     OW 1633   6.855   2.209   4.560
  245SOL    HW1 1634   6.807   2.296   4.572
  245SOL    HW2 1635   6.900   2.184   4.646
  246SOL     OW 1636   5.657   2.898   3.387
  246SOL    HW1 1637   5.655   2.966   3.314
  246SOL    HW2 1638   5.575   2.841   3.381
  247SOL     OW 1639   1.963   1.840   2.256
  247SOL    HW1 1640   1.894   1.776   2.224
  247SOL    HW2 1641   1.920   1.908   2.316
  248SOL     OW 1642   4.612   2.440   4.831
  248SOL    HW1 1643   4.659   2.407   4.913
  248SOL    HW2 1644   4.566   2.527   4.851
  249SOL     OW 1645   4.886   0.029   5.130
  249SOL    HW1 1646   4.855   0.104   5.072
  249SOL    HW2 1647   4.975   0.051   5.170
  250SOL     OW 1648   4.686   2.057   5.727
  250SOL    HW1 1649   4.652   1.963   5.729
  250SOL    HW2 1650   4.636   2.112   5.794
  251SOL     OW 1651   4.488   4.514   5.876
  251SOL    HW1 1652   4.541   4.593   5.905
  251SOL    HW2 1653   4.410   4.501   5.937
  252SOL     OW 1654   6.816   0.311   6.939
  252SOL    HW1 1655   6.832   0.256   7.021
  252SOL    HW2 1656   6.764   0.258   6.872
  253SOL     OW 1657   2.301   4.314   0.244
  253SOL    HW1 1658   2.260   4.354   0.162
  253SOL    HW2 1659   2.230   4.300   0.313
  254SOL     OW 1660   6.466   2.782   3.511
  254SOL    HW1 1661   6.403   2.760   3.585
  254SOL    HW2 1662   6.435   2.739   3.426
  255SOL     OW 1663   1.966   2.922   4.211
  255SOL    HW1 1664   1.878   2.967   4.194
  255SOL    HW2 1665   2.013   2.968   4.286
  256SOL     OW 1666   6.737   4.697   0.222
  256SOL    HW1 1667   6.789   4.623   0.179
  256SOL    HW2 1668   6.773   4.713   0.314
  257SOL     OW 1669   3.584   5.471   5.284
  257SOL    HW1 1670   3.527   5.544   5.246
  257SOL    HW2 1671   3.528   5.390   5.301
  258SOL     OW 1672   5.615   4.021   4.652
  258SOL    HW1 1673   5.535   3.961   4.656
  258SOL    HW2 1674   5.647   4.026   4.557
  259SOL     OW 1675   2.095   2.868   2.303
  259SOL    HW1 1676   2.036   2.787   2.299
  259SOL    HW2 1677   2.038   2.950   2.306
  260SOL     OW 1678   4.420   0.745   1.022
  260SOL    HW1 1679   4.367   0.676   0.974
  260SOL    HW2 1680   4.408   0.734   1.121
  261SOL     OW 1681   6.650   3.764   1.257
  261SOL    HW1 1682   6.594   3.700   1.310
  261SOL    HW2 1683   6.711   3.814   1.318
  262SOL     OW 1684   0.740   3.959   1.796
  262SOL    HW1 1685   0.754   3.872   1.844
  262SOL    HW2 1686   0.698   3.941   1.707
  263SOL     OW 1687   0.444   1.340   3.723
  263SOL    HW1 1688   0.368   1.329   3.658
  263SOL    HW2 1689   0.462   1.253   3.768
  264SOL     OW 1690   5.659   4.458   5.498
  264SOL    HW1 1691   5.735   4.447   5.434
  264SOL    HW2 1692   5.583   4.504   5.451
  265SOL     OW 1693   4.934   3.891   3.174
  265SOL    HW1 1694   4.939   3.814   3.237
  265SOL    HW2 1695   4.932   3.857   3.080
  266SOL     OW 1696   3.357   2.891   6.119
  266SOL    HW1 1697   3.275   2.888   6.176
  266SOL    HW2 1698   3.438   2.893   6.178
  267SOL     OW 1699   6.789   2.517   5.823
  267SOL    HW1 1700   6.886   2.493   5.815
  267SOL    HW2 1701   6.750   2.529   5.732
  268SOL     OW 1702   4.981   5.761   5.378
  268SOL    HW1 1703   5.016   5.698   5.308
  268SOL    HW2 1704   4.961   5.711   5.462
  269SOL     OW 1705   1.516   1.869   0.514
  269SOL    HW1 1706   1.559   1.828   0.434
  269SOL    HW2 1707   1.462   1.948   0.486
  270SOL     OW 1708   6.996   1.018   2.007
  270SOL    HW1 1709   6.933   1.083   1.964
  270SOL    HW2 1710   7.024   0.950   1.939
  271SOL     OW 1711   3.005   1.756   0.405
  271SOL    HW1 1712   2.960   1.829   0.354
  271SOL    HW2 1713   2.937   1.689   0.436
  272SOL     OW 1714   3.203   5.304   4.290
  272SOL    HW1 1715   3.281   5.245   4.271
  272SOL    HW2 1716   3.149   5.266   4.365
  273SOL     OW 1717   1.436   5.465   5.176
  273SOL    HW1 1718   1.374   5.482   5.099
  273SOL    HW2 1719   1.385   5.428   5.253
  274SOL     OW 1720   5.373   2.155   4.199
  274SOL    HW1 1721   5.415   2.160   4.109
  274SOL    HW2 1722   5.275   2.173   4.191
  275SOL     OW 1723   0.484   5.728   6.235
  275SOL    HW1 1724   0.439   5.702   6.150
  275SOL    HW2 1725   0.426   5.703   6.313
  276SOL     OW 1726   6.522   5.284   3.739
  276SOL    HW1 1727   6.613   5.325   3.743
  276SOL    HW2 1728   6.529   5.186   3.757
  277SOL     OW 1729   2.922   1.478   6.502
  277SOL    HW1 1730   2.976   1.426   6.436
  277SOL    HW2 1731   2.889   1.416   6.574
  278SOL     OW 1732   6.558   3.544   2.103
  278SOL    HW1 1733   6.488   3.599   2.148
  278SOL    HW2 1734   6.648   3.563   2.143
  279SOL     OW 1735   6.253   2.827   4.205
  279SOL    HW1 1736   6.282   2.734   4.184
  279SOL    HW2 1737   6.330   2.890   4.197
  280SOL     OW 1738   4.061   0.110   3.212
  280SOL    HW1 1739   4.108   0.151   3.134
  280SOL    HW2 1740   3.973   0.072   3.182
  281SOL     OW 1741   2.858   4.797   3.312
  281SOL    HW1 1742   2.861   4.768   3.408
  281SOL    HW2 1743   2.951   4.812   3.279
  282SOL     OW 1744   4.047   2.481   5.452
  282SOL    HW1 1745   4.092   2.524   5.374
  282SOL    HW2 1746   4.068   2.384   5.455
  283SOL     OW 1747   5.932   0.552   5.844
  283SOL    HW1 1748   5.869   0.496   5.898
  283SOL    HW2 1749   6.021   0.508   5.841
  284SOL     OW 1750   0.853   4.588   4.594
  284SOL    HW1 1751   0.917   4.621   4.524
  284SOL    HW2 1752   0.905   4.550   4.671
  285SOL     OW 1753   5.095   5.700   0.259
  285SOL    HW1 1754   5.026   5.772   0.249
  285SOL    HW2 1755   5.186   5.741   0.258
  286SOL     OW 1756   4.488   4.716   5.452
  286SOL    HW1 1757   4.401   4.683   5.489
  286SOL    HW2 1758   4.487   4.816   5.446
  287SOL     OW 1759   1.342   5.455   6.554
  287SOL    HW1 1760   1.368   5.399   6.475
  287SOL    HW2 1761   1.345   5.552   6.528
  288SOL     OW 1762   3.983   1.319   0.135
  288SOL    HW1 1763   4.039   1.282   0.061
  288SOL    HW2 1764   3.906   1.370   0.096
  289SOL     OW 1765   0.387   5.211   5.504
  289SOL    HW1 1766   0.320   5.254   5.444
  289SOL    HW2 1767   0.420   5.279   5.571
  290SOL     OW 1768   4.917   1.069   3.959
  290SOL    HW1 1769   4.851   1.081   4.033
  290SOL    HW2 1770   4.879   1.104   3.874
  291SOL     OW 1771   4.174   1.201   4.183
  291SOL    HW1 1772   4.085   1.156   4.190
  291SOL    HW2 1773   4.161   1.300   4.179
  292SOL     OW 1774   4.894   1.293   3.659
  292SOL    HW1 1775   4.876   1.341   3.744
  292SOL    HW2 1776   4.992   1.275   3.651
  293SOL     OW 1777   4.174   6.383   1.618
  293SOL    HW1 1778   4.201   6.398   1.713
  293SOL    HW2 1779   4.142   6.470   1.579
  294SOL     OW 1780   5.745   5.604   7.004
  294SOL    HW1 1781   5.671   5.657   6.962
  294SOL    HW2 1782   5.830   5.621   6.955
  295SOL     OW 1783   2.259   2.120   5.390
  295SOL    HW1 1784   2.241   2.123   5.292
  295SOL    HW2 1785   2.316   2.198   5.417
  296SOL     OW 1786   6.829   2.334   1.821
  296SOL    HW1 1787   6.781   2.368   1.740
  296SOL    HW2 1788   6.768   2.341   1.900
  297SOL     OW 1789   3.353   4.964   3.210
  297SOL    HW1 1790   3.275   4.925   3.161
  297SOL    HW2 1791   3.326   4.989   3.303
  298SOL     OW 1792   4.525   6.746   0.103
  298SOL    HW1 1793   4.500   6.680   0.032
  298SOL    HW2 1794   4.486   6.717   0.191
  299SOL     OW 1795   4.430   2.125   6.608
  299SOL    HW1 1796   4.390   2.059   6.544
  299SOL    HW2 1797   4.407   2.099   6.702
  300SOL     OW 1798   4.046   0.499   2.709
  300SOL    HW1 1799   3.960   0.549   2.722
  300SOL    HW2 1800   4.120   0.564   2.688
  301SOL     OW 1801   5.081   1.525   1.018
  301SOL    HW1 1802   5.148   1.545   1.089
  301SOL    HW2 1803   5.052   1.429   1.027
  302SOL     OW 1804   0.014   0.869   2.643
  302SOL    HW1 1805   7.002   0.778   2.628
  302SOL    HW2 1806   0.036   0.881   2.740
  303SOL     OW 1807   6.451   5.858   1.937
  303SOL    HW1 1808   6.510   5.920   1.885
  303SOL    HW2 1809   6.432   5.897   2.027
  304SOL     OW 1810   2.003   6.501   6.524
  304SOL    HW1 1811   1.974   6.540   6.436
  304SOL    HW2 1812   1.927   6.506   6.589
  305SOL     OW 1813   1.210   3.160   1.063
  305SOL    HW1 1814   1.149   3.095   1.109
  305SOL    HW2 1815   1.304   3.144   1.091
  306SOL     OW 1816   0.332   1.065   2.795
  306SOL    HW1 1817   0.310   1.125   2.872
  306SOL    HW2 1818   0.411   1.102   2.746
  307SOL     OW 1819   4.256   4.200   0.224
  307SOL    HW1 1820   4.293   4.152   0.145
  307SOL    HW2 1821   4.235   4.295   0.199
  308SOL     OW 1822   5.742   2.326   4.077
  308SOL    HW1 1823   5.747   2.345   3.979
  308SOL    HW2 1824   5.695   2.401   4.123
  309SOL     OW 1825   1.763   6.148   0.072
  309SOL    HW1 1826   1.760   6.183   0.165
  309SOL    HW2 1827   1.843   6.088   0.062
  310SOL     OW 1828   5.190   6.308   4.720
  310SOL    HW1 1829   5.192   6.311   4.820
  310SOL    HW2 1830   5.097   6.324   4.687
  311SOL     OW 1831   3.067   5.229   2.722
  311SOL    HW1 1832   3.060   5.263   2.628
  311SOL    HW2 1833   3.122   5.292   2.776
  312SOL     OW 1834   3.695   2.066   4.045
  312SOL    HW1 1835   3.697   1.970   4.075
  312SOL    HW2 1836   3.600   2.098   4.044
  313SOL     OW 1837   3.358   4.008   2.405
  313SOL    HW1 1838   3.310   4.043   2.324
  313SOL    HW2 1839   3.449   4.048   2.410
  314SOL     OW 1840   2.461   4.758   5.600
  314SOL    HW1 1841   2.498   4.797   5.516
  314SOL    HW2 1842   2.524   4.776   5.676
  315SOL     OW 1843   0.995   2.157   4.057
  315SOL    HW1 1844   1.086   2.143   4.096
  315SOL    HW2 1845   0.939   2.210   4.121
  316SOL     OW 1846   3.828   0.444   4.342
  316SOL    HW1 1847   3.815   0.357   4.294
  316SOL    HW2 1848   3.915   0.443   4.390
  317SOL     OW 1849   0.119   1.543   1.351
  317SOL    HW1 1850   0.166   1.629   1.332
  317SOL    HW2 1851   0.051   1.556   1.422
  318SOL     OW 1852   6.616   6.857   0.030
  318SOL    HW1 1853   6.518   6.848   0.011
  318SOL    HW2 1854   6.666   6.789   7.003
  319SOL     OW 1855   6.467   1.556   3.458
  319SOL    HW1 1856   6.400   1.507   3.513
  319SOL    HW2 1857   6.421   1.604   3.384
  320SOL     OW 1858   5.704   2.828   0.357
  320SOL    HW1 1859   5.708   2.803   0.260
  320SOL    HW2 1860   5.637   2.902   0.369
  321SOL     OW 1861   4.332   2.117   6.861
  321SOL    HW1 1862   4.303   2.211   6.846
  321SOL    HW2 1863   4.405   2.116   6.930
  322SOL     OW 1864   3.038   3.078   4.247
  322SOL    HW1 1865   3.016   3.121   4.334
  322SOL    HW2 1866   2.983   3.121   4.174
  323SOL     OW 1867   0.942   2.675   5.636
  323SOL    HW1 1868   1.014   2.666   5.704
  323SOL    HW2 1869   0.949   2.601   5.570
  324SOL     OW 1870   2.520   0.256   3.141
  324SOL    HW1 1871   2.603   0.200   3.145
  324SOL    HW2 1872   2.542   0.347   3.105
  325SOL     OW 1873   0.320   2.937   2.109
  325SOL    HW1 1874   0.280   3.002   2.044
  325SOL    HW2 1875   0.420   2.943   2.105
  326SOL     OW 1876   0.881   4.309   6.178
  326SOL    HW1 1877   0.915   4.310   6.272
  326SOL    HW2 1878   0.811   4.238   6.168
  327SOL     OW 1879   2.354   4.633   2.841
  327SOL    HW1 1880   2.327   4.723   2.877
  327SOL    HW2 1881   2.408   4.585   2.911
  328SOL     OW 1882   1.900   5.094   2.098
  328SOL    HW1 1883   1.937   5.175   2.053
  328SOL    HW2 1884   1.973   5.025   2.106
  329SOL     OW 1885   2.675   3.759   5.747
  329SOL    HW1 1886   2.650   3.817   5.670
  329SOL    HW2 1887   2.630   3.670   5.738
  330SOL     OW 1888   3.038   6.575   0.910
  330SOL    HW1 1889   3.112   6.606   0.851
  330SOL    HW2 1890   3.072   6.508   0.975
  331SOL     OW 1891   4.700   5.632   0.439
  331SOL    HW1 1892   4.664   5.596   0.352
  331SOL    HW2 1893   4.643   5.708   0.469
  332SOL     OW 1894   5.532   2.984   5.370
  332SOL    HW1 1895   5.538   2.951   5.464
  332SOL    HW2 1896   5.621   3.019   5.342
  333SOL     OW 1897   4.425   0.732   5.759
  333SOL    HW1 1898   4.326   0.740   5.771
  333SOL    HW2 1899   4.458   0.651   5.807
  334SOL     OW 1900   3.116   2.103   0.350
  334SOL    HW1 1901   3.207   2.067   0.370
  334SOL    HW2 1902   3.099   2.185   0.404
  335SOL     OW 1903   3.623   0.269   6.378
  335SOL    HW1 1904   3.530   0.251   6.347
  335SOL    HW2 1905   3.645   0.211   6.456
  336SOL     OW 1906   3.151   0.867   3.194
  336SOL    HW1 1907   3.173   0.770   3.203
  336SOL    HW2 1908   3.063   0.878   3.148
  337SOL     OW 1909   6.728   3.446   5.354
  337SOL    HW1 1910   6.685   3.382   5.417
  337SOL    HW2 1911   6.733   3.536   5.397
  338SOL     OW 1912   3.007   2.421   1.412
  338SOL    HW1 1913   3.047   2.512   1.427
  338SOL    HW2 1914   3.014   2.368   1.496
  339SOL     OW 1915   4.495   5.410   4.651
  339SOL    HW1 1916   4.593   5.426   4.639
  339SOL    HW2 1917   4.452   5.396   4.562
  340SOL     OW 1918   5.652   3.191   4.343
  340SOL    HW1 1919   5.666   3.219   4.438
  340SOL    HW2 1920   5.609   3.100   4.340
  341SOL     OW 1921   6.154   6.593   4.545
  341SOL    HW1 1922   6.122   6.608   4.451
  341SOL    HW2 1923   6.084   6.624   4.609
  342SOL     OW 1924   5.781   3.458   0.194
  342SOL    HW1 1925   5.722   3.391   0.148
  342SOL    HW2 1926   5.855   3.409   0.240
  343SOL     OW 1927   0.856   5.970   1.630
  343SOL    HW1 1928   0.801   5.920   1.562
  343SOL    HW2 1929   0.830   6.067   1.628
  344SOL     OW 1930   0.601   3.281   1.956
  344SOL    HW1 1931   0.626   3.296   1.860
  344SOL    HW2 1932   0.503   3.265   1.963
  345SOL     OW 1933   5.347   2.288   3.467
  345SOL    HW1 1934   5.302   2.200   3.481
  345SOL    HW2 1935   5.282   2.352   3.426
  346SOL     OW 1936   1.739   1.292   2.236
  346SOL    HW1 1937   1.717   1.198   2.264
  346SOL    HW2 1938   1.773   1.291   2.141
  347SOL     OW 1939   3.014   5.787   0.225
  347SOL    HW1 1940   2.962   5.850   0.167
  347SOL    HW2 1941   3.091   5.749   0.172
  348SOL     OW 1942   4.814   3.780   2.692
  348SOL    HW1 1943   4.827   3.716   2.616
  348SOL    HW2 1944   4.774   3.865   2.658
  349SOL     OW 1945   6.962   5.266   1.628
  349SOL    HW1 1946   6.887   5.222   1.678
  349SOL    HW2 1947   0.004   5.197   1.602
  350SOL     OW 1948   2.865   2.041   1.682
  350SOL    HW1 1949   2.878   2.137   1.658
  350SOL    HW2 1950   2.768   2.025   1.704
  351SOL     OW 1951   2.484   3.496   0.919
  351SOL    HW1 1952   2.422   3.517   0.995
  351SOL    HW2 1953   2.577   3.482   0.955
  352SOL     OW 1954   3.431   6.710   3.718
  352SOL    HW1 1955   3.476   6.639   3.663
  352SOL    HW2 1956   3.363   6.757   3.662
  353SOL     OW 1957   3.188   0.213   0.013
  353SOL    HW1 1958   3.288   0.220   0.007
  353SOL    HW2 1959   3.151   0.301   0.044
  354SOL     OW 1960   4.593   2.303   1.736
  354SOL    HW1 1961   4.522   2.374   1.740
  354SOL    HW2 1962   4.554   2.215   1.759
  355SOL     OW 1963   1.391   4.678   3.119
  355SOL    HW1 1964   1.455   4.685   3.196
  355SOL    HW2 1965   1.310   4.627   3.148
  356SOL     OW 1966   2.155   0.497   5.350
  356SOL    HW1 1967   2.233   0.469   5.406
  356SOL    HW2 1968   2.111   0.576   5.393
  357SOL     OW 1969   0.025   6.693   5.305
  357SOL    HW1 1970   6.999   6.661   5.226
  357SOL    HW2 1971   6.987   6.737   5.370
  358SOL     OW 1972   4.680   6.260   0.536
  358SOL    HW1 1973   4.581   6.246   0.542
  358SOL    HW2 1974   4.714   6.299   0.621
  359SOL     OW 1975   3.173   1.899   1.866
  359SOL    HW1 1976   3.209   1.900   1.772
  359SOL    HW2 1977   3.100   1.967   1.875
  360SOL     OW 1978   1.147   4.393   5.599
  360SOL    HW1 1979   1.233   4.432   5.565
  360SOL    HW2 1980   1.110   4.453   5.670
  361SOL     OW 1981   6.929   6.276   3.093
  361SOL    HW1 1982   6.918   6.244   2.999
  361SOL    HW2 1983   6.892   6.207   3.155
  362SOL     OW 1984   3.349   2.605   1.571
  362SOL    HW1 1985   3.389   2.574   1.485
  362SOL    HW2 1986   3.420   2.606   1.642
  363SOL     OW 1987   5.611   3.889   3.074
  363SOL    HW1 1988   5.524   3.929   3.048
  363SOL    HW2 1989   5.684   3.957   3.064
  364SOL     OW 1990   6.614   5.016   6.353
  364SOL    HW1 1991   6.589   5.110   6.377
  364SOL    HW2 1992   6.640   4.966   6.436
  365SOL     OW 1993   5.447   6.987   2.201
  365SOL    HW1 1994   5.379   0.011   2.147
  365SOL    HW2 1995   5.534   0.012   2.199
  366SOL     OW 1996   5.440   1.422   6.907
  366SOL    HW1 1997   5.508   1.350   6.896
  366SOL    HW2 1998   5.387   1.406   6.990
  367SOL     OW 1999   6.002   2.245   1.362
  367SOL    HW1 2000   5.985   2.233   1.459
  367SOL    HW2 2001   5.984   2.159   1.314
  368SOL     OW 2002   0.507   2.849   5.585
  368SOL    HW1 2003   0.511   2.838   5.684
  368SOL    HW2 2004   0.470   2.939   5.563
  369SOL     OW 2005   5.739   4.964   2.467
  369SOL    HW1 2006   5.833   4.952   2.434
  369SOL    HW2 2007   5.696   4.874   2.475
  370SOL     OW 2008   1.587   1.414   5.347
  370SOL    HW1 2009   1.563   1.355   5.271
  370SOL    HW2 2010   1.505   1.441   5.397
  371SOL     OW 2011   1.441   4.871   5.735
  371SOL    HW1 2012   1.430   4.812   5.815
  371SOL    HW2 2013   1.508   4.830   5.673
  372SOL     OW 2014   1.692   0.007   6.260
  372SOL    HW1 2015   1.686   0.058   6.174
  372SOL    HW2 2016   1.601   7.019   6.297
  373SOL     OW 2017   6.203   6.189   4.800
  373SOL    HW1 2018   6.171   6.095   4.797
  373SOL    HW2 2019   6.134   6.249   4.760
  374SOL     OW 2020   2.694   1.872   4.280
  374SOL    HW1 2021   2.674   1.775   4.284
  374SOL    HW2 2022   2.772   1.893   4.339
  375SOL     OW 2023   0.591   4.554   3.605
  375SOL    HW1 2024   0.594   4.467   3.654
  375SOL    HW2 2025   0.502   4.596   3.618
  376SOL     OW 2026   2.225   1.193   5.345
  376SOL    HW1 2027   2.266   1.216   5.434
  376SOL    HW2 2028   2.183   1.274   5.305
  377SOL     OW 2029   1.115   1.885   0.788
  377SOL    HW1 2030   1.189   1.838   0.837
  377SOL    HW2 2031   1.027   1.855   0.824
  378SOL     OW 2032   4.636   2.255   6.740
  378SOL    HW1 2033   4.604   2.348   6.761
  378SOL    HW2 2034   4.577   2.216   6.669
  379SOL     OW 2035   6.230   2.091   1.494
  379SOL    HW1 2036   6.157   2.138   1.544
  379SOL    HW2 2037   6.318   2.134   1.517
  380SOL     OW 2038   3.372   1.087   0.744
  380SOL    HW1 2039   3.299   1.040   0.695
  380SOL    HW2 2040   3.399   1.034   0.824
  381SOL     OW 2041   1.889   4.093   3.215
  381SOL    HW1 2042   1.914   4.113   3.309
  381SOL    HW2 2043   1.940   4.153   3.153
  382SOL     OW 2044   6.126   0.873   0.217
  382SOL    HW1 2045   6.225   0.868   0.220
  382SOL    HW2 2046   6.097   0.968   0.203
  383SOL     OW 2047   3.901   3.440   6.458
  383SOL    HW1 2048   3.975   3.474   6.517
  383SOL    HW2 2049   3.822   3.500   6.465
  384SOL     OW 2050   6.613   5.480   4.621
  384SOL    HW1 2051   6.685   5.520   4.678
  384SOL    HW2 2052   6.544   5.549   4.601
  385SOL     OW 2053   3.118   4.780   5.155
  385SOL    HW1 2054   3.198   4.755   5.210
  385SOL    HW2 2055   3.051   4.706   5.159
  386SOL     OW 2056   3.095   6.828   4.260
  386SOL    HW1 2057   3.124   6.803   4.353
  386SOL    HW2 2058   3.032   6.906   4.265
  387SOL     OW 2059   1.245   6.672   2.544
  387SOL    HW1 2060   1.313   6.598   2.545
  387SOL    HW2 2061   1.273   6.743   2.479
  388SOL     OW 2062   1.096   2.644   5.264
  388SOL    HW1 2063   1.018   2.590   5.297
  388SOL    HW2 2064   1.118   2.618   5.170
  389SOL     OW 2065   3.833   3.770   1.853
  389SOL    HW1 2066   3.778   3.736   1.777
  389SOL    HW2 2067   3.775   3.819   1.917
  390SOL     OW 2068   2.581   1.779   2.321
  390SOL    HW1 2069   2.666   1.803   2.274
  390SOL    HW2 2070   2.601   1.718   2.398
  391SOL     OW 2071   2.385   2.243   6.688
  391SOL    HW1 2072   2.319   2.282   6.752
  391SOL    HW2 2073   2.381   2.144   6.692
  392SOL     OW 2074   1.497   4.880   0.346
  392SOL    HW1 2075   1.515   4.781   0.348
  392SOL    HW2 2076   1.525   4.921   0.432
  393SOL     OW 2077   1.060   4.346   6.422
  393SOL    HW1 2078   1.083   4.440   6.398
  393SOL    HW2 2079   1.104   4.322   6.509
  394SOL     OW 2080   6.772   1.895   6.917
  394SOL    HW1 2081   6.782   1.797   6.900
  394SOL    HW2 2082   6.725   1.909   7.004
  395SOL     OW 2083   4.955   3.783   2.928
  395SOL    HW1 2084   4.893   3.775   2.850
  395SOL    HW2 2085   5.049   3.779   2.895
  396SOL     OW 2086   3.471   3.839   1.304
  396SOL    HW1 2087   3.533   3.903   1.259
  396SOL    HW2 2088   3.494   3.745   1.278
  397SOL     OW 2089   5.732   1.327   5.820
  397SOL    HW1 2090   5.752   1.416   5.862
  397SOL    HW2 2091   5.807   1.264   5.837
  398SOL     OW 2092   0.760   6.284   2.041
  398SOL    HW1 2093   0.844   6.283   1.985
  398SOL    HW2 2094   0.767   6.356   2.110
  399SOL     OW 2095   6.233   6.218   2.753
  399SOL    HW1 2096   6.215   6.316   2.747
  399SOL    HW2 2097   6.319   6.197   2.707
  400SOL     OW 2098   6.627   6.210   5.704
  400SOL    HW1 2099   6.635   6.309   5.694
  400SOL    HW2 2100   6.711   6.166   5.673
  401SOL     OW 2101   5.546   0.597   5.927
  401SOL    HW1 2102   5.610   0.526   5.957
  401SOL    HW2 2103   5.562   0.617   5.830
  402SOL     OW 2104   5.511   6.866   3.253
  402SOL    HW1 2105   5.550   6.795   3.311
  402SOL    HW2 2106   5.562   6.951   3.264
  403SOL     OW 2107   3.963   2.102   4.159
  403SOL    HW1 2108   4.003   2.037   4.095
  403SOL    HW2 2109   3.869   2.124   4.131
  404SOL     OW 2110   1.621   4.823   4.196
  404SOL    HW1 2111   1.595   4.912   4.160
  404SOL    HW2 2112   1.697   4.834   4.260
  405SOL     OW 2113   1.403   3.856   1.713
  405SOL    HW1 2114   1.462   3.889   1.639
  405SOL    HW2 2115   1.441   3.883   1.801
  406SOL     OW 2116   1.162   4.582   4.404
  406SOL    HW1 2117   1.144   4.486   4.421
  406SOL    HW2 2118   1.253   4.593   4.364
  407SOL     OW 2119   1.428   0.693   4.128
  407SOL    HW1 2120   1.516   0.738   4.131
  407SOL    HW2 2121   1.438   0.601   4.089
  408SOL     OW 2122   1.216   2.063   3.000
  408SOL    HW1 2123   1.288   1.995   3.012
  408SOL    HW2 2124   1.235   2.142   3.058
  409SOL     OW 2125   6.855   3.011   1.455
  409SOL    HW1 2126   6.857   3.073   1.377
  409SOL    HW2 2127   6.783   3.039   1.518
  410SOL     OW 2128   1.583   1.709   1.205
  410SOL    HW1 2129   1.573   1.610   1.216
  410SOL    HW2 2130   1.676   1.736   1.227
  411SOL     OW 2131   5.698   6.971   1.941
  411SOL    HW1 2132   5.696   7.016   2.030
  411SOL    HW2 2133   5.605   6.955   1.909
  412SOL     OW 2134   4.408   5.942   4.013
  412SOL    HW1 2135   4.362   6.012   3.958
  412SOL    HW2 2136   4.340   5.888   4.063
  413SOL     OW 2137   5.074   3.896   1.554
  413SOL    HW1 2138   5.139   3.952   1.502
  413SOL    HW2 2139   4.985   3.898   1.509
  414SOL     OW 2140   3.674   5.638   3.216
  414SOL    HW1 2141   3.668   5.736   3.197
  414SOL    HW2 2142   3.587   5.595   3.193
  415SOL     OW 2143   1.138   6.078   6.870
  415SOL    HW1 2144   1.063   6.142   6.860
  415SOL    HW2 2145   1.130   6.006   6.801
  416SOL     OW 2146   4.980   6.735   4.074
  416SOL    HW1 2147   4.985   6.824   4.119
  416SOL    HW2 2148   5.068   6.714   4.032
  417SOL     OW 2149   2.619   5.577   6.182
  417SOL    HW1 2150   2.635   5.505   6.115
  417SOL    HW2 2151   2.567   5.541   6.259
  418SOL     OW 2152   4.293   6.408   7.009
  418SOL    HW1 2153   4.264   6.330   6.954
  418SOL    HW2 2154   4.378   6.386   0.030
  419SOL     OW 2155   2.059   0.199   1.927
  419SOL    HW1 2156   2.010   0.258   1.991
  419SOL    HW2 2157   1.994   0.136   1.884
  420SOL     OW 2158   5.843   1.318   0.210
  420SOL    HW1 2159   5.816   1.359   0.297
  420SOL    HW2 2160   5.890   1.387   0.154
  421SOL     OW 2161   7.017   4.627   5.995
  421SOL    HW1 2162   0.053   4.583   5.931
  421SOL    HW2 2163   0.012   4.596   6.088
  422SOL     OW 2164   6.067   3.619   1.750
  422SOL    HW1 2165   6.021   3.675   1.681
  422SOL    HW2 2166   6.062   3.523   1.724
  423SOL     OW 2167   1.004   2.104   6.120
  423SOL    HW1 2168   0.915   2.059   6.108
  423SOL    HW2 2169   1.062   2.050   6.180
  424SOL     OW 2170   2.161   5.010   0.902
  424SOL    HW1 2171   2.230   5.041   0.837
  424SOL    HW2 2172   2.185   4.919   0.935
  425SOL     OW 2173   5.118   1.589   3.539
  425SOL    HW1 2174   5.163   1.671   3.504
  425SOL    HW2 2175   5.073   1.610   3.626
  426SOL     OW 2176   3.690   2.058   4.594
  426SOL    HW1 2177   3.598   2.098   4.589
  426SOL    HW2 2178   3.750   2.104   4.529
  427SOL     OW 2179   5.352   6.588   3.506
  427SOL    HW1 2180   5.346   6.653   3.429
  427SOL    HW2 2181   5.366   6.639   3.591
  428SOL     OW 2182   4.233   0.340   4.860
  428SOL    HW1 2183   4.208   0.366   4.953
  428SOL    HW2 2184   4.264   0.421   4.810
  429SOL     OW 2185   1.295   4.020   1.320
  429SOL    HW1 2186   1.394   4.029   1.331
  429SOL    HW2 2187   1.250   4.103   1.354
  430SOL     OW 2188   0.736   0.869   5.041
  430SOL    HW1 2189   0.740   0.965   5.013
  430SOL    HW2 2190   0.774   0.812   4.969
  431SOL     OW 2191   2.812   0.319   0.770
  431SOL    HW1 2192   2.909   0.327   0.791
  431SOL    HW2 2193   2.797   0.338   0.673
  432SOL     OW 2194   6.491   1.889   0.572
  432SOL    HW1 2195   6.556   1.864   0.500
  432SOL    HW2 2196   6.430   1.811   0.589
  433SOL     OW 2197   2.568   6.847   4.848
  433SOL    HW1 2198   2.568   6.797   4.762
  433SOL    HW2 2199   2.478   6.841   4.890
  434SOL     OW 2200   3.237   5.637   3.087
  434SOL    HW1 2201   3.281   5.701   3.025
  434SOL    HW2 2202   3.139   5.633   3.067
  435SOL     OW 2203   5.176   2.697   6.734
  435SOL    HW1 2204   5.163   2.597   6.738
  435SOL    HW2 2205   5.222   2.727   6.818
  436SOL     OW 2206   2.902   6.078   1.558
  436SOL    HW1 2207   2.867   6.170   1.578
  436SOL    HW2 2208   2.862   6.045   1.472
  437SOL     OW 2209   0.831   1.728   7.005
  437SOL    HW1 2210   0.752   1.667   7.013
  437SOL    HW2 2211   0.857   1.760   0.071
  438SOL     OW 2212   1.719   3.854   3.441
  438SOL    HW1 2213   1.801   3.902   3.410
  438SOL    HW2 2214   1.730   3.829   3.538
  439SOL     OW 2215   5.583   4.957   2.870
  439SOL    HW1 2216   5.639   4.967   2.953
  439SOL    HW2 2217   5.507   5.022   2.874
  440SOL     OW 2218   2.267   1.422   4.923
  440SOL    HW1 2219   2.316   1.335   4.914
  440SOL    HW2 2220   2.275   1.455   5.017
  441SOL     OW 2221   0.592   3.086   4.058
  441SOL    HW1 2222   0.650   3.163   4.029
  441SOL    HW2 2223   0.590   3.081   4.158
  442SOL     OW 2224   3.811   5.400   5.412
  442SOL    HW1 2225   3.735   5.420   5.350
  442SOL    HW2 2226   3.782   5.416   5.506
  443SOL     OW 2227   6.100   4.881   4.077
  443SOL    HW1 2228   6.194   4.902   4.052
  443SOL    HW2 2229   6.098   4.813   4.150
  444SOL     OW 2230   4.803   0.775   5.831
  444SOL    HW1 2231   4.882   0.805   5.885
  444SOL    HW2 2232   4.833   0.710   5.762
  445SOL     OW 2233   1.040   5.669   3.154
  445SOL    HW1 2234   1.125   5.617   3.146
  445SOL    HW2 2235   0.977   5.641   3.081
  446SOL     OW 2236   2.742   5.601   3.875
  446SOL    HW1 2237   2.745   5.501   3.880
  446SOL    HW2 2238   2.790   5.640   3.953
  447SOL     OW 2239   0.481   2.934   6.105
  447SOL    HW1 2240   0.520   2.858   6.157
  447SOL    HW2 2241   0.547   3.009   6.100
  448SOL     OW 2242   2.048   0.341   3.241
  448SOL    HW1 2243   1.964   0.332   3.187
  448SOL    HW2 2244   2.118   0.387   3.187
  449SOL     OW 2245   3.591   0.956   4.118
  449SOL    HW1 2246   3.565   0.964   4.022
  449SOL    HW2 2247   3.602   0.859   4.142
  450SOL     OW 2248   1.285   5.399   2.900
  450SOL    HW1 2249   1.350   5.445   2.839
  450SOL    HW2 2250   1.332   5.372   2.984
  451SOL     OW 2251   1.641   2.126   3.369
  451SOL    HW1 2252   1.560   2.131   3.429
  451SOL    HW2 2253   1.709   2.192   3.399
  452SOL     OW 2254   5.304   6.769   0.632
  452SOL    HW1 2255   5.274   6.692   0.575
  452SOL    HW2 2256   5.388   6.807   0.594
  453SOL     OW 2257   4.250   0.568   6.168
  453SOL    HW1 2258   4.291   0.575   6.259
  453SOL    HW2 2259   4.154   0.543   6.177
  454SOL     OW 2260   6.626   4.651   6.404
  454SOL    HW1 2261   6.591   4.696   6.486
  454SOL    HW2 2262   6.564   4.669   6.328
  455SOL     OW 2263   5.966   2.516   3.677
  455SOL    HW1 2264   5.911   2.600   3.670
  455SOL    HW2 2265   5.969   2.471   3.588
  456SOL     OW 2266   6.367   6.817   3.812
  456SOL    HW1 2267   6.309   6.738   3.834
  456SOL    HW2 2268   6.447   6.787   3.761
  457SOL     OW 2269   1.800   2.492   4.004
  457SOL    HW1 2270   1.746   2.412   4.029
  457SOL    HW2 2271   1.746   2.575   4.015
  458SOL     OW 2272   4.443   5.798   3.283
  458SOL    HW1 2273   4.449   5.869   3.213
  458SOL    HW2 2274   4.411   5.839   3.369
  459SOL     OW 2275   1.654   6.667   5.608
  459SOL    HW1 2276   1.634   6.593   5.544
  459SOL    HW2 2277   1.751   6.663   5.634
  460SOL     OW 2278   2.371   6.499   3.954
  460SOL    HW1 2279   2.428   6.492   3.872
  460SOL    HW2 2280   2.360   6.409   3.995
  461SOL     OW 2281   6.721   6.161   6.596
  461SOL    HW1 2282   6.728   6.223   6.518
  461SOL    HW2 2283   6.738   6.067   6.565
  462SOL     OW 2284   4.175   3.389   0.016
  462SOL    HW1 2285   4.171   3.326   6.964
  462SOL    HW2 2286   4.152   3.339   0.100
  463SOL     OW 2287   5.418   5.746   3.316
  463SOL    HW1 2288   5.354   5.708   3.382
  463SOL    HW2 2289   5.375   5.823   3.268
  464SOL     OW 2290   2.521   1.834   5.673
  464SOL    HW1 2291   2.511   1.746   5.626
  464SOL    HW2 2292   2.502   1.908   5.610
  465SOL     OW 2293   0.483   2.854   0.197
  465SOL    HW1 2294   0.434   2.773   0.167
  465SOL    HW2 2295   0.572   2.858   0.150
  466SOL     OW 2296   1.188   6.287   3.615
  466SOL    HW1 2297   1.122   6.241   3.555
  466SOL    HW2 2298   1.255   6.220   3.647
  467SOL     OW 2299   1.565   1.035   0.901
  467SOL    HW1 2300   1.663   1.047   0.884
  467SOL    HW2 2301   1.513   1.077   0.828
  468SOL     OW 2302   3.742   0.102   6.181
  468SOL    HW1 2303   3.814   0.092   6.113
  468SOL    HW2 2304   3.703   0.195   6.175
  469SOL     OW 2305   2.711   3.187   6.404
  469SOL    HW1 2306   2.669   3.277   6.420
  469SOL    HW2 2307   2.736   3.179   6.308
  470SOL     OW 2308   4.650   6.317   1.641
  470SOL    HW1 2309   4.743   6.299   1.673
  470SOL    HW2 2310   4.600   6.370   1.709
  471SOL     OW 2311   2.530   2.585   3.700
  471SOL    HW1 2312   2.545   2.545   3.609
  471SOL    HW2 2313   2.505   2.513   3.764
  472SOL     OW 2314   4.464   3.467   6.998
  472SOL    HW1 2315   4.380   3.500   0.016
  472SOL    HW2 2316   4.485   3.376   0.008
  473SOL     OW 2317   1.615   2.289   2.660
  473SOL    HW1 2318   1.516   2.290   2.675
  473SOL    HW2 2319   1.642   2.370   2.608
  474SOL     OW 2320   5.465   5.194   4.484
  474SOL    HW1 2321   5.559   5.160   4.496
  474SOL    HW2 2322   5.432   5.168   4.393
  475SOL     OW 2323   5.841   1.319   6.489
  475SOL    HW1 2324   5.922   1.347   6.540
  475SOL    HW2 2325   5.844   1.220   6.475
  476SOL     OW 2326   0.627   3.338   3.051
  476SOL    HW1 2327   0.596   3.284   3.129
  476SOL    HW2 2328   0.548   3.380   3.006
  477SOL     OW 2329   2.617   6.243   3.076
  477SOL    HW1 2330   2.554   6.271   3.149
  477SOL    HW2 2331   2.598   6.297   2.994
  478SOL     OW 2332   3.591   6.204   2.514
  478SOL    HW1 2333   3.624   6.290   2.554
  478SOL    HW2 2334   3.569   6.219   2.418
  479SOL     OW 2335   4.422   1.966   6.053
  479SOL    HW1 2336   4.449   1.873   6.077
  479SOL    HW2 2337   4.350   1.963   5.984
  480SOL     OW 2338   2.732   0.682   0.247
  480SOL    HW1 2339   2.632   0.684   0.256
  480SOL    HW2 2340   2.758   0.605   0.188
  481SOL     OW 2341   2.021   0.065   1.462
  481SOL    HW1 2342   2.031   0.092   1.367
  481SOL    HW2 2343   2.111   0.043   1.501
  482SOL     OW 2344   4.040   4.837   2.241
  482SOL    HW1 2345   3.961   4.841   2.303
  482SOL    HW2 2346   4.102   4.764   2.271
  483SOL     OW 2347   6.297   1.602   2.117
  483SOL    HW1 2348   6.224   1.554   2.166
  483SOL    HW2 2349   6.373   1.621   2.179
  484SOL     OW 2350   1.795   3.320   4.974
  484SOL    HW1 2351   1.708   3.330   4.925
  484SOL    HW2 2352   1.831   3.411   4.997
  485SOL     OW 2353   3.974   5.505   2.779
  485SOL    HW1 2354   3.938   5.577   2.720
  485SOL    HW2 2355   3.898   5.462   2.829
  486SOL     OW 2356   6.709   1.745   0.480
  486SOL    HW1 2357   6.733   1.680   0.553
  486SOL    HW2 2358   6.776   1.739   0.406
  487SOL     OW 2359   0.782   0.761   2.885
  487SOL    HW1 2360   0.699   0.816   2.874
  487SOL    HW2 2361   0.805   0.718   2.798
  488SOL     OW 2362   0.623   1.248   1.918
  488SOL    HW1 2363   0.695   1.179   1.925
  488SOL    HW2 2364   0.563   1.226   1.842
  489SOL     OW 2365   4.422   6.175   5.932
  489SOL    HW1 2366   4.389   6.091   5.888
  489SOL    HW2 2367   4.411   6.252   5.870
  490SOL     OW 2368   0.450   6.050   2.901
  490SOL    HW1 2369   0.434   6.140   2.861
  490SOL    HW2 2370   0.364   5.998   2.901
  491SOL     OW 2371   0.982   3.950   2.126
  491SOL    HW1 2372   1.009   3.857   2.150
  491SOL    HW2 2373   0.942   3.995   2.207
  492SOL     OW 2374   1.333   0.418   4.966
  492SOL    HW1 2375   1.251   0.361   4.973
  492SOL    HW2 2376   1.367   0.415   4.872
  493SOL     OW 2377   5.006   6.155   5.731
  493SOL    HW1 2378   5.024   6.232   5.670
  493SOL    HW2 2379   5.089   6.100   5.741
  494SOL     OW 2380   0.529   6.266   6.894
  494SOL    HW1 2381   0.436   6.228   6.891
  494SOL    HW2 2382   0.527   6.362   6.868
  495SOL     OW 2383   4.591   5.647   3.670
  495SOL    HW1 2384   4.601   5.610   3.762
  495SOL    HW2 2385   4.600   5.747   3.673
  496SOL     OW 2386   5.072   2.820   1.688
  496SOL    HW1 2387   5.023   2.821   1.775
  496SOL    HW2 2388   5.028   2.755   1.626
  497SOL     OW 2389   2.601   1.712   5.028
  497SOL    HW1 2390   2.659   1.789   5.055
  497SOL    HW2 2391   2.540   1.741   4.955
  498SOL     OW 2392   0.744   4.351   1.276
  498SOL    HW1 2393   0.663   4.409   1.281
  498SOL    HW2 2394   0.787   4.345   1.366
  499SOL     OW 2395   1.446   5.896   4.574
  499SOL    HW1 2396   1.411   5.863   4.486
  499SOL    HW2 2397   1.507   5.974   4.558
  500SOL     OW 2398   0.016   2.396   5.928
  500SOL    HW1 2399   6.979   2.335   5.976
  500SOL    HW2 2400   0.075   2.342   5.868
  501SOL     OW 2401   3.124   6.990   0.875
  501SOL    HW1 2402   3.055   6.998   0.802
  501SOL    HW2 2403   3.095   6.919   0.939
  502SOL     OW 2404   1.192   3.777   6.280
  502SOL    HW1 2405   1.210   3.843   6.353
  502SOL    HW2 2406   1.241   3.806   6.197
  503SOL     OW 2407   0.074   5.274   6.638
  503SOL    HW1 2408   0.059   5.289   6.736
  503SOL    HW2 2409   7.019   5.231   6.599
  504SOL     OW 2410   1.021   5.009   2.574
  504SOL    HW1 2411   0.975   4.935   2.623
  504SOL    HW2 2412   1.108   5.030   2.620
  505SOL     OW 2413   3.147   6.060   5.091
  505SOL    HW1 2414   3.091   6.088   5.168
  505SOL    HW2 2415   3.230   6.015   5.124
  506SOL     OW 2416   2.882   4.990   3.942
  506SOL    HW1 2417   2.797   4.942   3.923
  506SOL    HW2 2418   2.875   5.040   4.028
  507SOL     OW 2419   3.642   6.936   3.276
  507SOL    HW1 2420   3.571   7.004   3.263
  507SOL    HW2 2421   3.686   6.949   3.365
  508SOL     OW 2422   6.511   3.509   2.895
  508SOL    HW1 2423   6.449   3.432   2.883
  508SOL    HW2 2424   6.477   3.589   2.846
  509SOL     OW 2425   2.583   1.627   1.604
  509SOL    HW1 2426   2.551   1.597   1.693
  509SOL    HW2 2427   2.681   1.607   1.596
  510SOL     OW 2428   6.521   4.130   6.496
  510SOL    HW1 2429   6.440   4.076   6.520
  510SOL    HW2 2430   6.505   4.226   6.520
  511SOL     OW 2431   1.145   2.505   6.051
  511SOL    HW1 2432   1.127   2.417   6.007
  511SOL    HW2 2433   1.063   2.536   6.097
  512SOL     OW 2434   6.627   2.791   6.336
  512SOL    HW1 2435   6.661   2.826   6.249
  512SOL    HW2 2436   6.591   2.866   6.391
  513SOL     OW 2437   5.998   0.030   3.531
  513SOL    HW1 2438   5.992   0.032   3.431
  513SOL    HW2 2439   5.907   0.023   3.570
  514SOL     OW 2440   6.502   1.216   4.356
  514SOL    HW1 2441   6.445   1.259   4.425
  514SOL    HW2 2442   6.456   1.135   4.319
  515SOL     OW 2443   0.834   6.823   0.090
  515SOL    HW1 2444   0.828   6.750   0.022
  515SOL    HW2 2445   0.893   6.896   0.055
  516SOL     OW 2446   2.907   4.836   2.094
  516SOL    HW1 2447   2.809   4.846   2.112
  516SOL    HW2 2448   2.922   4.757   2.035
  517SOL     OW 2449   4.280   5.565   1.293
  517SOL    HW1 2450   4.240   5.581   1.202
  517SOL    HW2 2451   4.220   5.605   1.363
  518SOL     OW 2452   2.523   2.088   3.321
  518SOL    HW1 2453   2.539   2.052   3.413
  518SOL    HW2 2454   2.453   2.032   3.276
  519SOL     OW 2455   0.241   6.105   4.285
  519SOL    HW1 2456   0.181   6.027   4.302
  519SOL    HW2 2457   0.187   6.183   4.254
  520SOL     OW 2458   6.226   3.555   6.736
  520SOL    HW1 2459   6.238   3.462   6.769
  520SOL    HW2 2460   6.139   3.592   6.769
  521SOL     OW 2461   6.237   5.692   5.246
  521SOL    HW1 2462   6.177   5.626   5.201
  521SOL    HW2 2463   6.185   5.746   5.312
  522SOL     OW 2464   3.463   3.257   4.861
  522SOL    HW1 2465   3.487   3.248   4.764
  522SOL    HW2 2466   3.480   3.170   4.907
  523SOL     OW 2467   1.090   5.953   1.314
  523SOL    HW1 2468   1.087   6.047   1.279
  523SOL    HW2 2469   1.183   5.934   1.348
  524SOL     OW 2470   0.581   1.622   2.661
  524SOL    HW1 2471   0.515   1.656   2.729
  524SOL    HW2 2472   0.602   1.695   2.597
  525SOL     OW 2473   1.996   4.011   5.957
  525SOL    HW1 2474   1.976   3.930   6.012
  525SOL    HW2 2475   2.090   4.040   5.973
  526SOL     OW 2476   4.105   5.674   3.759
  526SOL    HW1 2477   4.016   5.634   3.784
  526SOL    HW2 2478   4.090   5.746   3.690
  527SOL     OW 2479   5.923   2.949   0.617
  527SOL    HW1 2480   5.997   2.962   0.551
  527SOL    HW2 2481   5.838   2.929   0.568
  528SOL     OW 2482   1.020   2.185   3.776
  528SOL    HW1 2483   1.030   2.283   3.757
  528SOL    HW2 2484   1.049   2.167   3.870
  529SOL     OW 2485   1.052   6.478   4.857
  529SOL    HW1 2486   1.064   6.449   4.952
  529SOL    HW2 2487   1.141   6.497   4.816
  530SOL     OW 2488   3.359   3.277   4.252
  530SOL    HW1 2489   3.414   3.193   4.252
  530SOL    HW2 2490   3.325   3.295   4.160
  531SOL     OW 2491   0.510   2.067   3.027
  531SOL    HW1 2492   0.528   2.134   3.099
  531SOL    HW2 2493   0.587   2.003   3.021
  532SOL     OW 2494   0.617   3.190   6.705
  532SOL    HW1 2495   0.616   3.243   6.789
  532SOL    HW2 2496   0.561   3.108   6.717
  533SOL     OW 2497   3.843   6.325   4.160
  533SOL    HW1 2498   3.846   6.225   4.155
  533SOL    HW2 2499   3.771   6.359   4.099
  534SOL     OW 2500   5.531   6.142   1.990
  534SOL    HW1 2501   5.617   6.111   2.030
  534SOL    HW2 2502   5.456   6.086   2.026
  535SOL     OW 2503   0.071   3.491   4.692
  535SOL    HW1 2504   0.005   3.521   4.623
  535SOL    HW2 2505   0.151   3.551   4.690
  536SOL     OW 2506   5.940   4.801   2.127
  536SOL    HW1 2507   5.939   4.838   2.034
  536SOL    HW2 2508   5.855   4.751   2.144
  537SOL     OW 2509   2.519   6.809   4.483
  537SOL    HW1 2510   2.602   6.863   4.476
  537SOL    HW2 2511   2.518   6.739   4.411
  538SOL     OW 2512   1.066   5.179   3.855
  538SOL    HW1 2513   1.053   5.133   3.944
  538SOL    HW2 2514   1.010   5.261   3.852
  539SOL     OW 2515   1.969   5.935   1.330
  539SOL    HW1 2516   1.933   5.922   1.422
  539SOL    HW2 2517   1.896   5.922   1.263
  540SOL     OW 2518   1.791   1.253   2.724
  540SOL    HW1 2519   1.862   1.281   2.789
  540SOL    HW2 2520   1.833   1.235   2.635
  541SOL     OW 2521   4.924   5.435   3.609
  541SOL    HW1 2522   4.835   5.414   3.650
  541SOL    HW2 2523   4.993   5.372   3.644
  542SOL     OW 2524   5.945   6.208   6.461
  542SOL    HW1 2525   5.960   6.226   6.558
  542SOL    HW2 2526   5.896   6.284   6.420
  543SOL     OW 2527   0.972   3.205   5.089
  543SOL    HW1 2528   0.876   3.233   5.096
  543SOL    HW2 2529   1.017   3.259   5.018
  544SOL     OW 2530   1.961   4.965   6.814
  544SOL    HW1 2531   1.891   5.027   6.778
  544SOL    HW2 2532   1.974   4.982   6.911
  545SOL     OW 2533   3.298   1.429   1.701
  545SOL    HW1 2534   3.202   1.417   1.678
  545SOL    HW2 2535   3.355   1.385   1.632
  546SOL     OW 2536   2.030   3.164   0.570
  546SOL    HW1 2537   2.057   3.083   0.623
  546SOL    HW2 2538   2.104   3.189   0.508
  547SOL     OW 2539   3.489   0.754   0.352
  547SOL    HW1 2540   3.495   0.812   0.271
  547SOL    HW2 2541   3.559   0.783   0.419
  548SOL     OW 2542   3.704   3.466   2.166
  548SOL    HW1 2543   3.723   3.557   2.204
  548SOL    HW2 2544   3.701   3.399   2.240
  549SOL     OW 2545   5.315   3.023   1.317
  549SOL    HW1 2546   5.242   3.011   1.384
  549SOL    HW2 2547   5.301   2.959   1.241
  550SOL     OW 2548   0.908   5.395   3.857
  550SOL    HW1 2549   0.934   5.485   3.822
  550SOL    HW2 2550   0.812   5.396   3.884
  551SOL     OW 2551   1.232   0.599   2.582
  551SOL    HW1 2552   1.239   0.629   2.677
  551SOL    HW2 2553   1.139   0.570   2.562
  552SOL     OW 2554   6.048   4.292   6.744
  552SOL    HW1 2555   6.013   4.252   6.829
  552SOL    HW2 2556   6.020   4.235   6.667
  553SOL     OW 2557   2.818   6.655   2.681
  553SOL    HW1 2558   2.833   6.718   2.605
  553SOL    HW2 2559   2.781   6.704   2.759
  554SOL     OW 2560   5.648   0.326   6.940
  554SOL    HW1 2561   5.593   0.382   7.002
  554SOL    HW2 2562   5.589   0.268   6.886
  555SOL     OW 2563   1.973   4.531   4.136
  555SOL    HW1 2564   2.003   4.535   4.040
  555SOL    HW2 2565   1.945   4.437   4.158
  556SOL     OW 2566   4.141   2.203   3.503
  556SOL    HW1 2567   4.135   2.200   3.403
  556SOL    HW2 2568   4.062   2.157   3.543
  557SOL     OW 2569   0.081   5.281   0.782
  557SOL    HW1 2570   0.030   5.367   0.776
  557SOL    HW2 2571   0.179   5.301   0.781
  558SOL     OW 2572   3.018   3.166   4.505
  558SOL    HW1 2573   3.075   3.092   4.541
  558SOL    HW2 2574   2.985   3.222   4.581
  559SOL     OW 2575   6.809   6.071   0.162
  559SOL    HW1 2576   6.838   6.159   0.125
  559SOL    HW2 2577   6.709   6.063   0.154
  560SOL     OW 2578   5.071   4.942   6.701
  560SOL    HW1 2579   5.086   4.905   6.610
  560SOL    HW2 2580   5.021   5.029   6.694
  561SOL     OW 2581   0.809   1.494   1.601
  561SOL    HW1 2582   0.711   1.505   1.584
  561SOL    HW2 2583   0.860   1.519   1.518
  562SOL     OW 2584   5.005   0.547   6.006
  562SOL    HW1 2585   5.099   0.579   6.008
  562SOL    HW2 2586   4.996   0.467   6.065
  563SOL     OW 2587   2.242   0.758   3.775
  563SOL    HW1 2588   2.175   0.685   3.762
  563SOL    HW2 2589   2.332   0.727   3.744
  564SOL     OW 2590   1.752   1.984   0.236
  564SOL    HW1 2591   1.784   1.965   0.143
  564SOL    HW2 2592   1.693   1.910   0.267
  565SOL     OW 2593   3.475   2.858   5.134
  565SOL    HW1 2594   3.442   2.879   5.226
  565SOL    HW2 2595   3.397   2.836   5.075
  566SOL     OW 2596   6.911   5.156   3.635
  566SOL    HW1 2597   6.991   5.150   3.576
  566SOL    HW2 2598   6.836   5.102   3.596
  567SOL     OW 2599   2.820   2.744   1.387
  567SOL    HW1 2600   2.842   2.768   1.292
  567SOL    HW2 2601   2.837   2.647   1.402
  568SOL     OW 2602   4.677   1.510   0.191
  568SOL    HW1 2603   4.625   1.442   0.242
  568SOL    HW2 2604   4.742   1.464   0.131
  569SOL     OW 2605   1.633   3.408   6.595
  569SOL    HW1 2606   1.547   3.357   6.598
  569SOL    HW2 2607   1.629   3.476   6.522
  570SOL     OW 2608   3.216   6.647   6.902
  570SOL    HW1 2609   3.175   6.656   6.811
  570SOL    HW2 2610   3.282   6.720   6.917
  571SOL     OW 2611   3.005   0.160   1.782
  571SOL    HW1 2612   2.941   0.235   1.769
  571SOL    HW2 2613   2.955   0.076   1.800
  572SOL     OW 2614   2.622   5.107   5.572
  572SOL    HW1 2615   2.721   5.110   5.582
  572SOL    HW2 2616   2.594   5.018   5.537
  573SOL     OW 2617   5.510   1.711   5.572
  573SOL    HW1 2618   5.505   1.632   5.511
  573SOL    HW2 2619   5.559   1.685   5.655
  574SOL     OW 2620   3.301   1.657   4.200
  574SOL    HW1 2621   3.308   1.558   4.217
  574SOL    HW2 2622   3.287   1.672   4.102
  575SOL     OW 2623   5.089   4.052   0.174
  575SOL    HW1 2624   5.111   3.972   0.119
  575SOL    HW2 2625   5.097   4.134   0.118
  576SOL     OW 2626   0.858   2.213   3.046
  576SOL    HW1 2627   0.859   2.114   3.031
  576SOL    HW2 2628   0.874   2.231   3.143
  577SOL     OW 2629   1.304   1.275   2.247
  577SOL    HW1 2630   1.289   1.366   2.208
  577SOL    HW2 2631   1.320   1.209   2.174
  578SOL     OW 2632   5.679   5.776   3.536
  578SOL    HW1 2633   5.691   5.723   3.452
  578SOL    HW2 2634   5.697   5.717   3.615
  579SOL     OW 2635   2.114   2.684   2.729
  579SOL    HW1 2636   2.056   2.633   2.792
  579SOL    HW2 2637   2.065   2.699   2.643
  580SOL     OW 2638   6.392   5.238   0.509
  580SOL    HW1 2639   6.296   5.263   0.491
  580SOL    HW2 2640   6.442   5.318   0.542
  581SOL     OW 2641   2.853   3.605   1.647
  581SOL    HW1 2642   2.891   3.543   1.578
  581SOL    HW2 2643   2.777   3.560   1.694
  582SOL     OW 2644   4.270   6.697   2.046
  582SOL    HW1 2645   4.324   6.766   1.998
  582SOL    HW2 2646   4.214   6.646   1.980
  583SOL     OW 2647   3.128   5.322   5.767
  583SOL    HW1 2648   3.189   5.245   5.784
  583SOL    HW2 2649   3.094   5.357   5.855
  584SOL     OW 2650   2.951   4.044   6.340
  584SOL    HW1 2651   2.953   4.077   6.245
  584SOL    HW2 2652   2.856   4.041   6.372
  585SOL     OW 2653   5.612   2.930   6.447
  585SOL    HW1 2654   5.564   3.015   6.426
  585SOL    HW2 2655   5.546   2.855   6.457
  586SOL     OW 2656   3.701   1.572   5.912
  586SOL    HW1 2657   3.673   1.650   5.968
  586SOL    HW2 2658   3.622   1.536   5.863
  587SOL     OW 2659   4.318   1.446   6.071
  587SOL    HW1 2660   4.265   1.366   6.042
  587SOL    HW2 2661   4.412   1.439   6.037
  588SOL     OW 2662   1.961   4.598   1.713
  588SOL    HW1 2663   1.882   4.562   1.764
  588SOL    HW2 2664   1.929   4.640   1.628
  589SOL     OW 2665   3.330   4.696   1.450
  589SOL    HW1 2666   3.282   4.774   1.409
  589SOL    HW2 2667   3.381   4.727   1.530
  590SOL     OW 2668   4.908   3.281   3.544
  590SOL    HW1 2669   5.002   3.248   3.548
  590SOL    HW2 2670   4.856   3.240   3.620
  591SOL     OW 2671   4.335   5.626   4.204
  591SOL    HW1 2672   4.237   5.611   4.194
  591SOL    HW2 2673   4.382   5.602   4.118
  592SOL     OW 2674   3.397   0.918   1.407
  592SOL    HW1 2675   3.442   0.951   1.490
  592SOL    HW2 2676   3.433   0.966   1.327
  593SOL     OW 2677   4.901   2.515   3.223
  593SOL    HW1 2678   4.921   2.450   3.149
  593SOL    HW2 2679   4.805   2.542   3.217
  594SOL     OW 2680   6.120   2.340   6.628
  594SOL    HW1 2681   6.219   2.342   6.642
  594SOL    HW2 2682   6.085   2.250   6.655
  595SOL     OW 2683   6.069   6.629   3.534
  595SOL    HW1 2684   5.985   6.658   3.487
  595SOL    HW2 2685   6.089   6.694   3.607
  596SOL     OW 2686   1.664   4.880   3.297
  596SOL    HW1 2687   1.715   4.919   3.373
  596SOL    HW2 2688   1.623   4.793   3.325
  597SOL     OW 2689   3.854   0.265   0.253
  597SOL    HW1 2690   3.804   0.187   0.215
  597SOL    HW2 2691   3.947   0.237   0.275
  598SOL     OW 2692   3.973   5.007   5.331
  598SOL    HW1 2693   3.993   4.958   5.246
  598SOL    HW2 2694   3.959   4.942   5.405
  599SOL     OW 2695   2.532   6.254   2.229
  599SOL    HW1 2696   2.490   6.293   2.310
  599SOL    HW2 2697   2.629   6.236   2.247
  600SOL     OW 2698   0.486   1.191   0.072
  600SOL    HW1 2699   0.439   1.274   0.044
  600SOL    HW2 2700   0.490   1.188   0.172
  601SOL     OW 2701   2.701   0.396   4.131
  601SOL    HW1 2702   2.661   0.478   4.171
  601SOL    HW2 2703   2.743   0.419   4.044
  602SOL     OW 2704   2.154   2.684   6.649
  602SOL    HW1 2705   2.156   2.634   6.563
  602SOL    HW2 2706   2.161   2.782   6.632
  603SOL     OW 2707   3.156   2.079   4.076
  603SOL    HW1 2708   3.077   2.033   4.117
  603SOL    HW2 2709   3.128   2.123   3.990
  604SOL     OW 2710   1.076   3.346   1.485
  604SOL    HW1 2711   1.114   3.418   1.427
  604SOL    HW2 2712   1.037   3.386   1.567
  605SOL     OW 2713   6.975   6.402   2.349
  605SOL    HW1 2714   6.906   6.379   2.418
  605SOL    HW2 2715   7.025   6.483   2.379
  606SOL     OW 2716   4.678   0.255   6.816
  606SOL    HW1 2717   4.630   0.342   6.801
  606SOL    HW2 2718   4.775   0.266   6.792
  607SOL     OW 2719   6.442   0.029   6.032
  607SOL    HW1 2720   6.499   0.103   5.997
  607SOL    HW2 2721   6.451   0.024   6.132
  608SOL     OW 2722   2.664   6.330   6.394
  608SOL    HW1 2723   2.757   6.345   6.361
  608SOL    HW2 2724   2.607   6.297   6.319
  609SOL     OW 2725   4.029   3.228   3.235
  609SOL    HW1 2726   4.017   3.307   3.176
  609SOL    HW2 2727   4.054   3.258   3.327
  610SOL     OW 2728   4.924   3.427   2.116
  610SOL    HW1 2729   4.924   3.388   2.024
  610SOL    HW2 2730   4.867   3.371   2.176
  611SOL     OW 2731   3.764   0.237   0.539
  611SOL    HW1 2732   3.742   0.240   0.441
  611SOL    HW2 2733   3.680   0.228   0.592
  612SOL     OW 2734   4.288   6.974   5.708
  612SOL    HW1 2735   4.205   6.927   5.739
  612SOL    HW2 2736   4.300   6.958   5.610
  613SOL     OW 2737   4.242   0.257   5.609
  613SOL    HW1 2738   4.266   0.238   5.704
  613SOL    HW2 2739   4.182   0.336   5.604
  614SOL     OW 2740   4.703   4.367   1.081
  614SOL    HW1 2741   4.702   4.332   1.175
  614SOL    HW2 2742   4.632   4.436   1.070
  615SOL     OW 2743   6.894   2.807   1.852
  615SOL    HW1 2744   6.945   2.873   1.797
  615SOL    HW2 2745   6.929   2.809   1.946
  616SOL     OW 2746   0.565   2.234   3.986
  616SOL    HW1 2747   0.555   2.316   3.929
  616SOL    HW2 2748   0.606   2.160   3.932
  617SOL     OW 2749   6.391   3.693   6.137
  617SOL    HW1 2750   6.353   3.679   6.045
  617SOL    HW2 2751   6.491   3.691   6.133
  618SOL     OW 2752   6.766   2.510   6.731
  618SOL    HW1 2753   6.735   2.433   6.676
  618SOL    HW2 2754   6.862   2.497   6.755
  619SOL     OW 2755   4.591   0.760   6.839
  619SOL    HW1 2756   4.639   0.742   6.925
  619SOL    HW2 2757   4.497   0.788   6.858
  620SOL     OW 2758   4.707   2.985   1.208
  620SOL    HW1 2759   4.617   2.949   1.186
  620SOL    HW2 2760   4.760   2.997   1.124
  621SOL     OW 2761   2.516   6.263   6.173
  621SOL    HW1 2762   2.514   6.360   6.149
  621SOL    HW2 2763   2.426   6.236   6.207
  622SOL     OW 2764   1.488   1.117   4.636
  622SOL    HW1 2765   1.577   1.163   4.636
  622SOL    HW2 2766   1.422   1.171   4.585
  623SOL     OW 2767   1.136   6.023   6.093
  623SOL    HW1 2768   1.157   5.978   6.180
  623SOL    HW2 2769   1.061   6.088   6.107
  624SOL     OW 2770   0.119   1.880   1.769
  624SOL    HW1 2771   0.192   1.933   1.725
  624SOL    HW2 2772   0.049   1.857   1.701
  625SOL     OW 2773   0.933   1.950   1.982
  625SOL    HW1 2774   0.908   1.990   2.071
  625SOL    HW2 2775   0.925   1.851   1.987
  626SOL     OW 2776   0.854   5.955   3.002
  626SOL    HW1 2777   0.837   5.857   2.991
  626SOL    HW2 2778   0.794   5.992   3.073
  627SOL     OW 2779   6.563   6.470   0.873
  627SOL    HW1 2780   6.568   6.371   0.859
  627SOL    HW2 2781   6.485   6.491   0.932
  628SOL     OW 2782   5.592   5.618   5.881
  628SOL    HW1 2783   5.612   5.716   5.879
  628SOL    HW2 2784   5.501   5.601   5.844
  629SOL     OW 2785   0.500   0.757   6.988
  629SOL    HW1 2786   0.542   0.675   0.003
  629SOL    HW2 2787   0.464   0.734   6.897
  630SOL     OW 2788   0.281   1.578   1.004
  630SOL    HW1 2789   0.226   1.658   1.028
  630SOL    HW2 2790   0.378   1.601   1.013
  631SOL     OW 2791   4.125   1.505   5.276
  631SOL    HW1 2792   4.125   1.604   5.292
  631SOL    HW2 2793   4.049   1.481   5.217
  632SOL     OW 2794   3.896   1.803   1.638
  632SOL    HW1 2795   3.834   1.864   1.588
  632SOL    HW2 2796   3.845   1.756   1.710
  633SOL     OW 2797   3.358   3.612   6.705
  633SOL    HW1 2798   3.274   3.580   6.660
  633SOL    HW2 2799   3.434   3.551   6.680
  634SOL     OW 2800   4.105   3.392   2.607
  634SOL    HW1 2801   4.065   3.330   2.540
  634SOL    HW2 2802   4.163   3.340   2.669
  635SOL     OW 2803   4.531   5.462   0.783
  635SOL    HW1 2804   4.600   5.526   0.818
  635SOL    HW2 2805   4.440   5.492   0.811
  636SOL     OW 2806   3.044   6.320   0.483
  636SOL    HW1 2807   3.000   6.410   0.473
  636SOL    HW2 2808   2.985   6.260   0.536
  637SOL     OW 2809   6.884   3.283   2.894
  637SOL    HW1 2810   6.897   3.231   2.810
  637SOL    HW2 2811   6.819   3.235   2.953
  638SOL     OW 2812   5.465   2.387   3.207
  638SOL    HW1 2813   5.414   2.393   3.292
  638SOL    HW2 2814   5.557   2.424   3.221
  639SOL     OW 2815   4.893   3.557   3.053
  639SOL    HW1 2816   4.897   3.594   3.146
  639SOL    HW2 2817   4.926   3.627   2.989
  640SOL     OW 2818   0.100   5.226   3.862
  640SOL    HW1 2819   0.057   5.278   3.936
  640SOL    HW2 2820   0.037   5.222   3.784
  641SOL     OW 2821   0.358   4.454   5.202
  641SOL    HW1 2822   0.279   4.478   5.145
  641SOL    HW2 2823   0.388   4.361   5.180
  642SOL     OW 2824   6.947   3.222   4.041
  642SOL    HW1 2825   6.981   3.143   3.989
  642SOL    HW2 2826   6.965   3.306   3.989
  643SOL     OW 2827   5.808   6.169   6.159
  643SOL    HW1 2828   5.875   6.106   6.199
  643SOL    HW2 2829   5.812   6.256   6.206
  644SOL     OW 2830   1.734   6.680   4.341
  644SOL    HW1 2831   1.711   6.583   4.335
  644SOL    HW2 2832   1.653   6.736   4.325
  645SOL     OW 2833   4.559   0.001   4.792
  645SOL    HW1 2834   4.609   0.087   4.798
  645SOL    HW2 2835   4.621   6.950   4.809
  646SOL     OW 2836   3.733   0.826   4.577
  646SOL    HW1 2837   3.765   0.802   4.485
  646SOL    HW2 2838   3.682   0.912   4.574
  647SOL     OW 2839   5.559   2.152   5.377
  647SOL    HW1 2840   5.527   2.092   5.451
  647SOL    HW2 2841   5.597   2.096   5.303
  648SOL     OW 2842   0.833   3.817   3.272
  648SOL    HW1 2843   0.793   3.725   3.268
  648SOL    HW2 2844   0.891   3.831   3.192
  649SOL     OW 2845   2.346   4.474   0.924
  649SOL    HW1 2846   2.430   4.472   0.978
  649SOL    HW2 2847   2.338   4.563   0.879
  650SOL     OW 2848   5.961   4.195   6.972
  650SOL    HW1 2849   5.998   4.189   0.039
  650SOL    HW2 2850   5.919   4.108   6.946
  651SOL     OW 2851   0.622   6.502   6.316
  651SOL    HW1 2852   0.615   6.478   6.220
  651SOL    HW2 2853   0.636   6.418   6.370
  652SOL     OW 2854   5.181   0.392   4.146
  652SOL    HW1 2855   5.118   0.462   4.113
  652SOL    HW2 2856   5.234   0.427   4.223
  653SOL     OW 2857   0.981   5.634   6.639
  653SOL    HW1 2858   1.050   5.600   6.702
  653SOL    HW2 2859   0.962   5.730   6.658
  654SOL     OW 2860   0.665   5.158   6.898
  654SOL    HW1 2861   0.712   5.070   6.896
  654SOL    HW2 2862   0.732   5.232   6.905
  655SOL     OW 2863   0.185   5.941   1.710
  655SOL    HW1 2864   0.198   5.854   1.663
  655SOL    HW2 2865   0.127   5.928   1.790
  656SOL     OW 2866   2.025   6.439   1.435
  656SOL    HW1 2867   1.984   6.506   1.373
  656SOL    HW2 2868   1.977   6.441   1.523
  657SOL     OW 2869   2.330   3.898   1.746
  657SOL    HW1 2870   2.281   3.932   1.666
  657SOL    HW2 2871   2.274   3.831   1.794
  658SOL     OW 2872   2.236   3.653   6.559
  658SOL    HW1 2873   2.183   3.735   6.536
  658SOL    HW2 2874   2.313   3.645   6.496
  659SOL     OW 2875   1.297   5.998   5.085
  659SOL    HW1 2876   1.339   6.082   5.049
  659SOL    HW2 2877   1.198   6.006   5.080
  660SOL     OW 2878   5.566   3.673   2.179
  660SOL    HW1 2879   5.636   3.659   2.109
  660SOL    HW2 2880   5.493   3.605   2.167
  661SOL     OW 2881   4.863   4.100   3.306
  661SOL    HW1 2882   4.776   4.117   3.259
  661SOL    HW2 2883   4.890   4.005   3.292
  662SOL     OW 2884   4.291   0.533   4.655
  662SOL    HW1 2885   4.367   0.559   4.714
  662SOL    HW2 2886   4.314   0.448   4.607
  663SOL     OW 2887   1.328   3.522   6.481
  663SOL    HW1 2888   1.269   3.584   6.533
  663SOL    HW2 2889   1.284   3.498   6.395
  664SOL     OW 2890   6.964   5.099   6.446
  664SOL    HW1 2891   6.952   5.028   6.377
  664SOL    HW2 2892   6.899   5.173   6.429
  665SOL     OW 2893   4.456   4.987   0.979
  665SOL    HW1 2894   4.392   4.935   0.921
  665SOL    HW2 2895   4.411   5.008   1.066
  666SOL     OW 2896   4.986   1.640   2.710
  666SOL    HW1 2897   5.010   1.686   2.624
  666SOL    HW2 2898   5.063   1.645   2.773
  667SOL     OW 2899   6.200   3.598   3.462
  667SOL    HW1 2900   6.266   3.660   3.505
  667SOL    HW2 2901   6.216   3.597   3.363
  668SOL     OW 2902   4.840   5.864   6.588
  668SOL    HW1 2903   4.799   5.842   6.676
  668SOL    HW2 2904   4.865   5.780   6.540
  669SOL     OW 2905   3.712   6.056   3.492
  669SOL    HW1 2906   3.648   6.010   3.430
  669SOL    HW2 2907   3.677   6.052   3.585
  670SOL     OW 2908   2.625   3.121   1.386
  670SOL    HW1 2909   2.635   3.088   1.292
  670SOL    HW2 2910   2.594   3.216   1.385
  671SOL     OW 2911   2.742   5.926   0.365
  671SOL    HW1 2912   2.646   5.901   0.352
  671SOL    HW2 2913   2.781   5.957   0.279
  672SOL     OW 2914   1.010   4.530   1.683
  672SOL    HW1 2915   1.003   4.501   1.778
  672SOL    HW2 2916   1.105   4.555   1.662
  673SOL     OW 2917   6.740   0.653   1.356
  673SOL    HW1 2918   6.778   0.625   1.268
  673SOL    HW2 2919   6.642   0.666   1.347
  674SOL     OW 2920   6.784   3.030   4.373
  674SOL    HW1 2921   6.705   3.047   4.314
  674SOL    HW2 2922   6.854   3.098   4.355
  675SOL     OW 2923   0.913   0.812   4.071
  675SOL    HW1 2924   0.860   0.760   4.004
  675SOL    HW2 2925   0.866   0.898   4.092
  676SOL     OW 2926   4.021   6.009   2.757
  676SOL    HW1 2927   3.991   6.018   2.662
  676SOL    HW2 2928   3.992   6.090   2.809
  677SOL     OW 2929   5.764   1.476   6.821
  677SOL    HW1 2930   5.745   1.527   6.737
  677SOL    HW2 2931   5.855   1.500   6.855
  678SOL     OW 2932   1.756   1.205   4.592
  678SOL    HW1 2933   1.843   1.254   4.601
  678SOL    HW2 2934   1.770   1.109   4.618
  679SOL     OW 2935   4.789   1.720   4.568
  679SOL    HW1 2936   4.868   1.718   4.630
  679SOL    HW2 2937   4.790   1.638   4.510
  680SOL     OW 2938   6.091   5.443   5.984
  680SOL    HW1 2939   6.060   5.397   5.901
  680SOL    HW2 2940   6.065   5.539   5.981
  681SOL     OW 2941   5.378   6.003   1.526
  681SOL    HW1 2942   5.297   5.962   1.485
  681SOL    HW2 2943   5.404   6.084   1.474
  682SOL     OW 2944   1.475   0.620   0.596
  682SOL    HW1 2945   1.440   0.704   0.555
  682SOL    HW2 2946   1.494   0.553   0.523
  683SOL     OW 2947   3.880   2.710   6.675
  683SOL    HW1 2948   3.940   2.771   6.624
  683SOL    HW2 2949   3.787   2.715   6.637
  684SOL     OW 2950   6.401   0.913   0.180
  684SOL    HW1 2951   6.487   0.959   0.159
  684SOL    HW2 2952   6.392   0.831   0.124
  685SOL     OW 2953   4.758   1.346   4.197
  685SOL    HW1 2954   4.731   1.283   4.270
  685SOL    HW2 2955   4.750   1.299   4.109
  686SOL     OW 2956   5.717   2.347   3.813
  686SOL    HW1 2957   5.781   2.419   3.784
  686SOL    HW2 2958   5.744   2.260   3.773
  687SOL     OW 2959   0.714   2.485   4.711
  687SOL    HW1 2960   0.655   2.565   4.721
  687SOL    HW2 2961   0.726   2.440   4.799
  688SOL     OW 2962   1.687   2.908   0.113
  688SOL    HW1 2963   1.630   2.986   0.088
  688SOL    HW2 2964   1.750   2.934   0.186
  689SOL     OW 2965   0.148   4.308   5.945
  689SOL    HW1 2966   0.232   4.253   5.940
  689SOL    HW2 2967   0.151   4.380   5.877
  690SOL     OW 2968   0.857   4.139   3.184
  690SOL    HW1 2969   0.792   4.214   3.180
  690SOL    HW2 2970   0.914   4.148   3.266
  691SOL     OW 2971   2.780   0.073   6.365
  691SOL    HW1 2972   2.770   0.161   6.411
  691SOL    HW2 2973   2.822   0.007   6.428
  692SOL     OW 2974   4.113   5.877   4.055
  692SOL    HW1 2975   4.078   5.787   4.082
  692SOL    HW2 2976   4.067   5.905   3.970
  693SOL     OW 2977   6.664   0.452   3.647
  693SOL    HW1 2978   6.743   0.443   3.586
  693SOL    HW2 2979   6.581   0.427   3.599
  694SOL     OW 2980   4.121   6.294   2.556
  694SOL    HW1 2981   4.035   6.324   2.597
  694SOL    HW2 2982   4.191   6.287   2.627
  695SOL     OW 2983   4.393   5.798   5.051
  695SOL    HW1 2984   4.488   5.827   5.056
  695SOL    HW2 2985   4.335   5.876   5.029
  696SOL     OW 2986   3.303   5.522   2.440
  696SOL    HW1 2987   3.325   5.615   2.411
  696SOL    HW2 2988   3.375   5.459   2.410
  697SOL     OW 2989   2.306   2.817   3.989
  697SOL    HW1 2990   2.382   2.753   3.975
  697SOL    HW2 2991   2.221   2.775   3.956
  698SOL     OW 2992   5.514   0.101   0.104
  698SOL    HW1 2993   5.424   0.123   0.143
  698SOL    HW2 2994   5.507   0.099   0.004
  699SOL     OW 2995   1.664   3.742   5.981
  699SOL    HW1 2996   1.612   3.820   6.015
  699SOL    HW2 2997   1.613   3.658   5.998
  700SOL     OW 2998   2.680   1.209   3.695
  700SOL    HW1 2999   2.596   1.206   3.642
  700SOL    HW2 3000   2.752   1.160   3.647
  701SOL     OW 3001   5.913   3.372   4.871
  701SOL    HW1 3002   5.955   3.291   4.912
  701SOL    HW2 3003   5.966   3.399   4.790
  702SOL     OW 3004   0.317   6.612   5.852
  702SOL    HW1 3005   0.353   6.705   5.860
  702SOL    HW2 3006   0.218   6.614   5.860
  703SOL     OW 3007   3.403   4.247   6.562
  703SOL    HW1 3008   3.474   4.189   6.523
  703SOL    HW2 3009   3.316   4.231   6.514
  704SOL     OW 3010   1.082   1.453   0.043
  704SOL    HW1 3011   1.056   1.362   0.077
  704SOL    HW2 3012   1.134   1.500   0.114
  705SOL     OW 3013   6.085   6.282   3.035
  705SOL    HW1 3014   6.155   6.282   3.106
  705SOL    HW2 3015   6.128   6.306   2.947
  706SOL     OW 3016   4.688   2.405   3.948
  706SOL    HW1 3017   4.723   2.372   4.036
  706SOL    HW2 3018   4.709   2.338   3.877
  707SOL     OW 3019   5.158   6.834   2.113
  707SOL    HW1 3020   5.082   6.791   2.065
  707SOL    HW2 3021   5.241   6.781   2.099
  708SOL     OW 3022   3.850   0.771   1.383
  708SOL    HW1 3023   3.761   0.732   1.359
  708SOL    HW2 3024   3.908   0.775   1.301
  709SOL     OW 3025   1.033   5.509   0.805
  709SOL    HW1 3026   1.006   5.566   0.882
  709SOL    HW2 3027   0.954   5.455   0.775
  710SOL     OW 3028   3.647   2.919   2.553
  710SOL    HW1 3029   3.636   2.843   2.617
  710SOL    HW2 3030   3.558   2.947   2.519
  711SOL     OW 3031   0.078   2.325   5.478
  711SOL    HW1 3032   0.013   2.313   5.553
  711SOL    HW2 3033   0.047   2.400   5.420
  712SOL     OW 3034   3.897   3.692   0.871
  712SOL    HW1 3035   3.946   3.618   0.825
  712SOL    HW2 3036   3.812   3.712   0.822
  713SOL     OW 3037   4.090   3.051   6.189
  713SOL    HW1 3038   4.070   2.957   6.216
  713SOL    HW2 3039   4.010   3.108   6.205
  714SOL     OW 3040   6.628   4.109   4.329
  714SOL    HW1 3041   6.537   4.151   4.321
  714SOL    HW2 3042   6.637   4.065   4.417
  715SOL     OW 3043   5.690   5.510   0.240
  715SOL    HW1 3044   5.716   5.414   0.254
  715SOL    HW2 3045   5.698   5.533   0.143
  716SOL     OW 3046   1.111   0.070   0.880
  716SOL    HW1 3047   1.162   0.109   0.955
  716SOL    HW2 3048   1.031   0.021   0.915
  717SOL     OW 3049   6.293   4.645   6.010
  717SOL    HW1 3050   6.228   4.718   5.990
  717SOL    HW2 3051   6.318   4.649   6.107
  718SOL     OW 3052   5.025   2.619   6.483
  718SOL    HW1 3053   5.021   2.697   6.420
  718SOL    HW2 3054   5.089   2.551   6.448
  719SOL     OW 3055   6.677   0.690   1.775
  719SOL    HW1 3056   6.685   0.767   1.839
  719SOL    HW2 3057   6.581   0.673   1.756
  720SOL     OW 3058   3.393   0.913   6.446
  720SOL    HW1 3059   3.453   0.856   6.391
  720SOL    HW2 3060   3.445   0.955   6.521
  721SOL     OW 3061   2.404   1.153   4.318
  721SOL    HW1 3062   2.489   1.132   4.367
  721SOL    HW2 3063   2.402   1.250   4.296
  722SOL     OW 3064   3.008   0.318   4.735
  722SOL    HW1 3065   2.918   0.273   4.729
  722SOL    HW2 3066   3.010   0.378   4.814
  723SOL     OW 3067   1.812   3.756   2.973
  723SOL    HW1 3068   1.910   3.741   2.967
  723SOL    HW2 3069   1.789   3.841   2.925
  724SOL     OW 3070   1.175   3.009   4.614
  724SOL    HW1 3071   1.224   2.958   4.544
  724SOL    HW2 3072   1.138   2.945   4.682
  725SOL     OW 3073   3.515   5.813   0.837
  725SOL    HW1 3074   3.486   5.888   0.896
  725SOL    HW2 3075   3.590   5.844   0.778
  726SOL     OW 3076   4.189   4.771   0.605
  726SOL    HW1 3077   4.116   4.714   0.568
  726SOL    HW2 3078   4.267   4.714   0.629
  727SOL     OW 3079   5.500   4.864   6.124
  727SOL    HW1 3080   5.537   4.957   6.126
  727SOL    HW2 3081   5.527   4.820   6.038
  728SOL     OW 3082   6.601   3.363   4.716
  728SOL    HW1 3083   6.628   3.297   4.786
  728SOL    HW2 3084   6.535   3.428   4.755
  729SOL     OW 3085   1.349   2.284   0.934
  729SOL    HW1 3086   1.366   2.381   0.918
  729SOL    HW2 3087   1.294   2.273   1.017
  730SOL     OW 3088   5.285   0.904   3.213
  730SOL    HW1 3089   5.336   0.876   3.294
  730SOL    HW2 3090   5.265   1.002   3.219
  731SOL     OW 3091   5.448   4.268   5.791
  731SOL    HW1 3092   5.418   4.198   5.726
  731SOL    HW2 3093   5.494   4.224   5.868
  732SOL     OW 3094   0.006   2.416   2.038
  732SOL    HW1 3095   0.093   2.390   1.996
  732SOL    HW2 3096   6.960   2.416   1.967
  733SOL     OW 3097   6.091   6.329   5.713
  733SOL    HW1 3098   6.057   6.301   5.623
  733SOL    HW2 3099   6.106   6.248   5.770
  734SOL     OW 3100   6.887   4.543   2.631
  734SOL    HW1 3101   6.970   4.566   2.682
  734SOL    HW2 3102   6.824   4.621   2.631
  735SOL     OW 3103   3.621   2.372   0.646
  735SOL    HW1 3104   3.641   2.324   0.561
  735SOL    HW2 3105   3.629   2.471   0.632
  736SOL     OW 3106   0.757   0.512   3.051
  736SOL    HW1 3107   0.813   0.441   3.010
  736SOL    HW2 3108   0.779   0.600   3.009
  737SOL     OW 3109   4.897   2.414   5.903
  737SOL    HW1 3110   4.804   2.393   5.872
  737SOL    HW2 3111   4.902   2.399   6.002
  738SOL     OW 3112   1.853   4.674   2.296
  738SOL    HW1 3113   1.841   4.742   2.369
  738SOL    HW2 3114   1.768   4.622   2.285
  739SOL     OW 3115   4.074   0.274   3.840
  739SOL    HW1 3116   4.170   0.264   3.816
  739SOL    HW2 3117   4.067   0.306   3.935
  740SOL     OW 3118   5.306   0.282   1.146
  740SOL    HW1 3119   5.247   0.340   1.203
  740SOL    HW2 3120   5.263   0.270   1.057
  741SOL     OW 3121   2.202   6.533   3.246
  741SOL    HW1 3122   2.106   6.528   3.220
  741SOL    HW2 3123   2.211   6.578   3.335
  742SOL     OW 3124   2.749   6.823   2.202
  742SOL    HW1 3125   2.666   6.786   2.161
  742SOL    HW2 3126   2.780   6.902   2.149
  743SOL     OW 3127   0.271   3.968   4.035
  743SOL    HW1 3128   0.180   3.941   4.067
  743SOL    HW2 3129   0.332   3.889   4.040
  744SOL     OW 3130   5.547   0.724   0.134
  744SOL    HW1 3131   5.519   0.629   0.151
  744SOL    HW2 3132   5.467   0.779   0.111
  745SOL     OW 3133   0.783   5.890   4.962
  745SOL    HW1 3134   0.795   5.805   4.910
  745SOL    HW2 3135   0.791   5.968   4.901
  746SOL     OW 3136   0.193   4.912   6.076
  746SOL    HW1 3137   0.130   4.855   6.024
  746SOL    HW2 3138   0.220   4.864   6.159
  747SOL     OW 3139   3.874   6.301   4.529
  747SOL    HW1 3140   3.938   6.275   4.601
  747SOL    HW2 3141   3.859   6.224   4.468
  748SOL     OW 3142   3.839   4.801   2.436
  748SOL    HW1 3143   3.831   4.826   2.533
  748SOL    HW2 3144   3.757   4.830   2.387
  749SOL     OW 3145   6.289   4.213   5.297
  749SOL    HW1 3146   6.385   4.237   5.313
  749SOL    HW2 3147   6.261   4.243   5.206
  750SOL     OW 3148   1.459   2.168   0.702
  750SOL    HW1 3149   1.443   2.211   0.791
  750SOL    HW2 3150   1.495   2.076   0.715
  751SOL     OW 3151   3.809   2.270   6.420
  751SOL    HW1 3152   3.744   2.272   6.496
  751SOL    HW2 3153   3.880   2.339   6.436
  752SOL     OW 3154   3.598   1.383   2.366
  752SOL    HW1 3155   3.520   1.394   2.304
  752SOL    HW2 3156   3.565   1.382   2.460
  753SOL     OW 3157   1.912   3.170   5.160
  753SOL    HW1 3158   1.872   3.243   5.104
  753SOL    HW2 3159   2.003   3.148   5.126
  754SOL     OW 3160   5.348   2.707   5.529
  754SOL    HW1 3161   5.269   2.753   5.571
  754SOL    HW2 3162   5.326   2.683   5.434
  755SOL     OW 3163   1.293   4.335   5.217
  755SOL    HW1 3164   1.290   4.397   5.139
  755SOL    HW2 3165   1.326   4.384   5.298
  756SOL     OW 3166   3.656   6.924   0.431
  756SOL    HW1 3167   3.614   7.006   0.470
  756SOL    HW2 3168   3.664   6.854   0.501
  757SOL     OW 3169   1.165   0.127   3.865
  757SOL    HW1 3170   1.101   0.060   3.827
  757SOL    HW2 3171   1.211   0.088   3.945
  758SOL     OW 3172   3.749   0.193   1.757
  758SOL    HW1 3173   3.842   0.178   1.725
  758SOL    HW2 3174   3.706   0.265   1.703
  759SOL     OW 3175   0.395   1.325   1.033
  759SOL    HW1 3176   0.385   1.408   0.978
  759SOL    HW2 3177   0.344   1.335   1.119
  760SOL     OW 3178   5.376   0.410   5.577
  760SOL    HW1 3179   5.404   0.318   5.602
  760SOL    HW2 3180   5.369   0.418   5.478
  761SOL     OW 3181   5.654   2.872   5.657
  761SOL    HW1 3182   5.657   2.780   5.618
  761SOL    HW2 3183   5.584   2.875   5.729
  762SOL     OW 3184   2.430   0.803   4.905
  762SOL    HW1 3185   2.449   0.705   4.912
  762SOL    HW2 3186   2.447   0.834   4.812
  763SOL     OW 3187   4.206   5.596   6.010
  763SOL    HW1 3188   4.295   5.553   5.993
  763SOL    HW2 3189   4.206   5.640   6.099
  764SOL     OW 3190   5.303   2.268   5.264
  764SOL    HW1 3191   5.395   2.234   5.286
  764SOL    HW2 3192   5.236   2.224   5.323
  765SOL     OW 3193   1.330   6.266   1.386
  765SOL    HW1 3194   1.406   6.326   1.362
  765SOL    HW2 3195   1.263   6.266   1.311
  766SOL     OW 3196   2.170   3.373   6.554
  766SOL    HW1 3197   2.187   3.459   6.603
  766SOL    HW2 3198   2.179   3.388   6.456
  767SOL     OW 3199   6.235   5.524   1.728
  767SOL    HW1 3200   6.314   5.470   1.756
  767SOL    HW2 3201   6.223   5.516   1.629
  768SOL     OW 3202   2.304   6.445   2.080
  768SOL    HW1 3203   2.230   6.507   2.103
  768SOL    HW2 3204   2.371   6.493   2.023
  769SOL     OW 3205   3.122   0.686   4.837
  769SOL    HW1 3206   3.093   0.686   4.741
  769SOL    HW2 3207   3.205   0.630   4.846
  770SOL     OW 3208   2.064   4.409   2.871
  770SOL    HW1 3209   2.044   4.501   2.840
  770SOL    HW2 3210   2.158   4.385   2.846
  771SOL     OW 3211   2.637   5.262   2.554
  771SOL    HW1 3212   2.702   5.339   2.559
  771SOL    HW2 3213   2.545   5.298   2.538
  772SOL     OW 3214   5.495   5.042   0.746
  772SOL    HW1 3215   5.457   4.960   0.788
  772SOL    HW2 3216   5.593   5.046   0.765
  773SOL     OW 3217   0.555   3.568   5.131
  773SOL    HW1 3218   0.488   3.498   5.109
  773SOL    HW2 3219   0.514   3.659   5.116
  774SOL     OW 3220   0.829   1.635   1.269
  774SOL    HW1 3221   0.791   1.546   1.245
  774SOL    HW2 3222   0.755   1.702   1.278
  775SOL     OW 3223   0.698   2.366   2.764
  775SOL    HW1 3224   0.652   2.452   2.785
  775SOL    HW2 3225   0.769   2.348   2.833
  776SOL     OW 3226   0.934   0.412   6.368
  776SOL    HW1 3227   0.859   0.351   6.393
  776SOL    HW2 3228   0.933   0.428   6.269
  777SOL     OW 3229   2.268   4.867   1.337
  777SOL    HW1 3230   2.329   4.822   1.271
  777SOL    HW2 3231   2.312   4.869   1.427
  778SOL     OW 3232   2.670   1.339   2.311
  778SOL    HW1 3233   2.629   1.359   2.222
  778SOL    HW2 3234   2.601   1.304   2.373
  779SOL     OW 3235   6.837   2.699   2.659
  779SOL    HW1 3236   6.902   2.671   2.730
  779SOL    HW2 3237   6.886   2.722   2.575
  780SOL     OW 3238   6.591   3.794   3.666
  780SOL    HW1 3239   6.646   3.712   3.650
  780SOL    HW2 3240   6.503   3.784   3.621
  781SOL     OW 3241   5.594   1.094   0.233
  781SOL    HW1 3242   5.586   1.058   0.326
  781SOL    HW2 3243   5.654   1.034   0.179
  782SOL     OW 3244   1.437   4.157   6.794
  782SOL    HW1 3245   1.414   4.217   6.870
  782SOL    HW2 3246   1.453   4.064   6.828
  783SOL     OW 3247   4.168   5.159   0.882
  783SOL    HW1 3248   4.185   5.192   0.974
  783SOL    HW2 3249   4.216   5.217   0.816
  784SOL     OW 3250   5.558   6.061   0.491
  784SOL    HW1 3251   5.536   6.109   0.406
  784SOL    HW2 3252   5.480   6.005   0.519
  785SOL     OW 3253   0.644   2.668   3.075
  785SOL    HW1 3254   0.584   2.703   3.147
  785SOL    HW2 3255   0.590   2.621   3.005
  786SOL     OW 3256   1.474   0.617   1.762
  786SOL    HW1 3257   1.523   0.536   1.794
  786SOL    HW2 3258   1.450   0.605   1.666
  787SOL     OW 3259   2.855   0.405   6.935
  787SOL    HW1 3260   2.811   0.328   6.981
  787SOL    HW2 3261   2.951   0.410   6.961
  788SOL     OW 3262   4.089   2.926   5.915
  788SOL    HW1 3263   4.044   2.956   5.999
  788SOL    HW2 3264   4.019   2.898   5.849
  789SOL     OW 3265   5.123   3.982   0.649
  789SOL    HW1 3266   5.140   3.922   0.571
  789SOL    HW2 3267   5.170   4.070   0.634
  790SOL     OW 3268   2.253   1.186   4.067
  790SOL    HW1 3269   2.320   1.127   4.020
  790SOL    HW2 3270   2.287   1.208   4.158
  791SOL     OW 3271   3.167   5.738   4.061
  791SOL    HW1 3272   3.221   5.822   4.058
  791SOL    HW2 3273   3.225   5.662   4.090
  792SOL     OW 3274   0.820   6.577   0.862
  792SOL    HW1 3275   0.741   6.616   0.816
  792SOL    HW2 3276   0.902   6.594   0.808
  793SOL     OW 3277   4.865   4.860   3.664
  793SOL    HW1 3278   4.955   4.827   3.633
  793SOL    HW2 3279   4.812   4.890   3.585
  794SOL     OW 3280   3.386   3.910   5.337
  794SOL    HW1 3281   3.310   3.847   5.346
  794SOL    HW2 3282   3.359   3.987   5.279
  795SOL     OW 3283   3.536   6.814   4.254
  795SOL    HW1 3284   3.524   6.746   4.182
  795SOL    HW2 3285   3.534   6.768   4.343
  796SOL     OW 3286   0.353   2.102   6.628
  796SOL    HW1 3287   0.426   2.040   6.602
  796SOL    HW2 3288   0.318   2.149   6.547
  797SOL     OW 3289   5.660   3.202   0.956
  797SOL    HW1 3290   5.665   3.299   0.931
  797SOL    HW2 3291   5.751   3.170   0.984
  798SOL     OW 3292   4.011   0.564   2.411
  798SOL    HW1 3293   3.982   0.515   2.493
  798SOL    HW2 3294   3.932   0.608   2.369
  799SOL     OW 3295   6.587   0.264   5.915
  799SOL    HW1 3296   6.583   0.260   5.815
  799SOL    HW2 3297   6.680   0.246   5.945
  800SOL     OW 3298   5.446   2.283   2.504
  800SOL    HW1 3299   5.354   2.321   2.513
  800SOL    HW2 3300   5.443   2.199   2.450
  801SOL     OW 3301   1.180   3.680   4.230
  801SOL    HW1 3302   1.149   3.755   4.171
  801SOL    HW2 3303   1.276   3.659   4.209
  802SOL     OW 3304   4.359   1.717   1.031
  802SOL    HW1 3305   4.261   1.710   1.010
  802SOL    HW2 3306   4.399   1.790   0.975
  803SOL     OW 3307   0.419   6.935   5.335
  803SOL    HW1 3308   0.369   6.919   5.250
  803SOL    HW2 3309   0.356   6.930   5.413
  804SOL     OW 3310   5.412   5.419   6.906
  804SOL    HW1 3311   5.415   5.509   6.863
  804SOL    HW2 3312   5.317   5.392   6.922
  805SOL     OW 3313   4.032   0.105   5.493
  805SOL    HW1 3314   4.115   0.124   5.546
  805SOL    HW2 3315   4.003   0.189   5.447
  806SOL     OW 3316   5.437   1.102   4.677
  806SOL    HW1 3317   5.495   1.145   4.607
  806SOL    HW2 3318   5.379   1.033   4.635
  807SOL     OW 3319   1.392   2.355   4.212
  807SOL    HW1 3320   1.383   2.331   4.309
  807SOL    HW2 3321   1.334   2.296   4.157
  808SOL     OW 3322   4.375   3.477   6.531
  808SOL    HW1 3323   4.415   3.543   6.468
  808SOL    HW2 3324   4.401   3.384   6.504
  809SOL     OW 3325   6.846   5.005   1.315
  809SOL    HW1 3326   6.759   4.965   1.286
  809SOL    HW2 3327   6.920   4.942   1.293
  810SOL     OW 3328   3.132   2.793   1.237
  810SOL    HW1 3329   3.123   2.763   1.332
  810SOL    HW2 3330   3.218   2.842   1.226
  811SOL     OW 3331   3.961   5.534   5.112
  811SOL    HW1 3332   4.057   5.508   5.124
  811SOL    HW2 3333   3.902   5.455   5.125
  812SOL     OW 3334   0.263   1.455   1.975
  812SOL    HW1 3335   0.323   1.473   1.897
  812SOL    HW2 3336   0.281   1.523   2.047
  813SOL     OW 3337   3.405   6.114   5.515
  813SOL    HW1 3338   3.349   6.144   5.593
  813SOL    HW2 3339   3.418   6.015   5.520
  814SOL     OW 3340   6.694   6.070   2.424
  814SOL    HW1 3341   6.777   6.015   2.418
  814SOL    HW2 3342   6.647   6.070   2.335
  815SOL     OW 3343   0.675   3.561   3.203
  815SOL    HW1 3344   0.581   3.563   3.237
  815SOL    HW2 3345   0.687   3.482   3.142
  816SOL     OW 3346   6.289   6.512   0.925
  816SOL    HW1 3347   6.278   6.413   0.918
  816SOL    HW2 3348   6.237   6.546   1.004
  817SOL     OW 3349   2.103   4.131   0.410
  817SOL    HW1 3350   2.017   4.159   0.452
  817SOL    HW2 3351   2.146   4.060   0.466
  818SOL     OW 3352   6.191   2.908   2.401
  818SOL    HW1 3353   6.141   2.953   2.327
  818SOL    HW2 3354   6.127   2.871   2.468
  819SOL     OW 3355   5.515   2.703   3.124
  819SOL    HW1 3356   5.557   2.793   3.129
  819SOL    HW2 3357   5.484   2.686   3.031
  820SOL     OW 3358   2.994   2.482   5.379
  820SOL    HW1 3359   3.077   2.481   5.323
  820SOL    HW2 3360   3.017   2.511   5.472
  821SOL     OW 3361   1.458   4.363   1.114
  821SOL    HW1 3362   1.375   4.419   1.118
  821SOL    HW2 3363   1.496   4.353   1.206
  822SOL     OW 3364   1.789   4.258   3.704
  822SOL    HW1 3365   1.746   4.225   3.788
  822SOL    HW2 3366   1.744   4.342   3.675
  823SOL     OW 3367   5.598   3.796   6.689
  823SOL    HW1 3368   5.617   3.894   6.701
  823SOL    HW2 3369   5.590   3.753   6.779
  824SOL     OW 3370   5.532   0.969   6.082
  824SOL    HW1 3371   5.464   0.943   6.014
  824SOL    HW2 3372   5.600   0.896   6.091
  825SOL     OW 3373   0.498   4.108   1.384
  825SOL    HW1 3374   0.513   4.161   1.468
  825SOL    HW2 3375   0.549   4.150   1.309
  826SOL     OW 3376   5.176   3.411   5.637
  826SOL    HW1 3377   5.244   3.362   5.582
  826SOL    HW2 3378   5.098   3.350   5.656
  827SOL     OW 3379   2.897   5.177   5.590
  827SOL    HW1 3380   2.958   5.164   5.513
  827SOL    HW2 3381   2.948   5.218   5.666
  828SOL     OW 3382   5.452   6.752   6.600
  828SOL    HW1 3383   5.457   6.724   6.504
  828SOL    HW2 3384   5.398   6.685   6.651
  829SOL     OW 3385   3.003   3.834   2.792
  829SOL    HW1 3386   2.960   3.840   2.883
  829SOL    HW2 3387   2.975   3.749   2.748
  830SOL     OW 3388   5.339   5.025   6.852
  830SOL    HW1 3389   5.352   4.938   6.899
  830SOL    HW2 3390   5.341   5.099   6.919
  831SOL     OW 3391   6.224   0.473   6.973
  831SOL    HW1 3392   6.161   0.434   0.015
  831SOL    HW2 3393   6.172   0.514   6.899
  832SOL     OW 3394   2.859   0.866   1.833
  832SOL    HW1 3395   2.888   0.874   1.738
  832SOL    HW2 3396   2.937   0.886   1.893
  833SOL     OW 3397   0.503   3.852   5.700
  833SOL    HW1 3398   0.515   3.775   5.762
  833SOL    HW2 3399   0.446   3.823   5.623
  834SOL     OW 3400   4.062   3.586   0.250
  834SOL    HW1 3401   4.131   3.641   0.296
  834SOL    HW2 3402   3.984   3.644   0.225
  835SOL     OW 3403   3.653   0.276   5.170
  835SOL    HW1 3404   3.662   0.330   5.087
  835SOL    HW2 3405   3.556   0.256   5.187
  836SOL     OW 3406   3.808   6.337   6.703
  836SOL    HW1 3407   3.820   6.364   6.607
  836SOL    HW2 3408   3.813   6.237   6.710
  837SOL     OW 3409   5.337   0.120   0.551
  837SOL    HW1 3410   5.408   0.130   0.620
  837SOL    HW2 3411   5.377   0.134   0.460
  838SOL     OW 3412   2.419   0.343   4.596
  838SOL    HW1 3413   2.456   0.250   4.594
  838SOL    HW2 3414   2.348   0.349   4.666
  839SOL     OW 3415   1.957   2.767   2.005
  839SOL    HW1 3416   2.019   2.828   1.956
  839SOL    HW2 3417   2.010   2.701   2.058
  840SOL     OW 3418   6.360   6.187   6.924
  840SOL    HW1 3419   6.284   6.240   6.960
  840SOL    HW2 3420   6.338   6.154   6.832
  841SOL     OW 3421   4.129   4.934   6.344
  841SOL    HW1 3422   4.195   4.995   6.301
  841SOL    HW2 3423   4.071   4.987   6.407
  842SOL     OW 3424   4.309   6.890   4.826
  842SOL    HW1 3425   4.386   6.827   4.829
  842SOL    HW2 3426   4.331   6.972   4.879
  843SOL     OW 3427   1.004   1.695   1.052
  843SOL    HW1 3428   0.955   1.663   1.134
  843SOL    HW2 3429   1.100   1.708   1.075
  844SOL     OW 3430   6.278   0.489   0.963
  844SOL    HW1 3431   6.317   0.405   1.001
  844SOL    HW2 3432   6.271   0.557   1.036
  845SOL     OW 3433   5.147   4.444   5.439
  845SOL    HW1 3434   5.075   4.384   5.405
  845SOL    HW2 3435   5.230   4.390   5.456
  846SOL     OW 3436   1.918   2.031   6.813
  846SOL    HW1 3437   1.928   2.047   6.911
  846SOL    HW2 3438   1.821   2.023   6.789
  847SOL     OW 3439   1.610   3.400   1.474
  847SOL    HW1 3440   1.702   3.390   1.513
  847SOL    HW2 3441   1.571   3.487   1.503
  848SOL     OW 3442   6.014   0.651   6.362
  848SOL    HW1 3443   6.110   0.641   6.334
  848SOL    HW2 3444   5.969   0.718   6.304
  849SOL     OW 3445   0.448   4.293   6.384
  849SOL    HW1 3446   0.428   4.382   6.342
  849SOL    HW2 3447   0.363   4.255   6.421
  850SOL     OW 3448   5.044   0.390   3.770
  850SOL    HW1 3449   5.067   0.297   3.799
  850SOL    HW2 3450   4.945   0.398   3.760
  851SOL     OW 3451   0.300   1.742   2.426
  851SOL    HW1 3452   0.366   1.792   2.483
  851SOL    HW2 3453   0.214   1.793   2.424
  852SOL     OW 3454   1.276   2.851   6.980
  852SOL    HW1 3455   1.348   2.909   7.020
  852SOL    HW2 3456   1.301   2.826   6.887
  853SOL     OW 3457   1.891   4.621   2.625
  853SOL    HW1 3458   1.832   4.683   2.573
  853SOL    HW2 3459   1.835   4.565   2.687
  854SOL     OW 3460   4.491   5.979   1.348
  854SOL    HW1 3461   4.441   5.909   1.398
  854SOL    HW2 3462   4.485   6.066   1.397
  855SOL     OW 3463   0.332   0.594   2.006
  855SOL    HW1 3464   0.397   0.606   1.931
  855SOL    HW2 3465   0.375   0.622   2.092
  856SOL     OW 3466   1.384   2.197   5.340
  856SOL    HW1 3467   1.455   2.160   5.400
  856SOL    HW2 3468   1.353   2.286   5.376
  857SOL     OW 3469   5.956   4.520   1.959
  857SOL    HW1 3470   5.962   4.506   2.058
  857SOL    HW2 3471   6.028   4.583   1.930
  858SOL     OW 3472   3.062   3.514   1.201
  858SOL    HW1 3473   3.053   3.429   1.149
  858SOL    HW2 3474   3.142   3.564   1.168
  859SOL     OW 3475   4.928   5.683   5.634
  859SOL    HW1 3476   4.927   5.774   5.675
  859SOL    HW2 3477   5.012   5.636   5.659
  860SOL     OW 3478   5.014   3.644   0.290
  860SOL    HW1 3479   4.974   3.552   0.285
  860SOL    HW2 3480   5.014   3.685   0.199
  861SOL     OW 3481   2.515   6.277   3.496
  861SOL    HW1 3482   2.603   6.316   3.469
  861SOL    HW2 3483   2.489   6.313   3.586
  862SOL     OW 3484   0.846   4.375   5.051
  862SOL    HW1 3485   0.853   4.281   5.084
  862SOL    HW2 3486   0.902   4.434   5.109
  863SOL     OW 3487   6.354   0.225   0.935
  863SOL    HW1 3488   6.439   0.270   0.961
  863SOL    HW2 3489   6.330   0.157   1.004
  864SOL     OW 3490   4.151   4.875   3.628
  864SOL    HW1 3491   4.191   4.836   3.711
  864SOL    HW2 3492   4.180   4.970   3.619
  865SOL     OW 3493   0.672   5.906   6.050
  865SOL    HW1 3494   0.630   5.823   6.086
  865SOL    HW2 3495   0.622   5.986   6.082
  866SOL     OW 3496   1.914   1.719   1.523
  866SOL    HW1 3497   1.929   1.817   1.521
  866SOL    HW2 3498   1.935   1.683   1.614
  867SOL     OW 3499   4.018   3.807   0.581
  867SOL    HW1 3500   3.937   3.792   0.524
  867SOL    HW2 3501   4.101   3.798   0.526
  868SOL     OW 3502   5.919   0.638   1.456
  868SOL    HW1 3503   5.994   0.573   1.448
  868SOL    HW2 3504   5.857   0.629   1.378
  869SOL     OW 3505   6.773   5.231   3.215
  869SOL    HW1 3506   6.688   5.218   3.267
  869SOL    HW2 3507   6.752   5.275   3.128
  870SOL     OW 3508   4.276   3.102   0.647
  870SOL    HW1 3509   4.278   3.003   0.659
  870SOL    HW2 3510   4.227   3.145   0.723
  871SOL     OW 3511   4.862   3.040   3.140
  871SOL    HW1 3512   4.850   3.137   3.161
  871SOL    HW2 3513   4.826   2.986   3.216
  872SOL     OW 3514   5.444   4.160   4.216
  872SOL    HW1 3515   5.349   4.158   4.246
  872SOL    HW2 3516   5.448   4.172   4.117
  873SOL     OW 3517   5.964   6.837   4.148
  873SOL    HW1 3518   5.988   6.919   4.095
  873SOL    HW2 3519   5.967   6.858   4.245
  874SOL     OW 3520   1.125   4.017   5.912
  874SOL    HW1 3521   1.090   4.066   5.832
  874SOL    HW2 3522   1.051   3.966   5.955
  875SOL     OW 3523   3.103   2.932   0.086
  875SOL    HW1 3524   3.041   2.868   0.041
  875SOL    HW2 3525   3.150   2.886   0.161
  876SOL     OW 3526   0.485   4.989   2.726
  876SOL    HW1 3527   0.465   4.993   2.823
  876SOL    HW2 3528   0.400   4.998   2.673
  877SOL     OW 3529   4.192   4.048   6.674
  877SOL    HW1 3530   4.156   3.970   6.623
  877SOL    HW2 3531   4.162   4.042   6.770
  878SOL     OW 3532   3.924   5.810   5.100
  878SOL    HW1 3533   3.853   5.831   5.033
  878SOL    HW2 3534   3.953   5.715   5.089
  879SOL     OW 3535   2.990   2.062   1.923
  879SOL    HW1 3536   2.921   2.033   1.857
  879SOL    HW2 3537   2.959   2.145   1.970
  880SOL     OW 3538   3.207   4.240   5.661
  880SOL    HW1 3539   3.192   4.284   5.750
  880SOL    HW2 3540   3.305   4.242   5.639
  881SOL     OW 3541   4.623   3.804   5.325
  881SOL    HW1 3542   4.590   3.768   5.412
  881SOL    HW2 3543   4.637   3.729   5.261
  882SOL     OW 3544   1.441   1.618   4.562
  882SOL    HW1 3545   1.353   1.573   4.546
  882SOL    HW2 3546   1.476   1.655   4.476
  883SOL     OW 3547   4.952   5.299   6.112
  883SOL    HW1 3548   5.030   5.240   6.133
  883SOL    HW2 3549   4.878   5.280   6.176
  884SOL     OW 3550   0.117   4.161   0.301
  884SOL    HW1 3551   0.135   4.066   0.325
  884SOL    HW2 3552   0.074   4.166   0.211
  885SOL     OW 3553   4.787   5.284   6.580
  885SOL    HW1 3554   4.819   5.217   6.647
  885SOL    HW2 3555   4.821   5.375   6.604
  886SOL     OW 3556   4.093   0.596   0.961
  886SOL    HW1 3557   4.184   0.588   0.920
  886SOL    HW2 3558   4.024   0.588   0.889
  887SOL     OW 3559   3.803   6.749   4.178
  887SOL    HW1 3560   3.816   6.778   4.083
  887SOL    HW2 3561   3.715   6.782   4.212
  888SOL     OW 3562   5.754   6.066   2.926
  888SOL    HW1 3563   5.835   6.031   2.974
  888SOL    HW2 3564   5.684   6.091   2.993
  889SOL     OW 3565   1.639   6.496   5.833
  889SOL    HW1 3566   1.652   6.539   5.743
  889SOL    HW2 3567   1.649   6.397   5.825
  890SOL     OW 3568   2.170   5.002   2.168
  890SOL    HW1 3569   2.188   4.934   2.239
  890SOL    HW2 3570   2.196   5.093   2.201
  891SOL     OW 3571   6.059   4.260   0.761
  891SOL    HW1 3572   6.009   4.198   0.700
  891SOL    HW2 3573   6.147   4.220   0.784
  892SOL     OW 3574   3.856   4.303   5.569
  892SOL    HW1 3575   3.889   4.343   5.484
  892SOL    HW2 3576   3.922   4.320   5.642
  893SOL     OW 3577   1.857   1.372   2.007
  893SOL    HW1 3578   1.898   1.463   1.997
  893SOL    HW2 3579   1.928   1.306   2.033
  894SOL     OW 3580   1.607   1.930   3.192
  894SOL    HW1 3581   1.511   1.913   3.216
  894SOL    HW2 3582   1.643   2.002   3.251
  895SOL     OW 3583   1.111   5.793   4.669
  895SOL    HW1 3584   1.127   5.788   4.571
  895SOL    HW2 3585   1.015   5.815   4.686
  896SOL     OW 3586   6.507   6.219   2.037
  896SOL    HW1 3587   6.427   6.183   2.087
  896SOL    HW2 3588   6.578   6.244   2.103
  897SOL     OW 3589   4.616   0.990   0.421
  897SOL    HW1 3590   4.524   1.029   0.422
  897SOL    HW2 3591   4.656   0.998   0.513
  898SOL     OW 3592   4.173   6.270   3.011
  898SOL    HW1 3593   4.135   6.308   3.096
  898SOL    HW2 3594   4.128   6.184   2.990
  899SOL     OW 3595   0.335   5.208   0.594
  899SOL    HW1 3596   0.302   5.295   0.558
  899SOL    HW2 3597   0.265   5.138   0.582
  900SOL     OW 3598   4.320   6.335   0.801
  900SOL    HW1 3599   4.346   6.274   0.726
  900SOL    HW2 3600   4.345   6.292   0.888
  901SOL     OW 3601   1.000   1.087   5.508
  901SOL    HW1 3602   0.944   1.055   5.584
  901SOL    HW2 3603   1.064   1.015   5.481
  902SOL     OW 3604   0.778   2.467   0.258
  902SOL    HW1 3605   0.686   2.450   0.293
  902SOL    HW2 3606   0.842   2.475   0.334
  903SOL     OW 3607   6.803   4.143   6.341
  903SOL    HW1 3608   6.753   4.229   6.330
  903SOL    HW2 3609   6.798   4.091   6.256
  904SOL     OW 3610   2.104   2.549   3.332
  904SOL    HW1 3611   2.026   2.611   3.343
  904SOL    HW2 3612   2.185   2.601   3.304
  905SOL     OW 3613   4.807   3.877   6.116
  905SOL    HW1 3614   4.772   3.812   6.047
  905SOL    HW2 3615   4.734   3.898   6.181
  906SOL     OW 3616   0.658   3.216   5.795
  906SOL    HW1 3617   0.645   3.209   5.696
  906SOL    HW2 3618   0.573   3.194   5.842
  907SOL     OW 3619   6.125   2.820   2.660
  907SOL    HW1 3620   6.132   2.911   2.701
  907SOL    HW2 3621   6.075   2.759   2.721
  908SOL     OW 3622   1.755   5.893   3.452
  908SOL    HW1 3623   1.708   5.816   3.409
  908SOL    HW2 3624   1.790   5.954   3.381
  909SOL     OW 3625   2.774   6.086   2.075
  909SOL    HW1 3626   2.853   6.031   2.050
  909SOL    HW2 3627   2.794   6.139   2.157
  910SOL     OW 3628   2.763   0.743   1.161
  910SOL    HW1 3629   2.753   0.816   1.229
  910SOL    HW2 3630   2.840   0.684   1.185
  911SOL     OW 3631   7.015   5.101   0.966
  911SOL    HW1 3632   0.018   5.171   0.901
  911SOL    HW2 3633   0.032   5.119   1.055
  912SOL     OW 3634   6.313   0.703   4.248
  912SOL    HW1 3635   6.249   0.668   4.180
  912SOL    HW2 3636   6.406   0.677   4.222
  913SOL     OW 3637   1.487   0.974   2.948
  913SOL    HW1 3638   1.587   0.970   2.950
  913SOL    HW2 3639   1.457   1.057   2.902
  914SOL     OW 3640   2.376   6.336   4.992
  914SOL    HW1 3641   2.435   6.342   4.912
  914SOL    HW2 3642   2.323   6.251   4.988
  915SOL     OW 3643   1.495   3.683   6.695
  915SOL    HW1 3644   1.401   3.668   6.665
  915SOL    HW2 3645   1.548   3.723   6.621
  916SOL     OW 3646   1.436   2.707   1.902
  916SOL    HW1 3647   1.475   2.749   1.985
  916SOL    HW2 3648   1.479   2.619   1.886
  917SOL     OW 3649   5.844   0.448   2.308
  917SOL    HW1 3650   5.832   0.427   2.211
  917SOL    HW2 3651   5.846   0.362   2.360
  918SOL     OW 3652   2.555   6.726   6.883
  918SOL    HW1 3653   2.590   6.690   6.797
  918SOL    HW2 3654   2.587   6.669   6.958
  919SOL     OW 3655   6.531   5.484   2.438
  919SOL    HW1 3656   6.461   5.413   2.436
  919SOL    HW2 3657   6.579   5.486   2.351
  920SOL     OW 3658   2.434   5.739   3.077
  920SOL    HW1 3659   2.485   5.780   3.001
  920SOL    HW2 3660   2.383   5.659   3.044
  921SOL     OW 3661   4.751   4.360   3.948
  921SOL    HW1 3662   4.773   4.264   3.965
  921SOL    HW2 3663   4.722   4.402   4.034
  922SOL     OW 3664   3.706   2.886   5.653
  922SOL    HW1 3665   3.806   2.883   5.660
  922SOL    HW2 3666   3.680   2.950   5.581
  923SOL     OW 3667   2.885   4.486   6.017
  923SOL    HW1 3668   2.810   4.454   5.960
  923SOL    HW2 3669   2.849   4.517   6.106
  924SOL     OW 3670   6.400   2.367   2.518
  924SOL    HW1 3671   6.311   2.399   2.485
  924SOL    HW2 3672   6.464   2.444   2.521
  925SOL     OW 3673   6.748   2.055   6.199
  925SOL    HW1 3674   6.717   2.054   6.104
  925SOL    HW2 3675   6.755   1.962   6.233
  926SOL     OW 3676   6.221   1.206   0.556
  926SOL    HW1 3677   6.132   1.159   0.557
  926SOL    HW2 3678   6.284   1.156   0.497
  927SOL     OW 3679   5.827   3.794   3.529
  927SOL    HW1 3680   5.922   3.765   3.544
  927SOL    HW2 3681   5.766   3.727   3.570
  928SOL     OW 3682   1.107   6.368   0.531
  928SOL    HW1 3683   1.203   6.386   0.508
  928SOL    HW2 3684   1.101   6.292   0.596
  929SOL     OW 3685   0.912   0.580   1.123
  929SOL    HW1 3686   0.941   0.487   1.099
  929SOL    HW2 3687   0.930   0.596   1.220
  930SOL     OW 3688   5.627   6.067   4.899
  930SOL    HW1 3689   5.693   6.022   4.839
  930SOL    HW2 3690   5.542   6.015   4.901
  931SOL     OW 3691   5.789   3.228   3.090
  931SOL    HW1 3692   5.702   3.194   3.128
  931SOL    HW2 3693   5.839   3.153   3.047
  932SOL     OW 3694   3.204   6.523   2.914
  932SOL    HW1 3695   3.118   6.480   2.944
  932SOL    HW2 3696   3.189   6.569   2.827
  933SOL     OW 3697   0.787   5.676   3.500
  933SOL    HW1 3698   0.724   5.746   3.535
  933SOL    HW2 3699   0.734   5.599   3.463
  934SOL     OW 3700   1.609   0.633   4.739
  934SOL    HW1 3701   1.640   0.678   4.823
  934SOL    HW2 3702   1.541   0.691   4.694
  935SOL     OW 3703   4.933   4.220   5.290
  935SOL    HW1 3704   4.859   4.166   5.248
  935SOL    HW2 3705   5.019   4.199   5.245
  936SOL     OW 3706   1.580   0.936   6.424
  936SOL    HW1 3707   1.496   0.924   6.371
  936SOL    HW2 3708   1.633   1.011   6.384
  937SOL     OW 3709   4.872   1.590   4.926
  937SOL    HW1 3710   4.934   1.643   4.867
  937SOL    HW2 3711   4.863   1.634   5.015
  938SOL     OW 3712   0.256   5.511   6.084
  938SOL    HW1 3713   0.169   5.476   6.051
  938SOL    HW2 3714   0.298   5.445   6.146
  939SOL     OW 3715   5.527   0.641   5.677
  939SOL    HW1 3716   5.449   0.674   5.625
  939SOL    HW2 3717   5.588   0.589   5.617
  940SOL     OW 3718   0.700   2.903   2.368
  940SOL    HW1 3719   0.773   2.874   2.430
  940SOL    HW2 3720   0.637   2.964   2.416
  941SOL     OW 3721   6.432   0.793   5.141
  941SOL    HW1 3722   6.346   0.844   5.138
  941SOL    HW2 3723   6.420   0.704   5.096
  942SOL     OW 3724   4.885   0.140   3.628
  942SOL    HW1 3725   4.954   0.165   3.560
  942SOL    HW2 3726   4.795   0.145   3.587
  943SOL     OW 3727   1.783   3.332   3.315
  943SOL    HW1 3728   1.830   3.401   3.260
  943SOL    HW2 3729   1.779   3.363   3.410
  944SOL     OW 3730   6.783   4.297   5.432
  944SOL    HW1 3731   6.846   4.371   5.458
  944SOL    HW2 3732   6.744   4.257   5.515
  945SOL     OW 3733   6.534   4.591   5.491
  945SOL    HW1 3734   6.472   4.536   5.546
  945SOL    HW2 3735   6.497   4.600   5.398
  946SOL     OW 3736   4.589   3.040   5.793
  946SOL    HW1 3737   4.490   3.022   5.790
  946SOL    HW2 3738   4.605   3.130   5.831
  947SOL     OW 3739   3.501   3.061   4.166
  947SOL    HW1 3740   3.478   3.019   4.079
  947SOL    HW2 3741   3.601   3.066   4.175
  948SOL     OW 3742   4.208   0.277   0.877
  948SOL    HW1 3743   4.154   0.264   0.960
  948SOL    HW2 3744   4.151   0.260   0.797
  949SOL     OW 3745   0.805   6.749   6.215
  949SOL    HW1 3746   0.864   6.828   6.206
  949SOL    HW2 3747   0.798   6.723   6.312
  950SOL     OW 3748   4.437   4.960   1.800
  950SOL    HW1 3749   4.497   4.933   1.724
  950SOL    HW2 3750   4.461   5.052   1.831
  951SOL     OW 3751   2.136   0.444   2.878
  951SOL    HW1 3752   2.218   0.458   2.822
  951SOL    HW2 3753   2.153   0.372   2.945
  952SOL     OW 3754   5.363   1.975   2.819
  952SOL    HW1 3755   5.426   2.011   2.888
  952SOL    HW2 3756   5.329   2.051   2.763
  953SOL     OW 3757   5.004   5.638   4.601
  953SOL    HW1 3758   5.000   5.626   4.700
  953SOL    HW2 3759   4.913   5.654   4.565
  954SOL     OW 3760   4.942   5.701   0.562
  954SOL    HW1 3761   4.854   5.693   0.514
  954SOL    HW2 3762   4.983   5.611   0.572
  955SOL     OW 3763   0.015   4.490   2.935
  955SOL    HW1 3764   0.086   4.452   2.876
  955SOL    HW2 3765   6.998   4.415   2.987
  956SOL     OW 3766   0.196   2.229   2.677
  956SOL    HW1 3767   0.119   2.182   2.722
  956SOL    HW2 3768   0.187   2.219   2.578
  957SOL     OW 3769   0.473   5.059   4.560
  957SOL    HW1 3770   0.521   4.998   4.623
  957SOL    HW2 3771   0.374   5.047   4.571
  958SOL     OW 3772   4.572   1.977   2.836
  958SOL    HW1 3773   4.551   1.923   2.918
  958SOL    HW2 3774   4.630   1.923   2.775
  959SOL     OW 3775   3.700   5.384   3.267
  959SOL    HW1 3776   3.618   5.363   3.214
  959SOL    HW2 3777   3.718   5.482   3.263
  960SOL     OW 3778   0.474   5.758   3.353
  960SOL    HW1 3779   0.447   5.778   3.259
  960SOL    HW2 3780   0.504   5.663   3.360
  961SOL     OW 3781   4.141   0.099   3.492
  961SOL    HW1 3782   4.119   0.110   3.395
  961SOL    HW2 3783   4.071   0.143   3.548
  962SOL     OW 3784   1.327   1.088   4.237
  962SOL    HW1 3785   1.378   1.153   4.180
  962SOL    HW2 3786   1.244   1.059   4.189
  963SOL     OW 3787   6.966   2.612   6.257
  963SOL    HW1 3788   6.974   2.647   6.351
  963SOL    HW2 3789   6.880   2.643   6.217
  964SOL     OW 3790   6.317   4.306   6.771
  964SOL    HW1 3791   6.363   4.291   6.859
  964SOL    HW2 3792   6.218   4.298   6.784
  965SOL     OW 3793   5.855   1.478   0.774
  965SOL    HW1 3794   5.848   1.578   0.768
  965SOL    HW2 3795   5.850   1.439   0.682
  966SOL     OW 3796   5.323   2.669   1.643
  966SOL    HW1 3797   5.240   2.716   1.672
  966SOL    HW2 3798   5.386   2.734   1.600
  967SOL     OW 3799   2.263   4.505   1.626
  967SOL    HW1 3800   2.246   4.572   1.698
  967SOL    HW2 3801   2.235   4.543   1.538
  968SOL     OW 3802   3.666   1.809   2.198
  968SOL    HW1 3803   3.642   1.788   2.293
  968SOL    HW2 3804   3.620   1.893   2.170
  969SOL     OW 3805   3.526   5.920   6.670
  969SOL    HW1 3806   3.522   5.928   6.570
  969SOL    HW2 3807   3.444   5.960   6.710
  970SOL     OW 3808   4.679   0.994   5.948
  970SOL    HW1 3809   4.678   0.894   5.943
  970SOL    HW2 3810   4.660   1.032   5.858
  971SOL     OW 3811   6.709   2.245   3.183
  971SOL    HW1 3812   6.687   2.319   3.119
  971SOL    HW2 3813   6.787   2.194   3.149
  972SOL     OW 3814   5.795   3.910   1.695
  972SOL    HW1 3815   5.861   3.853   1.646
  972SOL    HW2 3816   5.749   3.855   1.765
  973SOL     OW 3817   6.903   4.455   6.941
  973SOL    HW1 3818   6.930   4.415   6.854
  973SOL    HW2 3819   6.873   4.549   6.927
  974SOL     OW 3820   5.892   0.124   2.726
  974SOL    HW1 3821   5.977   0.164   2.763
  974SOL    HW2 3822   5.854   0.186   2.658
  975SOL     OW 3823   1.727   5.426   6.232
  975SOL    HW1 3824   1.737   5.427   6.332
  975SOL    HW2 3825   1.795   5.487   6.192
  976SOL     OW 3826   6.639   3.489   3.125
  976SOL    HW1 3827   6.593   3.496   3.036
  976SOL    HW2 3828   6.577   3.524   3.196
  977SOL     OW 3829   1.074   0.823   2.853
  977SOL    HW1 3830   1.025   0.869   2.927
  977SOL    HW2 3831   1.114   0.890   2.792
  978SOL     OW 3832   4.930   3.717   5.695
  978SOL    HW1 3833   4.895   3.629   5.664
  978SOL    HW2 3834   4.855   3.783   5.698
  979SOL     OW 3835   7.017   2.201   0.960
  979SOL    HW1 3836   7.024   2.167   1.054
  979SOL    HW2 3837   6.967   2.287   0.958
  980SOL     OW 3838   4.394   2.157   3.842
  980SOL    HW1 3839   4.310   2.194   3.882
  980SOL    HW2 3840   4.464   2.151   3.913
  981SOL     OW 3841   0.982   2.242   5.335
  981SOL    HW1 3842   1.041   2.197   5.402
  981SOL    HW2 3843   1.028   2.244   5.246
  982SOL     OW 3844   2.276   2.249   3.753
  982SOL    HW1 3845   2.193   2.216   3.799
  982SOL    HW2 3846   2.265   2.346   3.731
  983SOL     OW 3847   5.895   2.293   4.945
  983SOL    HW1 3848   5.961   2.219   4.933
  983SOL    HW2 3849   5.805   2.254   4.965
  984SOL     OW 3850   2.835   1.849   4.700
  984SOL    HW1 3851   2.735   1.856   4.696
  984SOL    HW2 3852   2.874   1.883   4.614
  985SOL     OW 3853   4.850   4.708   6.498
  985SOL    HW1 3854   4.945   4.723   6.525
  985SOL    HW2 3855   4.814   4.793   6.458
  986SOL     OW 3856   5.450   4.510   0.761
  986SOL    HW1 3857   5.483   4.530   0.853
  986SOL    HW2 3858   5.464   4.413   0.742
  987SOL     OW 3859   4.364   6.915   1.872
  987SOL    HW1 3860   4.342   6.978   1.797
  987SOL    HW2 3861   4.328   6.951   1.958
  988SOL     OW 3862   3.383   3.262   2.922
  988SOL    HW1 3863   3.462   3.226   2.871
  988SOL    HW2 3864   3.346   3.191   2.981
  989SOL     OW 3865   6.714   0.787   5.090
  989SOL    HW1 3866   6.637   0.846   5.067
  989SOL    HW2 3867   6.707   0.758   5.185
  990SOL     OW 3868   4.188   0.232   1.841
  990SOL    HW1 3869   4.140   0.204   1.923
  990SOL    HW2 3870   4.122   0.248   1.767
  991SOL     OW 3871   1.521   2.915   5.310
  991SOL    HW1 3872   1.467   2.995   5.336
  991SOL    HW2 3873   1.547   2.921   5.214
  992SOL     OW 3874   7.012   2.789   2.125
  992SOL    HW1 3875   0.045   2.711   2.104
  992SOL    HW2 3876   6.974   2.779   2.217
  993SOL     OW 3877   1.847   4.255   2.000
  993SOL    HW1 3878   1.807   4.203   1.925
  993SOL    HW2 3879   1.856   4.197   2.080
  994SOL     OW 3880   3.405   3.738   2.322
  994SOL    HW1 3881   3.329   3.677   2.298
  994SOL    HW2 3882   3.368   3.825   2.355
  995SOL     OW 3883   3.345   2.897   5.462
  995SOL    HW1 3884   3.336   2.997   5.456
  995SOL    HW2 3885   3.432   2.874   5.506
  996SOL     OW 3886   2.315   4.664   4.150
  996SOL    HW1 3887   2.337   4.582   4.098
  996SOL    HW2 3888   2.246   4.642   4.219
  997SOL     OW 3889   1.281   0.655   2.867
  997SOL    HW1 3890   1.215   0.729   2.870
  997SOL    HW2 3891   1.363   0.680   2.919
  998SOL     OW 3892   4.070   6.844   4.285
  998SOL    HW1 3893   3.978   6.808   4.266
  998SOL    HW2 3894   4.104   6.805   4.370
  999SOL     OW 3895   5.233   4.218   2.031
  999SOL    HW1 3896   5.194   4.126   2.041
  999SOL    HW2 3897   5.205   4.256   1.943
 1000SOL     OW 3898   1.959   0.846   2.272
 1000SOL    HW1 3899   1.912   0.757   2.274
 1000SOL    HW2 3900   1.986   0.870   2.365
 1001SOL     OW 3901   5.631   6.375   0.530
 1001SOL    HW1 3902   5.619   6.277   0.542
 1001SOL    HW2 3903   5.718   6.392   0.484
 1002SOL     OW 3904   6.087   1.579   0.361
 1002SOL    HW1 3905   6.168   1.548   0.411
 1002SOL    HW2 3906   6.082   1.678   0.365
 1003SOL     OW 3907   2.308   5.976   1.566
 1003SOL    HW1 3908   2.272   5.943   1.478
 1003SOL    HW2 3909   2.317   5.900   1.629
 1004SOL     OW 3910   0.527   0.565   1.747
 1004SOL    HW1 3911   0.493   0.644   1.695
 1004SOL    HW2 3912   0.497   0.481   1.702
 1005SOL     OW 3913   1.375   2.622   3.614
 1005SOL    HW1 3914   1.342   2.659   3.528
 1005SOL    HW2 3915   1.298   2.596   3.672
 1006SOL     OW 3916   1.367   5.239   0.982
 1006SOL    HW1 3917   1.459   5.261   1.014
 1006SOL    HW2 3918   1.355   5.139   0.981
 1007SOL     OW 3919   5.039   0.250   5.046
 1007SOL    HW1 3920   5.024   0.348   5.028
 1007SOL    HW2 3921   5.046   0.201   4.960
 1008SOL     OW 3922   1.864   3.067   4.882
 1008SOL    HW1 3923   1.873   3.019   4.969
 1008SOL    HW2 3924   1.853   3.165   4.900
 1009SOL     OW 3925   0.077   5.746   5.121
 1009SOL    HW1 3926   0.120   5.758   5.211
 1009SOL    HW2 3927   7.023   5.686   5.131
 1010SOL     OW 3928   3.696   2.402   5.890
 1010SOL    HW1 3929   3.645   2.486   5.876
 1010SOL    HW2 3930   3.697   2.378   5.987
 1011SOL     OW 3931   2.479   4.951   2.337
 1011SOL    HW1 3932   2.462   4.966   2.434
 1011SOL    HW2 3933   2.429   4.869   2.307
 1012SOL     OW 3934   6.435   0.474   1.277
 1012SOL    HW1 3935   6.490   0.435   1.350
 1012SOL    HW2 3936   6.375   0.545   1.314
 1013SOL     OW 3937   1.084   1.235   5.903
 1013SOL    HW1 3938   0.990   1.201   5.913
 1013SOL    HW2 3939   1.130   1.233   5.991
 1014SOL     OW 3940   5.116   5.570   6.628
 1014SOL    HW1 3941   5.054   5.609   6.560
 1014SOL    HW2 3942   5.112   5.470   6.622
 1015SOL     OW 3943   2.532   0.045   5.509
 1015SOL    HW1 3944   2.473   0.076   5.584
 1015SOL    HW2 3945   2.488   0.065   5.421
 1016SOL     OW 3946   3.585   3.506   0.009
 1016SOL    HW1 3947   3.656   3.557   6.987
 1016SOL    HW2 3948   3.566   3.421   6.986
 1017SOL     OW 3949   4.222   2.755   1.020
 1017SOL    HW1 3950   4.202   2.679   0.958
 1017SOL    HW2 3951   4.137   2.785   1.063
 1018SOL     OW 3952   0.941   3.556   4.214
 1018SOL    HW1 3953   0.902   3.532   4.303
 1018SOL    HW2 3954   1.008   3.629   4.226
 1019SOL     OW 3955   6.829   0.384   1.378
 1019SOL    HW1 3956   6.929   0.379   1.376
 1019SOL    HW2 3957   6.801   0.480   1.379
 1020SOL     OW 3958   0.975   6.595   1.070
 1020SOL    HW1 3959   0.911   6.569   0.999
 1020SOL    HW2 3960   1.066   6.609   1.030
 1021SOL     OW 3961   4.961   0.261   1.395
 1021SOL    HW1 3962   4.907   0.191   1.349
 1021SOL    HW2 3963   4.906   0.304   1.467
 1022SOL     OW 3964   3.490   4.992   6.214
 1022SOL    HW1 3965   3.464   5.025   6.304
 1022SOL    HW2 3966   3.420   4.930   6.179
 1023SOL     OW 3967   0.868   6.950   2.912
 1023SOL    HW1 3968   0.799   6.964   2.841
 1023SOL    HW2 3969   0.823   6.934   3.000
 1024SOL     OW 3970   6.842   2.860   4.055
 1024SOL    HW1 3971   6.914   2.894   3.993
 1024SOL    HW2 3972   6.792   2.938   4.093
 1025SOL     OW 3973   2.691   3.030   0.648
 1025SOL    HW1 3974   2.707   3.126   0.674
 1025SOL    HW2 3975   2.759   2.972   0.693
 1026SOL     OW 3976   2.490   2.778   1.335
 1026SOL    HW1 3977   2.479   2.679   1.321
 1026SOL    HW2 3978   2.570   2.795   1.392
 1027SOL     OW 3979   2.897   6.792   1.059
 1027SOL    HW1 3980   2.823   6.845   1.016
 1027SOL    HW2 3981   2.923   6.716   0.999
 1028SOL     OW 3982   2.566   6.278   0.288
 1028SOL    HW1 3983   2.467   6.284   0.273
 1028SOL    HW2 3984   2.613   6.328   0.215
 1029SOL     OW 3985   1.929   0.466   0.427
 1029SOL    HW1 3986   1.889   0.389   0.378
 1029SOL    HW2 3987   2.029   0.464   0.417
 1030SOL     OW 3988   3.302   3.547   1.931
 1030SOL    HW1 3989   3.234   3.553   1.858
 1030SOL    HW2 3990   3.257   3.557   2.020
 1031SOL     OW 3991   4.871   5.289   0.878
 1031SOL    HW1 3992   4.964   5.255   0.867
 1031SOL    HW2 3993   4.870   5.388   0.866
 1032SOL     OW 3994   1.999   1.812   4.874
 1032SOL    HW1 3995   2.074   1.768   4.825
 1032SOL    HW2 3996   1.988   1.769   4.963
 1033SOL     OW 3997   1.679   6.186   0.922
 1033SOL    HW1 3998   1.706   6.229   1.008
 1033SOL    HW2 3999   1.749   6.121   0.893
 1034SOL     OW 4000   0.379   5.798   5.185
 1034SOL    HW1 4001   0.370   5.792   5.284
 1034SOL    HW2 4002   0.321   5.872   5.151
 1035SOL     OW 4003   1.327   1.215   4.851
 1035SOL    HW1 4004   1.248   1.272   4.829
 1035SOL    HW2 4005   1.369   1.182   4.766
 1036SOL     OW 4006   3.081   1.062   1.975
 1036SOL    HW1 4007   3.069   1.113   2.060
 1036SOL    HW2 4008   3.017   1.097   1.906
 1037SOL     OW 4009   1.574   0.368   1.882
 1037SOL    HW1 4010   1.476   0.365   1.904
 1037SOL    HW2 4011   1.619   0.286   1.918
 1038SOL     OW 4012   1.590   0.067   5.694
 1038SOL    HW1 4013   1.595   7.000   5.734
 1038SOL    HW2 4014   1.659   0.076   5.623
 1039SOL     OW 4015   3.587   3.178   5.747
 1039SOL    HW1 4016   3.625   3.241   5.814
 1039SOL    HW2 4017   3.553   3.096   5.794
 1040SOL     OW 4018   4.806   2.828   2.653
 1040SOL    HW1 4019   4.788   2.917   2.611
 1040SOL    HW2 4020   4.754   2.757   2.605
 1041SOL     OW 4021   6.698   0.019   4.402
 1041SOL    HW1 4022   6.608   0.033   4.361
 1041SOL    HW2 4023   6.726   0.102   4.450
 1042SOL     OW 4024   4.227   5.008   2.335
 1042SOL    HW1 4025   4.156   4.943   2.306
 1042SOL    HW2 4026   4.184   5.082   2.386
 1043SOL     OW 4027   3.670   1.690   4.654
 1043SOL    HW1 4028   3.687   1.596   4.682
 1043SOL    HW2 4029   3.577   1.716   4.680
 1044SOL     OW 4030   4.955   4.240   2.206
 1044SOL    HW1 4031   4.934   4.313   2.142
 1044SOL    HW2 4032   4.931   4.152   2.166
 1045SOL     OW 4033   4.145   6.288   2.299
 1045SOL    HW1 4034   4.150   6.293   2.398
 1045SOL    HW2 4035   4.206   6.356   2.259
 1046SOL     OW 4036   1.069   0.298   0.292
 1046SOL    HW1 4037   1.090   0.299   0.389
 1046SOL    HW2 4038   0.970   0.294   0.279
 1047SOL     OW 4039   1.853   0.761   3.095
 1047SOL    HW1 4040   1.852   0.666   3.062
 1047SOL    HW2 4041   1.832   0.823   3.019
 1048SOL     OW 4042   5.731   6.326   4.880
 1048SOL    HW1 4043   5.711   6.229   4.891
 1048SOL    HW2 4044   5.647   6.379   4.897
 1049SOL     OW 4045   6.097   5.573   4.095
 1049SOL    HW1 4046   6.105   5.519   4.179
 1049SOL    HW2 4047   6.050   5.659   4.115
 1050SOL     OW 4048   4.182   5.289   1.126
 1050SOL    HW1 4049   4.171   5.257   1.220
 1050SOL    HW2 4050   4.274   5.328   1.115
 1051SOL     OW 4051   2.431   6.156   1.186
 1051SOL    HW1 4052   2.417   6.069   1.137
 1051SOL    HW2 4053   2.492   6.214   1.132
 1052SOL     OW 4054   3.868   0.516   4.801
 1052SOL    HW1 4055   3.893   0.611   4.788
 1052SOL    HW2 4056   3.941   0.457   4.766
 1053SOL     OW 4057   6.002   4.800   2.986
 1053SOL    HW1 4058   5.994   4.887   3.037
 1053SOL    HW2 4059   5.910   4.770   2.959
 1054SOL     OW 4060   2.364   4.082   5.642
 1054SOL    HW1 4061   2.297   4.070   5.568
 1054SOL    HW2 4062   2.332   4.153   5.705
 1055SOL     OW 4063   5.236   6.649   3.942
 1055SOL    HW1 4064   5.326   6.667   3.900
 1055SOL    HW2 4065   5.169   6.632   3.870
 1056SOL     OW 4066   1.571   5.122   5.636
 1056SOL    HW1 4067   1.573   5.042   5.696
 1056SOL    HW2 4068   1.573   5.093   5.540
 1057SOL     OW 4069   3.106   3.345   2.498
 1057SOL    HW1 4070   3.104   3.253   2.458
 1057SOL    HW2 4071   3.020   3.392   2.480
 1058SOL     OW 4072   4.691   1.530   3.225
 1058SOL    HW1 4073   4.719   1.626   3.224
 1058SOL    HW2 4074   4.755   1.476   3.170
 1059SOL     OW 4075   2.305   0.047   1.528
 1059SOL    HW1 4076   2.345   0.015   1.614
 1059SOL    HW2 4077   2.271   0.140   1.539
 1060SOL     OW 4078   0.073   4.412   4.427
 1060SOL    HW1 4079   0.062   4.492   4.367
 1060SOL    HW2 4080   7.019   4.352   4.416
 1061SOL     OW 4081   5.622   3.929   1.402
 1061SOL    HW1 4082   5.574   3.981   1.331
 1061SOL    HW2 4083   5.563   3.918   1.481
 1062SOL     OW 4084   5.728   3.836   6.190
 1062SOL    HW1 4085   5.666   3.763   6.161
 1062SOL    HW2 4086   5.746   3.897   6.113
 1063SOL     OW 4087   1.866   4.936   1.590
 1063SOL    HW1 4088   1.805   4.968   1.663
 1063SOL    HW2 4089   1.934   5.007   1.569
 1064SOL     OW 4090   2.095   3.958   2.032
 1064SOL    HW1 4091   2.176   4.008   2.003
 1064SOL    HW2 4092   2.032   3.951   1.954
 1065SOL     OW 4093   4.229   0.073   4.114
 1065SOL    HW1 4094   4.264   7.022   4.168
 1065SOL    HW2 4095   4.240   0.158   4.164
 1066SOL     OW 4096   4.792   0.694   4.084
 1066SOL    HW1 4097   4.775   0.727   3.991
 1066SOL    HW2 4098   4.705   0.683   4.132
 1067SOL     OW 4099   0.670   3.202   0.454
 1067SOL    HW1 4100   0.645   3.107   0.435
 1067SOL    HW2 4101   0.751   3.227   0.401
 1068SOL     OW 4102   5.231   4.734   2.692
 1068SOL    HW1 4103   5.304   4.749   2.760
 1068SOL    HW2 4104   5.146   4.713   2.740
 1069SOL     OW 4105   4.627   4.688   0.782
 1069SOL    HW1 4106   4.709   4.659   0.833
 1069SOL    HW2 4107   4.640   4.781   0.747
 1070SOL     OW 4108   0.303   0.102   2.237
 1070SOL    HW1 4109   0.235   0.153   2.290
 1070SOL    HW2 4110   0.375   0.164   2.206
 1071SOL     OW 4111   1.826   0.237   3.102
 1071SOL    HW1 4112   1.811   0.162   3.166
 1071SOL    HW2 4113   1.853   0.200   3.013
 1072SOL     OW 4114   1.735   0.344   1.136
 1072SOL    HW1 4115   1.737   0.245   1.146
 1072SOL    HW2 4116   1.823   0.383   1.165
 1073SOL     OW 4117   4.583   6.774   1.801
 1073SOL    HW1 4118   4.574   6.741   1.707
 1073SOL    HW2 4119   4.498   6.819   1.828
 1074SOL     OW 4120   2.747   5.242   1.045
 1074SOL    HW1 4121   2.686   5.213   1.119
 1074SOL    HW2 4122   2.694   5.256   0.961
 1075SOL     OW 4123   4.285   6.709   4.072
 1075SOL    HW1 4124   4.207   6.649   4.059
 1075SOL    HW2 4125   4.313   6.747   3.984
 1076SOL     OW 4126   6.512   4.009   5.540
 1076SOL    HW1 4127   6.605   3.999   5.576
 1076SOL    HW2 4128   6.513   4.072   5.462
 1077SOL     OW 4129   5.466   0.405   0.961
 1077SOL    HW1 4130   5.504   0.340   0.895
 1077SOL    HW2 4131   5.424   0.355   1.036
 1078SOL     OW 4132   0.703   1.497   2.171
 1078SOL    HW1 4133   0.683   1.538   2.082
 1078SOL    HW2 4134   0.681   1.399   2.168
 1079SOL     OW 4135   2.177   6.270   2.265
 1079SOL    HW1 4136   2.079   6.267   2.250
 1079SOL    HW2 4137   2.217   6.343   2.209
 1080SOL     OW 4138   1.458   4.430   3.523
 1080SOL    HW1 4139   1.386   4.470   3.580
 1080SOL    HW2 4140   1.543   4.425   3.575
 1081SOL     OW 4141   0.214   6.234   6.261
 1081SOL    HW1 4142   0.201   6.304   6.190
 1081SOL    HW2 4143   0.208   6.277   6.351
 1082SOL     OW 4144   3.824   1.776   5.798
 1082SOL    HW1 4145   3.811   1.684   5.835
 1082SOL    HW2 4146   3.849   1.838   5.872
 1083SOL     OW 4147   4.093   3.978   0.866
 1083SOL    HW1 4148   4.187   3.972   0.900
 1083SOL    HW2 4149   4.067   3.892   0.822
 1084SOL     OW 4150   6.253   5.685   0.302
 1084SOL    HW1 4151   6.326   5.753   0.297
 1084SOL    HW2 4152   6.242   5.642   0.213
 1085SOL     OW 4153   1.338   3.569   3.994
 1085SOL    HW1 4154   1.403   3.493   4.002
 1085SOL    HW2 4155   1.334   3.600   3.900
 1086SOL     OW 4156   6.539   6.394   1.604
 1086SOL    HW1 4157   6.621   6.341   1.581
 1086SOL    HW2 4158   6.567   6.478   1.651
 1087SOL     OW 4159   6.065   2.593   5.636
 1087SOL    HW1 4160   6.040   2.685   5.667
 1087SOL    HW2 4161   5.983   2.542   5.612
 1088SOL     OW 4162   6.283   4.796   3.247
 1088SOL    HW1 4163   6.257   4.768   3.155
 1088SOL    HW2 4164   6.382   4.782   3.259
 1089SOL     OW 4165   1.295   6.431   4.705
 1089SOL    HW1 4166   1.275   6.335   4.722
 1089SOL    HW2 4167   1.391   6.450   4.725
 1090SOL     OW 4168   2.482   1.607   3.662
 1090SOL    HW1 4169   2.494   1.577   3.756
 1090SOL    HW2 4170   2.402   1.563   3.622
 1091SOL     OW 4171   2.467   2.836   5.616
 1091SOL    HW1 4172   2.535   2.789   5.672
 1091SOL    HW2 4173   2.486   2.818   5.519
 1092SOL     OW 4174   1.725   4.024   0.528
 1092SOL    HW1 4175   1.792   4.022   0.603
 1092SOL    HW2 4176   1.774   4.020   0.441
 1093SOL     OW 4177   1.269   1.764   2.083
 1093SOL    HW1 4178   1.332   1.771   2.160
 1093SOL    HW2 4179   1.189   1.709   2.110
 1094SOL     OW 4180   0.765   6.131   4.041
 1094SOL    HW1 4181   0.673   6.131   4.079
 1094SOL    HW2 4182   0.772   6.199   3.968
 1095SOL     OW 4183   0.674   2.669   6.154
 1095SOL    HW1 4184   0.709   2.741   6.094
 1095SOL    HW2 4185   0.751   2.623   6.199
 1096SOL     OW 4186   3.417   4.416   1.713
 1096SOL    HW1 4187   3.442   4.327   1.750
 1096SOL    HW2 4188   3.481   4.485   1.746
 1097SOL     OW 4189   1.991   4.198   3.992
 1097SOL    HW1 4190   2.007   4.191   4.090
 1097SOL    HW2 4191   2.078   4.208   3.944
 1098SOL     OW 4192   4.627   3.464   0.984
 1098SOL    HW1 4193   4.543   3.456   0.930
 1098SOL    HW2 4194   4.625   3.549   1.036
 1099SOL     OW 4195   4.141   1.832   5.310
 1099SOL    HW1 4196   4.220   1.824   5.250
 1099SOL    HW2 4197   4.171   1.858   5.402
 1100SOL     OW 4198   3.416   2.111   5.896
 1100SOL    HW1 4199   3.442   2.158   5.812
 1100SOL    HW2 4200   3.425   2.012   5.883
 1101SOL     OW 4201   5.997   2.108   0.427
 1101SOL    HW1 4202   5.929   2.178   0.449
 1101SOL    HW2 4203   5.961   2.018   0.452
 1102SOL     OW 4204   0.843   5.670   4.392
 1102SOL    HW1 4205   0.776   5.667   4.466
 1102SOL    HW2 4206   0.812   5.733   4.321
 1103SOL     OW 4207   3.612   1.872   1.133
 1103SOL    HW1 4208   3.563   1.920   1.205
 1103SOL    HW2 4209   3.552   1.804   1.091
 1104SOL     OW 4210   2.260   3.337   5.227
 1104SOL    HW1 4211   2.327   3.412   5.232
 1104SOL    HW2 4212   2.279   3.271   5.300
 1105SOL     OW 4213   6.207   3.740   5.054
 1105SOL    HW1 4214   6.288   3.700   5.098
 1105SOL    HW2 4215   6.144   3.771   5.125
 1106SOL     OW 4216   0.911   1.949   1.171
 1106SOL    HW1 4217   0.878   1.891   1.097
 1106SOL    HW2 4218   1.001   1.917   1.202
 1107SOL     OW 4219   2.213   0.217   6.530
 1107SOL    HW1 4220   2.139   0.225   6.463
 1107SOL    HW2 4221   2.212   0.297   6.590
 1108SOL     OW 4222   3.301   1.021   5.659
 1108SOL    HW1 4223   3.337   1.035   5.566
 1108SOL    HW2 4224   3.233   1.091   5.679
 1109SOL     OW 4225   4.842   6.914   4.573
 1109SOL    HW1 4226   4.763   6.955   4.526
 1109SOL    HW2 4227   4.809   6.849   4.641
 1110SOL     OW 4228   2.331   2.280   3.168
 1110SOL    HW1 4229   2.387   2.206   3.204
 1110SOL    HW2 4230   2.253   2.295   3.229
 1111SOL     OW 4231   5.115   4.738   6.495
 1111SOL    HW1 4232   5.147   4.745   6.401
 1111SOL    HW2 4233   5.164   4.664   6.541
 1112SOL     OW 4234   5.071   1.298   2.062
 1112SOL    HW1 4235   5.062   1.267   1.967
 1112SOL    HW2 4236   5.163   1.274   2.096
 1113SOL     OW 4237   0.252   3.235   2.890
 1113SOL    HW1 4238   0.207   3.286   2.817
 1113SOL    HW2 4239   0.243   3.286   2.976
 1114SOL     OW 4240   4.341   1.888   6.495
 1114SOL    HW1 4241   4.409   1.820   6.466
 1114SOL    HW2 4242   4.263   1.841   6.537
 1115SOL     OW 4243   4.434   3.222   0.297
 1115SOL    HW1 4244   4.344   3.220   0.340
 1115SOL    HW2 4245   4.503   3.197   0.363
 1116SOL     OW 4246   5.374   6.050   5.323
 1116SOL    HW1 4247   5.434   6.090   5.254
 1116SOL    HW2 4248   5.288   6.023   5.281
 1117SOL     OW 4249   1.477   2.283   1.332
 1117SOL    HW1 4250   1.520   2.220   1.267
 1117SOL    HW2 4251   1.412   2.342   1.283
 1118SOL     OW 4252   2.700   4.276   1.411
 1118SOL    HW1 4253   2.615   4.318   1.383
 1118SOL    HW2 4254   2.728   4.311   1.500
 1119SOL     OW 4255   4.273   3.840   0.178
 1119SOL    HW1 4256   4.349   3.804   0.123
 1119SOL    HW2 4257   4.222   3.907   0.125
 1120SOL     OW 4258   6.112   0.146   4.951
 1120SOL    HW1 4259   6.012   0.144   4.946
 1120SOL    HW2 4260   6.141   0.137   5.046
 1121SOL     OW 4261   5.142   4.971   2.615
 1121SOL    HW1 4262   5.171   4.991   2.521
 1121SOL    HW2 4263   5.176   4.881   2.641
 1122SOL     OW 4264   5.102   3.342   6.824
 1122SOL    HW1 4265   5.138   3.407   6.758
 1122SOL    HW2 4266   5.048   3.272   6.776
 1123SOL     OW 4267   5.169   1.308   3.637
 1123SOL    HW1 4268   5.227   1.262   3.570
 1123SOL    HW2 4269   5.187   1.271   3.728
 1124SOL     OW 4270   6.256   4.230   5.027
 1124SOL    HW1 4271   6.183   4.161   5.018
 1124SOL    HW2 4272   6.271   4.273   4.938
 1125SOL     OW 4273   3.001   1.470   4.984
 1125SOL    HW1 4274   2.955   1.395   4.936
 1125SOL    HW2 4275   2.940   1.509   5.052
 1126SOL     OW 4276   5.323   5.078   6.572
 1126SOL    HW1 4277   5.308   5.030   6.658
 1126SOL    HW2 4278   5.419   5.070   6.545
 1127SOL     OW 4279   4.651   5.074   4.508
 1127SOL    HW1 4280   4.565   5.086   4.557
 1127SOL    HW2 4281   4.678   4.978   4.511
 1128SOL     OW 4282   5.409   1.970   5.514
 1128SOL    HW1 4283   5.434   1.877   5.541
 1128SOL    HW2 4284   5.310   1.978   5.505
 1129SOL     OW 4285   3.432   0.645   6.719
 1129SOL    HW1 4286   3.530   0.629   6.709
 1129SOL    HW2 4287   3.382   0.585   6.655
 1130SOL     OW 4288   1.787   4.685   0.458
 1130SOL    HW1 4289   1.827   4.603   0.419
 1130SOL    HW2 4290   1.842   4.765   0.433
 1131SOL     OW 4291   6.850   6.170   6.166
 1131SOL    HW1 4292   6.899   6.093   6.207
 1131SOL    HW2 4293   6.765   6.137   6.126
 1132SOL     OW 4294   4.822   0.064   1.300
 1132SOL    HW1 4295   4.817   0.055   1.201
 1132SOL    HW2 4296   4.872   7.012   1.339
 1133SOL     OW 4297   0.969   0.349   1.268
 1133SOL    HW1 4298   0.924   0.271   1.226
 1133SOL    HW2 4299   0.933   0.362   1.361
 1134SOL     OW 4300   4.764   1.425   1.566
 1134SOL    HW1 4301   4.750   1.507   1.510
 1134SOL    HW2 4302   4.849   1.434   1.618
 1135SOL     OW 4303   1.939   1.283   2.432
 1135SOL    HW1 4304   1.964   1.379   2.435
 1135SOL    HW2 4305   1.854   1.272   2.381
 1136SOL     OW 4306   2.927   4.834   4.610
 1136SOL    HW1 4307   2.970   4.923   4.618
 1136SOL    HW2 4308   2.970   4.770   4.674
 1137SOL     OW 4309   1.560   1.597   6.174
 1137SOL    HW1 4310   1.493   1.647   6.119
 1137SOL    HW2 4311   1.523   1.507   6.197
 1138SOL     OW 4312   0.562   1.400   6.744
 1138SOL    HW1 4313   0.631   1.453   6.695
 1138SOL    HW2 4314   0.585   1.303   6.740
 1139SOL     OW 4315   3.213   5.372   1.476
 1139SOL    HW1 4316   3.283   5.410   1.416
 1139SOL    HW2 4317   3.246   5.373   1.571
 1140SOL     OW 4318   3.893   1.032   1.905
 1140SOL    HW1 4319   3.824   0.966   1.878
 1140SOL    HW2 4320   3.887   1.113   1.847
 1141SOL     OW 4321   0.195   6.981   6.360
 1141SOL    HW1 4322   0.126   0.027   6.363
 1141SOL    HW2 4323   0.175   6.917   6.286
 1142SOL     OW 4324   2.969   0.498   4.242
 1142SOL    HW1 4325   2.888   0.441   4.226
 1142SOL    HW2 4326   3.014   0.518   4.155
 1143SOL     OW 4327   1.671   3.440   2.163
 1143SOL    HW1 4328   1.624   3.396   2.239
 1143SOL    HW2 4329   1.692   3.372   2.093
 1144SOL     OW 4330   6.398   5.019   5.396
 1144SOL    HW1 4331   6.489   4.977   5.395
 1144SOL    HW2 4332   6.338   4.967   5.458
 1145SOL     OW 4333   0.336   3.967   2.087
 1145SOL    HW1 4334   0.332   3.919   1.999
 1145SOL    HW2 4335   0.243   3.987   2.118
 1146SOL     OW 4336   6.158   0.758   1.916
 1146SOL    HW1 4337   6.162   0.669   1.960
 1146SOL    HW2 4338   6.246   0.805   1.926
 1147SOL     OW 4339   1.662   5.318   0.828
 1147SOL    HW1 4340   1.655   5.330   0.927
 1147SOL    HW2 4341   1.648   5.222   0.805
 1148SOL     OW 4342   4.953   7.008   0.054
 1148SOL    HW1 4343   4.886   6.941   0.085
 1148SOL    HW2 4344   4.936   0.005   6.983
 1149SOL     OW 4345   6.212   4.134   2.564
 1149SOL    HW1 4346   6.154   4.091   2.495
 1149SOL    HW2 4347   6.281   4.190   2.519
 1150SOL     OW 4348   2.804   4.057   0.703
 1150SOL    HW1 4349   2.794   3.961   0.728
 1150SOL    HW2 4350   2.762   4.073   0.614
 1151SOL     OW 4351   4.266   5.219   6.683
 1151SOL    HW1 4352   4.343   5.272   6.647
 1151SOL    HW2 4353   4.299   5.128   6.709
 1152SOL     OW 4354   6.480   5.448   6.093
 1152SOL    HW1 4355   6.406   5.421   6.154
 1152SOL    HW2 4356   6.562   5.393   6.111
 1153SOL     OW 4357   2.392   0.078   2.512
 1153SOL    HW1 4358   2.382   7.005   2.525
 1153SOL    HW2 4359   2.427   0.097   2.421
 1154SOL     OW 4360   0.962   4.068   1.613
 1154SOL    HW1 4361   0.907   4.018   1.680
 1154SOL    HW2 4362   0.946   4.032   1.522
 1155SOL     OW 4363   2.198   5.497   6.720
 1155SOL    HW1 4364   2.140   5.429   6.674
 1155SOL    HW2 4365   2.146   5.539   6.794
 1156SOL     OW 4366   2.711   1.236   4.976
 1156SOL    HW1 4367   2.654   1.154   4.971
 1156SOL    HW2 4368   2.775   1.237   4.899
 1157SOL     OW 4369   6.084   0.524   5.106
 1157SOL    HW1 4370   6.154   0.592   5.124
 1157SOL    HW2 4371   6.084   0.455   5.178
 1158SOL     OW 4372   0.173   6.123   5.447
 1158SOL    HW1 4373   0.262   6.128   5.491
 1158SOL    HW2 4374   0.179   6.161   5.355
 1159SOL     OW 4375   6.138   6.678   4.278
 1159SOL    HW1 4376   6.163   6.767   4.317
 1159SOL    HW2 4377   6.058   6.689   4.219
 1160SOL     OW 4378   3.468   3.315   0.825
 1160SOL    HW1 4379   3.416   3.317   0.740
 1160SOL    HW2 4380   3.553   3.263   0.811
 1161SOL     OW 4381   5.724   0.523   6.683
 1161SOL    HW1 4382   5.702   0.446   6.743
 1161SOL    HW2 4383   5.776   0.591   6.735
 1162SOL     OW 4384   2.849   2.143   6.597
 1162SOL    HW1 4385   2.868   2.052   6.560
 1162SOL    HW2 4386   2.869   2.144   6.695
 1163SOL     OW 4387   6.736   3.416   1.436
 1163SOL    HW1 4388   6.668   3.362   1.485
 1163SOL    HW2 4389   6.787   3.356   1.373
 1164SOL     OW 4390   5.503   2.668   4.783
 1164SOL    HW1 4391   5.562   2.601   4.830
 1164SOL    HW2 4392   5.548   2.757   4.782
 1165SOL     OW 4393   2.591   4.583   3.878
 1165SOL    HW1 4394   2.512   4.526   3.901
 1165SOL    HW2 4395   2.631   4.620   3.962
 1166SOL     OW 4396   3.825   6.722   0.184
 1166SOL    HW1 4397   3.786   6.756   0.270
 1166SOL    HW2 4398   3.922   6.746   0.180
 1167SOL     OW 4399   4.168   6.589   6.349
 1167SOL    HW1 4400   4.235   6.662   6.355
 1167SOL    HW2 4401   4.183   6.536   6.265
 1168SOL     OW 4402   5.276   1.727   4.026
 1168SOL    HW1 4403   5.375   1.733   4.033
 1168SOL    HW2 4404   5.250   1.644   3.977
 1169SOL     OW 4405   5.550   2.488   6.237
 1169SOL    HW1 4406   5.517   2.555   6.170
 1169SOL    HW2 4407   5.650   2.485   6.234
 1170SOL     OW 4408   5.099   1.147   3.023
 1170SOL    HW1 4409   5.175   1.205   3.049
 1170SOL    HW2 4410   5.105   1.125   2.926
 1171SOL     OW 4411   3.184   6.710   0.299
 1171SOL    HW1 4412   3.243   6.787   0.274
 1171SOL    HW2 4413   3.224   6.663   0.378
 1172SOL     OW 4414   3.226   4.130   2.156
 1172SOL    HW1 4415   3.161   4.096   2.089
 1172SOL    HW2 4416   3.207   4.226   2.176
 1173SOL     OW 4417   3.498   0.181   6.045
 1173SOL    HW1 4418   3.451   0.246   5.985
 1173SOL    HW2 4419   3.457   0.186   6.137
 1174SOL     OW 4420   3.088   4.389   6.843
 1174SOL    HW1 4421   3.048   4.431   6.761
 1174SOL    HW2 4422   3.015   4.346   6.897
 1175SOL     OW 4423   3.787   3.185   6.680
 1175SOL    HW1 4424   3.885   3.163   6.677
 1175SOL    HW2 4425   3.773   3.279   6.649
 1176SOL     OW 4426   5.980   4.324   0.365
 1176SOL    HW1 4427   5.880   4.330   0.365
 1176SOL    HW2 4428   6.019   4.413   0.340
 1177SOL     OW 4429   6.942   1.693   6.155
 1177SOL    HW1 4430   6.894   1.726   6.236
 1177SOL    HW2 4431   6.926   1.595   6.144
 1178SOL     OW 4432   3.557   3.590   1.230
 1178SOL    HW1 4433   3.526   3.507   1.276
 1178SOL    HW2 4434   3.574   3.571   1.134
 1179SOL     OW 4435   3.225   6.258   0.650
 1179SOL    HW1 4436   3.152   6.305   0.601
 1179SOL    HW2 4437   3.255   6.179   0.597
 1180SOL     OW 4438   2.262   6.036   4.046
 1180SOL    HW1 4439   2.219   6.109   3.992
 1180SOL    HW2 4440   2.191   5.980   4.088
 1181SOL     OW 4441   0.135   2.458   4.867
 1181SOL    HW1 4442   0.155   2.543   4.915
 1181SOL    HW2 4443   0.155   2.380   4.926
 1182SOL     OW 4444   3.046   5.382   3.788
 1182SOL    HW1 4445   3.035   5.322   3.867
 1182SOL    HW2 4446   2.996   5.467   3.803
 1183SOL     OW 4447   3.600   5.995   1.886
 1183SOL    HW1 4448   3.548   5.994   1.971
 1183SOL    HW2 4449   3.646   5.906   1.874
 1184SOL     OW 4450   4.853   6.977   6.382
 1184SOL    HW1 4451   4.886   0.033   6.432
 1184SOL    HW2 4452   4.753   6.974   6.386
 1185SOL     OW 4453   1.221   0.751   0.773
 1185SOL    HW1 4454   1.205   0.829   0.833
 1185SOL    HW2 4455   1.216   0.666   0.826
 1186SOL     OW 4456   6.109   6.155   6.256
 1186SOL    HW1 4457   6.076   6.210   6.179
 1186SOL    HW2 4458   6.061   6.182   6.339
 1187SOL     OW 4459   5.881   6.927   5.414
 1187SOL    HW1 4460   5.819   6.972   5.349
 1187SOL    HW2 4461   5.832   6.910   5.500
 1188SOL     OW 4462   3.749   5.846   6.207
 1188SOL    HW1 4463   3.824   5.798   6.163
 1188SOL    HW2 4464   3.734   5.934   6.161
 1189SOL     OW 4465   6.525   0.638   2.110
 1189SOL    HW1 4466   6.560   0.707   2.174
 1189SOL    HW2 4467   6.561   0.656   2.019
 1190SOL     OW 4468   3.246   5.237   3.644
 1190SOL    HW1 4469   3.168   5.280   3.690
 1190SOL    HW2 4470   3.327   5.294   3.657
 1191SOL     OW 4471   2.885   6.321   4.356
 1191SOL    HW1 4472   2.971   6.270   4.350
 1191SOL    HW2 4473   2.905   6.418   4.370
 1192SOL     OW 4474   5.463   6.139   3.301
 1192SOL    HW1 4475   5.472   6.200   3.223
 1192SOL    HW2 4476   5.378   6.088   3.294
 1193SOL     OW 4477   0.626   0.708   5.508
 1193SOL    HW1 4478   0.621   0.780   5.438
 1193SOL    HW2 4479   0.721   0.679   5.519
 1194SOL     OW 4480   0.163   1.792   1.154
 1194SOL    HW1 4481   0.069   1.827   1.158
 1194SOL    HW2 4482   0.208   1.808   1.242
 1195SOL     OW 4483   6.716   3.596   1.048
 1195SOL    HW1 4484   6.695   3.640   1.135
 1195SOL    HW2 4485   6.633   3.556   1.009
 1196SOL     OW 4486   5.898   4.598   2.610
 1196SOL    HW1 4487   5.972   4.660   2.636
 1196SOL    HW2 4488   5.870   4.544   2.690
 1197SOL     OW 4489   4.726   6.656   4.048
 1197SOL    HW1 4490   4.698   6.622   4.138
 1197SOL    HW2 4491   4.817   6.697   4.055
 1198SOL     OW 4492   1.259   3.959   2.344
 1198SOL    HW1 4493   1.351   3.996   2.358
 1198SOL    HW2 4494   1.251   3.923   2.251
 1199SOL     OW 4495   3.881   3.380   2.783
 1199SOL    HW1 4496   3.873   3.460   2.843
 1199SOL    HW2 4497   3.928   3.407   2.698
 1200SOL     OW 4498   3.961   3.943   4.199
 1200SOL    HW1 4499   3.968   3.845   4.219
 1200SOL    HW2 4500   4.047   3.975   4.159
 1201SOL     OW 4501   0.299   1.232   4.211
 1201SOL    HW1 4502   0.206   1.194   4.216
 1201SOL    HW2 4503   0.303   1.318   4.262
 1202SOL     OW 4504   6.255   0.773   6.074
 1202SOL    HW1 4505   6.344   0.729   6.062
 1202SOL    HW2 4506   6.240   0.792   6.171
 1203SOL     OW 4507   0.179   6.941   1.060
 1203SOL    HW1 4508   0.249   6.888   1.106
 1203SOL    HW2 4509   0.095   6.887   1.053
 1204SOL     OW 4510   4.499   1.686   2.091
 1204SOL    HW1 4511   4.569   1.618   2.069
 1204SOL    HW2 4512   4.447   1.655   2.171
 1205SOL     OW 4513   3.662   3.359   0.250
 1205SOL    HW1 4514   3.606   3.410   0.315
 1205SOL    HW2 4515   3.665   3.408   0.163
 1206SOL     OW 4516   1.424   2.650   4.689
 1206SOL    HW1 4517   1.425   2.661   4.590
 1206SOL    HW2 4518   1.516   2.630   4.721
 1207SOL     OW 4519   0.290   0.841   0.315
 1207SOL    HW1 4520   0.389   0.834   0.301
 1207SOL    HW2 4521   0.270   0.918   0.375
 1208SOL     OW 4522   3.298   3.582   1.528
 1208SOL    HW1 4523   3.377   3.620   1.577
 1208SOL    HW2 4524   3.329   3.539   1.443
 1209SOL     OW 4525   5.657   0.556   4.283
 1209SOL    HW1 4526   5.591   0.586   4.215
 1209SOL    HW2 4527   5.687   0.634   4.337
 1210SOL     OW 4528   4.909   6.934   3.412
 1210SOL    HW1 4529   4.822   6.920   3.459
 1210SOL    HW2 4530   4.984   6.922   3.477
 1211SOL     OW 4531   0.978   3.738   3.022
 1211SOL    HW1 4532   1.034   3.813   2.986
 1211SOL    HW2 4533   1.038   3.665   3.055
 1212SOL     OW 4534   6.460   0.936   6.291
 1212SOL    HW1 4535   6.493   0.994   6.216
 1212SOL    HW2 4536   6.538   0.911   6.349
 1213SOL     OW 4537   5.669   2.121   2.739
 1213SOL    HW1 4538   5.673   2.209   2.693
 1213SOL    HW2 4539   5.659   2.048   2.672
 1214SOL     OW 4540   0.501   2.272   6.321
 1214SOL    HW1 4541   0.421   2.215   6.340
 1214SOL    HW2 4542   0.560   2.274   6.402
 1215SOL     OW 4543   2.174   4.971   2.858
 1215SOL    HW1 4544   2.165   5.061   2.815
 1215SOL    HW2 4545   2.269   4.957   2.886
 1216SOL     OW 4546   6.731   1.588   0.715
 1216SOL    HW1 4547   6.660   1.521   0.737
 1216SOL    HW2 4548   6.819   1.557   0.752
 1217SOL     OW 4549   2.711   4.806   0.641
 1217SOL    HW1 4550   2.719   4.742   0.718
 1217SOL    HW2 4551   2.799   4.813   0.594
 1218SOL     OW 4552   1.572   3.734   5.720
 1218SOL    HW1 4553   1.600   3.746   5.815
 1218SOL    HW2 4554   1.538   3.641   5.706
 1219SOL     OW 4555   5.224   5.547   1.437
 1219SOL    HW1 4556   5.130   5.519   1.455
 1219SOL    HW2 4557   5.259   5.497   1.358
 1220SOL     OW 4558   0.042   3.857   2.484
 1220SOL    HW1 4559   0.091   3.920   2.544
 1220SOL    HW2 4560   0.107   3.812   2.422
 1221SOL     OW 4561   5.568   3.349   6.045
 1221SOL    HW1 4562   5.569   3.422   6.114
 1221SOL    HW2 4563   5.500   3.371   5.975
 1222SOL     OW 4564   0.631   0.885   0.164
 1222SOL    HW1 4565   0.600   0.858   0.073
 1222SOL    HW2 4566   0.731   0.892   0.165
 1223SOL     OW 4567   3.507   1.479   0.559
 1223SOL    HW1 4568   3.455   1.564   0.570
 1223SOL    HW2 4569   3.552   1.455   0.645
 1224SOL     OW 4570   3.226   5.758   6.798
 1224SOL    HW1 4571   3.211   5.809   6.883
 1224SOL    HW2 4572   3.242   5.661   6.820
 1225SOL     OW 4573   4.076   2.807   0.029
 1225SOL    HW1 4574   4.084   2.765   6.965
 1225SOL    HW2 4575   4.049   2.738   0.097
 1226SOL     OW 4576   4.403   6.180   0.581
 1226SOL    HW1 4577   4.398   6.081   0.567
 1226SOL    HW2 4578   4.338   6.226   0.521
 1227SOL     OW 4579   5.122   5.081   6.080
 1227SOL    HW1 4580   5.160   5.051   5.993
 1227SOL    HW2 4581   5.173   5.038   6.155
 1228SOL     OW 4582   3.479   2.387   6.722
 1228SOL    HW1 4583   3.522   2.433   6.800
 1228SOL    HW2 4584   3.469   2.453   6.647
 1229SOL     OW 4585   1.501   5.278   0.029
 1229SOL    HW1 4586   1.589   5.298   7.010
 1229SOL    HW2 4587   1.495   5.180   0.047
 1230SOL     OW 4588   5.968   5.707   2.314
 1230SOL    HW1 4589   5.945   5.775   2.384
 1230SOL    HW2 4590   6.036   5.644   2.352
 1231SOL     OW 4591   1.902   1.995   5.524
 1231SOL    HW1 4592   1.827   1.932   5.540
 1231SOL    HW2 4593   1.876   2.087   5.555
 1232SOL     OW 4594   6.404   1.374   4.902
 1232SOL    HW1 4595   6.427   1.467   4.929
 1232SOL    HW2 4596   6.305   1.362   4.904
 1233SOL     OW 4597   0.417   5.945   4.654
 1233SOL    HW1 4598   0.404   5.904   4.745
 1233SOL    HW2 4599   0.500   6.000   4.654
 1234SOL     OW 4600   6.152   2.053   5.675
 1234SOL    HW1 4601   6.242   2.092   5.693
 1234SOL    HW2 4602   6.155   1.954   5.685
 1235SOL     OW 4603   6.327   4.841   1.606
 1235SOL    HW1 4604   6.250   4.815   1.665
 1235SOL    HW2 4605   6.334   4.777   1.530
 1236SOL     OW 4606   4.000   1.473   1.818
 1236SOL    HW1 4607   4.035   1.567   1.818
 1236SOL    HW2 4608   3.904   1.473   1.844
 1237SOL     OW 4609   1.085   4.786   5.242
 1237SOL    HW1 4610   1.139   4.861   5.203
 1237SOL    HW2 4611   1.110   4.774   5.339
 1238SOL     OW 4612   1.376   0.591   5.773
 1238SOL    HW1 4613   1.382   0.492   5.788
 1238SOL    HW2 4614   1.280   0.618   5.768
 1239SOL     OW 4615   0.136   0.130   6.070
 1239SOL    HW1 4616   0.178   0.039   6.070
 1239SOL    HW2 4617   0.157   0.176   5.983
 1240SOL     OW 4618   5.929   5.960   1.320
 1240SOL    HW1 4619   6.018   5.974   1.364
 1240SOL    HW2 4620   5.869   6.038   1.340
 1241SOL     OW 4621   5.958   4.558   5.615
 1241SOL    HW1 4622   5.871   4.598   5.585
 1241SOL    HW2 4623   5.957   4.460   5.599
 1242SOL     OW 4624   2.415   4.717   0.789
 1242SOL    HW1 4625   2.324   4.743   0.822
 1242SOL    HW2 4626   2.485   4.758   0.848
 1243SOL     OW 4627   0.872   1.235   4.719
 1243SOL    HW1 4628   0.961   1.261   4.758
 1243SOL    HW2 4629   0.818   1.188   4.788
 1244SOL     OW 4630   5.119   5.825   4.982
 1244SOL    HW1 4631   5.066   5.757   5.031
 1244SOL    HW2 4632   5.058   5.880   4.924
 1245SOL     OW 4633   5.584   4.050   6.725
 1245SOL    HW1 4634   5.617   4.112   6.653
 1245SOL    HW2 4635   5.608   4.087   6.814
 1246SOL     OW 4636   3.107   1.773   2.445
 1246SOL    HW1 4637   3.124   1.872   2.440
 1246SOL    HW2 4638   3.195   1.725   2.448
 1247SOL     OW 4639   6.621   6.853   6.259
 1247SOL    HW1 4640   6.711   6.893   6.246
 1247SOL    HW2 4641   6.560   6.919   6.304
 1248SOL     OW 4642   1.630   6.035   3.850
 1248SOL    HW1 4643   1.543   5.989   3.866
 1248SOL    HW2 4644   1.632   6.072   3.757
 1249SOL     OW 4645   0.332   2.640   2.040
 1249SOL    HW1 4646   0.294   2.606   1.953
 1249SOL    HW2 4647   0.312   2.737   2.049
 1250SOL     OW 4648   5.513   5.117   3.298
 1250SOL    HW1 4649   5.525   5.042   3.233
 1250SOL    HW2 4650   5.519   5.081   3.392
 1251SOL     OW 4651   1.768   0.954   2.925
 1251SOL    HW1 4652   1.826   0.942   2.844
 1251SOL    HW2 4653   1.789   1.041   2.969
 1252SOL     OW 4654   3.745   4.832   6.254
 1252SOL    HW1 4655   3.776   4.848   6.160
 1252SOL    HW2 4656   3.694   4.912   6.286
 1253SOL     OW 4657   3.498   6.592   2.911
 1253SOL    HW1 4658   3.473   6.609   2.816
 1253SOL    HW2 4659   3.416   6.589   2.968
 1254SOL     OW 4660   0.377   1.951   3.496
 1254SOL    HW1 4661   0.363   2.047   3.519
 1254SOL    HW2 4662   0.330   1.929   3.410
 1255SOL     OW 4663   5.671   1.532   6.018
 1255SOL    HW1 4664   5.603   1.464   6.047
 1255SOL    HW2 4665   5.746   1.535   6.085
 1256SOL     OW 4666   0.670   6.606   4.121
 1256SOL    HW1 4667   0.748   6.550   4.148
 1256SOL    HW2 4668   0.642   6.664   4.197
 1257SOL     OW 4669   7.021   5.193   4.512
 1257SOL    HW1 4670   6.936   5.203   4.565
 1257SOL    HW2 4671   0.035   5.283   4.495
 1258SOL     OW 4672   1.740   5.125   2.725
 1258SOL    HW1 4673   1.811   5.179   2.771
 1258SOL    HW2 4674   1.680   5.185   2.673
 1259SOL     OW 4675   3.808   6.790   4.861
 1259SOL    HW1 4676   3.891   6.751   4.820
 1259SOL    HW2 4677   3.831   6.876   4.906
 1260SOL     OW 4678   3.334   1.927   0.717
 1260SOL    HW1 4679   3.433   1.927   0.698
 1260SOL    HW2 4680   3.306   2.020   0.742
 1261SOL     OW 4681   6.707   5.455   6.635
 1261SOL    HW1 4682   6.700   5.438   6.733
 1261SOL    HW2 4683   6.738   5.549   6.619
 1262SOL     OW 4684   5.279   4.906   1.348
 1262SOL    HW1 4685   5.261   4.855   1.432
 1262SOL    HW2 4686   5.228   4.992   1.349
 1263SOL     OW 4687   6.780   1.678   1.413
 1263SOL    HW1 4688   6.744   1.589   1.386
 1263SOL    HW2 4689   6.788   1.737   1.333
 1264SOL     OW 4690   0.009   3.677   1.402
 1264SOL    HW1 4691   0.070   3.725   1.465
 1264SOL    HW2 4692   7.007   3.589   1.443
 1265SOL     OW 4693   5.119   5.937   3.610
 1265SOL    HW1 4694   5.127   5.837   3.611
 1265SOL    HW2 4695   5.210   5.977   3.620
 1266SOL     OW 4696   0.834   1.450   4.009
 1266SOL    HW1 4697   0.809   1.415   4.099
 1266SOL    HW2 4698   0.753   1.450   3.949
 1267SOL     OW 4699   5.356   6.394   1.422
 1267SOL    HW1 4700   5.442   6.381   1.469
 1267SOL    HW2 4701   5.365   6.366   1.326
 1268SOL     OW 4702   4.231   3.037   0.119
 1268SOL    HW1 4703   4.240   3.091   0.202
 1268SOL    HW2 4704   4.176   2.955   0.138
 1269SOL     OW 4705   5.708   6.227   5.612
 1269SOL    HW1 4706   5.748   6.222   5.704
 1269SOL    HW2 4707   5.636   6.158   5.603
 1270SOL     OW 4708   2.218   4.076   3.841
 1270SOL    HW1 4709   2.192   4.005   3.775
 1270SOL    HW2 4710   2.236   4.033   3.930
 1271SOL     OW 4711   3.037   2.211   3.824
 1271SOL    HW1 4712   2.957   2.254   3.782
 1271SOL    HW2 4713   3.046   2.117   3.791
 1272SOL     OW 4714   5.431   5.592   0.198
 1272SOL    HW1 4715   5.395   5.505   0.164
 1272SOL    HW2 4716   5.530   5.586   0.209
 1273SOL     OW 4717   0.594   4.634   6.622
 1273SOL    HW1 4718   0.535   4.556   6.602
 1273SOL    HW2 4719   0.673   4.605   6.675
 1274SOL     OW 4720   6.601   3.585   1.853
 1274SOL    HW1 4721   6.595   3.683   1.834
 1274SOL    HW2 4722   6.588   3.569   1.951
 1275SOL     OW 4723   3.286   1.412   4.278
 1275SOL    HW1 4724   3.344   1.334   4.299
 1275SOL    HW2 4725   3.227   1.431   4.357
 1276SOL     OW 4726   0.006   0.466   4.734
 1276SOL    HW1 4727   0.041   0.511   4.816
 1276SOL    HW2 4728   0.068   0.485   4.657
 1277SOL     OW 4729   0.908   6.568   6.025
 1277SOL    HW1 4730   0.900   6.640   6.095
 1277SOL    HW2 4731   0.950   6.607   5.943
 1278SOL     OW 4732   1.239   0.053   5.222
 1278SOL    HW1 4733   1.177   0.127   5.194
 1278SOL    HW2 4734   1.314   0.091   5.275
 1279SOL     OW 4735   3.705   6.220   0.849
 1279SOL    HW1 4736   3.680   6.159   0.924
 1279SOL    HW2 4737   3.633   6.218   0.779
 1280SOL     OW 4738   3.175   6.563   4.533
 1280SOL    HW1 4739   3.174   6.663   4.531
 1280SOL    HW2 4740   3.270   6.532   4.528
 1281SOL     OW 4741   1.381   6.450   3.454
 1281SOL    HW1 4742   1.354   6.423   3.362
 1281SOL    HW2 4743   1.313   6.417   3.520
 1282SOL     OW 4744   0.796   1.830   6.395
 1282SOL    HW1 4745   0.839   1.768   6.329
 1282SOL    HW2 4746   0.823   1.924   6.375
 1283SOL     OW 4747   6.544   3.143   5.014
 1283SOL    HW1 4748   6.619   3.209   5.025
 1283SOL    HW2 4749   6.543   3.110   4.920
 1284SOL     OW 4750   4.999   1.499   2.241
 1284SOL    HW1 4751   5.042   1.420   2.198
 1284SOL    HW2 4752   4.900   1.493   2.229
 1285SOL     OW 4753   4.870   2.283   6.558
 1285SOL    HW1 4754   4.878   2.372   6.601
 1285SOL    HW2 4755   4.787   2.237   6.591
 1286SOL     OW 4756   4.939   3.688   2.174
 1286SOL    HW1 4757   4.935   3.594   2.141
 1286SOL    HW2 4758   4.930   3.751   2.096
 1287SOL     OW 4759   5.299   5.177   5.344
 1287SOL    HW1 4760   5.285   5.157   5.247
 1287SOL    HW2 4761   5.287   5.094   5.398
 1288SOL     OW 4762   4.686   3.530   6.772
 1288SOL    HW1 4763   4.707   3.437   6.743
 1288SOL    HW2 4764   4.595   3.531   6.814
 1289SOL     OW 4765   0.993   6.210   1.901
 1289SOL    HW1 4766   1.020   6.134   1.960
 1289SOL    HW2 4767   0.990   6.179   1.806
 1290SOL     OW 4768   1.183   6.976   6.782
 1290SOL    HW1 4769   1.125   0.011   6.727
 1290SOL    HW2 4770   1.266   6.954   6.731
 1291SOL     OW 4771   0.070   4.046   5.290
 1291SOL    HW1 4772   0.006   3.987   5.240
 1291SOL    HW2 4773   0.086   4.008   5.381
 1292SOL     OW 4774   0.276   5.841   2.484
 1292SOL    HW1 4775   0.195   5.782   2.483
 1292SOL    HW2 4776   0.355   5.789   2.516
 1293SOL     OW 4777   1.349   2.049   0.401
 1293SOL    HW1 4778   1.267   1.993   0.387
 1293SOL    HW2 4779   1.388   2.074   0.313
 1294SOL     OW 4780   1.060   3.723   6.969
 1294SOL    HW1 4781   1.139   3.663   6.973
 1294SOL    HW2 4782   0.979   3.675   7.003
 1295SOL     OW 4783   0.166   3.540   2.834
 1295SOL    HW1 4784   0.186   3.627   2.790
 1295SOL    HW2 4785   0.134   3.474   2.765
 1296SOL     OW 4786   3.593   0.397   5.547
 1296SOL    HW1 4787   3.626   0.410   5.640
 1296SOL    HW2 4788   3.654   0.444   5.483
 1297SOL     OW 4789   6.482   0.777   0.978
 1297SOL    HW1 4790   6.458   0.864   0.935
 1297SOL    HW2 4791   6.487   0.706   0.908
 1298SOL     OW 4792   6.078   4.787   2.710
 1298SOL    HW1 4793   6.128   4.865   2.673
 1298SOL    HW2 4794   6.067   4.797   2.809
 1299SOL     OW 4795   1.006   3.725   3.495
 1299SOL    HW1 4796   0.986   3.633   3.462
 1299SOL    HW2 4797   0.949   3.791   3.445
 1300SOL     OW 4798   3.378   2.901   1.560
 1300SOL    HW1 4799   3.385   2.809   1.522
 1300SOL    HW2 4800   3.283   2.918   1.588
 1301SOL     OW 4801   0.721   5.820   1.325
 1301SOL    HW1 4802   0.636   5.830   1.378
 1301SOL    HW2 4803   0.714   5.872   1.241
 1302SOL     OW 4804   4.797   0.426   5.417
 1302SOL    HW1 4805   4.763   0.425   5.323
 1302SOL    HW2 4806   4.743   0.363   5.473
 1303SOL     OW 4807   4.737   1.480   2.240
 1303SOL    HW1 4808   4.681   1.452   2.162
 1303SOL    HW2 4809   4.697   1.445   2.325
 1304SOL     OW 4810   1.896   0.680   6.766
 1304SOL    HW1 4811   1.957   0.725   6.701
 1304SOL    HW2 4812   1.808   0.661   6.721
 1305SOL     OW 4813   5.143   2.912   7.022
 1305SOL    HW1 4814   5.079   2.903   6.946
 1305SOL    HW2 4815   5.181   3.005   7.022
 1306SOL     OW 4816   0.282   4.435   4.719
 1306SOL    HW1 4817   0.245   4.510   4.775
 1306SOL    HW2 4818   0.276   4.350   4.770
 1307SOL     OW 4819   0.772   3.541   4.423
 1307SOL    HW1 4820   0.800   3.506   4.512
 1307SOL    HW2 4821   0.698   3.608   4.435
 1308SOL     OW 4822   5.985   6.316   4.720
 1308SOL    HW1 4823   5.906   6.347   4.773
 1308SOL    HW2 4824   5.982   6.358   4.629
 1309SOL     OW 4825   5.010   3.404   5.263
 1309SOL    HW1 4826   4.949   3.384   5.340
 1309SOL    HW2 4827   5.055   3.492   5.279
 1310SOL     OW 4828   0.266   3.820   4.564
 1310SOL    HW1 4829   0.285   3.916   4.583
 1310SOL    HW2 4830   0.304   3.763   4.637
 1311SOL     OW 4831   0.614   6.951   4.693
 1311SOL    HW1 4832   0.545   6.888   4.658
 1311SOL    HW2 4833   0.584   0.020   4.676
 1312SOL     OW 4834   1.680   0.403   6.174
 1312SOL    HW1 4835   1.665   0.444   6.264
 1312SOL    HW2 4836   1.755   0.450   6.128
 1313SOL     OW 4837   0.728   4.104   3.685
 1313SOL    HW1 4838   0.732   4.121   3.783
 1313SOL    HW2 4839   0.685   4.016   3.668
 1314SOL     OW 4840   4.186   0.913   5.659
 1314SOL    HW1 4841   4.150   0.839   5.603
 1314SOL    HW2 4842   4.243   0.973   5.603
 1315SOL     OW 4843   0.210   1.104   0.954
 1315SOL    HW1 4844   0.239   1.176   1.018
 1315SOL    HW2 4845   0.114   1.082   0.971
 1316SOL     OW 4846   1.843   6.573   4.886
 1316SOL    HW1 4847   1.851   6.673   4.884
 1316SOL    HW2 4848   1.802   6.541   4.800
 1317SOL     OW 4849   2.241   4.401   5.741
 1317SOL    HW1 4850   2.175   4.325   5.740
 1317SOL    HW2 4851   2.294   4.397   5.826
 1318SOL     OW 4852   1.110   0.950   0.969
 1318SOL    HW1 4853   1.192   0.934   1.024
 1318SOL    HW2 4854   1.112   1.043   0.932
 1319SOL     OW 4855   0.149   1.053   6.922
 1319SOL    HW1 4856   0.247   1.035   6.914
 1319SOL    HW2 4857   0.133   1.151   6.931
 1320SOL     OW 4858   5.560   3.602   0.371
 1320SOL    HW1 4859   5.496   3.564   0.304
 1320SOL    HW2 4860   5.648   3.554   0.364
 1321SOL     OW 4861   5.298   1.836   6.052
 1321SOL    HW1 4862   5.354   1.879   6.123
 1321SOL    HW2 4863   5.259   1.907   5.993
 1322SOL     OW 4864   3.644   0.695   3.820
 1322SOL    HW1 4865   3.600   0.784   3.819
 1322SOL    HW2 4866   3.575   0.624   3.805
 1323SOL     OW 4867   4.571   1.545   5.901
 1323SOL    HW1 4868   4.588   1.517   5.806
 1323SOL    HW2 4869   4.632   1.494   5.962
 1324SOL     OW 4870   1.324   3.219   0.244
 1324SOL    HW1 4871   1.246   3.278   0.225
 1324SOL    HW2 4872   1.403   3.275   0.268
 1325SOL     OW 4873   2.094   6.787   2.392
 1325SOL    HW1 4874   2.191   6.780   2.416
 1325SOL    HW2 4875   2.041   6.813   2.473
 1326SOL     OW 4876   4.910   3.147   4.996
 1326SOL    HW1 4877   4.899   3.246   4.983
 1326SOL    HW2 4878   4.879   3.122   5.087
 1327SOL     OW 4879   1.428   5.094   1.598
 1327SOL    HW1 4880   1.344   5.132   1.560
 1327SOL    HW2 4881   1.446   5.005   1.557
 1328SOL     OW 4882   1.499   3.142   1.058
 1328SOL    HW1 4883   1.520   3.234   1.093
 1328SOL    HW2 4884   1.525   3.136   0.962
 1329SOL     OW 4885   0.570   2.223   1.574
 1329SOL    HW1 4886   0.512   2.223   1.492
 1329SOL    HW2 4887   0.665   2.207   1.546
 1330SOL     OW 4888   0.006   1.323   1.859
 1330SOL    HW1 4889   0.075   1.340   1.929
 1330SOL    HW2 4890   6.973   1.404   1.849
 1331SOL     OW 4891   4.959   2.740   3.336
 1331SOL    HW1 4892   4.867   2.766   3.367
 1331SOL    HW2 4893   4.957   2.646   3.302
 1332SOL     OW 4894   2.986   6.907   0.219
 1332SOL    HW1 4895   3.043   6.985   0.247
 1332SOL    HW2 4896   3.040   6.823   0.223
 1333SOL     OW 4897   3.519   3.644   5.288
 1333SOL    HW1 4898   3.606   3.691   5.281
 1333SOL    HW2 4899   3.445   3.710   5.294
 1334SOL     OW 4900   6.205   2.177   4.528
 1334SOL    HW1 4901   6.269   2.250   4.503
 1334SOL    HW2 4902   6.255   2.090   4.533
 1335SOL     OW 4903   2.547   1.344   3.240
 1335SOL    HW1 4904   2.610   1.289   3.185
 1335SOL    HW2 4905   2.527   1.296   3.325
 1336SOL     OW 4906   1.774   2.241   5.660
 1336SOL    HW1 4907   1.774   2.253   5.759
 1336SOL    HW2 4908   1.733   2.322   5.617
 1337SOL     OW 4909   1.975   1.979   5.238
 1337SOL    HW1 4910   2.046   2.044   5.265
 1337SOL    HW2 4911   1.909   1.969   5.313
 1338SOL     OW 4912   5.886   2.120   5.713
 1338SOL    HW1 4913   5.984   2.107   5.699
 1338SOL    HW2 4914   5.847   2.036   5.752
 1339SOL     OW 4915   0.961   1.731   6.159
 1339SOL    HW1 4916   0.884   1.702   6.102
 1339SOL    HW2 4917   1.046   1.695   6.121
 1340SOL     OW 4918   0.541   1.873   2.526
 1340SOL    HW1 4919   0.611   1.921   2.472
 1340SOL    HW2 4920   0.477   1.939   2.564
 1341SOL     OW 4921   5.165   0.114   5.898
 1341SOL    HW1 4922   5.145   0.154   5.808
 1341SOL    HW2 4923   5.083   0.069   5.933
 1342SOL     OW 4924   2.002   5.255   6.126
 1342SOL    HW1 4925   1.957   5.171   6.094
 1342SOL    HW2 4926   1.978   5.331   6.065
 1343SOL     OW 4927   4.724   6.188   3.168
 1343SOL    HW1 4928   4.656   6.116   3.154
 1343SOL    HW2 4929   4.763   6.180   3.260
 1344SOL     OW 4930   6.702   4.636   4.121
 1344SOL    HW1 4931   6.771   4.566   4.103
 1344SOL    HW2 4932   6.723   4.682   4.207
 1345SOL     OW 4933   1.926   0.850   2.730
 1345SOL    HW1 4934   1.914   0.751   2.732
 1345SOL    HW2 4935   1.971   0.877   2.645
 1346SOL     OW 4936   0.518   6.139   4.217
 1346SOL    HW1 4937   0.557   6.199   4.288
 1346SOL    HW2 4938   0.425   6.114   4.243
 1347SOL     OW 4939   6.147   5.653   4.452
 1347SOL    HW1 4940   6.131   5.571   4.398
 1347SOL    HW2 4941   6.167   5.730   4.391
 1348SOL     OW 4942   5.144   4.730   2.413
 1348SOL    HW1 4943   5.235   4.698   2.385
 1348SOL    HW2 4944   5.116   4.682   2.497
 1349SOL     OW 4945   4.766   2.382   6.165
 1349SOL    HW1 4946   4.708   2.301   6.160
 1349SOL    HW2 4947   4.709   2.464   6.151
 1350SOL     OW 4948   5.054   4.162   6.818
 1350SOL    HW1 4949   5.051   4.086   6.753
 1350SOL    HW2 4950   5.145   4.204   6.816
 1351SOL     OW 4951   6.627   1.237   3.484
 1351SOL    HW1 4952   6.704   1.231   3.549
 1351SOL    HW2 4953   6.542   1.244   3.535
 1352SOL     OW 4954   6.939   6.695   3.136
 1352SOL    HW1 4955   6.880   6.723   3.060
 1352SOL    HW2 4956   6.955   6.774   3.196
 1353SOL     OW 4957   6.833   3.845   6.308
 1353SOL    HW1 4958   6.780   3.906   6.366
 1353SOL    HW2 4959   6.928   3.877   6.303
 1354SOL     OW 4960   1.004   2.878   0.650
 1354SOL    HW1 4961   1.010   2.830   0.563
 1354SOL    HW2 4962   0.918   2.855   0.695
 1355SOL     OW 4963   6.991   2.526   5.346
 1355SOL    HW1 4964   6.898   2.530   5.380
 1355SOL    HW2 4965   7.015   2.613   5.302
 1356SOL     OW 4966   2.985   3.556   2.790
 1356SOL    HW1 4967   2.986   3.484   2.860
 1356SOL    HW2 4968   2.949   3.519   2.705
 1357SOL     OW 4969   1.276   3.665   5.167
 1357SOL    HW1 4970   1.285   3.687   5.264
 1357SOL    HW2 4971   1.337   3.723   5.113
 1358SOL     OW 4972   3.827   1.181   6.246
 1358SOL    HW1 4973   3.863   1.270   6.274
 1358SOL    HW2 4974   3.903   1.116   6.237
 1359SOL     OW 4975   5.778   4.772   1.864
 1359SOL    HW1 4976   5.741   4.780   1.956
 1359SOL    HW2 4977   5.823   4.684   1.853
 1360SOL     OW 4978   3.828   2.844   0.543
 1360SOL    HW1 4979   3.866   2.867   0.454
 1360SOL    HW2 4980   3.899   2.803   0.600
 1361SOL     OW 4981   0.189   5.638   5.639
 1361SOL    HW1 4982   0.131   5.627   5.720
 1361SOL    HW2 4983   0.175   5.560   5.578
 1362SOL     OW 4984   3.243   4.125   4.382
 1362SOL    HW1 4985   3.173   4.108   4.451
 1362SOL    HW2 4986   3.330   4.147   4.428
 1363SOL     OW 4987   6.925   5.954   3.644
 1363SOL    HW1 4988   6.961   5.861   3.636
 1363SOL    HW2 4989   6.836   5.951   3.690
 1364SOL     OW 4990   6.519   2.302   1.324
 1364SOL    HW1 4991   6.442   2.254   1.283
 1364SOL    HW2 4992   6.600   2.244   1.321
 1365SOL     OW 4993   1.174   2.671   5.833
 1365SOL    HW1 4994   1.188   2.768   5.849
 1365SOL    HW2 4995   1.210   2.618   5.910
 1366SOL     OW 4996   0.396   4.636   0.485
 1366SOL    HW1 4997   0.484   4.622   0.531
 1366SOL    HW2 4998   0.340   4.700   0.537
 1367SOL     OW 4999   1.514   6.100   2.359
 1367SOL    HW1 5000   1.608   6.071   2.374
 1367SOL    HW2 5001   1.486   6.161   2.433
 1368SOL     OW 5002   0.097   0.376   4.104
 1368SOL    HW1 5003   0.117   0.360   4.007
 1368SOL    HW2 5004   0.045   0.461   4.114
 1369SOL     OW 5005   2.664   0.460   2.729
 1369SOL    HW1 5006   2.695   0.441   2.822
 1369SOL    HW2 5007   2.610   0.544   2.727
 1370SOL     OW 5008   4.215   1.473   2.517
 1370SOL    HW1 5009   4.136   1.486   2.457
 1370SOL    HW2 5010   4.184   1.454   2.610
 1371SOL     OW 5011   6.245   1.726   4.746
 1371SOL    HW1 5012   6.316   1.765   4.686
 1371SOL    HW2 5013   6.276   1.731   4.840
 1372SOL     OW 5014   1.156   3.075   0.765
 1372SOL    HW1 5015   1.105   2.991   0.749
 1372SOL    HW2 5016   1.167   3.090   0.863
 1373SOL     OW 5017   4.275   2.572   6.677
 1373SOL    HW1 5018   4.260   2.524   6.591
 1373SOL    HW2 5019   4.350   2.638   6.666
 1374SOL     OW 5020   4.306   2.332   0.658
 1374SOL    HW1 5021   4.296   2.232   0.665
 1374SOL    HW2 5022   4.215   2.373   0.649
 1375SOL     OW 5023   0.173   5.419   6.415
 1375SOL    HW1 5024   0.213   5.356   6.348
 1375SOL    HW2 5025   0.109   5.370   6.474
 1376SOL     OW 5026   4.668   4.695   5.140
 1376SOL    HW1 5027   4.686   4.774   5.199
 1376SOL    HW2 5028   4.720   4.617   5.173
 1377SOL     OW 5029   0.383   3.043   5.408
 1377SOL    HW1 5030   0.471   3.040   5.362
 1377SOL    HW2 5031   0.317   3.091   5.351
 1378SOL     OW 5032   6.169   1.466   4.562
 1378SOL    HW1 5033   6.127   1.506   4.480
 1378SOL    HW2 5034   6.214   1.537   4.615
 1379SOL     OW 5035   3.827   6.598   3.128
 1379SOL    HW1 5036   3.893   6.670   3.148
 1379SOL    HW2 5037   3.828   6.530   3.202
 1380SOL     OW 5038   0.591   6.934   3.766
 1380SOL    HW1 5039   0.607   7.015   3.822
 1380SOL    HW2 5040   0.497   6.935   3.731
 1381SOL     OW 5041   6.026   1.552   6.875
 1381SOL    HW1 5042   6.072   1.637   6.847
 1381SOL    HW2 5043   6.081   1.507   6.945
 1382SOL     OW 5044   5.302   3.347   0.627
 1382SOL    HW1 5045   5.293   3.396   0.541
 1382SOL    HW2 5046   5.282   3.409   0.703
 1383SOL     OW 5047   0.757   0.307   2.194
 1383SOL    HW1 5048   0.790   0.336   2.104
 1383SOL    HW2 5049   0.792   0.370   2.264
 1384SOL     OW 5050   4.800   0.723   2.128
 1384SOL    HW1 5051   4.842   0.633   2.138
 1384SOL    HW2 5052   4.722   0.716   2.066
 1385SOL     OW 5053   2.308   4.370   3.198
 1385SOL    HW1 5054   2.255   4.444   3.237
 1385SOL    HW2 5055   2.337   4.307   3.270
 1386SOL     OW 5056   2.933   0.762   4.304
 1386SOL    HW1 5057   2.950   0.666   4.279
 1386SOL    HW2 5058   3.015   0.816   4.286
 1387SOL     OW 5059   3.331   5.817   2.897
 1387SOL    HW1 5060   3.397   5.884   2.932
 1387SOL    HW2 5061   3.290   5.852   2.813
 1388SOL     OW 5062   0.378   0.712   2.966
 1388SOL    HW1 5063   0.456   0.771   2.945
 1388SOL    HW2 5064   0.335   0.743   3.050
 1389SOL     OW 5065   6.671   1.858   4.157
 1389SOL    HW1 5066   6.673   1.926   4.083
 1389SOL    HW2 5067   6.747   1.876   4.220
 1390SOL     OW 5068   6.702   2.994   6.118
 1390SOL    HW1 5069   6.640   2.988   6.040
 1390SOL    HW2 5070   6.797   2.991   6.086
 1391SOL     OW 5071   5.870   0.218   5.649
 1391SOL    HW1 5072   5.868   0.126   5.610
 1391SOL    HW2 5073   5.806   0.224   5.725
 1392SOL     OW 5074   6.294   6.529   5.668
 1392SOL    HW1 5075   6.385   6.490   5.677
 1392SOL    HW2 5076   6.225   6.460   5.692
 1393SOL     OW 5077   6.764   4.344   6.008
 1393SOL    HW1 5078   6.721   4.399   6.080
 1393SOL    HW2 5079   6.844   4.297   6.045
 1394SOL     OW 5080   3.427   5.838   5.493
 1394SOL    HW1 5081   3.356   5.796   5.436
 1394SOL    HW2 5082   3.501   5.772   5.508
 1395SOL     OW 5083   1.866   4.436   5.032
 1395SOL    HW1 5084   1.953   4.481   5.011
 1395SOL    HW2 5085   1.865   4.344   4.991
 1396SOL     OW 5086   0.206   1.331   5.102
 1396SOL    HW1 5087   0.248   1.326   5.012
 1396SOL    HW2 5088   0.138   1.257   5.111
 1397SOL     OW 5089   0.158   6.470   4.579
 1397SOL    HW1 5090   0.148   6.377   4.614
 1397SOL    HW2 5091   0.077   6.495   4.526
 1398SOL     OW 5092   2.891   0.708   6.353
 1398SOL    HW1 5093   2.927   0.682   6.443
 1398SOL    HW2 5094   2.891   0.808   6.345
 1399SOL     OW 5095   4.115   5.718   0.521
 1399SOL    HW1 5096   4.068   5.782   0.461
 1399SOL    HW2 5097   4.089   5.624   0.497
 1400SOL     OW 5098   0.436   1.799   4.002
 1400SOL    HW1 5099   0.390   1.712   4.018
 1400SOL    HW2 5100   0.467   1.803   3.907
 1401SOL     OW 5101   5.661   0.280   4.334
 1401SOL    HW1 5102   5.755   0.254   4.313
 1401SOL    HW2 5103   5.653   0.379   4.333
 1402SOL     OW 5104   5.271   4.023   6.321
 1402SOL    HW1 5105   5.370   4.016   6.310
 1402SOL    HW2 5106   5.226   3.967   6.252
 1403SOL     OW 5107   2.656   2.109   0.668
 1403SOL    HW1 5108   2.595   2.062   0.732
 1403SOL    HW2 5109   2.751   2.095   0.697
 1404SOL     OW 5110   6.594   0.596   6.872
 1404SOL    HW1 5111   6.594   0.511   6.925
 1404SOL    HW2 5112   6.514   0.651   6.897
 1405SOL     OW 5113   2.837   3.463   0.559
 1405SOL    HW1 5114   2.887   3.417   0.485
 1405SOL    HW2 5115   2.756   3.508   0.521
 1406SOL     OW 5116   1.742   5.860   0.684
 1406SOL    HW1 5117   1.817   5.918   0.715
 1406SOL    HW2 5118   1.774   5.765   0.681
 1407SOL     OW 5119   0.539   3.695   3.793
 1407SOL    HW1 5120   0.509   3.615   3.742
 1407SOL    HW2 5121   0.545   3.774   3.732
 1408SOL     OW 5122   4.995   1.035   6.498
 1408SOL    HW1 5123   5.078   1.020   6.552
 1408SOL    HW2 5124   4.917   0.992   6.544
 1409SOL     OW 5125   0.594   0.880   5.271
 1409SOL    HW1 5126   0.509   0.930   5.253
 1409SOL    HW2 5127   0.654   0.889   5.192
 1410SOL     OW 5128   1.294   4.181   6.311
 1410SOL    HW1 5129   1.262   4.206   6.219
 1410SOL    HW2 5130   1.227   4.210   6.379
 1411SOL     OW 5131   3.291   6.266   0.325
 1411SOL    HW1 5132   3.213   6.297   0.380
 1411SOL    HW2 5133   3.265   6.184   0.275
 1412SOL     OW 5134   0.728   3.646   1.440
 1412SOL    HW1 5135   0.649   3.603   1.395
 1412SOL    HW2 5136   0.767   3.582   1.505
 1413SOL     OW 5137   2.133   1.083   4.379
 1413SOL    HW1 5138   2.228   1.095   4.349
 1413SOL    HW2 5139   2.087   1.021   4.316
 1414SOL     OW 5140   2.246   1.534   1.811
 1414SOL    HW1 5141   2.238   1.455   1.750
 1414SOL    HW2 5142   2.156   1.558   1.847
 1415SOL     OW 5143   2.600   1.516   4.024
 1415SOL    HW1 5144   2.510   1.554   4.001
 1415SOL    HW2 5145   2.600   1.417   4.009
 1416SOL     OW 5146   4.397   6.334   4.981
 1416SOL    HW1 5147   4.479   6.382   4.949
 1416SOL    HW2 5148   4.424   6.255   5.035
 1417SOL     OW 5149   3.174   2.607   0.222
 1417SOL    HW1 5150   3.256   2.610   0.280
 1417SOL    HW2 5151   3.106   2.671   0.257
 1418SOL     OW 5152   3.121   3.585   1.741
 1418SOL    HW1 5153   3.035   3.623   1.707
 1418SOL    HW2 5154   3.184   3.570   1.665
 1419SOL     OW 5155   3.572   6.024   4.427
 1419SOL    HW1 5156   3.518   5.956   4.475
 1419SOL    HW2 5157   3.518   6.065   4.354
 1420SOL     OW 5158   3.271   5.912   3.281
 1420SOL    HW1 5159   3.244   6.006   3.261
 1420SOL    HW2 5160   3.221   5.849   3.221
 1421SOL     OW 5161   1.607   4.264   4.132
 1421SOL    HW1 5162   1.622   4.363   4.136
 1421SOL    HW2 5163   1.516   4.242   4.165
 1422SOL     OW 5164   1.865   4.339   6.264
 1422SOL    HW1 5165   1.800   4.415   6.255
 1422SOL    HW2 5166   1.844   4.269   6.196
 1423SOL     OW 5167   4.479   6.646   4.255
 1423SOL    HW1 5168   4.413   6.659   4.181
 1423SOL    HW2 5169   4.528   6.732   4.272
 1424SOL     OW 5170   6.641   3.500   6.650
 1424SOL    HW1 5171   6.731   3.459   6.637
 1424SOL    HW2 5172   6.631   3.528   6.745
 1425SOL     OW 5173   1.637   5.624   5.741
 1425SOL    HW1 5174   1.551   5.586   5.776
 1425SOL    HW2 5175   1.699   5.550   5.715
 1426SOL     OW 5176   2.789   2.320   6.982
 1426SOL    HW1 5177   2.846   2.251   6.937
 1426SOL    HW2 5178   2.697   2.318   6.944
 1427SOL     OW 5179   6.791   6.876   4.589
 1427SOL    HW1 5180   6.748   6.915   4.508
 1427SOL    HW2 5181   6.868   6.933   4.617
 1428SOL     OW 5182   0.596   2.362   0.606
 1428SOL    HW1 5183   0.577   2.327   0.698
 1428SOL    HW2 5184   0.679   2.419   0.608
 1429SOL     OW 5185   4.821   1.582   0.639
 1429SOL    HW1 5186   4.795   1.487   0.659
 1429SOL    HW2 5187   4.791   1.605   0.546
 1430SOL     OW 5188   1.907   4.954   4.005
 1430SOL    HW1 5189   1.961   4.894   3.946
 1430SOL    HW2 5190   1.814   4.960   3.968
 1431SOL     OW 5191   2.554   2.405   6.842
 1431SOL    HW1 5192   2.541   2.347   6.761
 1431SOL    HW2 5193   2.514   2.495   6.825
 1432SOL     OW 5194   3.107   1.452   1.215
 1432SOL    HW1 5195   3.094   1.353   1.217
 1432SOL    HW2 5196   3.065   1.489   1.132
 1433SOL     OW 5197   5.129   0.658   5.628
 1433SOL    HW1 5198   5.194   0.630   5.700
 1433SOL    HW2 5199   5.180   0.694   5.550
 1434SOL     OW 5200   0.799   0.851   6.194
 1434SOL    HW1 5201   0.783   0.937   6.244
 1434SOL    HW2 5202   0.876   0.803   6.236
 1435SOL     OW 5203   0.021   6.957   3.050
 1435SOL    HW1 5204   6.957   6.972   3.007
 1435SOL    HW2 5205   0.071   0.018   3.055
 1436SOL     OW 5206   5.326   4.268   6.829
 1436SOL    HW1 5207   5.328   4.337   6.901
 1436SOL    HW2 5208   5.409   4.213   6.834
 1437SOL     OW 5209   3.274   1.959   5.383
 1437SOL    HW1 5210   3.281   2.055   5.355
 1437SOL    HW2 5211   3.201   1.950   5.451
 1438SOL     OW 5212   2.706   0.142   2.096
 1438SOL    HW1 5213   2.770   0.218   2.107
 1438SOL    HW2 5214   2.650   0.134   2.179
 1439SOL     OW 5215   6.760   4.673   0.859
 1439SOL    HW1 5216   6.851   4.639   0.883
 1439SOL    HW2 5217   6.708   4.601   0.814
 1440SOL     OW 5218   3.645   2.689   5.885
 1440SOL    HW1 5219   3.662   2.776   5.839
 1440SOL    HW2 5220   3.629   2.706   5.983
 1441SOL     OW 5221   6.161   2.231   3.948
 1441SOL    HW1 5222   6.101   2.152   3.938
 1441SOL    HW2 5223   6.224   2.234   3.870
 1442SOL     OW 5224   5.889   4.942   6.880
 1442SOL    HW1 5225   5.799   4.943   6.837
 1442SOL    HW2 5226   5.953   4.890   6.823
 1443SOL     OW 5227   0.853   3.023   4.292
 1443SOL    HW1 5228   0.896   3.039   4.203
 1443SOL    HW2 5229   0.843   2.925   4.307
 1444SOL     OW 5230   4.096   6.169   1.187
 1444SOL    HW1 5231   4.029   6.238   1.162
 1444SOL    HW2 5232   4.119   6.178   1.284
 1445SOL     OW 5233   0.511   2.665   2.292
 1445SOL    HW1 5234   0.567   2.734   2.338
 1445SOL    HW2 5235   0.516   2.678   2.193
 1446SOL     OW 5236   4.612   2.392   0.264
 1446SOL    HW1 5237   4.703   2.385   0.222
 1446SOL    HW2 5238   4.619   2.375   0.362
 1447SOL     OW 5239   6.318   6.926   5.828
 1447SOL    HW1 5240   6.357   6.973   5.907
 1447SOL    HW2 5241   6.303   6.992   5.755
 1448SOL     OW 5242   6.669   2.904   0.118
 1448SOL    HW1 5243   6.595   2.871   0.060
 1448SOL    HW2 5244   6.637   2.979   0.176
 1449SOL     OW 5245   0.712   0.878   0.576
 1449SOL    HW1 5246   0.722   0.866   0.675
 1449SOL    HW2 5247   0.803   0.888   0.534
 1450SOL     OW 5248   0.670   1.916   1.583
 1450SOL    HW1 5249   0.757   1.894   1.628
 1450SOL    HW2 5250   0.679   2.004   1.535
 1451SOL     OW 5251   2.613   0.760   2.708
 1451SOL    HW1 5252   2.576   0.775   2.617
 1451SOL    HW2 5253   2.707   0.791   2.712
 1452SOL     OW 5254   4.436   0.661   4.889
 1452SOL    HW1 5255   4.385   0.686   4.972
 1452SOL    HW2 5256   4.511   0.726   4.876
 1453SOL     OW 5257   0.247   3.723   5.229
 1453SOL    HW1 5258   0.161   3.674   5.242
 1453SOL    HW2 5259   0.294   3.732   5.317
 1454SOL     OW 5260   6.898   2.829   2.394
 1454SOL    HW1 5261   6.881   2.917   2.349
 1454SOL    HW2 5262   6.983   2.835   2.447
 1455SOL     OW 5263   1.029   0.261   1.722
 1455SOL    HW1 5264   0.969   0.276   1.801
 1455SOL    HW2 5265   0.973   0.255   1.639
 1456SOL     OW 5266   6.613   6.470   5.595
 1456SOL    HW1 5267   6.615   6.563   5.558
 1456SOL    HW2 5268   6.617   6.405   5.519
 1457SOL     OW 5269   1.354   6.677   1.406
 1457SOL    HW1 5270   1.369   6.600   1.344
 1457SOL    HW2 5271   1.440   6.703   1.450
 1458SOL     OW 5272   5.681   5.666   3.279
 1458SOL    HW1 5273   5.733   5.734   3.227
 1458SOL    HW2 5274   5.583   5.684   3.270
 1459SOL     OW 5275   2.719   5.542   5.509
 1459SOL    HW1 5276   2.626   5.505   5.520
 1459SOL    HW2 5277   2.762   5.498   5.430
 1460SOL     OW 5278   0.653   5.407   5.220
 1460SOL    HW1 5279   0.586   5.478   5.199
 1460SOL    HW2 5280   0.610   5.317   5.210
 1461SOL     OW 5281   6.778   5.373   3.771
 1461SOL    HW1 5282   6.819   5.289   3.736
 1461SOL    HW2 5283   6.725   5.353   3.853
 1462SOL     OW 5284   0.970   0.599   6.559
 1462SOL    HW1 5285   0.945   0.539   6.483
 1462SOL    HW2 5286   0.899   0.597   6.629
 1463SOL     OW 5287   0.289   5.828   6.695
 1463SOL    HW1 5288   0.284   5.758   6.624
 1463SOL    HW2 5289   0.264   5.787   6.783
 1464SOL     OW 5290   5.933   6.985   0.825
 1464SOL    HW1 5291   5.895   6.969   0.916
 1464SOL    HW2 5292   6.033   6.991   0.831
 1465SOL     OW 5293   1.679   0.931   3.539
 1465SOL    HW1 5294   1.579   0.922   3.542
 1465SOL    HW2 5295   1.705   0.979   3.456
 1466SOL     OW 5296   1.043   1.596   2.177
 1466SOL    HW1 5297   0.998   1.605   2.088
 1466SOL    HW2 5298   1.038   1.501   2.208
 1467SOL     OW 5299   1.796   1.890   2.670
 1467SOL    HW1 5300   1.730   1.831   2.623
 1467SOL    HW2 5301   1.853   1.835   2.730
 1468SOL     OW 5302   5.406   5.524   2.787
 1468SOL    HW1 5303   5.433   5.576   2.706
 1468SOL    HW2 5304   5.462   5.553   2.865
 1469SOL     OW 5305   0.705   0.682   2.140
 1469SOL    HW1 5306   0.728   0.718   2.231
 1469SOL    HW2 5307   0.788   0.678   2.084
 1470SOL     OW 5308   1.529   1.850   2.509
 1470SOL    HW1 5309   1.540   1.944   2.476
 1470SOL    HW2 5310   1.447   1.844   2.566
 1471SOL     OW 5311   0.818   0.083   0.485
 1471SOL    HW1 5312   0.731   0.035   0.488
 1471SOL    HW2 5313   0.820   0.142   0.403
 1472SOL     OW 5314   4.138   6.228   5.405
 1472SOL    HW1 5315   4.202   6.295   5.369
 1472SOL    HW2 5316   4.046   6.268   5.410
 1473SOL     OW 5317   5.191   6.144   4.527
 1473SOL    HW1 5318   5.212   6.199   4.608
 1473SOL    HW2 5319   5.174   6.049   4.555
 1474SOL     OW 5320   5.486   5.634   2.533
 1474SOL    HW1 5321   5.551   5.570   2.491
 1474SOL    HW2 5322   5.494   5.723   2.488
 1475SOL     OW 5323   6.392   6.865   2.137
 1475SOL    HW1 5324   6.370   6.793   2.203
 1475SOL    HW2 5325   6.307   6.904   2.101
 1476SOL     OW 5326   2.304   1.151   1.516
 1476SOL    HW1 5327   2.375   1.158   1.587
 1476SOL    HW2 5328   2.320   1.067   1.463
 1477SOL     OW 5329   3.342   0.485   6.543
 1477SOL    HW1 5330   3.297   0.396   6.549
 1477SOL    HW2 5331   3.375   0.500   6.450
 1478SOL     OW 5332   6.102   5.224   0.363
 1478SOL    HW1 5333   6.057   5.145   0.405
 1478SOL    HW2 5334   6.160   5.192   0.288
 1479SOL     OW 5335   1.919   3.180   0.028
 1479SOL    HW1 5336   1.864   3.220   6.980
 1479SOL    HW2 5337   1.867   3.184   0.113
 1480SOL     OW 5338   3.592   0.708   5.640
 1480SOL    HW1 5339   3.585   0.661   5.552
 1480SOL    HW2 5340   3.614   0.804   5.626
 1481SOL     OW 5341   6.363   2.348   5.424
 1481SOL    HW1 5342   6.425   2.304   5.359
 1481SOL    HW2 5343   6.416   2.398   5.492
 1482SOL     OW 5344   4.902   2.374   1.296
 1482SOL    HW1 5345   4.822   2.343   1.346
 1482SOL    HW2 5346   4.985   2.352   1.348
 1483SOL     OW 5347   5.163   1.754   6.398
 1483SOL    HW1 5348   5.141   1.842   6.355
 1483SOL    HW2 5349   5.206   1.694   6.330
 1484SOL     OW 5350   5.811   4.945   3.942
 1484SOL    HW1 5351   5.721   4.962   3.982
 1484SOL    HW2 5352   5.873   4.909   4.012
 1485SOL     OW 5353   3.540   1.571   3.449
 1485SOL    HW1 5354   3.533   1.509   3.527
 1485SOL    HW2 5355   3.613   1.637   3.464
 1486SOL     OW 5356   4.956   1.775   3.219
 1486SOL    HW1 5357   4.925   1.868   3.203
 1486SOL    HW2 5358   4.949   1.722   3.135
 1487SOL     OW 5359   6.621   2.542   6.425
 1487SOL    HW1 5360   6.635   2.633   6.388
 1487SOL    HW2 5361   6.647   2.473   6.357
 1488SOL     OW 5362   5.153   1.486   4.008
 1488SOL    HW1 5363   5.163   1.401   4.059
 1488SOL    HW2 5364   5.062   1.525   4.026
 1489SOL     OW 5365   3.832   5.252   4.590
 1489SOL    HW1 5366   3.858   5.330   4.534
 1489SOL    HW2 5367   3.896   5.242   4.666
 1490SOL     OW 5368   1.028   2.788   1.693
 1490SOL    HW1 5369   0.962   2.847   1.646
 1490SOL    HW2 5370   0.988   2.697   1.708
 1491SOL     OW 5371   6.408   4.171   3.762
 1491SOL    HW1 5372   6.312   4.197   3.761
 1491SOL    HW2 5373   6.452   4.203   3.678
 1492SOL     OW 5374   5.451   0.645   2.322
 1492SOL    HW1 5375   5.401   0.604   2.246
 1492SOL    HW2 5376   5.547   0.656   2.296
 1493SOL     OW 5377   4.171   6.461   4.407
 1493SOL    HW1 5378   4.094   6.517   4.375
 1493SOL    HW2 5379   4.137   6.372   4.437
 1494SOL     OW 5380   5.503   1.947   5.798
 1494SOL    HW1 5381   5.565   1.869   5.806
 1494SOL    HW2 5382   5.419   1.918   5.751
 1495SOL     OW 5383   6.581   2.635   4.375
 1495SOL    HW1 5384   6.597   2.573   4.452
 1495SOL    HW2 5385   6.667   2.651   4.327
 1496SOL     OW 5386   0.427   1.287   1.497
 1496SOL    HW1 5387   0.496   1.359   1.500
 1496SOL    HW2 5388   0.390   1.273   1.589
 1497SOL     OW 5389   6.516   2.793   3.170
 1497SOL    HW1 5390   6.525   2.701   3.208
 1497SOL    HW2 5391   6.436   2.796   3.110
 1498SOL     OW 5392   1.879   5.074   6.323
 1498SOL    HW1 5393   1.937   5.155   6.326
 1498SOL    HW2 5394   1.927   5.001   6.275
 1499SOL     OW 5395   1.385   3.272   6.622
 1499SOL    HW1 5396   1.385   3.211   6.543
 1499SOL    HW2 5397   1.367   3.366   6.591
 1500SOL     OW 5398   6.685   6.466   0.314
 1500SOL    HW1 5399   6.678   6.557   0.274
 1500SOL    HW2 5400   6.751   6.412   0.263
 1501SOL     OW 5401   5.432   1.961   6.257
 1501SOL    HW1 5402   5.464   2.056   6.251
 1501SOL    HW2 5403   5.468   1.920   6.341
 1502SOL     OW 5404   5.196   0.437   0.715
 1502SOL    HW1 5405   5.279   0.492   0.729
 1502SOL    HW2 5406   5.149   0.468   0.632
 1503SOL     OW 5407   1.340   2.948   1.476
 1503SOL    HW1 5408   1.349   3.042   1.443
 1503SOL    HW2 5409   1.335   2.949   1.576
 1504SOL     OW 5410   0.821   0.514   5.585
 1504SOL    HW1 5411   0.809   0.476   5.676
 1504SOL    HW2 5412   0.831   0.439   5.519
 1505SOL     OW 5413   6.012   0.931   5.676
 1505SOL    HW1 5414   6.098   0.932   5.727
 1505SOL    HW2 5415   5.983   0.837   5.661
 1506SOL     OW 5416   1.531   5.603   0.941
 1506SOL    HW1 5417   1.486   5.621   1.028
 1506SOL    HW2 5418   1.463   5.572   0.874
 1507SOL     OW 5419   1.054   1.904   5.600
 1507SOL    HW1 5420   1.119   1.829   5.585
 1507SOL    HW2 5421   0.968   1.866   5.636
 1508SOL     OW 5422   7.005   1.054   2.265
 1508SOL    HW1 5423   7.018   1.055   2.166
 1508SOL    HW2 5424   0.065   1.032   2.311
 1509SOL     OW 5425   4.280   2.479   5.904
 1509SOL    HW1 5426   4.311   2.427   5.983
 1509SOL    HW2 5427   4.263   2.574   5.931
 1510SOL     OW 5428   4.728   2.333   5.072
 1510SOL    HW1 5429   4.739   2.235   5.056
 1510SOL    HW2 5430   4.813   2.380   5.048
 1511SOL     OW 5431   3.330   3.157   1.502
 1511SOL    HW1 5432   3.332   3.181   1.599
 1511SOL    HW2 5433   3.353   3.060   1.491
 1512SOL     OW 5434   0.717   5.465   1.078
 1512SOL    HW1 5435   0.732   5.551   1.029
 1512SOL    HW2 5436   0.801   5.411   1.077
 1513SOL     OW 5437   3.347   0.314   4.009
 1513SOL    HW1 5438   3.443   0.326   3.983
 1513SOL    HW2 5439   3.333   0.221   4.042
 1514SOL     OW 5440   4.214   2.011   5.846
 1514SOL    HW1 5441   4.241   2.103   5.819
 1514SOL    HW2 5442   4.139   1.979   5.788
 1515SOL     OW 5443   5.715   2.026   4.170
 1515SOL    HW1 5444   5.745   2.117   4.198
 1515SOL    HW2 5445   5.625   2.032   4.127
 1516SOL     OW 5446   6.590   0.273   0.398
 1516SOL    HW1 5447   6.547   0.340   0.458
 1516SOL    HW2 5448   6.624   0.196   0.452
 1517SOL     OW 5449   4.694   6.102   3.904
 1517SOL    HW1 5450   4.773   6.127   3.959
 1517SOL    HW2 5451   4.627   6.054   3.960
 1518SOL     OW 5452   0.803   3.419   0.089
 1518SOL    HW1 5453   0.807   3.516   0.113
 1518SOL    HW2 5454   0.843   3.365   0.163
 1519SOL     OW 5455   6.135   4.928   1.790
 1519SOL    HW1 5456   6.164   4.840   1.826
 1519SOL    HW2 5457   6.041   4.921   1.756
 1520SOL     OW 5458   0.637   3.735   2.232
 1520SOL    HW1 5459   0.657   3.803   2.302
 1520SOL    HW2 5460   0.703   3.660   2.239
 1521SOL     OW 5461   1.685   4.303   6.639
 1521SOL    HW1 5462   1.600   4.252   6.630
 1521SOL    HW2 5463   1.763   4.240   6.637
 1522SOL     OW 5464   6.141   6.867   5.486
 1522SOL    HW1 5465   6.045   6.874   5.459
 1522SOL    HW2 5466   6.173   6.957   5.515
 1523SOL     OW 5467   5.285   4.967   0.960
 1523SOL    HW1 5468   5.211   4.912   0.922
 1523SOL    HW2 5469   5.350   4.908   1.008
 1524SOL     OW 5470   1.761   2.070   1.947
 1524SOL    HW1 5471   1.698   2.064   2.024
 1524SOL    HW2 5472   1.852   2.042   1.977
 1525SOL     OW 5473   6.817   2.304   0.160
 1525SOL    HW1 5474   6.748   2.376   0.153
 1525SOL    HW2 5475   6.873   2.303   0.077
 1526SOL     OW 5476   6.921   6.744   0.046
 1526SOL    HW1 5477   6.940   6.657   0.002
 1526SOL    HW2 5478   6.894   6.812   7.003
 1527SOL     OW 5479   3.454   1.427   4.949
 1527SOL    HW1 5480   3.386   1.370   4.995
 1527SOL    HW2 5481   3.410   1.479   4.876
 1528SOL     OW 5482   5.023   6.375   2.591
 1528SOL    HW1 5483   4.945   6.340   2.539
 1528SOL    HW2 5484   5.086   6.422   2.529
 1529SOL     OW 5485   3.554   0.441   0.021
 1529SOL    HW1 5486   3.523   0.525   7.002
 1529SOL    HW2 5487   3.646   0.419   7.015
 1530SOL     OW 5488   3.530   1.628   2.062
 1530SOL    HW1 5489   3.586   1.705   2.093
 1530SOL    HW2 5490   3.518   1.563   2.137
 1531SOL     OW 5491   4.374   1.009   4.552
 1531SOL    HW1 5492   4.387   1.049   4.462
 1531SOL    HW2 5493   4.422   1.063   4.621
 1532SOL     OW 5494   2.672   3.970   6.173
 1532SOL    HW1 5495   2.643   4.057   6.135
 1532SOL    HW2 5496   2.645   3.965   6.269
 1533SOL     OW 5497   6.696   3.263   0.226
 1533SOL    HW1 5498   6.690   3.238   0.129
 1533SOL    HW2 5499   6.656   3.191   0.282
 1534SOL     OW 5500   1.627   5.019   5.993
 1534SOL    HW1 5501   1.559   4.949   5.971
 1534SOL    HW2 5502   1.718   4.988   5.966
 1535SOL     OW 5503   4.915   6.427   3.920
 1535SOL    HW1 5504   4.862   6.488   3.979
 1535SOL    HW2 5505   4.902   6.332   3.949
 1536SOL     OW 5506   4.250   4.221   5.356
 1536SOL    HW1 5507   4.297   4.132   5.353
 1536SOL    HW2 5508   4.263   4.268   5.269
 1537SOL     OW 5509   4.378   6.404   3.490
 1537SOL    HW1 5510   4.351   6.348   3.412
 1537SOL    HW2 5511   4.401   6.345   3.567
 1538SOL     OW 5512   4.513   6.546   5.909
 1538SOL    HW1 5513   4.442   6.495   5.861
 1538SOL    HW2 5514   4.490   6.643   5.909
 1539SOL     OW 5515   4.151   3.869   1.964
 1539SOL    HW1 5516   4.190   3.889   2.053
 1539SOL    HW2 5517   4.089   3.944   1.937
 1540SOL     OW 5518   2.220   6.478   5.881
 1540SOL    HW1 5519   2.141   6.539   5.884
 1540SOL    HW2 5520   2.190   6.385   5.861
 1541SOL     OW 5521   3.430   2.842   2.196
 1541SOL    HW1 5522   3.439   2.798   2.285
 1541SOL    HW2 5523   3.334   2.841   2.168
 1542SOL     OW 5524   6.188   5.764   1.878
 1542SOL    HW1 5525   6.282   5.799   1.879
 1542SOL    HW2 5526   6.183   5.684   1.819
 1543SOL     OW 5527   3.690   4.281   5.183
 1543SOL    HW1 5528   3.622   4.222   5.226
 1543SOL    HW2 5529   3.771   4.227   5.159
 1544SOL     OW 5530   3.320   3.654   3.027
 1544SOL    HW1 5531   3.267   3.645   3.111
 1544SOL    HW2 5532   3.413   3.620   3.042
 1545SOL     OW 5533   5.010   0.891   4.155
 1545SOL    HW1 5534   4.919   0.858   4.181
 1545SOL    HW2 5535   5.005   0.939   4.068
 1546SOL     OW 5536   4.117   6.858   5.850
 1546SOL    HW1 5537   4.017   6.864   5.850
 1546SOL    HW2 5538   4.145   6.776   5.900
 1547SOL     OW 5539   1.325   3.654   2.966
 1547SOL    HW1 5540   1.407   3.615   2.925
 1547SOL    HW2 5541   1.330   3.647   3.065
 1548SOL     OW 5542   5.038   4.122   5.645
 1548SOL    HW1 5543   5.111   4.082   5.700
 1548SOL    HW2 5544   4.950   4.081   5.670
 1549SOL     OW 5545   4.312   1.061   3.290
 1549SOL    HW1 5546   4.270   1.052   3.199
 1549SOL    HW2 5547   4.409   1.039   3.284
 1550SOL     OW 5548   2.657   4.979   6.476
 1550SOL    HW1 5549   2.747   4.940   6.494
 1550SOL    HW2 5550   2.634   5.044   6.548
 1551SOL     OW 5551   2.021   4.247   6.642
 1551SOL    HW1 5552   2.109   4.293   6.650
 1551SOL    HW2 5553   1.957   4.306   6.592
 1552SOL     OW 5554   0.141   6.847   0.484
 1552SOL    HW1 5555   0.067   6.810   0.427
 1552SOL    HW2 5556   0.220   6.867   0.426
 1553SOL     OW 5557   0.556   1.333   5.580
 1553SOL    HW1 5558   0.562   1.244   5.534
 1553SOL    HW2 5559   0.536   1.319   5.677
 1554SOL     OW 5560   4.326   1.566   3.491
 1554SOL    HW1 5561   4.249   1.565   3.427
 1554SOL    HW2 5562   4.410   1.541   3.443
 1555SOL     OW 5563   4.745   2.060   0.561
 1555SOL    HW1 5564   4.671   1.993   0.554
 1555SOL    HW2 5565   4.832   2.013   0.564
 1556SOL     OW 5566   2.769   1.159   0.758
 1556SOL    HW1 5567   2.689   1.106   0.786
 1556SOL    HW2 5568   2.749   1.257   0.767
 1557SOL     OW 5569   2.090   1.143   6.554
 1557SOL    HW1 5570   2.144   1.224   6.533
 1557SOL    HW2 5571   2.028   1.163   6.630
 1558SOL     OW 5572   5.617   1.162   4.445
 1558SOL    HW1 5573   5.703   1.166   4.498
 1558SOL    HW2 5574   5.593   1.254   4.415
 1559SOL     OW 5575   0.392   2.628   0.061
 1559SOL    HW1 5576   0.486   2.599   0.043
 1559SOL    HW2 5577   0.329   2.553   0.041
 1560SOL     OW 5578   2.801   2.441   6.057
 1560SOL    HW1 5579   2.710   2.450   6.097
 1560SOL    HW2 5580   2.793   2.413   5.961
 1561SOL     OW 5581   6.940   5.955   2.874
 1561SOL    HW1 5582   6.993   5.986   2.795
 1561SOL    HW2 5583   6.862   6.015   2.888
 1562SOL     OW 5584   4.033   5.893   1.965
 1562SOL    HW1 5585   4.030   5.924   1.870
 1562SOL    HW2 5586   4.128   5.887   1.995
 1563SOL     OW 5587   2.371   0.783   6.056
 1563SOL    HW1 5588   2.400   0.691   6.031
 1563SOL    HW2 5589   2.327   0.827   5.978
 1564SOL     OW 5590   0.987   2.935   3.044
 1564SOL    HW1 5591   1.025   2.853   3.086
 1564SOL    HW2 5592   0.968   2.918   2.947
 1565SOL     OW 5593   4.214   5.199   4.343
 1565SOL    HW1 5594   4.233   5.168   4.250
 1565SOL    HW2 5595   4.288   5.258   4.374
 1566SOL     OW 5596   5.622   4.725   4.070
 1566SOL    HW1 5597   5.545   4.689   4.123
 1566SOL    HW2 5598   5.612   4.824   4.059
 1567SOL     OW 5599   6.253   6.368   0.263
 1567SOL    HW1 5600   6.224   6.372   0.358
 1567SOL    HW2 5601   6.322   6.296   0.251
 1568SOL     OW 5602   2.067   5.630   1.301
 1568SOL    HW1 5603   2.044   5.583   1.387
 1568SOL    HW2 5604   2.154   5.678   1.312
 1569SOL     OW 5605   2.886   6.819   3.438
 1569SOL    HW1 5606   2.905   6.913   3.407
 1569SOL    HW2 5607   2.940   6.755   3.384
 1570SOL     OW 5608   2.045   6.914   0.658
 1570SOL    HW1 5609   2.083   6.891   0.747
 1570SOL    HW2 5610   2.100   6.872   0.586
 1571SOL     OW 5611   6.060   1.495   2.502
 1571SOL    HW1 5612   6.017   1.425   2.446
 1571SOL    HW2 5613   6.159   1.479   2.506
 1572SOL     OW 5614   1.270   5.993   0.502
 1572SOL    HW1 5615   1.355   5.950   0.534
 1572SOL    HW2 5616   1.238   5.944   0.421
 1573SOL     OW 5617   6.043   3.198   1.859
 1573SOL    HW1 5618   6.104   3.184   1.782
 1573SOL    HW2 5619   6.079   3.271   1.917
 1574SOL     OW 5620   6.905   1.381   3.017
 1574SOL    HW1 5621   6.918   1.373   3.116
 1574SOL    HW2 5622   6.993   1.396   2.973
 1575SOL     OW 5623   2.713   2.322   1.509
 1575SOL    HW1 5624   2.681   2.232   1.479
 1575SOL    HW2 5625   2.813   2.321   1.512
 1576SOL     OW 5626   0.906   0.948   3.045
 1576SOL    HW1 5627   0.847   1.015   3.090
 1576SOL    HW2 5628   0.850   0.885   2.991
 1577SOL     OW 5629   2.943   0.678   5.464
 1577SOL    HW1 5630   2.915   0.773   5.458
 1577SOL    HW2 5631   2.916   0.641   5.553
 1578SOL     OW 5632   5.803   2.822   6.283
 1578SOL    HW1 5633   5.763   2.812   6.192
 1578SOL    HW2 5634   5.737   2.864   6.344
 1579SOL     OW 5635   0.673   2.002   2.315
 1579SOL    HW1 5636   0.752   2.056   2.287
 1579SOL    HW2 5637   0.593   2.031   2.264
 1580SOL     OW 5638   3.314   4.103   3.826
 1580SOL    HW1 5639   3.337   4.158   3.907
 1580SOL    HW2 5640   3.258   4.024   3.854
 1581SOL     OW 5641   6.481   4.359   5.117
 1581SOL    HW1 5642   6.432   4.287   5.067
 1581SOL    HW2 5643   6.515   4.427   5.052
 1582SOL     OW 5644   2.477   6.841   4.044
 1582SOL    HW1 5645   2.454   6.935   4.019
 1582SOL    HW2 5646   2.402   6.802   4.098
 1583SOL     OW 5647   1.024   5.446   2.942
 1583SOL    HW1 5648   1.124   5.440   2.939
 1583SOL    HW2 5649   0.985   5.357   2.919
 1584SOL     OW 5650   0.694   6.247   6.439
 1584SOL    HW1 5651   0.781   6.221   6.397
 1584SOL    HW2 5652   0.657   6.168   6.489
 1585SOL     OW 5653   4.740   1.631   3.644
 1585SOL    HW1 5654   4.662   1.581   3.606
 1585SOL    HW2 5655   4.773   1.696   3.576
 1586SOL     OW 5656   3.205   4.857   1.798
 1586SOL    HW1 5657   3.302   4.845   1.776
 1586SOL    HW2 5658   3.174   4.946   1.764
 1587SOL     OW 5659   3.042   6.034   6.147
 1587SOL    HW1 5660   3.121   5.977   6.170
 1587SOL    HW2 5661   2.958   5.987   6.172
 1588SOL     OW 5662   3.914   0.947   2.676
 1588SOL    HW1 5663   3.930   1.035   2.721
 1588SOL    HW2 5664   3.816   0.937   2.658
 1589SOL     OW 5665   6.742   3.079   1.978
 1589SOL    HW1 5666   6.670   3.019   2.014
 1589SOL    HW2 5667   6.774   3.043   1.890
 1590SOL     OW 5668   4.329   0.145   5.238
 1590SOL    HW1 5669   4.402   0.203   5.273
 1590SOL    HW2 5670   4.339   0.132   5.140
 1591SOL     OW 5671   6.806   5.200   1.888
 1591SOL    HW1 5672   6.709   5.177   1.898
 1591SOL    HW2 5673   6.837   5.246   1.972
 1592SOL     OW 5674   1.863   3.702   0.008
 1592SOL    HW1 5675   1.929   3.716   0.083
 1592SOL    HW2 5676   1.833   3.791   6.999
 1593SOL     OW 5677   1.013   6.532   5.271
 1593SOL    HW1 5678   1.098   6.585   5.265
 1593SOL    HW2 5679   1.006   6.491   5.361
 1594SOL     OW 5680   0.642   6.390   1.698
 1594SOL    HW1 5681   0.602   6.404   1.607
 1594SOL    HW2 5682   0.571   6.365   1.763
 1595SOL     OW 5683   1.713   4.957   0.182
 1595SOL    HW1 5684   1.629   4.921   0.222
 1595SOL    HW2 5685   1.740   5.040   0.231
 1596SOL     OW 5686   0.057   2.349   3.955
 1596SOL    HW1 5687   0.037   2.293   3.875
 1596SOL    HW2 5688   6.996   2.374   4.000
 1597SOL     OW 5689   1.497   6.435   0.210
 1597SOL    HW1 5690   1.525   6.469   0.120
 1597SOL    HW2 5691   1.456   6.344   0.200
 1598SOL     OW 5692   0.161   4.541   5.797
 1598SOL    HW1 5693   0.259   4.521   5.799
 1598SOL    HW2 5694   0.131   4.553   5.703
 1599SOL     OW 5695   4.927   5.071   4.969
 1599SOL    HW1 5696   4.830   5.056   4.991
 1599SOL    HW2 5697   4.936   5.155   4.916
 1600SOL     OW 5698   3.894   1.216   3.296
 1600SOL    HW1 5699   3.859   1.286   3.358
 1600SOL    HW2 5700   3.994   1.215   3.299
 1601SOL     OW 5701   6.702   5.802   4.570
 1601SOL    HW1 5702   6.640   5.820   4.646
 1601SOL    HW2 5703   6.653   5.755   4.497
 1602SOL     OW 5704   3.975   6.016   3.376
 1602SOL    HW1 5705   3.888   6.029   3.423
 1602SOL    HW2 5706   3.959   5.999   3.279
 1603SOL     OW 5707   1.371   6.083   3.635
 1603SOL    HW1 5708   1.465   6.102   3.606
 1603SOL    HW2 5709   1.333   6.008   3.580
 1604SOL     OW 5710   6.106   4.373   1.533
 1604SOL    HW1 5711   6.045   4.404   1.460
 1604SOL    HW2 5712   6.061   4.301   1.586
 1605SOL     OW 5713   6.399   5.097   1.621
 1605SOL    HW1 5714   6.357   5.009   1.600
 1605SOL    HW2 5715   6.499   5.087   1.618
 1606SOL     OW 5716   3.900   0.881   5.703
 1606SOL    HW1 5717   3.919   0.899   5.800
 1606SOL    HW2 5718   3.985   0.862   5.655
 1607SOL     OW 5719   4.408   1.303   1.109
 1607SOL    HW1 5720   4.390   1.225   1.169
 1607SOL    HW2 5721   4.322   1.346   1.083
 1608SOL     OW 5722   1.331   1.163   3.643
 1608SOL    HW1 5723   1.242   1.131   3.614
 1608SOL    HW2 5724   1.349   1.254   3.604
 1609SOL     OW 5725   4.348   0.272   0.420
 1609SOL    HW1 5726   4.382   0.207   0.488
 1609SOL    HW2 5727   4.409   0.271   0.340
 1610SOL     OW 5728   6.135   4.714   6.450
 1610SOL    HW1 5729   6.139   4.657   6.532
 1610SOL    HW2 5730   6.092   4.663   6.376
 1611SOL     OW 5731   2.426   3.846   1.225
 1611SOL    HW1 5732   2.480   3.783   1.281
 1611SOL    HW2 5733   2.488   3.908   1.177
 1612SOL     OW 5734   2.845   6.768   6.608
 1612SOL    HW1 5735   2.792   6.683   6.607
 1612SOL    HW2 5736   2.788   6.842   6.643
 1613SOL     OW 5737   1.193   5.725   1.853
 1613SOL    HW1 5738   1.293   5.715   1.856
 1613SOL    HW2 5739   1.168   5.774   1.769
 1614SOL     OW 5740   5.378   3.010   0.060
 1614SOL    HW1 5741   5.322   2.927   0.054
 1614SOL    HW2 5742   5.378   3.057   6.997
 1615SOL     OW 5743   5.671   5.417   0.625
 1615SOL    HW1 5744   5.727   5.492   0.590
 1615SOL    HW2 5745   5.715   5.330   0.603
 1616SOL     OW 5746   3.236   1.364   5.112
 1616SOL    HW1 5747   3.147   1.398   5.083
 1616SOL    HW2 5748   3.245   1.374   5.212
 1617SOL     OW 5749   6.221   6.825   3.050
 1617SOL    HW1 5750   6.143   6.849   3.107
 1617SOL    HW2 5751   6.278   6.907   3.036
 1618SOL     OW 5752   1.633   4.993   1.744
 1618SOL    HW1 5753   1.576   5.052   1.687
 1618SOL    HW2 5754   1.616   5.012   1.841
 1619SOL     OW 5755   1.197   4.140   2.105
 1619SOL    HW1 5756   1.124   4.072   2.108
 1619SOL    HW2 5757   1.285   4.095   2.121
 1620SOL     OW 5758   2.837   4.808   1.779
 1620SOL    HW1 5759   2.867   4.883   1.836
 1620SOL    HW2 5760   2.830   4.725   1.834
 1621SOL     OW 5761   6.987   1.181   0.730
 1621SOL    HW1 5762   0.048   1.131   0.734
 1621SOL    HW2 5763   6.944   1.180   0.821
 1622SOL     OW 5764   0.396   2.980   4.956
 1622SOL    HW1 5765   0.476   2.995   4.898
 1622SOL    HW2 5766   0.426   2.950   5.047
 1623SOL     OW 5767   2.156   3.137   5.042
 1623SOL    HW1 5768   2.184   3.229   5.069
 1623SOL    HW2 5769   2.236   3.082   5.021
 1624SOL     OW 5770   3.259   0.936   5.273
 1624SOL    HW1 5771   3.313   1.001   5.325
 1624SOL    HW2 5772   3.177   0.982   5.237
 1625SOL     OW 5773   1.077   5.130   6.912
 1625SOL    HW1 5774   1.152   5.084   6.959
 1625SOL    HW2 5775   1.114   5.194   6.845
 1626SOL     OW 5776   4.096   1.907   0.152
 1626SOL    HW1 5777   4.110   1.816   0.190
 1626SOL    HW2 5778   4.023   1.954   0.203
 1627SOL     OW 5779   6.299   3.560   3.206
 1627SOL    HW1 5780   6.343   3.630   3.151
 1627SOL    HW2 5781   6.267   3.486   3.147
 1628SOL     OW 5782   5.040   4.339   0.082
 1628SOL    HW1 5783   4.958   4.367   0.131
 1628SOL    HW2 5784   5.029   4.359   7.010
 1629SOL     OW 5785   3.157   0.909   4.294
 1629SOL    HW1 5786   3.166   1.001   4.256
 1629SOL    HW2 5787   3.231   0.893   4.360
 1630SOL     OW 5788   1.146   4.767   5.502
 1630SOL    HW1 5789   1.165   4.709   5.581
 1630SOL    HW2 5790   1.165   4.862   5.525
 1631SOL     OW 5791   1.525   3.116   0.042
 1631SOL    HW1 5792   1.514   3.162   6.980
 1631SOL    HW2 5793   1.454   3.146   0.105
 1632SOL     OW 5794   6.508   2.463   0.521
 1632SOL    HW1 5795   6.444   2.398   0.481
 1632SOL    HW2 5796   6.599   2.448   0.483
 1633SOL     OW 5797   5.489   3.429   4.330
 1633SOL    HW1 5798   5.490   3.489   4.411
 1633SOL    HW2 5799   5.568   3.368   4.332
 1634SOL     OW 5800   4.247   5.536   5.103
 1634SOL    HW1 5801   4.238   5.523   5.202
 1634SOL    HW2 5802   4.297   5.621   5.085
 1635SOL     OW 5803   6.931   4.867   6.327
 1635SOL    HW1 5804   6.876   4.866   6.244
 1635SOL    HW2 5805   6.911   4.786   6.382
 1636SOL     OW 5806   2.717   4.389   1.655
 1636SOL    HW1 5807   2.655   4.450   1.704
 1636SOL    HW2 5808   2.802   4.380   1.707
 1637SOL     OW 5809   1.000   0.374   2.577
 1637SOL    HW1 5810   0.928   0.306   2.582
 1637SOL    HW2 5811   1.046   0.381   2.666
 1638SOL     OW 5812   0.029   4.239   3.426
 1638SOL    HW1 5813   0.041   4.163   3.490
 1638SOL    HW2 5814   6.961   4.239   3.390
 1639SOL     OW 5815   4.875   6.806   2.245
 1639SOL    HW1 5816   4.959   6.770   2.205
 1639SOL    HW2 5817   4.797   6.776   2.190
 1640SOL     OW 5818   6.397   0.671   0.056
 1640SOL    HW1 5819   6.451   0.633   0.131
 1640SOL    HW2 5820   6.320   0.609   0.036
 1641SOL     OW 5821   4.748   2.334   3.530
 1641SOL    HW1 5822   4.654   2.363   3.515
 1641SOL    HW2 5823   4.804   2.414   3.554
 1642SOL     OW 5824   6.388   3.450   6.326
 1642SOL    HW1 5825   6.417   3.380   6.261
 1642SOL    HW2 5826   6.391   3.540   6.282
 1643SOL     OW 5827   2.892   4.872   5.058
 1643SOL    HW1 5828   2.988   4.852   5.075
 1643SOL    HW2 5829   2.841   4.787   5.049
 1644SOL     OW 5830   6.218   3.594   0.658
 1644SOL    HW1 5831   6.256   3.686   0.645
 1644SOL    HW2 5832   6.244   3.536   0.581
 1645SOL     OW 5833   3.319   5.463   5.540
 1645SOL    HW1 5834   3.279   5.409   5.614
 1645SOL    HW2 5835   3.326   5.559   5.568
 1646SOL     OW 5836   2.948   6.552   0.393
 1646SOL    HW1 5837   3.023   6.609   0.358
 1646SOL    HW2 5838   2.871   6.611   0.419
 1647SOL     OW 5839   5.858   3.046   4.639
 1647SOL    HW1 5840   5.786   3.115   4.645
 1647SOL    HW2 5841   5.844   2.990   4.558
 1648SOL     OW 5842   5.114   5.196   0.848
 1648SOL    HW1 5843   5.150   5.113   0.891
 1648SOL    HW2 5844   5.184   5.267   0.849
 1649SOL     OW 5845   3.382   0.819   4.472
 1649SOL    HW1 5846   3.440   0.741   4.499
 1649SOL    HW2 5847   3.393   0.892   4.539
 1650SOL     OW 5848   1.707   6.248   5.735
 1650SOL    HW1 5849   1.785   6.284   5.683
 1650SOL    HW2 5850   1.665   6.173   5.684
 1651SOL     OW 5851   0.426   1.901   1.727
 1651SOL    HW1 5852   0.428   1.927   1.823
 1651SOL    HW2 5853   0.520   1.899   1.691
 1652SOL     OW 5854   0.988   3.806   2.606
 1652SOL    HW1 5855   0.899   3.772   2.575
 1652SOL    HW2 5856   1.006   3.894   2.563
 1653SOL     OW 5857   0.899   6.969   1.002
 1653SOL    HW1 5858   0.907   6.906   1.079
 1653SOL    HW2 5859   0.837   6.931   0.934
 1654SOL     OW 5860   0.657   3.912   1.546
 1654SOL    HW1 5861   0.688   3.829   1.499
 1654SOL    HW2 5862   0.578   3.949   1.498
 1655SOL     OW 5863   0.351   2.433   5.153
 1655SOL    HW1 5864   0.399   2.406   5.237
 1655SOL    HW2 5865   0.287   2.361   5.126
 1656SOL     OW 5866   2.699   4.674   2.207
 1656SOL    HW1 5867   2.635   4.741   2.170
 1656SOL    HW2 5868   2.756   4.638   2.133
 1657SOL     OW 5869   0.267   1.115   3.278
 1657SOL    HW1 5870   0.331   1.168   3.221
 1657SOL    HW2 5871   0.179   1.108   3.232
 1658SOL     OW 5872   6.937   5.874   1.034
 1658SOL    HW1 5873   6.907   5.968   1.018
 1658SOL    HW2 5874   0.011   5.870   1.038
 1659SOL     OW 5875   3.950   0.095   6.361
 1659SOL    HW1 5876   3.867   0.128   6.316
 1659SOL    HW2 5877   4.017   0.068   6.291
 1660SOL     OW 5878   0.637   5.178   3.691
 1660SOL    HW1 5879   0.694   5.168   3.610
 1660SOL    HW2 5880   0.661   5.107   3.757
 1661SOL     OW 5881   2.543   0.421   1.908
 1661SOL    HW1 5882   2.617   0.362   1.941
 1661SOL    HW2 5883   2.511   0.388   1.820
 1662SOL     OW 5884   6.726   0.928   4.393
 1662SOL    HW1 5885   6.811   0.968   4.427
 1662SOL    HW2 5886   6.657   0.930   4.465
 1663SOL     OW 5887   4.561   6.176   2.780
 1663SOL    HW1 5888   4.552   6.076   2.789
 1663SOL    HW2 5889   4.657   6.201   2.790
 1664SOL     OW 5890   1.924   0.360   4.662
 1664SOL    HW1 5891   1.903   0.455   4.637
 1664SOL    HW2 5892   1.868   0.333   4.740
 1665SOL     OW 5893   0.381   1.720   2.807
 1665SOL    HW1 5894   0.310   1.782   2.774
 1665SOL    HW2 5895   0.353   1.682   2.896
 1666SOL     OW 5896   5.594   2.173   6.757
 1666SOL    HW1 5897   5.684   2.217   6.764
 1666SOL    HW2 5898   5.545   2.183   6.843
 1667SOL     OW 5899   6.958   5.947   1.313
 1667SOL    HW1 5900   0.026   5.978   1.293
 1667SOL    HW2 5901   6.912   5.925   1.227
 1668SOL     OW 5902   5.255   6.516   4.938
 1668SOL    HW1 5903   5.158   6.526   4.957
 1668SOL    HW2 5904   5.282   6.578   4.864
 1669SOL     OW 5905   6.425   5.479   6.433
 1669SOL    HW1 5906   6.520   5.452   6.419
 1669SOL    HW2 5907   6.421   5.573   6.465
 1670SOL     OW 5908   0.118   3.945   5.524
 1670SOL    HW1 5909   0.204   3.896   5.539
 1670SOL    HW2 5910   0.056   3.928   5.600
 1671SOL     OW 5911   5.154   1.355   1.600
 1671SOL    HW1 5912   5.159   1.296   1.681
 1671SOL    HW2 5913   5.217   1.431   1.610
 1672SOL     OW 5914   1.793   3.075   0.861
 1672SOL    HW1 5915   1.883   3.051   0.826
 1672SOL    HW2 5916   1.799   3.159   0.916
 1673SOL     OW 5917   1.045   1.695   4.372
 1673SOL    HW1 5918   0.989   1.659   4.298
 1673SOL    HW2 5919   1.131   1.729   4.336
 1674SOL     OW 5920   0.751   3.442   2.396
 1674SOL    HW1 5921   0.793   3.434   2.306
 1674SOL    HW2 5922   0.798   3.381   2.460
 1675SOL     OW 5923   4.864   0.044   6.812
 1675SOL    HW1 5924   4.839   6.973   6.825
 1675SOL    HW2 5925   4.783   0.101   6.828
 1676SOL     OW 5926   2.058   2.459   1.718
 1676SOL    HW1 5927   2.156   2.462   1.739
 1676SOL    HW2 5928   2.018   2.550   1.732
 1677SOL     OW 5929   3.078   3.954   4.616
 1677SOL    HW1 5930   3.048   3.913   4.530
 1677SOL    HW2 5931   3.047   3.897   4.693
 1678SOL     OW 5932   5.168   4.129   4.255
 1678SOL    HW1 5933   5.179   4.153   4.159
 1678SOL    HW2 5934   5.073   4.107   4.274
 1679SOL     OW 5935   2.277   2.335   4.372
 1679SOL    HW1 5936   2.371   2.305   4.356
 1679SOL    HW2 5937   2.278   2.417   4.430
 1680SOL     OW 5938   6.975   2.543   4.689
 1680SOL    HW1 5939   0.001   2.584   4.614
 1680SOL    HW2 5940   0.012   2.519   4.763
 1681SOL     OW 5941   6.596   5.619   0.315
 1681SOL    HW1 5942   6.597   5.698   0.253
 1681SOL    HW2 5943   6.507   5.574   0.310
 1682SOL     OW 5944   1.405   0.939   4.463
 1682SOL    HW1 5945   1.433   0.988   4.545
 1682SOL    HW2 5946   1.378   1.004   4.392
 1683SOL     OW 5947   4.903   5.192   1.349
 1683SOL    HW1 5948   4.987   5.172   1.401
 1683SOL    HW2 5949   4.853   5.107   1.333
 1684SOL     OW 5950   1.675   5.774   2.178
 1684SOL    HW1 5951   1.580   5.797   2.201
 1684SOL    HW2 5952   1.715   5.847   2.124
 1685SOL     OW 5953   2.755   0.772   4.673
 1685SOL    HW1 5954   2.757   0.676   4.646
 1685SOL    HW2 5955   2.662   0.807   4.665
 1686SOL     OW 5956   3.127   6.003   4.836
 1686SOL    HW1 5957   3.142   6.032   4.930
 1686SOL    HW2 5958   3.039   6.039   4.804
 1687SOL     OW 5959   2.109   3.693   1.483
 1687SOL    HW1 5960   2.143   3.783   1.454
 1687SOL    HW2 5961   2.101   3.691   1.583
 1688SOL     OW 5962   2.296   2.784   4.277
 1688SOL    HW1 5963   2.303   2.807   4.180
 1688SOL    HW2 5964   2.220   2.835   4.317
 1689SOL     OW 5965   5.741   1.417   2.940
 1689SOL    HW1 5966   5.808   1.462   2.881
 1689SOL    HW2 5967   5.767   1.321   2.951
 1690SOL     OW 5968   1.665   2.926   3.739
 1690SOL    HW1 5969   1.627   2.936   3.831
 1690SOL    HW2 5970   1.765   2.918   3.745
 1691SOL     OW 5971   5.969   3.537   3.602
 1691SOL    HW1 5972   6.042   3.534   3.534
 1691SOL    HW2 5973   5.990   3.476   3.677
 1692SOL     OW 5974   5.642   6.575   1.466
 1692SOL    HW1 5975   5.637   6.476   1.475
 1692SOL    HW2 5976   5.730   6.607   1.502
 1693SOL     OW 5977   6.995   2.065   2.006
 1693SOL    HW1 5978   6.968   2.108   2.092
 1693SOL    HW2 5979   0.034   1.990   2.024
 1694SOL     OW 5980   5.225   0.352   2.698
 1694SOL    HW1 5981   5.207   0.292   2.776
 1694SOL    HW2 5982   5.304   0.410   2.718
 1695SOL     OW 5983   3.696   1.108   5.324
 1695SOL    HW1 5984   3.647   1.171   5.264
 1695SOL    HW2 5985   3.795   1.121   5.312
 1696SOL     OW 5986   4.348   4.360   0.504
 1696SOL    HW1 5987   4.392   4.272   0.522
 1696SOL    HW2 5988   4.367   4.422   0.580
 1697SOL     OW 5989   5.780   0.313   0.755
 1697SOL    HW1 5990   5.807   0.233   0.702
 1697SOL    HW2 5991   5.733   0.284   0.838
 1698SOL     OW 5992   4.212   0.467   0.610
 1698SOL    HW1 5993   4.286   0.520   0.571
 1698SOL    HW2 5994   4.224   0.370   0.587
 1699SOL     OW 5995   1.754   0.568   0.904
 1699SOL    HW1 5996   1.740   0.583   1.002
 1699SOL    HW2 5997   1.775   0.472   0.888
 1700SOL     OW 5998   5.547   2.665   3.649
 1700SOL    HW1 5999   5.558   2.578   3.601
 1700SOL    HW2 6000   5.474   2.718   3.607
 1701SOL     OW 6001   4.525   4.350   6.182
 1701SOL    HW1 6002   4.560   4.437   6.147
 1701SOL    HW2 6003   4.428   4.359   6.203
 1702SOL     OW 6004   6.751   2.388   0.405
 1702SOL    HW1 6005   6.784   2.482   0.400
 1702SOL    HW2 6006   6.788   2.335   0.329
 1703SOL     OW 6007   2.991   2.669   1.743
 1703SOL    HW1 6008   2.982   2.593   1.808
 1703SOL    HW2 6009   2.901   2.710   1.728
 1704SOL     OW 6010   1.324   2.547   0.969
 1704SOL    HW1 6011   1.287   2.622   0.914
 1704SOL    HW2 6012   1.289   2.553   1.063
 1705SOL     OW 6013   3.416   1.782   1.596
 1705SOL    HW1 6014   3.466   1.715   1.541
 1705SOL    HW2 6015   3.404   1.746   1.689
 1706SOL     OW 6016   4.636   1.011   2.226
 1706SOL    HW1 6017   4.614   0.943   2.155
 1706SOL    HW2 6018   4.713   0.979   2.281
 1707SOL     OW 6019   5.126   2.119   2.315
 1707SOL    HW1 6020   5.206   2.060   2.328
 1707SOL    HW2 6021   5.155   2.209   2.284
 1708SOL     OW 6022   4.941   5.475   1.437
 1708SOL    HW1 6023   4.929   5.384   1.397
 1708SOL    HW2 6024   4.860   5.530   1.418
 1709SOL     OW 6025   3.342   5.773   2.348
 1709SOL    HW1 6026   3.414   5.750   2.283
 1709SOL    HW2 6027   3.256   5.790   2.299
 1710SOL     OW 6028   5.219   5.309   4.145
 1710SOL    HW1 6029   5.126   5.272   4.147
 1710SOL    HW2 6030   5.219   5.400   4.186
 1711SOL     OW 6031   1.260   4.356   3.989
 1711SOL    HW1 6032   1.250   4.305   3.903
 1711SOL    HW2 6033   1.170   4.391   4.016
 1712SOL     OW 6034   6.706   2.546   5.361
 1712SOL    HW1 6035   6.721   2.610   5.437
 1712SOL    HW2 6036   6.681   2.457   5.397
 1713SOL     OW 6037   4.620   2.796   1.504
 1713SOL    HW1 6038   4.530   2.837   1.511
 1713SOL    HW2 6039   4.687   2.852   1.553
 1714SOL     OW 6040   3.405   1.600   5.622
 1714SOL    HW1 6041   3.448   1.687   5.596
 1714SOL    HW2 6042   3.315   1.619   5.663
 1715SOL     OW 6043   0.164   5.570   3.038
 1715SOL    HW1 6044   0.065   5.561   3.023
 1715SOL    HW2 6045   0.201   5.636   2.974
 1716SOL     OW 6046   4.930   6.809   2.891
 1716SOL    HW1 6047   4.946   6.728   2.835
 1716SOL    HW2 6048   4.993   6.882   2.863
 1717SOL     OW 6049   2.450   6.859   5.839
 1717SOL    HW1 6050   2.445   6.759   5.827
 1717SOL    HW2 6051   2.544   6.886   5.856
 1718SOL     OW 6052   2.270   1.999   1.271
 1718SOL    HW1 6053   2.174   2.023   1.260
 1718SOL    HW2 6054   2.286   1.965   1.363
 1719SOL     OW 6055   1.597   3.314   0.840
 1719SOL    HW1 6056   1.602   3.408   0.873
 1719SOL    HW2 6057   1.677   3.293   0.783
 1720SOL     OW 6058   0.220   3.146   6.970
 1720SOL    HW1 6059   0.250   3.052   6.955
 1720SOL    HW2 6060   0.293   3.198   7.014
 1721SOL     OW 6061   1.609   6.131   1.490
 1721SOL    HW1 6062   1.576   6.213   1.538
 1721SOL    HW2 6063   1.557   6.051   1.521
 1722SOL     OW 6064   3.796   1.321   3.645
 1722SOL    HW1 6065   3.890   1.315   3.612
 1722SOL    HW2 6066   3.776   1.414   3.674
 1723SOL     OW 6067   6.239   2.424   2.791
 1723SOL    HW1 6068   6.197   2.334   2.782
 1723SOL    HW2 6069   6.321   2.429   2.734
 1724SOL     OW 6070   6.827   2.742   1.585
 1724SOL    HW1 6071   6.795   2.755   1.678
 1724SOL    HW2 6072   6.849   2.831   1.545
 1725SOL     OW 6073   1.485   4.683   6.244
 1725SOL    HW1 6074   1.537   4.625   6.307
 1725SOL    HW2 6075   1.425   4.743   6.297
 1726SOL     OW 6076   5.625   4.660   5.105
 1726SOL    HW1 6077   5.572   4.746   5.102
 1726SOL    HW2 6078   5.692   4.666   5.179
 1727SOL     OW 6079   3.392   2.907   3.871
 1727SOL    HW1 6080   3.305   2.945   3.904
 1727SOL    HW2 6081   3.385   2.808   3.867
 1728SOL     OW 6082   5.122   4.737   5.344
 1728SOL    HW1 6083   5.076   4.707   5.428
 1728SOL    HW2 6084   5.143   4.657   5.288
 1729SOL     OW 6085   2.480   4.454   3.005
 1729SOL    HW1 6086   2.417   4.427   3.079
 1729SOL    HW2 6087   2.570   4.473   3.044
 1730SOL     OW 6088   0.977   6.648   5.772
 1730SOL    HW1 6089   0.919   6.729   5.769
 1730SOL    HW2 6090   1.069   6.672   5.743
 1731SOL     OW 6091   6.766   3.757   2.944
 1731SOL    HW1 6092   6.737   3.689   3.011
 1731SOL    HW2 6093   6.815   3.831   2.991
 1732SOL     OW 6094   2.407   5.640   5.486
 1732SOL    HW1 6095   2.309   5.642   5.467
 1732SOL    HW2 6096   2.455   5.599   5.409
 1733SOL     OW 6097   2.001   4.816   1.372
 1733SOL    HW1 6098   1.975   4.875   1.448
 1733SOL    HW2 6099   2.098   4.831   1.349
 1734SOL     OW 6100   4.406   3.099   0.994
 1734SOL    HW1 6101   4.442   3.168   1.057
 1734SOL    HW2 6102   4.461   3.015   1.002
 1735SOL     OW 6103   5.119   5.949   0.468
 1735SOL    HW1 6104   5.043   6.014   0.473
 1735SOL    HW2 6105   5.088   5.859   0.501
 1736SOL     OW 6106   3.160   3.203   0.160
 1736SOL    HW1 6107   3.134   3.109   0.136
 1736SOL    HW2 6108   3.208   3.203   0.247
 1737SOL     OW 6109   2.901   1.366   4.369
 1737SOL    HW1 6110   2.973   1.432   4.393
 1737SOL    HW2 6111   2.892   1.299   4.443
 1738SOL     OW 6112   2.071   2.506   4.106
 1738SOL    HW1 6113   1.985   2.461   4.079
 1738SOL    HW2 6114   2.099   2.472   4.196
 1739SOL     OW 6115   0.286   2.138   5.439
 1739SOL    HW1 6116   0.358   2.201   5.412
 1739SOL    HW2 6117   0.197   2.181   5.426
 1740SOL     OW 6118   0.137   1.690   5.657
 1740SOL    HW1 6119   0.153   1.596   5.626
 1740SOL    HW2 6120   0.074   1.688   5.735
 1741SOL     OW 6121   2.481   0.671   3.673
 1741SOL    HW1 6122   2.498   0.734   3.597
 1741SOL    HW2 6123   2.480   0.577   3.639
 1742SOL     OW 6124   5.535   0.463   6.234
 1742SOL    HW1 6125   5.551   0.378   6.284
 1742SOL    HW2 6126   5.597   0.468   6.156
 1743SOL     OW 6127   1.135   2.321   1.189
 1743SOL    HW1 6128   1.147   2.420   1.195
 1743SOL    HW2 6129   1.052   2.300   1.137
 1744SOL     OW 6130   6.498   1.568   2.703
 1744SOL    HW1 6131   6.524   1.484   2.655
 1744SOL    HW2 6132   6.405   1.559   2.737
 1745SOL     OW 6133   6.088   5.999   2.689
 1745SOL    HW1 6134   6.157   5.927   2.685
 1745SOL    HW2 6135   6.134   6.088   2.692
 1746SOL     OW 6136   1.197   4.443   4.655
 1746SOL    HW1 6137   1.286   4.428   4.699
 1746SOL    HW2 6138   1.130   4.468   4.725
 1747SOL     OW 6139   4.898   1.622   3.010
 1747SOL    HW1 6140   4.924   1.624   2.913
 1747SOL    HW2 6141   4.909   1.529   3.045
 1748SOL     OW 6142   1.234   1.102   5.287
 1748SOL    HW1 6143   1.214   1.097   5.189
 1748SOL    HW2 6144   1.210   1.016   5.331
 1749SOL     OW 6145   2.545   0.524   4.867
 1749SOL    HW1 6146   2.546   0.541   4.768
 1749SOL    HW2 6147   2.504   0.434   4.885
 1750SOL     OW 6148   5.289   6.246   4.284
 1750SOL    HW1 6149   5.246   6.194   4.357
 1750SOL    HW2 6150   5.329   6.330   4.322
 1751SOL     OW 6151   4.111   6.476   5.201
 1751SOL    HW1 6152   4.112   6.573   5.176
 1751SOL    HW2 6153   4.195   6.454   5.250
 1752SOL     OW 6154   6.892   2.017   1.483
 1752SOL    HW1 6155   6.900   1.918   1.488
 1752SOL    HW2 6156   6.941   2.058   1.560
 1753SOL     OW 6157   0.368   1.173   0.722
 1753SOL    HW1 6158   0.316   1.135   0.798
 1753SOL    HW2 6159   0.402   1.264   0.746
 1754SOL     OW 6160   1.429   4.511   6.975
 1754SOL    HW1 6161   1.516   4.495   6.928
 1754SOL    HW2 6162   1.395   4.424   7.013
 1755SOL     OW 6163   6.948   5.956   2.382
 1755SOL    HW1 6164   6.926   5.910   2.296
 1755SOL    HW2 6165   0.016   5.992   2.377
 1756SOL     OW 6166   4.379   5.846   5.991
 1756SOL    HW1 6167   4.377   5.882   5.898
 1756SOL    HW2 6168   4.302   5.783   6.004
 1757SOL     OW 6169   2.742   5.698   4.906
 1757SOL    HW1 6170   2.789   5.753   4.837
 1757SOL    HW2 6171   2.692   5.624   4.862
 1758SOL     OW 6172   2.026   0.012   4.027
 1758SOL    HW1 6173   2.124   0.032   4.019
 1758SOL    HW2 6174   1.981   0.086   4.078
 1759SOL     OW 6175   1.574   5.797   6.220
 1759SOL    HW1 6176   1.573   5.745   6.306
 1759SOL    HW2 6177   1.668   5.803   6.186
 1760SOL     OW 6178   5.315   1.339   3.041
 1760SOL    HW1 6179   5.400   1.314   3.088
 1760SOL    HW2 6180   5.290   1.432   3.067
 1761SOL     OW 6181   0.310   0.452   0.918
 1761SOL    HW1 6182   0.358   0.367   0.939
 1761SOL    HW2 6183   0.376   0.522   0.893
 1762SOL     OW 6184   0.457   1.094   4.933
 1762SOL    HW1 6185   0.413   1.183   4.936
 1762SOL    HW2 6186   0.395   1.024   4.968
 1763SOL     OW 6187   1.306   3.361   3.594
 1763SOL    HW1 6188   1.215   3.340   3.559
 1763SOL    HW2 6189   1.362   3.278   3.595
 1764SOL     OW 6190   2.107   3.720   2.705
 1764SOL    HW1 6191   2.092   3.816   2.729
 1764SOL    HW2 6192   2.135   3.714   2.609
 1765SOL     OW 6193   3.498   0.921   0.969
 1765SOL    HW1 6194   3.461   0.829   0.957
 1765SOL    HW2 6195   3.597   0.915   0.985
 1766SOL     OW 6196   4.885   3.928   2.359
 1766SOL    HW1 6197   4.899   3.836   2.321
 1766SOL    HW2 6198   4.862   3.991   2.286
 1767SOL     OW 6199   0.451   3.503   2.937
 1767SOL    HW1 6200   0.357   3.529   2.959
 1767SOL    HW2 6201   0.469   3.522   2.841
 1768SOL     OW 6202   4.481   1.720   6.148
 1768SOL    HW1 6203   4.516   1.684   6.234
 1768SOL    HW2 6204   4.488   1.651   6.077
 1769SOL     OW 6205   4.018   1.975   5.647
 1769SOL    HW1 6206   3.963   1.898   5.614
 1769SOL    HW2 6207   3.976   2.061   5.617
 1770SOL     OW 6208   6.865   4.242   4.406
 1770SOL    HW1 6209   6.798   4.189   4.354
 1770SOL    HW2 6210   6.837   4.248   4.502
 1771SOL     OW 6211   1.875   5.106   0.015
 1771SOL    HW1 6212   1.801   5.058   0.062
 1771SOL    HW2 6213   1.939   5.143   0.083
 1772SOL     OW 6214   3.462   0.132   3.322
 1772SOL    HW1 6215   3.485   0.223   3.287
 1772SOL    HW2 6216   3.377   0.101   3.280
 1773SOL     OW 6217   3.161   3.858   6.910
 1773SOL    HW1 6218   3.217   3.798   6.967
 1773SOL    HW2 6219   3.221   3.913   6.851
 1774SOL     OW 6220   4.561   0.284   1.664
 1774SOL    HW1 6221   4.511   0.277   1.751
 1774SOL    HW2 6222   4.498   0.266   1.588
 1775SOL     OW 6223   1.478   5.659   4.715
 1775SOL    HW1 6224   1.415   5.660   4.792
 1775SOL    HW2 6225   1.467   5.742   4.660
 1776SOL     OW 6226   4.428   0.750   6.105
 1776SOL    HW1 6227   4.366   0.674   6.127
 1776SOL    HW2 6228   4.376   0.825   6.064
 1777SOL     OW 6229   2.942   6.011   5.612
 1777SOL    HW1 6230   2.981   6.014   5.520
 1777SOL    HW2 6231   2.866   5.946   5.614
 1778SOL     OW 6232   4.302   2.291   4.280
 1778SOL    HW1 6233   4.259   2.279   4.370
 1778SOL    HW2 6234   4.329   2.387   4.269
 1779SOL     OW 6235   3.953   2.115   4.458
 1779SOL    HW1 6236   4.035   2.158   4.497
 1779SOL    HW2 6237   3.948   2.135   4.360
 1780SOL     OW 6238   2.002   4.593   5.770
 1780SOL    HW1 6239   1.988   4.663   5.701
 1780SOL    HW2 6240   2.088   4.546   5.753
 1781SOL     OW 6241   5.101   5.671   3.604
 1781SOL    HW1 6242   5.020   5.614   3.612
 1781SOL    HW2 6243   5.182   5.612   3.600
 1782SOL     OW 6244   2.970   1.821   3.379
 1782SOL    HW1 6245   2.993   1.794   3.286
 1782SOL    HW2 6246   2.903   1.757   3.417
 1783SOL     OW 6247   2.350   3.314   6.306
 1783SOL    HW1 6248   2.377   3.228   6.262
 1783SOL    HW2 6249   2.404   3.389   6.268
 1784SOL     OW 6250   3.113   0.742   2.910
 1784SOL    HW1 6251   3.124   0.841   2.903
 1784SOL    HW2 6252   3.201   0.700   2.930
 1785SOL     OW 6253   5.460   5.367   3.419
 1785SOL    HW1 6254   5.528   5.295   3.424
 1785SOL    HW2 6255   5.399   5.350   3.341
 1786SOL     OW 6256   1.056   3.512   0.725
 1786SOL    HW1 6257   1.083   3.498   0.820
 1786SOL    HW2 6258   0.996   3.437   0.696
 1787SOL     OW 6259   1.961   0.790   5.047
 1787SOL    HW1 6260   1.914   0.852   5.110
 1787SOL    HW2 6261   1.895   0.728   5.006
 1788SOL     OW 6262   3.207   3.945   0.182
 1788SOL    HW1 6263   3.152   3.981   0.257
 1788SOL    HW2 6264   3.203   4.007   0.104
 1789SOL     OW 6265   6.161   2.416   2.387
 1789SOL    HW1 6266   6.092   2.457   2.447
 1789SOL    HW2 6267   6.121   2.338   2.340
 1790SOL     OW 6268   4.061   6.289   4.732
 1790SOL    HW1 6269   4.152   6.253   4.713
 1790SOL    HW2 6270   4.069   6.376   4.781
 1791SOL     OW 6271   0.865   1.708   4.636
 1791SOL    HW1 6272   0.959   1.734   4.655
 1791SOL    HW2 6273   0.828   1.655   4.712
 1792SOL     OW 6274   0.781   1.372   4.266
 1792SOL    HW1 6275   0.744   1.293   4.316
 1792SOL    HW2 6276   0.753   1.456   4.312
 1793SOL     OW 6277   0.009   0.145   3.614
 1793SOL    HW1 6278   0.032   0.091   3.533
 1793SOL    HW2 6279   0.029   0.242   3.597
 1794SOL     OW 6280   5.088   6.352   6.586
 1794SOL    HW1 6281   5.134   6.270   6.620
 1794SOL    HW2 6282   5.067   6.340   6.488
 1795SOL     OW 6283   6.970   4.993   1.959
 1795SOL    HW1 6284   6.917   5.072   1.928
 1795SOL    HW2 6285   7.025   5.020   2.039
 1796SOL     OW 6286   2.410   1.398   4.231
 1796SOL    HW1 6287   2.386   1.406   4.134
 1796SOL    HW2 6288   2.353   1.459   4.285
 1797SOL     OW 6289   1.542   0.256   5.912
 1797SOL    HW1 6290   1.631   0.274   5.954
 1797SOL    HW2 6291   1.552   0.182   5.845
 1798SOL     OW 6292   4.754   2.821   5.430
 1798SOL    HW1 6293   4.838   2.828   5.376
 1798SOL    HW2 6294   4.766   2.753   5.503
 1799SOL     OW 6295   5.775   2.136   6.345
 1799SOL    HW1 6296   5.709   2.149   6.271
 1799SOL    HW2 6297   5.845   2.206   6.341
 1800SOL     OW 6298   5.170   4.480   3.735
 1800SOL    HW1 6299   5.266   4.495   3.760
 1800SOL    HW2 6300   5.137   4.556   3.680
 1801SOL     OW 6301   1.294   1.473   2.935
 1801SOL    HW1 6302   1.239   1.557   2.935
 1801SOL    HW2 6303   1.233   1.394   2.936
 1802SOL     OW 6304   5.364   5.247   2.553
 1802SOL    HW1 6305   5.391   5.343   2.550
 1802SOL    HW2 6306   5.392   5.207   2.641
 1803SOL     OW 6307   6.623   6.288   1.302
 1803SOL    HW1 6308   6.683   6.368   1.306
 1803SOL    HW2 6309   6.646   6.224   1.376
 1804SOL     OW 6310   3.530   3.205   5.248
 1804SOL    HW1 6311   3.604   3.159   5.199
 1804SOL    HW2 6312   3.490   3.276   5.190
 1805SOL     OW 6313   0.685   4.098   5.752
 1805SOL    HW1 6314   0.778   4.083   5.716
 1805SOL    HW2 6315   0.626   4.024   5.721
 1806SOL     OW 6316   1.649   2.182   1.719
 1806SOL    HW1 6317   1.704   2.260   1.691
 1806SOL    HW2 6318   1.696   2.132   1.792
 1807SOL     OW 6319   6.061   2.234   6.352
 1807SOL    HW1 6320   6.107   2.186   6.427
 1807SOL    HW2 6321   6.099   2.326   6.343
 1808SOL     OW 6322   5.946   4.744   4.676
 1808SOL    HW1 6323   5.993   4.832   4.676
 1808SOL    HW2 6324   5.918   4.721   4.769
 1809SOL     OW 6325   2.502   2.358   4.911
 1809SOL    HW1 6326   2.413   2.343   4.868
 1809SOL    HW2 6327   2.572   2.369   4.841
 1810SOL     OW 6328   1.975   7.012   5.396
 1810SOL    HW1 6329   2.063   0.021   5.365
 1810SOL    HW2 6330   1.968   6.914   5.378
 1811SOL     OW 6331   4.540   4.683   3.507
 1811SOL    HW1 6332   4.479   4.732   3.444
 1811SOL    HW2 6333   4.490   4.659   3.590
 1812SOL     OW 6334   5.097   0.158   5.625
 1812SOL    HW1 6335   5.074   0.251   5.594
 1812SOL    HW2 6336   5.022   0.096   5.600
 1813SOL     OW 6337   4.283   4.982   1.203
 1813SOL    HW1 6338   4.255   5.050   1.271
 1813SOL    HW2 6339   4.203   4.951   1.152
 1814SOL     OW 6340   6.600   0.566   0.821
 1814SOL    HW1 6341   6.605   0.508   0.903
 1814SOL    HW2 6342   6.692   0.586   0.788
 1815SOL     OW 6343   5.961   0.813   2.478
 1815SOL    HW1 6344   6.005   0.727   2.502
 1815SOL    HW2 6345   6.029   0.876   2.442
 1816SOL     OW 6346   2.304   4.657   0.516
 1816SOL    HW1 6347   2.228   4.592   0.516
 1816SOL    HW2 6348   2.317   4.694   0.608
 1817SOL     OW 6349   3.837   0.007   3.097
 1817SOL    HW1 6350   3.771   6.984   3.154
 1817SOL    HW2 6351   3.793   0.035   3.012
 1818SOL     OW 6352   2.503   5.777   1.325
 1818SOL    HW1 6353   2.406   5.801   1.328
 1818SOL    HW2 6354   2.533   5.750   1.416
 1819SOL     OW 6355   1.179   6.453   1.827
 1819SOL    HW1 6356   1.158   6.432   1.732
 1819SOL    HW2 6357   1.133   6.388   1.887
 1820SOL     OW 6358   3.141   0.141   2.024
 1820SOL    HW1 6359   3.110   0.145   1.929
 1820SOL    HW2 6360   3.171   0.232   2.053
 1821SOL     OW 6361   2.359   0.886   1.738
 1821SOL    HW1 6362   2.328   0.981   1.740
 1821SOL    HW2 6363   2.430   0.873   1.807
 1822SOL     OW 6364   1.090   2.799   1.341
 1822SOL    HW1 6365   1.177   2.807   1.391
 1822SOL    HW2 6366   1.079   2.877   1.280
 1823SOL     OW 6367   3.419   5.496   3.224
 1823SOL    HW1 6368   3.427   5.403   3.190
 1823SOL    HW2 6369   3.345   5.543   3.176
 1824SOL     OW 6370   3.925   3.353   0.344
 1824SOL    HW1 6371   3.981   3.416   0.290
 1824SOL    HW2 6372   3.832   3.350   0.306
 1825SOL     OW 6373   1.896   2.117   4.485
 1825SOL    HW1 6374   1.994   2.113   4.503
 1825SOL    HW2 6375   1.880   2.159   4.395
 1826SOL     OW 6376   3.557   1.555   1.526
 1826SOL    HW1 6377   3.556   1.468   1.575
 1826SOL    HW2 6378   3.637   1.559   1.467
 1827SOL     OW 6379   6.463   5.349   1.142
 1827SOL    HW1 6380   6.422   5.317   1.227
 1827SOL    HW2 6381   6.547   5.297   1.124
 1828SOL     OW 6382   1.906   2.409   0.408
 1828SOL    HW1 6383   1.835   2.384   0.473
 1828SOL    HW2 6384   1.877   2.491   0.357
 1829SOL     OW 6385   3.333   0.483   3.026
 1829SOL    HW1 6386   3.293   0.431   2.951
 1829SOL    HW2 6387   3.405   0.428   3.069
 1830SOL     OW 6388   5.620   6.090   4.302
 1830SOL    HW1 6389   5.595   6.130   4.390
 1830SOL    HW2 6390   5.670   6.005   4.317
 1831SOL     OW 6391   5.802   6.847   1.654
 1831SOL    HW1 6392   5.868   6.772   1.651
 1831SOL    HW2 6393   5.786   6.875   1.749
 1832SOL     OW 6394   4.499   2.343   1.137
 1832SOL    HW1 6395   4.559   2.404   1.085
 1832SOL    HW2 6396   4.471   2.388   1.222
 1833SOL     OW 6397   5.446   0.593   0.755
 1833SOL    HW1 6398   5.466   0.538   0.836
 1833SOL    HW2 6399   5.531   0.623   0.713
 1834SOL     OW 6400   2.133   3.814   0.848
 1834SOL    HW1 6401   2.101   3.843   0.938
 1834SOL    HW2 6402   2.227   3.780   0.855
 1835SOL     OW 6403   0.122   4.582   1.924
 1835SOL    HW1 6404   0.211   4.539   1.940
 1835SOL    HW2 6405   0.126   4.677   1.956
 1836SOL     OW 6406   5.142   2.288   1.459
 1836SOL    HW1 6407   5.113   2.270   1.553
 1836SOL    HW2 6408   5.182   2.205   1.420
 1837SOL     OW 6409   1.163   0.042   4.818
 1837SOL    HW1 6410   1.172   0.056   4.720
 1837SOL    HW2 6411   1.083   7.010   4.836
 1838SOL     OW 6412   6.537   1.092   5.856
 1838SOL    HW1 6413   6.627   1.130   5.832
 1838SOL    HW2 6414   6.465   1.149   5.815
 1839SOL     OW 6415   0.680   1.632   5.320
 1839SOL    HW1 6416   0.582   1.637   5.340
 1839SOL    HW2 6417   0.709   1.537   5.315
 1840SOL     OW 6418   3.815   0.218   1.342
 1840SOL    HW1 6419   3.745   0.193   1.410
 1840SOL    HW2 6420   3.805   0.158   1.262
 1841SOL     OW 6421   2.428   1.238   3.542
 1841SOL    HW1 6422   2.409   1.139   3.541
 1841SOL    HW2 6423   2.400   1.276   3.630
 1842SOL     OW 6424   1.321   5.789   0.061
 1842SOL    HW1 6425   1.392   5.850   0.098
 1842SOL    HW2 6426   1.341   5.695   0.088
 1843SOL     OW 6427   6.270   1.361   4.200
 1843SOL    HW1 6428   6.233   1.328   4.287
 1843SOL    HW2 6429   6.273   1.285   4.135
 1844SOL     OW 6430   3.431   6.257   5.270
 1844SOL    HW1 6431   3.403   6.219   5.359
 1844SOL    HW2 6432   3.503   6.324   5.284
 1845SOL     OW 6433   3.367   6.615   5.037
 1845SOL    HW1 6434   3.319   6.676   5.100
 1845SOL    HW2 6435   3.364   6.654   4.944
 1846SOL     OW 6436   3.461   1.225   1.900
 1846SOL    HW1 6437   3.421   1.136   1.882
 1846SOL    HW2 6438   3.394   1.283   1.946
 1847SOL     OW 6439   1.474   0.838   6.689
 1847SOL    HW1 6440   1.418   0.857   6.608
 1847SOL    HW2 6441   1.521   0.921   6.718
 1848SOL     OW 6442   2.146   6.139   3.517
 1848SOL    HW1 6443   2.078   6.170   3.583
 1848SOL    HW2 6444   2.234   6.128   3.562
 1849SOL     OW 6445   3.959   2.676   1.649
 1849SOL    HW1 6446   4.055   2.685   1.623
 1849SOL    HW2 6447   3.940   2.582   1.676
 1850SOL     OW 6448   0.216   2.512   2.740
 1850SOL    HW1 6449   0.202   2.416   2.718
 1850SOL    HW2 6450   0.293   2.548   2.686
 1851SOL     OW 6451   0.552   3.369   6.493
 1851SOL    HW1 6452   0.627   3.434   6.483
 1851SOL    HW2 6453   0.570   3.308   6.570
 1852SOL     OW 6454   6.433   4.218   2.389
 1852SOL    HW1 6455   6.450   4.265   2.475
 1852SOL    HW2 6456   6.511   4.230   2.328
 1853SOL     OW 6457   0.712   2.554   3.555
 1853SOL    HW1 6458   0.691   2.515   3.465
 1853SOL    HW2 6459   0.627   2.563   3.607
 1854SOL     OW 6460   2.151   5.649   2.949
 1854SOL    HW1 6461   2.071   5.675   3.003
 1854SOL    HW2 6462   2.210   5.589   3.003
 1855SOL     OW 6463   5.451   3.858   5.390
 1855SOL    HW1 6464   5.471   3.917   5.468
 1855SOL    HW2 6465   5.383   3.790   5.417
 1856SOL     OW 6466   5.112   4.085   6.019
 1856SOL    HW1 6467   5.120   4.013   5.951
 1856SOL    HW2 6468   5.094   4.045   6.108
 1857SOL     OW 6469   4.212   1.980   6.261
 1857SOL    HW1 6470   4.265   2.013   6.182
 1857SOL    HW2 6471   4.275   1.948   6.331
 1858SOL     OW 6472   5.455   3.438   3.081
 1858SOL    HW1 6473   5.382   3.494   3.122
 1858SOL    HW2 6474   5.466   3.354   3.134
 1859SOL     OW 6475   4.730   1.881   4.098
 1859SOL    HW1 6476   4.712   1.878   4.000
 1859SOL    HW2 6477   4.718   1.790   4.137
 1860SOL     OW 6478   0.537   1.116   5.422
 1860SOL    HW1 6479   0.584   1.035   5.389
 1860SOL    HW2 6480   0.442   1.114   5.391
 1861SOL     OW 6481   6.760   6.609   2.049
 1861SOL    HW1 6482   6.734   6.554   2.129
 1861SOL    HW2 6483   6.682   6.618   1.988
 1862SOL     OW 6484   3.222   0.264   6.622
 1862SOL    HW1 6485   3.267   0.182   6.656
 1862SOL    HW2 6486   3.125   0.261   6.646
 1863SOL     OW 6487   0.442   2.535   3.417
 1863SOL    HW1 6488   0.519   2.491   3.370
 1863SOL    HW2 6489   0.463   2.545   3.514
 1864SOL     OW 6490   1.618   6.404   5.002
 1864SOL    HW1 6491   1.713   6.376   5.017
 1864SOL    HW2 6492   1.591   6.470   5.072
 1865SOL     OW 6493   4.055   6.872   0.219
 1865SOL    HW1 6494   4.144   6.853   0.178
 1865SOL    HW2 6495   3.994   6.908   0.148
 1866SOL     OW 6496   5.985   4.892   3.352
 1866SOL    HW1 6497   6.019   4.808   3.394
 1866SOL    HW2 6498   6.049   4.967   3.370
 1867SOL     OW 6499   0.990   3.921   0.313
 1867SOL    HW1 6500   1.064   3.886   0.372
 1867SOL    HW2 6501   0.928   3.977   0.368
 1868SOL     OW 6502   4.782   3.600   6.517
 1868SOL    HW1 6503   4.691   3.609   6.477
 1868SOL    HW2 6504   4.774   3.594   6.617
 1869SOL     OW 6505   0.071   3.277   4.860
 1869SOL    HW1 6506   0.091   3.358   4.805
 1869SOL    HW2 6507   0.016   3.213   4.806
 1870SOL     OW 6508   1.849   2.855   5.112
 1870SOL    HW1 6509   1.933   2.843   5.059
 1870SOL    HW2 6510   1.788   2.778   5.096
 1871SOL     OW 6511   0.507   0.845   6.549
 1871SOL    HW1 6512   0.533   0.813   6.458
 1871SOL    HW2 6513   0.430   0.909   6.541
 1872SOL     OW 6514   4.335   1.997   0.208
 1872SOL    HW1 6515   4.242   1.964   0.191
 1872SOL    HW2 6516   4.359   2.067   0.140
 1873SOL     OW 6517   5.969   1.182   5.811
 1873SOL    HW1 6518   5.986   1.107   5.747
 1873SOL    HW2 6519   6.046   1.191   5.873
 1874SOL     OW 6520   2.286   0.760   6.930
 1874SOL    HW1 6521   2.352   0.718   6.993
 1874SOL    HW2 6522   2.334   0.819   6.865
 1875SOL     OW 6523   6.941   1.021   0.954
 1875SOL    HW1 6524   6.904   0.937   0.914
 1875SOL    HW2 6525   6.889   1.044   1.036
 1876SOL     OW 6526   3.755   6.309   5.963
 1876SOL    HW1 6527   3.692   6.314   5.885
 1876SOL    HW2 6528   3.838   6.361   5.942
 1877SOL     OW 6529   0.543   1.469   3.288
 1877SOL    HW1 6530   0.572   1.528   3.213
 1877SOL    HW2 6531   0.468   1.514   3.337
 1878SOL     OW 6532   6.590   3.005   4.164
 1878SOL    HW1 6533   6.555   2.957   4.083
 1878SOL    HW2 6534   6.580   3.103   4.152
 1879SOL     OW 6535   1.909   5.448   3.576
 1879SOL    HW1 6536   1.926   5.544   3.558
 1879SOL    HW2 6537   1.812   5.428   3.563
 1880SOL     OW 6538   0.200   1.632   3.691
 1880SOL    HW1 6539   0.240   1.554   3.643
 1880SOL    HW2 6540   0.272   1.678   3.744
 1881SOL     OW 6541   0.980   2.512   3.144
 1881SOL    HW1 6542   0.965   2.576   3.219
 1881SOL    HW2 6543   0.936   2.547   3.061
 1882SOL     OW 6544   1.084   3.947   6.652
 1882SOL    HW1 6545   1.094   3.984   6.744
 1882SOL    HW2 6546   1.013   3.996   6.603
 1883SOL     OW 6547   1.275   2.915   3.514
 1883SOL    HW1 6548   1.268   2.873   3.605
 1883SOL    HW2 6549   1.333   2.997   3.520
 1884SOL     OW 6550   5.987   2.789   0.030
 1884SOL    HW1 6551   6.004   2.717   6.988
 1884SOL    HW2 6552   5.889   2.790   0.053
 1885SOL     OW 6553   0.059   2.150   6.605
 1885SOL    HW1 6554   0.055   2.124   6.701
 1885SOL    HW2 6555   0.146   2.194   6.585
 1886SOL     OW 6556   1.825   1.240   1.292
 1886SOL    HW1 6557   1.735   1.201   1.312
 1886SOL    HW2 6558   1.818   1.301   1.213
 1887SOL     OW 6559   0.904   5.878   6.716
 1887SOL    HW1 6560   0.840   5.938   6.668
 1887SOL    HW2 6561   0.891   5.888   6.815
 1888SOL     OW 6562   2.968   2.147   6.843
 1888SOL    HW1 6563   3.036   2.202   6.794
 1888SOL    HW2 6564   3.015   2.088   6.909
 1889SOL     OW 6565   5.480   2.688   6.418
 1889SOL    HW1 6566   5.518   2.619   6.357
 1889SOL    HW2 6567   5.486   2.656   6.513
 1890SOL     OW 6568   1.365   5.949   5.327
 1890SOL    HW1 6569   1.335   5.966   5.233
 1890SOL    HW2 6570   1.289   5.968   5.389
 1891SOL     OW 6571   5.559   2.433   3.506
 1891SOL    HW1 6572   5.467   2.395   3.495
 1891SOL    HW2 6573   5.626   2.359   3.501
 1892SOL     OW 6574   4.022   0.664   0.655
 1892SOL    HW1 6575   3.950   0.636   0.590
 1892SOL    HW2 6576   4.100   0.602   0.647
 1893SOL     OW 6577   3.140   2.502   6.376
 1893SOL    HW1 6578   3.108   2.428   6.316
 1893SOL    HW2 6579   3.064   2.535   6.431
 1894SOL     OW 6580   3.569   3.534   3.021
 1894SOL    HW1 6581   3.606   3.531   2.928
 1894SOL    HW2 6582   3.604   3.456   3.073
 1895SOL     OW 6583   5.605   0.755   2.692
 1895SOL    HW1 6584   5.685   0.694   2.691
 1895SOL    HW2 6585   5.625   0.836   2.636
 1896SOL     OW 6586   0.587   0.528   2.474
 1896SOL    HW1 6587   0.673   0.503   2.429
 1896SOL    HW2 6588   0.561   0.621   2.446
 1897SOL     OW 6589   1.028   4.807   2.325
 1897SOL    HW1 6590   0.932   4.790   2.347
 1897SOL    HW2 6591   1.061   4.887   2.376
 1898SOL     OW 6592   3.623   4.965   2.402
 1898SOL    HW1 6593   3.547   4.926   2.453
 1898SOL    HW2 6594   3.596   4.978   2.307
 1899SOL     OW 6595   0.971   1.914   2.609
 1899SOL    HW1 6596   0.946   1.879   2.518
 1899SOL    HW2 6597   0.903   1.981   2.638
 1900SOL     OW 6598   1.133   0.353   5.647
 1900SOL    HW1 6599   1.173   0.373   5.737
 1900SOL    HW2 6600   1.188   0.397   5.576
 1901SOL     OW 6601   1.900   1.271   1.545
 1901SOL    HW1 6602   1.821   1.311   1.593
 1901SOL    HW2 6603   1.874   1.250   1.451
 1902SOL     OW 6604   1.970   2.499   5.078
 1902SOL    HW1 6605   1.947   2.556   5.158
 1902SOL    HW2 6606   1.946   2.404   5.097
 1903SOL     OW 6607   6.155   2.902   3.368
 1903SOL    HW1 6608   6.187   2.992   3.397
 1903SOL    HW2 6609   6.058   2.892   3.391
 1904SOL     OW 6610   5.898   6.672   4.608
 1904SOL    HW1 6611   5.816   6.641   4.560
 1904SOL    HW2 6612   5.882   6.668   4.706
 1905SOL     OW 6613   1.886   0.943   4.000
 1905SOL    HW1 6614   1.820   1.015   4.022
 1905SOL    HW2 6615   1.925   0.959   3.909
 1906SOL     OW 6616   2.504   0.119   5.224
 1906SOL    HW1 6617   2.450   0.035   5.219
 1906SOL    HW2 6618   2.475   0.182   5.151
 1907SOL     OW 6619   3.253   6.967   3.257
 1907SOL    HW1 6620   3.170   7.001   3.213
 1907SOL    HW2 6621   3.309   6.919   3.190
 1908SOL     OW 6622   4.103   0.324   5.152
 1908SOL    HW1 6623   4.006   0.300   5.165
 1908SOL    HW2 6624   4.160   0.257   5.200
 1909SOL     OW 6625   1.075   4.051   2.502
 1909SOL    HW1 6626   1.105   4.145   2.520
 1909SOL    HW2 6627   1.135   4.009   2.434
 1910SOL     OW 6628   0.172   2.848   6.237
 1910SOL    HW1 6629   0.090   2.879   6.284
 1910SOL    HW2 6630   0.147   2.782   6.166
 1911SOL     OW 6631   5.709   3.814   4.839
 1911SOL    HW1 6632   5.775   3.753   4.797
 1911SOL    HW2 6633   5.690   3.891   4.778
 1912SOL     OW 6634   2.776   0.132   0.978
 1912SOL    HW1 6635   2.778   0.167   0.885
 1912SOL    HW2 6636   2.739   0.039   0.978
 1913SOL     OW 6637   1.005   5.966   5.124
 1913SOL    HW1 6638   0.933   5.945   5.057
 1913SOL    HW2 6639   0.973   5.945   5.216
 1914SOL     OW 6640   3.705   2.995   6.354
 1914SOL    HW1 6641   3.649   3.026   6.277
 1914SOL    HW2 6642   3.647   2.946   6.419
 1915SOL     OW 6643   3.592   2.114   5.193
 1915SOL    HW1 6644   3.502   2.127   5.150
 1915SOL    HW2 6645   3.604   2.017   5.214
 1916SOL     OW 6646   3.254   5.684   1.157
 1916SOL    HW1 6647   3.157   5.660   1.157
 1916SOL    HW2 6648   3.299   5.644   1.236
 1917SOL     OW 6649   2.943   3.561   4.994
 1917SOL    HW1 6650   2.952   3.465   5.021
 1917SOL    HW2 6651   2.955   3.619   5.075
 1918SOL     OW 6652   0.928   1.442   6.149
 1918SOL    HW1 6653   1.016   1.395   6.155
 1918SOL    HW2 6654   0.885   1.446   6.239
 1919SOL     OW 6655   2.380   0.526   1.656
 1919SOL    HW1 6656   2.462   0.583   1.663
 1919SOL    HW2 6657   2.305   0.570   1.706
 1920SOL     OW 6658   1.874   4.913   2.429
 1920SOL    HW1 6659   1.968   4.927   2.395
 1920SOL    HW2 6660   1.830   5.002   2.442
 1921SOL     OW 6661   1.102   4.954   0.303
 1921SOL    HW1 6662   1.100   5.040   0.251
 1921SOL    HW2 6663   1.141   4.970   0.393
 1922SOL     OW 6664   2.968   4.607   0.434
 1922SOL    HW1 6665   3.015   4.546   0.371
 1922SOL    HW2 6666   2.921   4.679   0.383
 1923SOL     OW 6667   3.125   0.813   5.777
 1923SOL    HW1 6668   3.207   0.758   5.791
 1923SOL    HW2 6669   3.149   0.896   5.727
 1924SOL     OW 6670   4.503   5.457   1.715
 1924SOL    HW1 6671   4.581   5.406   1.680
 1924SOL    HW2 6672   4.517   5.476   1.812
 1925SOL     OW 6673   1.425   4.201   0.293
 1925SOL    HW1 6674   1.402   4.108   0.266
 1925SOL    HW2 6675   1.480   4.198   0.377
 1926SOL     OW 6676   2.032   6.148   2.960
 1926SOL    HW1 6677   2.054   6.133   3.056
 1926SOL    HW2 6678   1.959   6.216   2.953
 1927SOL     OW 6679   3.212   4.202   6.379
 1927SOL    HW1 6680   3.133   4.141   6.380
 1927SOL    HW2 6681   3.205   4.265   6.301
 1928SOL     OW 6682   6.453   4.489   5.877
 1928SOL    HW1 6683   6.542   4.520   5.841
 1928SOL    HW2 6684   6.417   4.557   5.941
 1929SOL     OW 6685   0.963   5.339   1.069
 1929SOL    HW1 6686   1.039   5.400   1.092
 1929SOL    HW2 6687   0.985   5.289   0.986
 1930SOL     OW 6688   3.846   3.758   6.738
 1930SOL    HW1 6689   3.835   3.700   6.818
 1930SOL    HW2 6690   3.902   3.838   6.762
 1931SOL     OW 6691   0.856   3.251   2.575
 1931SOL    HW1 6692   0.809   3.295   2.651
 1931SOL    HW2 6693   0.848   3.151   2.583
 1932SOL     OW 6694   4.884   3.549   3.564
 1932SOL    HW1 6695   4.917   3.587   3.651
 1932SOL    HW2 6696   4.876   3.449   3.572
 1933SOL     OW 6697   2.306   4.289   0.693
 1933SOL    HW1 6698   2.337   4.319   0.603
 1933SOL    HW2 6699   2.313   4.365   0.757
 1934SOL     OW 6700   0.694   0.224   5.506
 1934SOL    HW1 6701   0.793   0.232   5.493
 1934SOL    HW2 6702   0.647   0.249   5.422
 1935SOL     OW 6703   4.249   6.102   3.837
 1935SOL    HW1 6704   4.169   6.044   3.823
 1935SOL    HW2 6705   4.220   6.190   3.876
 1936SOL     OW 6706   6.044   3.790   3.812
 1936SOL    HW1 6707   6.060   3.855   3.738
 1936SOL    HW2 6708   6.011   3.703   3.774
 1937SOL     OW 6709   4.005   0.118   1.022
 1937SOL    HW1 6710   4.082   0.060   1.049
 1937SOL    HW2 6711   3.919   0.075   1.049
 1938SOL     OW 6712   1.797   1.948   1.092
 1938SOL    HW1 6713   1.735   1.903   1.027
 1938SOL    HW2 6714   1.820   1.885   1.165
 1939SOL     OW 6715   6.865   0.385   4.910
 1939SOL    HW1 6716   6.782   0.363   4.858
 1939SOL    HW2 6717   6.943   0.388   4.847
 1940SOL     OW 6718   4.982   5.062   0.633
 1940SOL    HW1 6719   5.049   4.989   0.632
 1940SOL    HW2 6720   4.980   5.105   0.724
 1941SOL     OW 6721   0.286   4.207   3.643
 1941SOL    HW1 6722   0.380   4.208   3.609
 1941SOL    HW2 6723   0.287   4.210   3.743
 1942SOL     OW 6724   5.550   0.966   1.265
 1942SOL    HW1 6725   5.626   1.028   1.284
 1942SOL    HW2 6726   5.539   0.903   1.342
 1943SOL     OW 6727   3.029   6.048   2.773
 1943SOL    HW1 6728   3.110   6.104   2.756
 1943SOL    HW2 6729   2.999   6.062   2.867
 1944SOL     OW 6730   6.288   2.626   0.128
 1944SOL    HW1 6731   6.350   2.660   0.057
 1944SOL    HW2 6732   6.332   2.634   0.218
 1945SOL     OW 6733   3.539   5.868   1.191
 1945SOL    HW1 6734   3.626   5.824   1.216
 1945SOL    HW2 6735   3.463   5.809   1.218
 1946SOL     OW 6736   6.513   0.107   1.374
 1946SOL    HW1 6737   6.534   0.195   1.418
 1946SOL    HW2 6738   6.539   0.111   1.278
 1947SOL     OW 6739   4.993   6.602   4.927
 1947SOL    HW1 6740   4.970   6.629   4.833
 1947SOL    HW2 6741   4.967   6.675   4.990
 1948SOL     OW 6742   5.417   5.497   4.518
 1948SOL    HW1 6743   5.401   5.524   4.423
 1948SOL    HW2 6744   5.451   5.403   4.520
 1949SOL     OW 6745   3.151   4.505   6.302
 1949SOL    HW1 6746   3.135   4.604   6.312
 1949SOL    HW2 6747   3.069   4.455   6.327
 1950SOL     OW 6748   3.820   4.333   6.811
 1950SOL    HW1 6749   3.730   4.290   6.819
 1950SOL    HW2 6750   3.809   4.432   6.821
 1951SOL     OW 6751   6.069   3.165   0.077
 1951SOL    HW1 6752   6.110   3.077   0.053
 1951SOL    HW2 6753   6.001   3.151   0.149
 1952SOL     OW 6754   4.951   2.921   0.488
 1952SOL    HW1 6755   4.859   2.888   0.505
 1952SOL    HW2 6756   5.008   2.904   0.568
 1953SOL     OW 6757   6.630   1.516   6.008
 1953SOL    HW1 6758   6.550   1.477   5.964
 1953SOL    HW2 6759   6.664   1.594   5.954
 1954SOL     OW 6760   5.731   0.537   3.219
 1954SOL    HW1 6761   5.705   0.629   3.250
 1954SOL    HW2 6762   5.660   0.502   3.158
 1955SOL     OW 6763   0.869   1.430   2.943
 1955SOL    HW1 6764   0.922   1.376   3.008
 1955SOL    HW2 6765   0.856   1.522   2.979
 1956SOL     OW 6766   5.124   6.985   2.824
 1956SOL    HW1 6767   5.115   0.003   2.734
 1956SOL    HW2 6768   5.193   0.007   2.878
 1957SOL     OW 6769   5.842   4.548   4.116
 1957SOL    HW1 6770   5.759   4.604   4.119
 1957SOL    HW2 6771   5.819   4.453   4.138
 1958SOL     OW 6772   4.828   2.506   2.389
 1958SOL    HW1 6773   4.825   2.409   2.365
 1958SOL    HW2 6774   4.772   2.558   2.324
 1959SOL     OW 6775   0.984   0.933   5.141
 1959SOL    HW1 6776   0.901   0.904   5.093
 1959SOL    HW2 6777   1.056   0.950   5.074
 1960SOL     OW 6778   6.760   4.512   2.356
 1960SOL    HW1 6779   6.814   4.495   2.273
 1960SOL    HW2 6780   6.813   4.486   2.437
 1961SOL     OW 6781   6.122   4.220   3.853
 1961SOL    HW1 6782   6.117   4.318   3.834
 1961SOL    HW2 6783   6.046   4.195   3.914
 1962SOL     OW 6784   1.387   6.588   3.983
 1962SOL    HW1 6785   1.406   6.594   4.081
 1962SOL    HW2 6786   1.431   6.665   3.936
 1963SOL     OW 6787   0.719   2.104   1.369
 1963SOL    HW1 6788   0.806   2.074   1.331
 1963SOL    HW2 6789   0.651   2.112   1.296
 1964SOL     OW 6790   4.373   4.536   0.740
 1964SOL    HW1 6791   4.454   4.595   0.734
 1964SOL    HW2 6792   4.379   4.479   0.822
 1965SOL     OW 6793   1.567   3.018   5.035
 1965SOL    HW1 6794   1.634   3.051   5.100
 1965SOL    HW2 6795   1.563   3.079   4.956
 1966SOL     OW 6796   6.956   6.150   0.757
 1966SOL    HW1 6797   6.971   6.247   0.737
 1966SOL    HW2 6798   6.873   6.118   0.711
 1967SOL     OW 6799   5.534   2.536   5.945
 1967SOL    HW1 6800   5.492   2.531   5.854
 1967SOL    HW2 6801   5.633   2.538   5.935
 1968SOL     OW 6802   1.701   6.685   6.058
 1968SOL    HW1 6803   1.631   6.641   6.002
 1968SOL    HW2 6804   1.659   6.758   6.113
 1969SOL     OW 6805   0.557   1.548   1.509
 1969SOL    HW1 6806   0.586   1.616   1.442
 1969SOL    HW2 6807   0.510   1.593   1.584
 1970SOL     OW 6808   2.926   6.361   6.291
 1970SOL    HW1 6809   3.021   6.344   6.265
 1970SOL    HW2 6810   2.868   6.352   6.210
 1971SOL     OW 6811   0.283   0.498   5.347
 1971SOL    HW1 6812   0.376   0.473   5.319
 1971SOL    HW2 6813   0.223   0.419   5.339
 1972SOL     OW 6814   5.534   2.188   2.038
 1972SOL    HW1 6815   5.519   2.093   2.007
 1972SOL    HW2 6816   5.466   2.247   1.995
 1973SOL     OW 6817   3.417   2.680   6.915
 1973SOL    HW1 6818   3.412   2.606   6.982
 1973SOL    HW2 6819   3.338   2.675   6.854
 1974SOL     OW 6820   6.295   6.663   5.442
 1974SOL    HW1 6821   6.257   6.756   5.444
 1974SOL    HW2 6822   6.292   6.624   5.534
 1975SOL     OW 6823   2.407   1.368   3.791
 1975SOL    HW1 6824   2.363   1.454   3.818
 1975SOL    HW2 6825   2.385   1.297   3.858
 1976SOL     OW 6826   0.139   6.893   0.107
 1976SOL    HW1 6827   0.096   6.978   0.137
 1976SOL    HW2 6828   0.069   6.828   0.080
 1977SOL     OW 6829   1.092   2.941   5.114
 1977SOL    HW1 6830   1.138   2.940   5.202
 1977SOL    HW2 6831   1.042   3.027   5.103
 1978SOL     OW 6832   2.331   6.877   2.800
 1978SOL    HW1 6833   2.397   6.802   2.801
 1978SOL    HW2 6834   2.376   6.962   2.827
 1979SOL     OW 6835   6.068   3.835   6.059
 1979SOL    HW1 6836   6.059   3.740   6.089
 1979SOL    HW2 6837   6.081   3.894   6.139
 1980SOL     OW 6838   3.229   6.933   4.738
 1980SOL    HW1 6839   3.133   6.953   4.761
 1980SOL    HW2 6840   3.288   7.002   4.779
 1981SOL     OW 6841   6.825   2.459   2.325
 1981SOL    HW1 6842   6.925   2.455   2.317
 1981SOL    HW2 6843   6.800   2.457   2.422
 1982SOL     OW 6844   0.072   4.207   4.610
 1982SOL    HW1 6845   0.149   4.146   4.629
 1982SOL    HW2 6846   0.105   4.287   4.560
 1983SOL     OW 6847   1.208   1.031   2.735
 1983SOL    HW1 6848   1.163   1.092   2.670
 1983SOL    HW2 6849   1.305   1.024   2.714
 1984SOL     OW 6850   5.317   1.809   5.206
 1984SOL    HW1 6851   5.268   1.824   5.293
 1984SOL    HW2 6852   5.363   1.894   5.180
 1985SOL     OW 6853   1.360   6.246   2.165
 1985SOL    HW1 6854   1.382   6.181   2.238
 1985SOL    HW2 6855   1.353   6.197   2.078
 1986SOL     OW 6856   2.219   1.480   6.731
 1986SOL    HW1 6857   2.169   1.558   6.769
 1986SOL    HW2 6858   2.179   1.454   6.643
 1987SOL     OW 6859   1.837   2.418   2.500
 1987SOL    HW1 6860   1.858   2.323   2.525
 1987SOL    HW2 6861   1.796   2.420   2.409
 1988SOL     OW 6862   6.071   3.882   0.968
 1988SOL    HW1 6863   6.143   3.929   1.019
 1988SOL    HW2 6864   5.985   3.887   1.020
 1989SOL     OW 6865   1.982   5.367   5.218
 1989SOL    HW1 6866   1.900   5.423   5.225
 1989SOL    HW2 6867   2.052   5.418   5.167
 1990SOL     OW 6868   3.557   6.194   0.544
 1990SOL    HW1 6869   3.491   6.143   0.488
 1990SOL    HW2 6870   3.614   6.251   0.485
 1991SOL     OW 6871   3.325   5.347   0.035
 1991SOL    HW1 6872   3.422   5.337   0.014
 1991SOL    HW2 6873   3.314   5.400   0.119
 1992SOL     OW 6874   0.621   0.687   0.400
 1992SOL    HW1 6875   0.658   0.741   0.476
 1992SOL    HW2 6876   0.605   0.747   0.321
 1993SOL     OW 6877   3.452   2.493   5.342
 1993SOL    HW1 6878   3.495   2.582   5.329
 1993SOL    HW2 6879   3.363   2.491   5.297
 1994SOL     OW 6880   0.832   1.594   0.462
 1994SOL    HW1 6881   0.789   1.525   0.403
 1994SOL    HW2 6882   0.900   1.550   0.520
 1995SOL     OW 6883   5.211   2.407   3.694
 1995SOL    HW1 6884   5.244   2.314   3.709
 1995SOL    HW2 6885   5.148   2.408   3.617
 1996SOL     OW 6886   1.825   3.311   0.637
 1996SOL    HW1 6887   1.857   3.396   0.594
 1996SOL    HW2 6888   1.888   3.237   0.615
 1997SOL     OW 6889   3.395   1.223   4.466
 1997SOL    HW1 6890   3.483   1.268   4.482
 1997SOL    HW2 6891   3.378   1.156   4.539
 1998SOL     OW 6892   2.476   4.640   6.843
 1998SOL    HW1 6893   2.495   4.596   6.755
 1998SOL    HW2 6894   2.379   4.633   6.865
 1999SOL     OW 6895   2.442   6.347   6.791
 1999SOL    HW1 6896   2.371   6.404   6.831
 1999SOL    HW2 6897   2.406   6.255   6.775
 2000SOL     OW 6898   4.309   2.283   5.450
 2000SOL    HW1 6899   4.390   2.232   5.477
 2000SOL    HW2 6900   4.256   2.307   5.532
 2001SOL     OW 6901   3.318   0.406   1.456
 2001SOL    HW1 6902   3.229   0.437   1.489
 2001SOL    HW2 6903   3.328   0.431   1.360
 2002SOL     OW 6904   0.110   4.672   6.845
 2002SOL    HW1 6905   0.097   4.679   6.746
 2002SOL    HW2 6906   0.205   4.691   6.867
 2003SOL     OW 6907   6.249   5.629   2.428
 2003SOL    HW1 6908   6.194   5.545   2.437
 2003SOL    HW2 6909   6.233   5.687   2.507
 2004SOL     OW 6910   4.924   1.694   5.166
 2004SOL    HW1 6911   4.967   1.784   5.172
 2004SOL    HW2 6912   4.853   1.685   5.236
 2005SOL     OW 6913   0.219   5.313   0.082
 2005SOL    HW1 6914   0.316   5.324   0.101
 2005SOL    HW2 6915   0.167   5.320   0.167
 2006SOL     OW 6916   5.701   0.004   3.729
 2006SOL    HW1 6917   5.626   0.023   3.666
 2006SOL    HW2 6918   5.693   0.063   3.809
 2007SOL     OW 6919   4.700   4.861   1.052
 2007SOL    HW1 6920   4.726   4.765   1.064
 2007SOL    HW2 6921   4.626   4.867   0.986
 2008SOL     OW 6922   2.214   4.854   3.948
 2008SOL    HW1 6923   2.255   4.943   3.928
 2008SOL    HW2 6924   2.259   4.814   4.028
 2009SOL     OW 6925   5.402   0.918   2.287
 2009SOL    HW1 6926   5.433   0.867   2.206
 2009SOL    HW2 6927   5.392   0.855   2.364
 2010SOL     OW 6928   2.012   1.989   1.513
 2010SOL    HW1 6929   2.010   2.013   1.416
 2010SOL    HW2 6930   2.038   2.069   1.567
 2011SOL     OW 6931   6.421   6.365   4.879
 2011SOL    HW1 6932   6.343   6.306   4.860
 2011SOL    HW2 6933   6.494   6.345   4.813
 2012SOL     OW 6934   1.507   4.060   2.342
 2012SOL    HW1 6935   1.571   4.024   2.273
 2012SOL    HW2 6936   1.531   4.023   2.432
 2013SOL     OW 6937   6.223   2.351   3.280
 2013SOL    HW1 6938   6.286   2.274   3.273
 2013SOL    HW2 6939   6.227   2.388   3.373
 2014SOL     OW 6940   2.482   5.587   3.552
 2014SOL    HW1 6941   2.426   5.670   3.555
 2014SOL    HW2 6942   2.514   5.572   3.458
 2015SOL     OW 6943   2.049   0.632   0.177
 2015SOL    HW1 6944   2.134   0.663   0.219
 2015SOL    HW2 6945   1.989   0.592   0.246
 2016SOL     OW 6946   1.578   6.059   5.574
 2016SOL    HW1 6947   1.492   6.032   5.616
 2016SOL    HW2 6948   1.611   5.985   5.515
 2017SOL     OW 6949   3.553   6.689   4.497
 2017SOL    HW1 6950   3.605   6.608   4.469
 2017SOL    HW2 6951   3.603   6.737   4.569
 2018SOL     OW 6952   4.983   1.092   5.721
 2018SOL    HW1 6953   5.004   1.069   5.626
 2018SOL    HW2 6954   5.056   1.150   5.758
 2019SOL     OW 6955   5.228   2.861   6.491
 2019SOL    HW1 6956   5.197   2.792   6.556
 2019SOL    HW2 6957   5.316   2.833   6.452
 2020SOL     OW 6958   1.624   6.495   5.426
 2020SOL    HW1 6959   1.580   6.409   5.401
 2020SOL    HW2 6960   1.636   6.551   5.344
 2021SOL     OW 6961   0.653   6.138   4.642
 2021SOL    HW1 6962   0.720   6.129   4.715
 2021SOL    HW2 6963   0.656   6.231   4.605
 2022SOL     OW 6964   1.406   3.626   3.228
 2022SOL    HW1 6965   1.400   3.621   3.327
 2022SOL    HW2 6966   1.478   3.691   3.202
 2023SOL     OW 6967   6.588   0.813   6.514
 2023SOL    HW1 6968   6.666   0.823   6.452
 2023SOL    HW2 6969   6.593   0.725   6.561
 2024SOL     OW 6970   0.371   6.566   3.826
 2024SOL    HW1 6971   0.464   6.592   3.853
 2024SOL    HW2 6972   0.370   6.470   3.799
 2025SOL     OW 6973   2.854   1.360   3.152
 2025SOL    HW1 6974   2.827   1.415   3.230
 2025SOL    HW2 6975   2.950   1.335   3.160
 2026SOL     OW 6976   0.134   2.763   5.279
 2026SOL    HW1 6977   0.160   2.717   5.364
 2026SOL    HW2 6978   0.216   2.778   5.223
 2027SOL     OW 6979   1.276   0.000   0.216
 2027SOL    HW1 6980   1.317   0.087   0.188
 2027SOL    HW2 6981   1.216   0.016   0.294
 2028SOL     OW 6982   2.916   6.378   4.819
 2028SOL    HW1 6983   2.928   6.464   4.869
 2028SOL    HW2 6984   2.884   6.308   4.882
 2029SOL     OW 6985   6.957   1.217   0.450
 2029SOL    HW1 6986   6.935   1.140   0.391
 2029SOL    HW2 6987   6.949   1.188   0.546
 2030SOL     OW 6988   2.839   0.699   3.346
 2030SOL    HW1 6989   2.817   0.749   3.430
 2030SOL    HW2 6990   2.764   0.638   3.323
 2031SOL     OW 6991   6.582   6.039   1.115
 2031SOL    HW1 6992   6.550   5.981   1.190
 2031SOL    HW2 6993   6.680   6.027   1.104
 2032SOL     OW 6994   4.913   0.199   2.175
 2032SOL    HW1 6995   4.983   0.212   2.245
 2032SOL    HW2 6996   4.835   0.149   2.214
 2033SOL     OW 6997   3.524   3.577   5.737
 2033SOL    HW1 6998   3.519   3.550   5.833
 2033SOL    HW2 6999   3.620   3.575   5.707
 2034SOL     OW 7000   2.546   5.862   5.612
 2034SOL    HW1 7001   2.499   5.941   5.650
 2034SOL    HW2 7002   2.479   5.791   5.589
 2035SOL     OW 7003   6.749   6.353   3.968
 2035SOL    HW1 7004   6.649   6.347   3.967
 2035SOL    HW2 7005   6.781   6.392   3.882
 2036SOL     OW 7006   1.200   4.392   2.602
 2036SOL    HW1 7007   1.243   4.327   2.664
 2036SOL    HW2 7008   1.181   4.477   2.651
 2037SOL     OW 7009   6.526   3.070   5.535
 2037SOL    HW1 7010   6.575   2.995   5.491
 2037SOL    HW2 7011   6.446   3.034   5.583
 2038SOL     OW 7012   1.840   2.581   0.150
 2038SOL    HW1 7013   1.899   2.655   0.116
 2038SOL    HW2 7014   1.755   2.620   0.186
 2039SOL     OW 7015   6.995   5.348   4.165
 2039SOL    HW1 7016   0.043   5.382   4.223
 2039SOL    HW2 7017   6.910   5.396   4.186
 2040SOL     OW 7018   3.091   3.398   5.414
 2040SOL    HW1 7019   3.004   3.431   5.452
 2040SOL    HW2 7020   3.142   3.476   5.377
 2041SOL     OW 7021   0.968   6.322   6.099
 2041SOL    HW1 7022   0.934   6.254   6.034
 2041SOL    HW2 7023   0.939   6.413   6.070
 2042SOL     OW 7024   4.816   6.263   0.124
 2042SOL    HW1 7025   4.750   6.319   0.075
 2042SOL    HW2 7026   4.852   6.193   0.062
 2043SOL     OW 7027   6.353   3.826   3.518
 2043SOL    HW1 7028   6.333   3.895   3.447
 2043SOL    HW2 7029   6.267   3.797   3.561
 2044SOL     OW 7030   6.735   6.961   1.865
 2044SOL    HW1 7031   6.810   6.900   1.840
 2044SOL    HW2 7032   6.725   6.963   1.964
 2045SOL     OW 7033   1.303   5.072   4.067
 2045SOL    HW1 7034   1.328   4.992   4.013
 2045SOL    HW2 7035   1.207   5.065   4.094
 2046SOL     OW 7036   6.756   2.282   3.822
 2046SOL    HW1 7037   6.687   2.253   3.756
 2046SOL    HW2 7038   6.786   2.375   3.800
 2047SOL     OW 7039   0.225   2.707   6.809
 2047SOL    HW1 7040   0.286   2.637   6.846
 2047SOL    HW2 7041   0.130   2.684   6.831
 2048SOL     OW 7042   1.405   6.834   6.129
 2048SOL    HW1 7043   1.388   6.747   6.082
 2048SOL    HW2 7044   1.404   6.909   6.062
 2049SOL     OW 7045   6.401   1.641   4.960
 2049SOL    HW1 7046   6.360   1.604   5.043
 2049SOL    HW2 7047   6.498   1.662   4.977
 2050SOL     OW 7048   6.309   2.243   3.735
 2050SOL    HW1 7049   6.255   2.195   3.665
 2050SOL    HW2 7050   6.388   2.287   3.692
 2051SOL     OW 7051   0.861   5.839   6.985
 2051SOL    HW1 7052   0.794   5.768   7.007
 2051SOL    HW2 7053   0.839   5.922   0.010
 2052SOL     OW 7054   1.336   3.503   1.009
 2052SOL    HW1 7055   1.391   3.428   1.046
 2052SOL    HW2 7056   1.242   3.471   0.993
 2053SOL     OW 7057   6.498   6.434   3.945
 2053SOL    HW1 7058   6.433   6.369   3.985
 2053SOL    HW2 7059   6.477   6.526   3.979
 2054SOL     OW 7060   3.239   4.060   3.012
 2054SOL    HW1 7061   3.321   4.107   2.979
 2054SOL    HW2 7062   3.219   3.982   2.954
 2055SOL     OW 7063   5.946   3.869   4.100
 2055SOL    HW1 7064   5.863   3.923   4.112
 2055SOL    HW2 7065   5.961   3.852   4.003
 2056SOL     OW 7066   4.109   5.511   2.210
 2056SOL    HW1 7067   4.151   5.574   2.274
 2056SOL    HW2 7068   4.132   5.538   2.116
 2057SOL     OW 7069   5.280   4.441   5.904
 2057SOL    HW1 7070   5.254   4.403   5.994
 2057SOL    HW2 7071   5.331   4.372   5.853
 2058SOL     OW 7072   0.565   0.917   2.915
 2058SOL    HW1 7073   0.584   0.993   2.977
 2058SOL    HW2 7074   0.488   0.941   2.855
 2059SOL     OW 7075   1.788   6.146   6.652
 2059SOL    HW1 7076   1.721   6.201   6.601
 2059SOL    HW2 7077   1.786   6.172   6.748
 2060SOL     OW 7078   0.598   4.285   1.587
 2060SOL    HW1 7079   0.597   4.378   1.623
 2060SOL    HW2 7080   0.693   4.258   1.570
 2061SOL     OW 7081   1.280   1.875   2.683
 2061SOL    HW1 7082   1.210   1.820   2.729
 2061SOL    HW2 7083   1.290   1.962   2.731
 2062SOL     OW 7084   6.338   5.359   4.887
 2062SOL    HW1 7085   6.337   5.322   4.794
 2062SOL    HW2 7086   6.386   5.297   4.948
 2063SOL     OW 7087   1.436   6.640   5.938
 2063SOL    HW1 7088   1.360   6.597   5.987
 2063SOL    HW2 7089   1.492   6.569   5.895
 2064SOL     OW 7090   0.645   2.603   5.546
 2064SOL    HW1 7091   0.616   2.698   5.558
 2064SOL    HW2 7092   0.715   2.599   5.475
 2065SOL     OW 7093   5.864   2.235   5.459
 2065SOL    HW1 7094   5.950   2.280   5.436
 2065SOL    HW2 7095   5.877   2.176   5.538
 2066SOL     OW 7096   0.492   4.767   4.083
 2066SOL    HW1 7097   0.569   4.810   4.130
 2066SOL    HW2 7098   0.417   4.833   4.074
 2067SOL     OW 7099   6.595   5.598   1.084
 2067SOL    HW1 7100   6.677   5.602   1.140
 2067SOL    HW2 7101   6.537   5.522   1.115
 2068SOL     OW 7102   2.408   0.112   4.286
 2068SOL    HW1 7103   2.369   0.203   4.274
 2068SOL    HW2 7104   2.337   0.049   4.320
 2069SOL     OW 7105   6.516   2.411   3.631
 2069SOL    HW1 7106   6.533   2.505   3.661
 2069SOL    HW2 7107   6.588   2.382   3.568
 2070SOL     OW 7108   0.945   0.660   1.373
 2070SOL    HW1 7109   0.987   0.750   1.377
 2070SOL    HW2 7110   0.974   0.606   1.453
 2071SOL     OW 7111   6.245   0.356   6.131
 2071SOL    HW1 7112   6.220   0.379   6.225
 2071SOL    HW2 7113   6.307   0.425   6.095
 2072SOL     OW 7114   4.480   5.737   4.433
 2072SOL    HW1 7115   4.540   5.809   4.398
 2072SOL    HW2 7116   4.437   5.690   4.357
 2073SOL     OW 7117   4.604   6.772   5.213
 2073SOL    HW1 7118   4.621   6.719   5.296
 2073SOL    HW2 7119   4.526   6.734   5.164
 2074SOL     OW 7120   1.909   2.455   6.485
 2074SOL    HW1 7121   1.895   2.375   6.426
 2074SOL    HW2 7122   1.970   2.431   6.560
 2075SOL     OW 7123   6.918   2.485   3.316
 2075SOL    HW1 7124   6.893   2.502   3.221
 2075SOL    HW2 7125   6.960   2.566   3.355
 2076SOL     OW 7126   5.723   0.406   6.001
 2076SOL    HW1 7127   5.746   0.340   6.073
 2076SOL    HW2 7128   5.672   0.360   5.929
 2077SOL     OW 7129   5.803   1.946   3.248
 2077SOL    HW1 7130   5.764   2.038   3.237
 2077SOL    HW2 7131   5.763   1.902   3.329
 2078SOL     OW 7132   1.406   5.913   5.771
 2078SOL    HW1 7133   1.494   5.867   5.778
 2078SOL    HW2 7134   1.335   5.856   5.812
 2079SOL     OW 7135   5.712   1.745   2.986
 2079SOL    HW1 7136   5.727   1.660   3.038
 2079SOL    HW2 7137   5.731   1.823   3.045
 2080SOL     OW 7138   1.787   0.302   4.892
 2080SOL    HW1 7139   1.820   0.251   4.972
 2080SOL    HW2 7140   1.705   0.259   4.856
 2081SOL     OW 7141   0.803   5.902   4.591
 2081SOL    HW1 7142   0.746   5.981   4.568
 2081SOL    HW2 7143   0.808   5.840   4.513
 2082SOL     OW 7144   0.736   6.636   3.091
 2082SOL    HW1 7145   0.650   6.622   3.140
 2082SOL    HW2 7146   0.761   6.733   3.095
 2083SOL     OW 7147   0.606   4.803   5.684
 2083SOL    HW1 7148   0.689   4.831   5.733
 2083SOL    HW2 7149   0.595   4.858   5.602
 2084SOL     OW 7150   0.503   4.491   3.223
 2084SOL    HW1 7151   0.445   4.472   3.144
 2084SOL    HW2 7152   0.491   4.587   3.251
 2085SOL     OW 7153   4.812   1.108   0.289
 2085SOL    HW1 7154   4.730   1.065   0.326
 2085SOL    HW2 7155   4.827   1.196   0.334
 2086SOL     OW 7156   3.574   6.699   6.473
 2086SOL    HW1 7157   3.627   6.767   6.422
 2086SOL    HW2 7158   3.585   6.715   6.571
 2087SOL     OW 7159   4.854   0.854   1.280
 2087SOL    HW1 7160   4.906   0.844   1.365
 2087SOL    HW2 7161   4.820   0.947   1.272
 2088SOL     OW 7162   1.122   5.754   6.916
 2088SOL    HW1 7163   1.195   5.776   6.981
 2088SOL    HW2 7164   1.041   5.809   6.937
 2089SOL     OW 7165   4.883   3.074   5.932
 2089SOL    HW1 7166   4.828   3.072   5.849
 2089SOL    HW2 7167   4.979   3.061   5.909
 2090SOL     OW 7168   4.461   3.632   5.824
 2090SOL    HW1 7169   4.446   3.570   5.747
 2090SOL    HW2 7170   4.380   3.689   5.838
 2091SOL     OW 7171   0.087   5.051   0.632
 2091SOL    HW1 7172   0.003   4.998   0.631
 2091SOL    HW2 7173   0.077   5.128   0.696
 2092SOL     OW 7174   5.595   3.870   0.410
 2092SOL    HW1 7175   5.577   3.772   0.401
 2092SOL    HW2 7176   5.516   3.922   0.377
 2093SOL     OW 7177   2.784   2.017   1.305
 2093SOL    HW1 7178   2.850   1.943   1.318
 2093SOL    HW2 7179   2.692   1.979   1.304
 2094SOL     OW 7180   5.775   1.474   2.594
 2094SOL    HW1 7181   5.727   1.536   2.532
 2094SOL    HW2 7182   5.865   1.452   2.557
 2095SOL     OW 7183   6.882   6.842   4.918
 2095SOL    HW1 7184   6.968   6.843   4.868
 2095SOL    HW2 7185   6.809   6.807   4.859
 2096SOL     OW 7186   4.749   4.179   2.907
 2096SOL    HW1 7187   4.690   4.202   2.984
 2096SOL    HW2 7188   4.814   4.108   2.935
 2097SOL     OW 7189   2.939   3.444   6.192
 2097SOL    HW1 7190   2.923   3.457   6.290
 2097SOL    HW2 7191   3.022   3.493   6.166
 2098SOL     OW 7192   4.329   6.120   2.146
 2098SOL    HW1 7193   4.348   6.178   2.067
 2098SOL    HW2 7194   4.264   6.166   2.207
 2099SOL     OW 7195   3.366   1.847   6.430
 2099SOL    HW1 7196   3.311   1.863   6.348
 2099SOL    HW2 7197   3.459   1.878   6.414
 2100SOL     OW 7198   4.994   2.039   0.185
 2100SOL    HW1 7199   4.923   1.971   0.167
 2100SOL    HW2 7200   4.961   2.104   0.254
 2101SOL     OW 7201   0.431   6.627   0.971
 2101SOL    HW1 7202   0.437   6.633   0.871
 2101SOL    HW2 7203   0.371   6.552   0.996
 2102SOL     OW 7204   5.028   4.325   2.481
 2102SOL    HW1 7205   5.001   4.289   2.392
 2102SOL    HW2 7206   4.962   4.394   2.511
 2103SOL     OW 7207   3.605   3.967   6.745
 2103SOL    HW1 7208   3.616   3.982   6.647
 2103SOL    HW2 7209   3.675   3.904   6.778
 2104SOL     OW 7210   1.629   4.519   2.284
 2104SOL    HW1 7211   1.652   4.480   2.373
 2104SOL    HW2 7212   1.579   4.452   2.230
 2105SOL     OW 7213   4.823   4.329   6.754
 2105SOL    HW1 7214   4.812   4.381   6.669
 2105SOL    HW2 7215   4.901   4.267   6.746
 2106SOL     OW 7216   5.613   3.483   1.247
 2106SOL    HW1 7217   5.547   3.557   1.241
 2106SOL    HW2 7218   5.565   3.398   1.269
 2107SOL     OW 7219   6.518   2.183   5.252
 2107SOL    HW1 7220   6.473   2.098   5.279
 2107SOL    HW2 7221   6.587   2.163   5.182
 2108SOL     OW 7222   6.102   5.292   5.016
 2108SOL    HW1 7223   6.177   5.339   4.969
 2108SOL    HW2 7224   6.135   5.260   5.105
 2109SOL     OW 7225   4.463   5.819   2.477
 2109SOL    HW1 7226   4.438   5.916   2.475
 2109SOL    HW2 7227   4.478   5.790   2.571
 2110SOL     OW 7228   2.771   0.915   0.461
 2110SOL    HW1 7229   2.697   0.890   0.523
 2110SOL    HW2 7230   2.733   0.932   0.370
 2111SOL     OW 7231   2.212   3.515   0.228
 2111SOL    HW1 7232   2.124   3.505   0.274
 2111SOL    HW2 7233   2.280   3.547   0.294
 2112SOL     OW 7234   5.184   2.400   0.674
 2112SOL    HW1 7235   5.127   2.472   0.714
 2112SOL    HW2 7236   5.271   2.395   0.722
 2113SOL     OW 7237   2.583   1.066   4.482
 2113SOL    HW1 7238   2.625   1.007   4.413
 2113SOL    HW2 7239   2.652   1.128   4.520
 2114SOL     OW 7240   2.388   1.966   6.698
 2114SOL    HW1 7241   2.336   1.917   6.768
 2114SOL    HW2 7242   2.459   1.907   6.661
 2115SOL     OW 7243   0.476   4.584   2.226
 2115SOL    HW1 7244   0.574   4.579   2.209
 2115SOL    HW2 7245   0.427   4.571   2.140
 2116SOL     OW 7246   0.407   4.192   2.676
 2116SOL    HW1 7247   0.402   4.102   2.632
 2116SOL    HW2 7248   0.480   4.191   2.745
 2117SOL     OW 7249   6.653   4.526   1.750
 2117SOL    HW1 7250   6.727   4.566   1.697
 2117SOL    HW2 7251   6.574   4.587   1.750
 2118SOL     OW 7252   6.149   2.968   3.064
 2118SOL    HW1 7253   6.163   2.982   3.162
 2118SOL    HW2 7254   6.219   2.906   3.029
 2119SOL     OW 7255   1.395   0.236   1.550
 2119SOL    HW1 7256   1.412   0.147   1.591
 2119SOL    HW2 7257   1.326   0.228   1.479
 2120SOL     OW 7258   0.519   4.219   3.258
 2120SOL    HW1 7259   0.518   4.318   3.245
 2120SOL    HW2 7260   0.427   4.187   3.277
 2121SOL     OW 7261   1.428   3.166   5.735
 2121SOL    HW1 7262   1.442   3.069   5.716
 2121SOL    HW2 7263   1.516   3.213   5.732
 2122SOL     OW 7264   5.676   5.327   6.477
 2122SOL    HW1 7265   5.752   5.308   6.416
 2122SOL    HW2 7266   5.619   5.246   6.486
 2123SOL     OW 7267   6.585   5.614   1.903
 2123SOL    HW1 7268   6.543   5.541   1.850
 2123SOL    HW2 7269   6.524   5.693   1.904
 2124SOL     OW 7270   2.981   1.817   1.204
 2124SOL    HW1 7271   3.014   1.900   1.158
 2124SOL    HW2 7272   3.032   1.804   1.289
 2125SOL     OW 7273   1.801   6.471   2.159
 2125SOL    HW1 7274   1.805   6.516   2.248
 2125SOL    HW2 7275   1.865   6.515   2.096
 2126SOL     OW 7276   3.403   2.457   6.280
 2126SOL    HW1 7277   3.313   2.496   6.301
 2126SOL    HW2 7278   3.394   2.392   6.205
 2127SOL     OW 7279   1.478   1.875   5.769
 2127SOL    HW1 7280   1.441   1.967   5.756
 2127SOL    HW2 7281   1.468   1.849   5.866
 2128SOL     OW 7282   6.288   2.654   3.322
 2128SOL    HW1 7283   6.231   2.736   3.331
 2128SOL    HW2 7284   6.283   2.601   3.407
 2129SOL     OW 7285   4.944   3.423   4.988
 2129SOL    HW1 7286   4.966   3.400   5.083
 2129SOL    HW2 7287   4.910   3.517   4.984
 2130SOL     OW 7288   3.499   0.069   2.906
 2130SOL    HW1 7289   3.452   0.145   2.862
 2130SOL    HW2 7290   3.514   7.021   2.839
 2131SOL     OW 7291   4.716   1.736   0.896
 2131SOL    HW1 7292   4.695   1.639   0.882
 2131SOL    HW2 7293   4.643   1.791   0.855
 2132SOL     OW 7294   3.423   1.163   0.490
 2132SOL    HW1 7295   3.369   1.086   0.457
 2132SOL    HW2 7296   3.440   1.152   0.588
 2133SOL     OW 7297   3.500   2.545   1.355
 2133SOL    HW1 7298   3.529   2.455   1.325
 2133SOL    HW2 7299   3.518   2.612   1.282
 2134SOL     OW 7300   1.102   0.878   4.325
 2134SOL    HW1 7301   1.069   0.954   4.269
 2134SOL    HW2 7302   1.192   0.902   4.363
 2135SOL     OW 7303   1.102   2.050   4.552
 2135SOL    HW1 7304   1.047   2.040   4.469
 2135SOL    HW2 7305   1.054   2.109   4.617
 2136SOL     OW 7306   1.045   4.040   4.282
 2136SOL    HW1 7307   1.067   4.055   4.379
 2136SOL    HW2 7308   0.982   4.112   4.251
 2137SOL     OW 7309   6.938   5.939   4.177
 2137SOL    HW1 7310   6.878   5.875   4.129
 2137SOL    HW2 7311   6.938   6.027   4.129
 2138SOL     OW 7312   6.964   1.078   1.392
 2138SOL    HW1 7313   6.990   1.139   1.317
 2138SOL    HW2 7314   7.008   1.108   1.477
 2139SOL     OW 7315   3.453   0.755   2.963
 2139SOL    HW1 7316   3.456   0.657   2.981
 2139SOL    HW2 7317   3.432   0.771   2.867
 2140SOL     OW 7318   3.182   5.834   3.558
 2140SOL    HW1 7319   3.118   5.823   3.482
 2140SOL    HW2 7320   3.132   5.828   3.645
 2141SOL     OW 7321   6.404   4.670   1.406
 2141SOL    HW1 7322   6.360   4.610   1.340
 2141SOL    HW2 7323   6.486   4.711   1.365
 2142SOL     OW 7324   1.326   1.901   3.264
 2142SOL    HW1 7325   1.302   1.888   3.168
 2142SOL    HW2 7326   1.367   1.818   3.300
 2143SOL     OW 7327   3.051   4.402   1.412
 2143SOL    HW1 7328   2.975   4.431   1.353
 2143SOL    HW2 7329   3.025   4.319   1.461
 2144SOL     OW 7330   1.286   5.517   3.168
 2144SOL    HW1 7331   1.291   5.513   3.268
 2144SOL    HW2 7332   1.379   5.518   3.131
 2145SOL     OW 7333   3.834   6.052   4.408
 2145SOL    HW1 7334   3.831   6.049   4.308
 2145SOL    HW2 7335   3.741   6.044   4.444
 2146SOL     OW 7336   2.402   3.630   1.585
 2146SOL    HW1 7337   2.314   3.641   1.538
 2146SOL    HW2 7338   2.387   3.587   1.674
 2147SOL     OW 7339   0.367   1.272   6.589
 2147SOL    HW1 7340   0.272   1.289   6.616
 2147SOL    HW2 7341   0.428   1.319   6.652
 2148SOL     OW 7342   5.346   2.507   4.522
 2148SOL    HW1 7343   5.365   2.479   4.616
 2148SOL    HW2 7344   5.253   2.480   4.497
 2149SOL     OW 7345   3.738   1.598   1.291
 2149SOL    HW1 7346   3.833   1.631   1.290
 2149SOL    HW2 7347   3.703   1.598   1.197
 2150SOL     OW 7348   2.267   2.132   2.323
 2150SOL    HW1 7349   2.307   2.219   2.351
 2150SOL    HW2 7350   2.292   2.061   2.389
 2151SOL     OW 7351   1.711   1.157   4.017
 2151SOL    HW1 7352   1.667   1.135   3.930
 2151SOL    HW2 7353   1.691   1.252   4.042
 2152SOL     OW 7354   3.859   6.718   1.052
 2152SOL    HW1 7355   3.956   6.715   1.030
 2152SOL    HW2 7356   3.808   6.660   0.988
 2153SOL     OW 7357   3.917   0.348   3.043
 2153SOL    HW1 7358   3.921   0.434   2.991
 2153SOL    HW2 7359   3.824   0.310   3.037
 2154SOL     OW 7360   5.268   0.263   4.785
 2154SOL    HW1 7361   5.276   0.167   4.811
 2154SOL    HW2 7362   5.310   0.320   4.855
 2155SOL     OW 7363   1.995   5.881   0.365
 2155SOL    HW1 7364   1.899   5.853   0.373
 2155SOL    HW2 7365   2.029   5.856   0.274
 2156SOL     OW 7366   2.448   0.761   3.167
 2156SOL    HW1 7367   2.399   0.847   3.152
 2156SOL    HW2 7368   2.491   0.732   3.081
 2157SOL     OW 7369   5.601   0.786   3.336
 2157SOL    HW1 7370   5.666   0.798   3.412
 2157SOL    HW2 7371   5.509   0.775   3.372
 2158SOL     OW 7372   3.992   6.389   1.064
 2158SOL    HW1 7373   4.046   6.359   0.985
 2158SOL    HW2 7374   3.919   6.450   1.033
 2159SOL     OW 7375   2.379   6.239   5.511
 2159SOL    HW1 7376   2.288   6.279   5.519
 2159SOL    HW2 7377   2.412   6.247   5.417
 2160SOL     OW 7378   4.567   3.273   1.180
 2160SOL    HW1 7379   4.650   3.217   1.184
 2160SOL    HW2 7380   4.581   3.349   1.117
 2161SOL     OW 7381   5.284   4.155   3.724
 2161SOL    HW1 7382   5.283   4.061   3.691
 2161SOL    HW2 7383   5.352   4.209   3.673
 2162SOL     OW 7384   2.939   1.030   0.631
 2162SOL    HW1 7385   2.888   1.087   0.695
 2162SOL    HW2 7386   2.889   1.023   0.544
 2163SOL     OW 7387   6.914   4.616   6.464
 2163SOL    HW1 7388   6.819   4.616   6.433
 2163SOL    HW2 7389   6.931   4.537   6.523
 2164SOL     OW 7390   1.970   2.800   0.051
 2164SOL    HW1 7391   1.916   2.850   7.009
 2164SOL    HW2 7392   2.058   2.845   0.063
 2165SOL     OW 7393   1.033   1.776   2.820
 2165SOL    HW1 7394   1.021   1.854   2.759
 2165SOL    HW2 7395   0.999   1.693   2.776
 2166SOL     OW 7396   1.753   2.830   5.426
 2166SOL    HW1 7397   1.680   2.818   5.359
 2166SOL    HW2 7398   1.726   2.900   5.492
 2167SOL     OW 7399   1.422   0.909   3.594
 2167SOL    HW1 7400   1.464   0.875   3.678
 2167SOL    HW2 7401   1.383   1.000   3.611
 2168SOL     OW 7402   0.773   1.668   3.381
 2168SOL    HW1 7403   0.854   1.650   3.326
 2168SOL    HW2 7404   0.711   1.728   3.330
 2169SOL     OW 7405   5.378   2.225   5.614
 2169SOL    HW1 7406   5.391   2.135   5.573
 2169SOL    HW2 7407   5.294   2.266   5.579
 2170SOL     OW 7408   6.254   4.919   5.617
 2170SOL    HW1 7409   6.232   4.976   5.696
 2170SOL    HW2 7410   6.247   4.823   5.643
 2171SOL     OW 7411   6.794   3.631   2.247
 2171SOL    HW1 7412   6.801   3.723   2.285
 2171SOL    HW2 7413   6.850   3.625   2.164
 2172SOL     OW 7414   2.546   2.075   0.407
 2172SOL    HW1 7415   2.586   2.069   0.498
 2172SOL    HW2 7416   2.619   2.092   0.340
 2173SOL     OW 7417   4.548   0.258   5.410
 2173SOL    HW1 7418   4.517   0.230   5.501
 2173SOL    HW2 7419   4.589   0.179   5.364
 2174SOL     OW 7420   5.885   5.228   5.870
 2174SOL    HW1 7421   5.832   5.313   5.871
 2174SOL    HW2 7422   5.897   5.195   5.964
 2175SOL     OW 7423   2.974   1.833   4.031
 2175SOL    HW1 7424   2.892   1.889   4.039
 2175SOL    HW2 7425   2.951   1.746   3.988
 2176SOL     OW 7426   0.527   3.488   6.865
 2176SOL    HW1 7427   0.518   3.401   6.914
 2176SOL    HW2 7428   0.436   3.526   6.849
 2177SOL     OW 7429   6.795   1.105   3.706
 2177SOL    HW1 7430   6.892   1.096   3.685
 2177SOL    HW2 7431   6.782   1.178   3.773
 2178SOL     OW 7432   1.057   3.969   0.063
 2178SOL    HW1 7433   1.033   3.967   0.160
 2178SOL    HW2 7434   1.080   3.876   0.033
 2179SOL     OW 7435   1.235   5.540   4.992
 2179SOL    HW1 7436   1.255   5.633   4.960
 2179SOL    HW2 7437   1.237   5.477   4.915
 2180SOL     OW 7438   2.609   3.491   1.752
 2180SOL    HW1 7439   2.615   3.426   1.677
 2180SOL    HW2 7440   2.513   3.508   1.774
 2181SOL     OW 7441   5.070   4.438   5.711
 2181SOL    HW1 7442   5.149   4.396   5.754
 2181SOL    HW2 7443   5.085   4.445   5.612
 2182SOL     OW 7444   6.889   2.878   4.949
 2182SOL    HW1 7445   6.981   2.843   4.969
 2182SOL    HW2 7446   6.880   2.970   4.985
 2183SOL     OW 7447   3.436   3.412   6.359
 2183SOL    HW1 7448   3.363   3.343   6.358
 2183SOL    HW2 7449   3.475   3.421   6.268
 2184SOL     OW 7450   4.288   1.501   5.552
 2184SOL    HW1 7451   4.207   1.484   5.609
 2184SOL    HW2 7452   4.260   1.505   5.456
 2185SOL     OW 7453   1.363   1.820   0.945
 2185SOL    HW1 7454   1.372   1.885   1.020
 2185SOL    HW2 7455   1.430   1.841   0.874
 2186SOL     OW 7456   6.702   5.007   2.200
 2186SOL    HW1 7457   6.656   4.938   2.256
 2186SOL    HW2 7458   6.784   4.967   2.159
 2187SOL     OW 7459   0.137   1.739   2.007
 2187SOL    HW1 7460   0.216   1.737   2.069
 2187SOL    HW2 7461   0.161   1.791   1.924
 2188SOL     OW 7462   5.177   6.188   4.020
 2188SOL    HW1 7463   5.222   6.197   4.109
 2188SOL    HW2 7464   5.246   6.165   3.950
 2189SOL     OW 7465   1.713   6.704   0.026
 2189SOL    HW1 7466   1.640   6.658   7.002
 2189SOL    HW2 7467   1.797   6.649   0.019
 2190SOL     OW 7468   0.410   2.670   2.578
 2190SOL    HW1 7469   0.381   2.766   2.579
 2190SOL    HW2 7470   0.435   2.644   2.485
 2191SOL     OW 7471   2.726   1.619   6.356
 2191SOL    HW1 7472   2.796   1.689   6.366
 2191SOL    HW2 7473   2.751   1.538   6.410
 2192SOL     OW 7474   3.778   7.011   3.504
 2192SOL    HW1 7475   3.777   0.003   3.602
 2192SOL    HW2 7476   3.860   6.958   3.479
 2193SOL     OW 7477   0.159   5.785   6.143
 2193SOL    HW1 7478   0.155   5.832   6.054
 2193SOL    HW2 7479   0.177   5.688   6.129
 2194SOL     OW 7480   2.066   5.224   6.701
 2194SOL    HW1 7481   1.970   5.208   6.677
 2194SOL    HW2 7482   2.123   5.153   6.660
 2195SOL     OW 7483   6.965   6.766   3.849
 2195SOL    HW1 7484   6.933   6.759   3.943
 2195SOL    HW2 7485   6.891   6.799   3.791
 2196SOL     OW 7486   3.714   0.033   5.467
 2196SOL    HW1 7487   3.784   0.091   5.509
 2196SOL    HW2 7488   3.757   6.995   5.403
 2197SOL     OW 7489   3.756   3.581   1.606
 2197SOL    HW1 7490   3.745   3.559   1.510
 2197SOL    HW2 7491   3.667   3.602   1.646
 2198SOL     OW 7492   6.354   1.575   6.850
 2198SOL    HW1 7493   6.383   1.665   6.882
 2198SOL    HW2 7494   6.330   1.517   6.928
 2199SOL     OW 7495   4.751   0.844   2.670
 2199SOL    HW1 7496   4.760   0.776   2.742
 2199SOL    HW2 7497   4.810   0.922   2.689
 2200SOL     OW 7498   4.016   0.317   4.682
 2200SOL    HW1 7499   3.974   0.241   4.633
 2200SOL    HW2 7500   4.102   0.286   4.723
 2201SOL     OW 7501   6.391   2.699   2.709
 2201SOL    HW1 7502   6.310   2.736   2.664
 2201SOL    HW2 7503   6.443   2.773   2.750
 2202SOL     OW 7504   3.131   4.876   3.068
 2202SOL    HW1 7505   3.048   4.825   3.047
 2202SOL    HW2 7506   3.180   4.896   2.983
 2203SOL     OW 7507   2.268   2.929   1.428
 2203SOL    HW1 7508   2.347   2.890   1.380
 2203SOL    HW2 7509   2.186   2.874   1.407
 2204SOL     OW 7510   3.553   1.014   6.634
 2204SOL    HW1 7511   3.491   1.050   6.703
 2204SOL    HW2 7512   3.618   0.951   6.677
 2205SOL     OW 7513   1.783   0.184   6.028
 2205SOL    HW1 7514   1.763   0.265   6.083
 2205SOL    HW2 7515   1.829   0.212   5.944
 2206SOL     OW 7516   2.634   4.241   5.595
 2206SOL    HW1 7517   2.610   4.164   5.536
 2206SOL    HW2 7518   2.586   4.323   5.563
 2207SOL     OW 7519   2.325   3.829   6.783
 2207SOL    HW1 7520   2.324   3.765   6.705
 2207SOL    HW2 7521   2.361   3.917   6.754
 2208SOL     OW 7522   1.624   5.359   2.307
 2208SOL    HW1 7523   1.680   5.440   2.287
 2208SOL    HW2 7524   1.575   5.332   2.224
 2209SOL     OW 7525   1.044   5.649   5.718
 2209SOL    HW1 7526   1.088   5.650   5.629
 2209SOL    HW2 7527   1.040   5.741   5.755
 2210SOL     OW 7528   6.823   4.583   3.580
 2210SOL    HW1 7529   6.841   4.507   3.642
 2210SOL    HW2 7530   6.909   4.614   3.539
 2211SOL     OW 7531   5.105   1.092   0.361
 2211SOL    HW1 7532   5.137   1.184   0.386
 2211SOL    HW2 7533   5.005   1.090   0.366
 2212SOL     OW 7534   1.970   6.540   0.035
 2212SOL    HW1 7535   2.069   6.535   0.027
 2212SOL    HW2 7536   1.938   6.480   0.108
 2213SOL     OW 7537   3.969   2.786   5.268
 2213SOL    HW1 7538   4.038   2.722   5.235
 2213SOL    HW2 7539   3.998   2.880   5.247
 2214SOL     OW 7540   4.584   2.436   5.626
 2214SOL    HW1 7541   4.516   2.509   5.621
 2214SOL    HW2 7542   4.563   2.366   5.559
 2215SOL     OW 7543   6.417   1.889   6.870
 2215SOL    HW1 7544   6.318   1.900   6.879
 2215SOL    HW2 7545   6.460   1.897   6.960
 2216SOL     OW 7546   1.899   0.537   6.042
 2216SOL    HW1 7547   1.889   0.622   5.991
 2216SOL    HW2 7548   1.988   0.496   6.024
 2217SOL     OW 7549   3.851   0.461   1.205
 2217SOL    HW1 7550   3.930   0.510   1.242
 2217SOL    HW2 7551   3.833   0.380   1.259
 2218SOL     OW 7552   0.678   6.730   0.695
 2218SOL    HW1 7553   0.663   6.825   0.723
 2218SOL    HW2 7554   0.695   6.726   0.597
 2219SOL     OW 7555   0.282   2.910   2.402
 2219SOL    HW1 7556   0.373   2.924   2.441
 2219SOL    HW2 7557   0.281   2.945   2.309
 2220SOL     OW 7558   0.604   1.110   4.693
 2220SOL    HW1 7559   0.558   1.121   4.782
 2220SOL    HW2 7560   0.590   1.016   4.661
 2221SOL     OW 7561   6.660   0.733   5.722
 2221SOL    HW1 7562   6.624   0.648   5.684
 2221SOL    HW2 7563   6.643   0.736   5.820
 2222SOL     OW 7564   3.683   0.465   0.765
 2222SOL    HW1 7565   3.763   0.440   0.820
 2222SOL    HW2 7566   3.708   0.465   0.668
 2223SOL     OW 7567   6.058   0.064   4.043
 2223SOL    HW1 7568   6.058   0.142   3.980
 2223SOL    HW2 7569   6.152   0.034   4.059
 2224SOL     OW 7570   1.785   4.498   1.880
 2224SOL    HW1 7571   1.823   4.421   1.932
 2224SOL    HW2 7572   1.687   4.505   1.898
 2225SOL     OW 7573   6.243   5.845   3.196
 2225SOL    HW1 7574   6.278   5.938   3.182
 2225SOL    HW2 7575   6.197   5.839   3.284
 2226SOL     OW 7576   4.210   4.474   0.291
 2226SOL    HW1 7577   4.135   4.535   0.317
 2226SOL    HW2 7578   4.251   4.435   0.374
 2227SOL     OW 7579   5.416   3.553   0.116
 2227SOL    HW1 7580   5.325   3.554   0.076
 2227SOL    HW2 7581   5.450   3.459   0.120
 2228SOL     OW 7582   3.012   5.214   1.439
 2228SOL    HW1 7583   3.038   5.164   1.356
 2228SOL    HW2 7584   3.082   5.281   1.461
 2229SOL     OW 7585   4.159   1.752   4.860
 2229SOL    HW1 7586   4.225   1.679   4.843
 2229SOL    HW2 7587   4.174   1.826   4.796
 2230SOL     OW 7588   6.694   5.270   5.711
 2230SOL    HW1 7589   6.624   5.273   5.640
 2230SOL    HW2 7590   6.782   5.245   5.671
 2231SOL     OW 7591   1.171   0.818   1.420
 2231SOL    HW1 7592   1.154   0.905   1.374
 2231SOL    HW2 7593   1.181   0.745   1.352
 2232SOL     OW 7594   1.638   2.279   4.100
 2232SOL    HW1 7595   1.554   2.318   4.137
 2232SOL    HW2 7596   1.618   2.189   4.061
 2233SOL     OW 7597   2.256   4.538   1.353
 2233SOL    HW1 7598   2.351   4.563   1.337
 2233SOL    HW2 7599   2.225   4.475   1.282
 2234SOL     OW 7600   4.820   2.289   2.077
 2234SOL    HW1 7601   4.737   2.294   2.134
 2234SOL    HW2 7602   4.869   2.204   2.098
 2235SOL     OW 7603   1.972   0.459   1.240
 2235SOL    HW1 7604   1.979   0.423   1.333
 2235SOL    HW2 7605   2.062   0.461   1.197
 2236SOL     OW 7606   0.886   4.084   6.493
 2236SOL    HW1 7607   0.915   4.047   6.404
 2236SOL    HW2 7608   0.868   4.182   6.483
 2237SOL     OW 7609   5.511   4.403   4.331
 2237SOL    HW1 7610   5.505   4.304   4.323
 2237SOL    HW2 7611   5.484   4.431   4.424
 2238SOL     OW 7612   5.418   5.826   1.807
 2238SOL    HW1 7613   5.483   5.804   1.880
 2238SOL    HW2 7614   5.429   5.922   1.779
 2239SOL     OW 7615   3.592   5.354   3.539
 2239SOL    HW1 7616   3.652   5.358   3.459
 2239SOL    HW2 7617   3.546   5.441   3.550
 2240SOL     OW 7618   5.351   5.823   3.842
 2240SOL    HW1 7619   5.318   5.837   3.936
 2240SOL    HW2 7620   5.385   5.730   3.832
 2241SOL     OW 7621   0.411   6.939   1.975
 2241SOL    HW1 7622   0.495   6.917   2.024
 2241SOL    HW2 7623   0.417   0.006   1.938
 2242SOL     OW 7624   5.246   2.430   2.785
 2242SOL    HW1 7625   5.198   2.344   2.767
 2242SOL    HW2 7626   5.236   2.453   2.882
 2243SOL     OW 7627   2.734   6.468   5.128
 2243SOL    HW1 7628   2.804   6.521   5.080
 2243SOL    HW2 7629   2.745   6.479   5.227
 2244SOL     OW 7630   3.169   0.446   2.766
 2244SOL    HW1 7631   3.146   0.542   2.782
 2244SOL    HW2 7632   3.096   0.402   2.714
 2245SOL     OW 7633   0.455   1.913   1.999
 2245SOL    HW1 7634   0.494   1.860   2.074
 2245SOL    HW2 7635   0.362   1.941   2.022
 2246SOL     OW 7636   1.579   0.943   5.415
 2246SOL    HW1 7637   1.542   0.855   5.443
 2246SOL    HW2 7638   1.526   1.017   5.457
 2247SOL     OW 7639   2.765   3.032   5.582
 2247SOL    HW1 7640   2.713   3.042   5.668
 2247SOL    HW2 7641   2.859   3.005   5.603
 2248SOL     OW 7642   3.871   4.104   6.354
 2248SOL    HW1 7643   3.912   4.021   6.315
 2248SOL    HW2 7644   3.908   4.119   6.445
 2249SOL     OW 7645   6.452   6.069   2.630
 2249SOL    HW1 7646   6.465   6.013   2.712
 2249SOL    HW2 7647   6.532   6.060   2.571
 2250SOL     OW 7648   5.083   3.719   0.928
 2250SOL    HW1 7649   5.041   3.640   0.882
 2250SOL    HW2 7650   5.113   3.692   1.020
 2251SOL     OW 7651   5.341   1.517   0.312
 2251SOL    HW1 7652   5.364   1.428   0.272
 2251SOL    HW2 7653   5.338   1.586   0.240
 2252SOL     OW 7654   6.517   2.019   3.033
 2252SOL    HW1 7655   6.591   2.021   2.966
 2252SOL    HW2 7656   6.509   2.109   3.077
 2253SOL     OW 7657   0.639   3.721   6.977
 2253SOL    HW1 7658   0.622   3.644   6.916
 2253SOL    HW2 7659   0.695   3.690   0.029
 2254SOL     OW 7660   2.352   3.253   5.901
 2254SOL    HW1 7661   2.333   3.342   5.941
 2254SOL    HW2 7662   2.267   3.212   5.867
 2255SOL     OW 7663   4.841   2.592   0.099
 2255SOL    HW1 7664   4.819   2.501   0.134
 2255SOL    HW2 7665   4.932   2.591   0.057
 2256SOL     OW 7666   4.088   6.610   1.554
 2256SOL    HW1 7667   4.127   6.702   1.544
 2256SOL    HW2 7668   3.991   6.617   1.576
 2257SOL     OW 7669   0.053   2.682   3.941
 2257SOL    HW1 7670   0.129   2.691   4.006
 2257SOL    HW2 7671   0.064   2.749   3.868
 2258SOL     OW 7672   0.978   5.312   5.525
 2258SOL    HW1 7673   1.020   5.299   5.435
 2258SOL    HW2 7674   1.049   5.320   5.594
 2259SOL     OW 7675   4.562   3.958   6.571
 2259SOL    HW1 7676   4.553   4.019   6.650
 2259SOL    HW2 7677   4.523   3.869   6.593
 2260SOL     OW 7678   5.771   4.636   2.931
 2260SOL    HW1 7679   5.690   4.614   2.985
 2260SOL    HW2 7680   5.795   4.558   2.874
 2261SOL     OW 7681   6.405   6.776   1.140
 2261SOL    HW1 7682   6.465   6.803   1.215
 2261SOL    HW2 7683   6.402   6.676   1.135
 2262SOL     OW 7684   5.346   2.598   2.605
 2262SOL    HW1 7685   5.322   2.517   2.659
 2262SOL    HW2 7686   5.266   2.628   2.553
 2263SOL     OW 7687   2.887   6.210   6.031
 2263SOL    HW1 7688   2.910   6.219   5.934
 2263SOL    HW2 7689   2.958   6.157   6.078
 2264SOL     OW 7690   3.449   3.410   1.373
 2264SOL    HW1 7691   3.534   3.357   1.379
 2264SOL    HW2 7692   3.371   3.348   1.369
 2265SOL     OW 7693   0.454   0.425   3.902
 2265SOL    HW1 7694   0.363   0.391   3.878
 2265SOL    HW2 7695   0.492   0.475   3.824
 2266SOL     OW 7696   5.681   1.527   1.271
 2266SOL    HW1 7697   5.667   1.547   1.174
 2266SOL    HW2 7698   5.592   1.524   1.317
 2267SOL     OW 7699   4.974   2.464   4.977
 2267SOL    HW1 7700   5.021   2.453   4.890
 2267SOL    HW2 7701   4.987   2.557   5.011
 2268SOL     OW 7702   6.374   3.895   6.367
 2268SOL    HW1 7703   6.346   3.829   6.297
 2268SOL    HW2 7704   6.430   3.849   6.436
 2269SOL     OW 7705   5.763   6.001   4.654
 2269SOL    HW1 7706   5.701   6.073   4.623
 2269SOL    HW2 7707   5.723   5.911   4.635
 2270SOL     OW 7708   3.192   2.683   6.744
 2270SOL    HW1 7709   3.129   2.754   6.712
 2270SOL    HW2 7710   3.245   2.649   6.667
 2271SOL     OW 7711   6.196   3.940   0.363
 2271SOL    HW1 7712   6.267   3.870   0.368
 2271SOL    HW2 7713   6.152   3.937   0.273
 2272SOL     OW 7714   5.616   1.678   5.231
 2272SOL    HW1 7715   5.624   1.755   5.167
 2272SOL    HW2 7716   5.520   1.653   5.241
 2273SOL     OW 7717   1.365   1.068   2.089
 2273SOL    HW1 7718   1.409   0.991   2.134
 2273SOL    HW2 7719   1.430   1.111   2.026
 2274SOL     OW 7720   1.721   2.499   6.117
 2274SOL    HW1 7721   1.775   2.569   6.163
 2274SOL    HW2 7722   1.631   2.535   6.094
 2275SOL     OW 7723   5.836   0.422   4.820
 2275SOL    HW1 7724   5.848   0.435   4.722
 2275SOL    HW2 7725   5.846   0.325   4.843
 2276SOL     OW 7726   3.286   4.833   0.922
 2276SOL    HW1 7727   3.276   4.734   0.910
 2276SOL    HW2 7728   3.231   4.863   1.000
 2277SOL     OW 7729   3.749   4.072   4.589
 2277SOL    HW1 7730   3.830   4.041   4.540
 2277SOL    HW2 7731   3.773   4.090   4.685
 2278SOL     OW 7732   6.041   6.229   4.312
 2278SOL    HW1 7733   5.957   6.262   4.354
 2278SOL    HW2 7734   6.054   6.274   4.224
 2279SOL     OW 7735   4.713   5.694   4.564
 2279SOL    HW1 7736   4.632   5.680   4.507
 2279SOL    HW2 7737   4.691   5.757   4.639
 2280SOL     OW 7738   7.019   6.216   4.815
 2280SOL    HW1 7739   6.949   6.191   4.881
 2280SOL    HW2 7740   0.046   6.294   4.851
 2281SOL     OW 7741   3.316   1.011   1.820
 2281SOL    HW1 7742   3.223   1.028   1.851
 2281SOL    HW2 7743   3.360   0.945   1.881
 2282SOL     OW 7744   5.749   0.035   5.201
 2282SOL    HW1 7745   5.694   7.014   5.131
 2282SOL    HW2 7746   5.718   0.129   5.210
 2283SOL     OW 7747   6.553   4.380   1.534
 2283SOL    HW1 7748   6.548   4.451   1.465
 2283SOL    HW2 7749   6.599   4.416   1.616
 2284SOL     OW 7750   2.415   1.708   0.587
 2284SOL    HW1 7751   2.354   1.764   0.531
 2284SOL    HW2 7752   2.365   1.673   0.666
 2285SOL     OW 7753   1.434   2.857   0.502
 2285SOL    HW1 7754   1.384   2.919   0.442
 2285SOL    HW2 7755   1.496   2.910   0.561
 2286SOL     OW 7756   0.128   0.078   4.094
 2286SOL    HW1 7757   0.119   0.177   4.106
 2286SOL    HW2 7758   0.091   0.051   4.005
 2287SOL     OW 7759   2.248   2.820   1.951
 2287SOL    HW1 7760   2.302   2.745   1.987
 2287SOL    HW2 7761   2.264   2.829   1.853
 2288SOL     OW 7762   6.721   4.505   4.565
 2288SOL    HW1 7763   6.654   4.502   4.491
 2288SOL    HW2 7764   6.711   4.424   4.622
 2289SOL     OW 7765   6.148   4.438   2.529
 2289SOL    HW1 7766   6.077   4.508   2.534
 2289SOL    HW2 7767   6.105   4.348   2.534
 2290SOL     OW 7768   1.972   3.764   2.172
 2290SOL    HW1 7769   2.022   3.678   2.162
 2290SOL    HW2 7770   2.028   3.839   2.138
 2291SOL     OW 7771   2.247   1.942   0.744
 2291SOL    HW1 7772   2.229   1.908   0.651
 2291SOL    HW2 7773   2.225   1.871   0.810
 2292SOL     OW 7774   5.698   2.178   3.179
 2292SOL    HW1 7775   5.655   2.232   3.251
 2292SOL    HW2 7776   5.755   2.238   3.123
 2293SOL     OW 7777   6.641   0.127   1.143
 2293SOL    HW1 7778   6.725   0.177   1.166
 2293SOL    HW2 7779   6.663   0.049   1.085
 2294SOL     OW 7780   2.936   1.382   6.100
 2294SOL    HW1 7781   2.883   1.298   6.087
 2294SOL    HW2 7782   3.014   1.364   6.160
 2295SOL     OW 7783   0.482   1.439   2.915
 2295SOL    HW1 7784   0.544   1.413   2.842
 2295SOL    HW2 7785   0.409   1.497   2.878
 2296SOL     OW 7786   3.588   5.447   2.560
 2296SOL    HW1 7787   3.650   5.398   2.499
 2296SOL    HW2 7788   3.628   5.536   2.583
 2297SOL     OW 7789   4.817   4.543   5.799
 2297SOL    HW1 7790   4.762   4.460   5.788
 2297SOL    HW2 7791   4.908   4.529   5.759
 2298SOL     OW 7792   3.846   3.626   2.924
 2298SOL    HW1 7793   3.936   3.657   2.894
 2298SOL    HW2 7794   3.780   3.701   2.913
 2299SOL     OW 7795   4.771   4.469   5.220
 2299SOL    HW1 7796   4.708   4.392   5.210
 2299SOL    HW2 7797   4.800   4.476   5.316
 2300SOL     OW 7798   2.762   6.384   3.444
 2300SOL    HW1 7799   2.854   6.409   3.475
 2300SOL    HW2 7800   2.742   6.430   3.358
 2301SOL     OW 7801   3.861   3.010   3.425
 2301SOL    HW1 7802   3.954   3.010   3.388
 2301SOL    HW2 7803   3.864   2.992   3.524
 2302SOL     OW 7804   3.865   0.375   0.926
 2302SOL    HW1 7805   3.875   0.278   0.947
 2302SOL    HW2 7806   3.909   0.429   0.998
 2303SOL     OW 7807   2.951   3.358   0.789
 2303SOL    HW1 7808   2.939   3.259   0.793
 2303SOL    HW2 7809   2.932   3.390   0.695
 2304SOL     OW 7810   5.583   6.191   4.557
 2304SOL    HW1 7811   5.549   6.268   4.613
 2304SOL    HW2 7812   5.515   6.117   4.558
 2305SOL     OW 7813   2.247   0.218   2.998
 2305SOL    HW1 7814   2.199   0.161   3.065
 2305SOL    HW2 7815   2.346   0.209   3.012
 2306SOL     OW 7816   2.328   5.165   1.765
 2306SOL    HW1 7817   2.329   5.221   1.849
 2306SOL    HW2 7818   2.306   5.224   1.687
 2307SOL     OW 7819   0.143   3.056   5.014
 2307SOL    HW1 7820   0.110   3.122   4.947
 2307SOL    HW2 7821   0.233   3.022   4.986
 2308SOL     OW 7822   2.830   4.535   1.071
 2308SOL    HW1 7823   2.849   4.556   0.975
 2308SOL    HW2 7824   2.874   4.448   1.095
 2309SOL     OW 7825   2.077   0.727   5.494
 2309SOL    HW1 7826   1.991   0.761   5.456
 2309SOL    HW2 7827   2.099   0.778   5.578
 2310SOL     OW 7828   5.723   5.447   1.471
 2310SOL    HW1 7829   5.816   5.417   1.493
 2310SOL    HW2 7830   5.712   5.543   1.497
 2311SOL     OW 7831   2.118   6.808   1.198
 2311SOL    HW1 7832   2.138   6.892   1.249
 2311SOL    HW2 7833   2.193   6.743   1.211
 2312SOL     OW 7834   4.851   5.304   3.349
 2312SOL    HW1 7835   4.868   5.280   3.253
 2312SOL    HW2 7836   4.883   5.397   3.366
 2313SOL     OW 7837   4.878   5.904   2.657
 2313SOL    HW1 7838   4.934   5.832   2.615
 2313SOL    HW2 7839   4.831   5.955   2.586
 2314SOL     OW 7840   5.027   6.377   3.115
 2314SOL    HW1 7841   5.008   6.346   3.208
 2314SOL    HW2 7842   4.948   6.358   3.057
 2315SOL     OW 7843   5.226   3.117   6.590
 2315SOL    HW1 7844   5.131   3.146   6.598
 2315SOL    HW2 7845   5.229   3.019   6.567
 2316SOL     OW 7846   4.038   1.774   3.994
 2316SOL    HW1 7847   4.120   1.746   4.044
 2316SOL    HW2 7848   4.025   1.713   3.915
 2317SOL     OW 7849   0.234   5.866   2.883
 2317SOL    HW1 7850   0.184   5.950   2.862
 2317SOL    HW2 7851   0.220   5.799   2.810
 2318SOL     OW 7852   0.482   2.784   3.279
 2318SOL    HW1 7853   0.441   2.703   3.320
 2318SOL    HW2 7854   0.427   2.864   3.302
 2319SOL     OW 7855   1.617   5.015   3.950
 2319SOL    HW1 7856   1.526   4.980   3.971
 2319SOL    HW2 7857   1.619   5.114   3.964
 2320SOL     OW 7858   0.734   2.404   3.790
 2320SOL    HW1 7859   0.723   2.306   3.771
 2320SOL    HW2 7860   0.731   2.455   3.703
 2321SOL     OW 7861   3.762   0.587   5.422
 2321SOL    HW1 7862   3.726   0.647   5.350
 2321SOL    HW2 7863   3.820   0.639   5.484
 2322SOL     OW 7864   2.344   1.742   5.243
 2322SOL    HW1 7865   2.349   1.659   5.187
 2322SOL    HW2 7866   2.365   1.822   5.187
 2323SOL     OW 7867   3.206   4.885   2.072
 2323SOL    HW1 7868   3.212   4.877   1.973
 2323SOL    HW2 7869   3.135   4.823   2.106
 2324SOL     OW 7870   0.204   6.286   2.619
 2324SOL    HW1 7871   0.298   6.280   2.654
 2324SOL    HW2 7872   0.187   6.379   2.585
 2325SOL     OW 7873   0.637   4.398   1.004
 2325SOL    HW1 7874   0.701   4.341   1.056
 2325SOL    HW2 7875   0.631   4.366   0.910
 2326SOL     OW 7876   3.493   4.716   5.633
 2326SOL    HW1 7877   3.430   4.652   5.589
 2326SOL    HW2 7878   3.444   4.768   5.703
 2327SOL     OW 7879   5.939   3.259   4.434
 2327SOL    HW1 7880   5.912   3.189   4.500
 2327SOL    HW2 7881   5.857   3.300   4.394
 2328SOL     OW 7882   4.047   1.889   3.562
 2328SOL    HW1 7883   4.143   1.888   3.588
 2328SOL    HW2 7884   4.033   1.828   3.484
 2329SOL     OW 7885   1.696   5.097   4.946
 2329SOL    HW1 7886   1.698   5.151   4.861
 2329SOL    HW2 7887   1.670   5.156   5.022
 2330SOL     OW 7888   6.847   4.151   2.533
 2330SOL    HW1 7889   6.789   4.102   2.598
 2330SOL    HW2 7890   6.927   4.188   2.582
 2331SOL     OW 7891   6.617   4.386   7.004
 2331SOL    HW1 7892   6.689   4.350   6.945
 2331SOL    HW2 7893   6.648   4.384   0.074
 2332SOL     OW 7894   3.778   1.897   5.034
 2332SOL    HW1 7895   3.820   1.928   5.120
 2332SOL    HW2 7896   3.794   1.965   4.963
 2333SOL     OW 7897   6.792   4.897   2.912
 2333SOL    HW1 7898   6.710   4.861   2.955
 2333SOL    HW2 7899   6.793   4.997   2.920
 2334SOL     OW 7900   2.771   0.462   0.545
 2334SOL    HW1 7901   2.823   0.547   0.552
 2334SOL    HW2 7902   2.683   0.474   0.592
 2335SOL     OW 7903   5.634   1.080   3.345
 2335SOL    HW1 7904   5.629   0.984   3.316
 2335SOL    HW2 7905   5.725   1.099   3.382
 2336SOL     OW 7906   4.260   1.891   5.564
 2336SOL    HW1 7907   4.316   1.853   5.638
 2336SOL    HW2 7908   4.175   1.927   5.601
 2337SOL     OW 7909   4.595   1.237   3.645
 2337SOL    HW1 7910   4.693   1.247   3.627
 2337SOL    HW2 7911   4.571   1.140   3.641
 2338SOL     OW 7912   0.846   0.423   6.981
 2338SOL    HW1 7913   0.914   0.352   6.958
 2338SOL    HW2 7914   0.884   0.484   0.025
 2339SOL     OW 7915   3.856   3.566   4.774
 2339SOL    HW1 7916   3.769   3.528   4.804
 2339SOL    HW2 7917   3.841   3.634   4.703
 2340SOL     OW 7918   5.306   6.175   6.028
 2340SOL    HW1 7919   5.360   6.142   6.106
 2340SOL    HW2 7920   5.333   6.127   5.945
 2341SOL     OW 7921   4.818   3.372   0.812
 2341SOL    HW1 7922   4.748   3.397   0.878
 2341SOL    HW2 7923   4.901   3.345   0.860
 2342SOL     OW 7924   0.828   6.140   5.981
 2342SOL    HW1 7925   0.797   6.167   5.890
 2342SOL    HW2 7926   0.793   6.049   6.003
 2343SOL     OW 7927   1.893   6.625   1.263
 2343SOL    HW1 7928   1.880   6.588   1.171
 2343SOL    HW2 7929   1.956   6.702   1.259
 2344SOL     OW 7930   1.232   1.283   1.047
 2344SOL    HW1 7931   1.310   1.233   1.085
 2344SOL    HW2 7932   1.236   1.379   1.076
 2345SOL     OW 7933   2.042   5.920   5.220
 2345SOL    HW1 7934   2.123   5.964   5.258
 2345SOL    HW2 7935   2.052   5.912   5.121
 2346SOL     OW 7936   4.920   3.233   4.724
 2346SOL    HW1 7937   4.855   3.197   4.791
 2346SOL    HW2 7938   4.889   3.209   4.632
 2347SOL     OW 7939   2.078   4.231   1.389
 2347SOL    HW1 7940   2.160   4.258   1.439
 2347SOL    HW2 7941   2.097   4.227   1.291
 2348SOL     OW 7942   3.003   5.760   3.353
 2348SOL    HW1 7943   2.911   5.768   3.316
 2348SOL    HW2 7944   3.022   5.665   3.378
 2349SOL     OW 7945   0.893   6.196   6.838
 2349SOL    HW1 7946   0.810   6.180   6.784
 2349SOL    HW2 7947   0.935   6.282   6.811
 2350SOL     OW 7948   4.535   0.140   6.052
 2350SOL    HW1 7949   4.630   0.158   6.027
 2350SOL    HW2 7950   4.525   0.044   6.079
 2351SOL     OW 7951   3.477   5.239   3.160
 2351SOL    HW1 7952   3.407   5.203   3.098
 2351SOL    HW2 7953   3.524   5.163   3.205
 2352SOL     OW 7954   0.374   4.777   2.393
 2352SOL    HW1 7955   0.433   4.785   2.473
 2352SOL    HW2 7956   0.397   4.694   2.342
 2353SOL     OW 7957   2.817   4.731   4.369
 2353SOL    HW1 7958   2.866   4.784   4.438
 2353SOL    HW2 7959   2.750   4.671   4.414
 2354SOL     OW 7960   3.398   2.266   6.113
 2354SOL    HW1 7961   3.413   2.196   6.043
 2354SOL    HW2 7962   3.301   2.291   6.115
 2355SOL     OW 7963   0.564   5.377   0.530
 2355SOL    HW1 7964   0.593   5.321   0.453
 2355SOL    HW2 7965   0.494   5.328   0.582
 2356SOL     OW 7966   2.681   3.953   1.156
 2356SOL    HW1 7967   2.736   3.874   1.128
 2356SOL    HW2 7968   2.709   3.982   1.248
 2357SOL     OW 7969   3.744   5.058   4.020
 2357SOL    HW1 7970   3.805   5.133   4.046
 2357SOL    HW2 7971   3.796   4.989   3.970
 2358SOL     OW 7972   2.855   5.453   4.579
 2358SOL    HW1 7973   2.916   5.444   4.501
 2358SOL    HW2 7974   2.819   5.546   4.584
 2359SOL     OW 7975   1.756   1.364   5.901
 2359SOL    HW1 7976   1.829   1.356   5.834
 2359SOL    HW2 7977   1.775   1.440   5.962
 2360SOL     OW 7978   4.788   5.945   5.401
 2360SOL    HW1 7979   4.729   5.928   5.480
 2360SOL    HW2 7980   4.860   5.876   5.399
 2361SOL     OW 7981   2.674   0.113   4.116
 2361SOL    HW1 7982   2.582   0.084   4.144
 2361SOL    HW2 7983   2.689   0.208   4.145
 2362SOL     OW 7984   4.384   6.662   5.042
 2362SOL    HW1 7985   4.311   6.708   5.093
 2362SOL    HW2 7986   4.377   6.563   5.056
 2363SOL     OW 7987   4.936   2.244   5.346
 2363SOL    HW1 7988   4.869   2.289   5.286
 2363SOL    HW2 7989   4.980   2.170   5.295
 2364SOL     OW 7990   5.997   1.772   2.335
 2364SOL    HW1 7991   6.028   1.780   2.240
 2364SOL    HW2 7992   6.053   1.704   2.382
 2365SOL     OW 7993   5.711   3.817   5.285
 2365SOL    HW1 7994   5.613   3.835   5.301
 2365SOL    HW2 7995   5.750   3.892   5.231
 2366SOL     OW 7996   1.176   3.818   5.668
 2366SOL    HW1 7997   1.245   3.891   5.666
 2366SOL    HW2 7998   1.192   3.761   5.748
 2367SOL     OW 7999   1.740   3.969   6.651
 2367SOL    HW1 8000   1.653   3.943   6.608
 2367SOL    HW2 8001   1.814   3.960   6.584
 2368SOL     OW 8002   5.196   1.362   4.628
 2368SOL    HW1 8003   5.102   1.363   4.594
 2368SOL    HW2 8004   5.238   1.274   4.608
 2369SOL     OW 8005   2.603   2.508   4.029
 2369SOL    HW1 8006   2.638   2.586   3.978
 2369SOL    HW2 8007   2.503   2.507   4.024
 2370SOL     OW 8008   4.245   4.036   7.015
 2370SOL    HW1 8009   4.164   4.085   6.984
 2370SOL    HW2 8010   4.323   4.061   6.958
 2371SOL     OW 8011   1.648   5.573   1.965
 2371SOL    HW1 8012   1.601   5.488   1.989
 2371SOL    HW2 8013   1.663   5.627   2.047
 2372SOL     OW 8014   0.529   2.140   0.199
 2372SOL    HW1 8015   0.610   2.173   0.150
 2372SOL    HW2 8016   0.485   2.068   0.145
 2373SOL     OW 8017   6.137   1.350   6.611
 2373SOL    HW1 8018   6.113   1.329   6.706
 2373SOL    HW2 8019   6.188   1.436   6.608
 2374SOL     OW 8020   6.317   5.462   3.573
 2374SOL    HW1 8021   6.348   5.542   3.522
 2374SOL    HW2 8022   6.396   5.419   3.618
 2375SOL     OW 8023   0.838   6.727   4.576
 2375SOL    HW1 8024   0.792   6.812   4.602
 2375SOL    HW2 8025   0.852   6.670   4.657
 2376SOL     OW 8026   5.955   2.557   3.412
 2376SOL    HW1 8027   5.965   2.657   3.408
 2376SOL    HW2 8028   6.044   2.514   3.398
 2377SOL     OW 8029   3.188   3.407   4.424
 2377SOL    HW1 8030   3.230   3.415   4.514
 2377SOL    HW2 8031   3.249   3.356   4.363
 2378SOL     OW 8032   5.209   2.129   7.024
 2378SOL    HW1 8033   5.190   2.098   6.931
 2378SOL    HW2 8034   5.129   2.110   0.056
 2379SOL     OW 8035   6.902   2.683   0.116
 2379SOL    HW1 8036   6.958   2.698   0.035
 2379SOL    HW2 8037   6.847   2.765   0.134
 2380SOL     OW 8038   6.886   0.649   5.550
 2380SOL    HW1 8039   6.837   0.705   5.616
 2380SOL    HW2 8040   6.869   0.684   5.458
 2381SOL     OW 8041   1.766   4.248   4.612
 2381SOL    HW1 8042   1.701   4.324   4.621
 2381SOL    HW2 8043   1.859   4.283   4.618
 2382SOL     OW 8044   2.184   5.441   2.614
 2382SOL    HW1 8045   2.223   5.529   2.641
 2382SOL    HW2 8046   2.137   5.450   2.526
 2383SOL     OW 8047   5.450   6.343   6.707
 2383SOL    HW1 8048   5.399   6.303   6.784
 2383SOL    HW2 8049   5.494   6.270   6.655
 2384SOL     OW 8050   1.158   1.578   1.698
 2384SOL    HW1 8051   1.174   1.673   1.728
 2384SOL    HW2 8052   1.144   1.576   1.599
 2385SOL     OW 8053   0.131   0.369   1.372
 2385SOL    HW1 8054   0.222   0.353   1.335
 2385SOL    HW2 8055   0.137   0.421   1.457
 2386SOL     OW 8056   3.343   5.236   4.567
 2386SOL    HW1 8057   3.271   5.256   4.633
 2386SOL    HW2 8058   3.431   5.271   4.600
 2387SOL     OW 8059   6.478   2.669   4.663
 2387SOL    HW1 8060   6.410   2.719   4.717
 2387SOL    HW2 8061   6.570   2.699   4.689
 2388SOL     OW 8062   1.789   1.815   5.720
 2388SOL    HW1 8063   1.852   1.838   5.794
 2388SOL    HW2 8064   1.695   1.817   5.754
 2389SOL     OW 8065   4.469   4.607   4.085
 2389SOL    HW1 8066   4.429   4.532   4.138
 2389SOL    HW2 8067   4.569   4.604   4.092
 2390SOL     OW 8068   3.982   4.018   4.757
 2390SOL    HW1 8069   3.972   4.002   4.658
 2390SOL    HW2 8070   3.962   3.933   4.806
 2391SOL     OW 8071   3.446   4.614   6.144
 2391SOL    HW1 8072   3.432   4.701   6.098
 2391SOL    HW2 8073   3.543   4.590   6.141
 2392SOL     OW 8074   2.901   5.037   6.251
 2392SOL    HW1 8075   2.928   5.086   6.334
 2392SOL    HW2 8076   2.862   5.101   6.186
 2393SOL     OW 8077   4.187   5.378   1.572
 2393SOL    HW1 8078   4.229   5.457   1.616
 2393SOL    HW2 8079   4.112   5.408   1.513
 2394SOL     OW 8080   1.518   3.816   4.111
 2394SOL    HW1 8081   1.456   3.742   4.082
 2394SOL    HW2 8082   1.607   3.805   4.067
 2395SOL     OW 8083   0.034   2.438   6.733
 2395SOL    HW1 8084   0.054   2.535   6.724
 2395SOL    HW2 8085   0.075   2.388   6.656
 2396SOL     OW 8086   5.934   6.402   0.863
 2396SOL    HW1 8087   5.874   6.473   0.826
 2396SOL    HW2 8088   5.882   6.341   0.922
 2397SOL     OW 8089   6.322   5.019   0.210
 2397SOL    HW1 8090   6.362   5.109   0.191
 2397SOL    HW2 8091   6.290   4.978   0.124
 2398SOL     OW 8092   2.369   5.176   5.033
 2398SOL    HW1 8093   2.394   5.083   5.005
 2398SOL    HW2 8094   2.393   5.189   5.130
 2399SOL     OW 8095   4.217   1.804   2.893
 2399SOL    HW1 8096   4.193   1.739   2.965
 2399SOL    HW2 8097   4.158   1.789   2.814
 2400SOL     OW 8098   3.058   3.920   0.446
 2400SOL    HW1 8099   2.968   3.892   0.411
 2400SOL    HW2 8100   3.057   3.917   0.546
 2401SOL     OW 8101   3.373   0.479   5.106
 2401SOL    HW1 8102   3.442   0.508   5.041
 2401SOL    HW2 8103   3.395   0.514   5.197
 2402SOL     OW 8104   0.076   2.461   4.249
 2402SOL    HW1 8105   7.019   2.491   4.199
 2402SOL    HW2 8106   0.151   2.448   4.184
 2403SOL     OW 8107   3.355   3.158   0.399
 2403SOL    HW1 8108   3.343   3.228   0.469
 2403SOL    HW2 8109   3.435   3.102   0.420
 2404SOL     OW 8110   5.394   1.485   2.070
 2404SOL    HW1 8111   5.318   1.531   2.024
 2404SOL    HW2 8112   5.371   1.389   2.083
 2405SOL     OW 8113   3.769   3.705   5.080
 2405SOL    HW1 8114   3.715   3.644   5.022
 2405SOL    HW2 8115   3.839   3.751   5.024
 2406SOL     OW 8116   1.857   1.185   3.089
 2406SOL    HW1 8117   1.886   1.259   3.028
 2406SOL    HW2 8118   1.935   1.150   3.140
 2407SOL     OW 8119   4.670   2.239   2.937
 2407SOL    HW1 8120   4.651   2.250   3.034
 2407SOL    HW2 8121   4.606   2.173   2.898
 2408SOL     OW 8122   3.453   5.087   2.917
 2408SOL    HW1 8123   3.541   5.045   2.937
 2408SOL    HW2 8124   3.467   5.177   2.874
 2409SOL     OW 8125   1.759   2.419   1.660
 2409SOL    HW1 8126   1.848   2.464   1.660
 2409SOL    HW2 8127   1.703   2.454   1.585
 2410SOL     OW 8128   6.549   3.329   5.561
 2410SOL    HW1 8129   6.488   3.352   5.638
 2410SOL    HW2 8130   6.547   3.230   5.546
 2411SOL     OW 8131   3.349   4.516   5.462
 2411SOL    HW1 8132   3.261   4.485   5.426
 2411SOL    HW2 8133   3.384   4.448   5.526
 2412SOL     OW 8134   2.642   3.705   0.219
 2412SOL    HW1 8135   2.672   3.616   0.254
 2412SOL    HW2 8136   2.549   3.697   0.184
 2413SOL     OW 8137   6.444   3.315   6.562
 2413SOL    HW1 8138   6.532   3.328   6.608
 2413SOL    HW2 8139   6.440   3.373   6.481
 2414SOL     OW 8140   5.642   3.502   2.750
 2414SOL    HW1 8141   5.600   3.549   2.828
 2414SOL    HW2 8142   5.574   3.441   2.708
 2415SOL     OW 8143   2.009   0.403   1.502
 2415SOL    HW1 8144   1.942   0.410   1.576
 2415SOL    HW2 8145   2.089   0.353   1.535
 2416SOL     OW 8146   2.017   1.275   4.781
 2416SOL    HW1 8147   2.050   1.277   4.687
 2416SOL    HW2 8148   2.083   1.320   4.841
 2417SOL     OW 8149   5.269   2.390   0.118
 2417SOL    HW1 8150   5.279   2.375   0.216
 2417SOL    HW2 8151   5.250   2.302   0.073
 2418SOL     OW 8152   3.437   3.684   4.739
 2418SOL    HW1 8153   3.341   3.702   4.716
 2418SOL    HW2 8154   3.466   3.747   4.811
 2419SOL     OW 8155   0.677   6.868   4.965
 2419SOL    HW1 8156   0.653   6.864   4.868
 2419SOL    HW2 8157   0.664   6.778   5.007
 2420SOL     OW 8158   3.867   0.026   2.343
 2420SOL    HW1 8159   3.925   6.971   2.358
 2420SOL    HW2 8160   3.787   7.025   2.288
 2421SOL     OW 8161   2.932   0.900   4.813
 2421SOL    HW1 8162   2.865   0.854   4.754
 2421SOL    HW2 8163   3.007   0.837   4.833
 2422SOL     OW 8164   5.227   0.721   0.932
 2422SOL    HW1 8165   5.309   0.708   0.877
 2422SOL    HW2 8166   5.151   0.750   0.873
 2423SOL     OW 8167   2.074   5.876   2.276
 2423SOL    HW1 8168   2.164   5.918   2.267
 2423SOL    HW2 8169   2.050   5.828   2.191
 2424SOL     OW 8170   5.223   6.090   6.663
 2424SOL    HW1 8171   5.171   6.046   6.590
 2424SOL    HW2 8172   5.271   6.020   6.716
 2425SOL     OW 8173   6.630   6.664   4.690
 2425SOL    HW1 8174   6.666   6.747   4.646
 2425SOL    HW2 8175   6.699   6.592   4.685
 2426SOL     OW 8176   0.795   5.641   4.771
 2426SOL    HW1 8177   0.741   5.692   4.704
 2426SOL    HW2 8178   0.870   5.595   4.724
 2427SOL     OW 8179   5.814   5.405   6.726
 2427SOL    HW1 8180   5.798   5.486   6.782
 2427SOL    HW2 8181   5.733   5.385   6.672
 2428SOL     OW 8182   0.899   0.475   4.104
 2428SOL    HW1 8183   0.889   0.549   4.039
 2428SOL    HW2 8184   0.809   0.445   4.135
 2429SOL     OW 8185   5.746   4.911   3.199
 2429SOL    HW1 8186   5.687   4.835   3.227
 2429SOL    HW2 8187   5.831   4.909   3.252
 2430SOL     OW 8188   5.490   2.737   0.985
 2430SOL    HW1 8189   5.462   2.822   0.940
 2430SOL    HW2 8190   5.519   2.671   0.916
 2431SOL     OW 8191   4.307   0.531   1.471
 2431SOL    HW1 8192   4.365   0.450   1.461
 2431SOL    HW2 8193   4.323   0.572   1.561
 2432SOL     OW 8194   4.025   6.459   2.827
 2432SOL    HW1 8195   4.101   6.502   2.876
 2432SOL    HW2 8196   3.974   6.530   2.777
 2433SOL     OW 8197   2.332   0.269   0.023
 2433SOL    HW1 8198   2.398   0.206   0.064
 2433SOL    HW2 8199   2.376   0.317   6.972
 2434SOL     OW 8200   4.574   1.475   3.468
 2434SOL    HW1 8201   4.618   1.472   3.378
 2434SOL    HW2 8202   4.565   1.382   3.503
 2435SOL     OW 8203   4.847   4.853   0.327
 2435SOL    HW1 8204   4.870   4.949   0.338
 2435SOL    HW2 8205   4.748   4.841   0.337
 2436SOL     OW 8206   1.862   6.876   1.050
 2436SOL    HW1 8207   1.939   6.863   1.111
 2436SOL    HW2 8208   1.811   6.958   1.077
 2437SOL     OW 8209   4.918   5.765   1.161
 2437SOL    HW1 8210   4.982   5.747   1.086
 2437SOL    HW2 8211   4.904   5.863   1.171
 2438SOL     OW 8212   4.096   0.980   4.842
 2438SOL    HW1 8213   4.151   1.032   4.906
 2438SOL    HW2 8214   4.070   1.039   4.765
 2439SOL     OW 8215   0.850   4.156   0.455
 2439SOL    HW1 8216   0.896   4.203   0.380
 2439SOL    HW2 8217   0.838   4.219   0.532
 2440SOL     OW 8218   3.757   6.754   5.327
 2440SOL    HW1 8219   3.715   6.738   5.238
 2440SOL    HW2 8220   3.847   6.795   5.315
 2441SOL     OW 8221   5.731   0.712   0.320
 2441SOL    HW1 8222   5.777   0.625   0.303
 2441SOL    HW2 8223   5.665   0.730   0.246
 2442SOL     OW 8224   6.000   5.540   2.960
 2442SOL    HW1 8225   6.012   5.441   2.960
 2442SOL    HW2 8226   5.965   5.570   2.872
 2443SOL     OW 8227   3.039   0.538   6.568
 2443SOL    HW1 8228   3.135   0.516   6.551
 2443SOL    HW2 8229   2.988   0.453   6.585
 2444SOL     OW 8230   3.597   4.194   6.882
 2444SOL    HW1 8231   3.611   4.107   6.834
 2444SOL    HW2 8232   3.502   4.223   6.868
 2445SOL     OW 8233   6.671   1.341   2.169
 2445SOL    HW1 8234   6.649   1.319   2.073
 2445SOL    HW2 8235   6.590   1.326   2.225
 2446SOL     OW 8236   0.571   3.105   4.458
 2446SOL    HW1 8237   0.605   3.014   4.435
 2446SOL    HW2 8238   0.598   3.170   4.387
 2447SOL     OW 8239   2.388   1.320   0.739
 2447SOL    HW1 8240   2.473   1.358   0.775
 2447SOL    HW2 8241   2.385   1.332   0.639
 2448SOL     OW 8242   6.749   1.336   4.305
 2448SOL    HW1 8243   6.663   1.317   4.352
 2448SOL    HW2 8244   6.763   1.268   4.233
 2449SOL     OW 8245   0.281   3.772   2.769
 2449SOL    HW1 8246   0.234   3.846   2.720
 2449SOL    HW2 8247   0.336   3.811   2.842
 2450SOL     OW 8248   3.239   5.706   5.715
 2450SOL    HW1 8249   3.153   5.658   5.698
 2450SOL    HW2 8250   3.219   5.795   5.758
 2451SOL     OW 8251   1.547   0.224   3.255
 2451SOL    HW1 8252   1.615   0.180   3.315
 2451SOL    HW2 8253   1.551   0.323   3.268
 2452SOL     OW 8254   2.982   2.089   3.352
 2452SOL    HW1 8255   2.992   1.997   3.390
 2452SOL    HW2 8256   3.072   2.132   3.347
 2453SOL     OW 8257   6.583   3.610   0.702
 2453SOL    HW1 8258   6.673   3.585   0.737
 2453SOL    HW2 8259   6.535   3.528   0.670
 2454SOL     OW 8260   3.854   0.473   6.393
 2454SOL    HW1 8261   3.822   0.566   6.376
 2454SOL    HW2 8262   3.776   0.411   6.399
 2455SOL     OW 8263   4.171   0.960   0.638
 2455SOL    HW1 8264   4.095   0.906   0.602
 2455SOL    HW2 8265   4.255   0.906   0.635
 2456SOL     OW 8266   6.096   2.274   0.234
 2456SOL    HW1 8267   6.082   2.373   0.221
 2456SOL    HW2 8268   6.042   2.243   0.312
 2457SOL     OW 8269   6.411   0.385   6.707
 2457SOL    HW1 8270   6.360   0.425   6.783
 2457SOL    HW2 8271   6.373   0.418   6.621
 2458SOL     OW 8272   1.896   5.984   3.834
 2458SOL    HW1 8273   1.927   6.067   3.788
 2458SOL    HW2 8274   1.802   5.998   3.867
 2459SOL     OW 8275   2.609   6.147   5.954
 2459SOL    HW1 8276   2.561   6.204   6.021
 2459SOL    HW2 8277   2.708   6.160   5.963
 2460SOL     OW 8278   1.478   1.449   1.230
 2460SOL    HW1 8279   1.523   1.448   1.319
 2460SOL    HW2 8280   1.476   1.356   1.193
 2461SOL     OW 8281   4.539   0.957   3.195
 2461SOL    HW1 8282   4.628   0.994   3.222
 2461SOL    HW2 8283   4.526   0.970   3.097
 2462SOL     OW 8284   1.706   5.509   6.750
 2462SOL    HW1 8285   1.714   5.414   6.780
 2462SOL    HW2 8286   1.637   5.516   6.678
 2463SOL     OW 8287   6.293   1.693   5.988
 2463SOL    HW1 8288   6.343   1.614   5.955
 2463SOL    HW2 8289   6.232   1.665   6.063
 2464SOL     OW 8290   2.284   4.190   2.505
 2464SOL    HW1 8291   2.252   4.122   2.571
 2464SOL    HW2 8292   2.358   4.244   2.546
 2465SOL     OW 8293   0.890   0.143   0.738
 2465SOL    HW1 8294   0.902   0.130   0.639
 2465SOL    HW2 8295   0.978   0.133   0.784
 2466SOL     OW 8296   2.445   1.570   3.000
 2466SOL    HW1 8297   2.482   1.636   3.065
 2466SOL    HW2 8298   2.356   1.603   2.967
 2467SOL     OW 8299   5.049   1.459   5.185
 2467SOL    HW1 8300   5.005   1.537   5.142
 2467SOL    HW2 8301   5.076   1.483   5.279
 2468SOL     OW 8302   4.504   6.496   1.807
 2468SOL    HW1 8303   4.550   6.563   1.866
 2468SOL    HW2 8304   4.432   6.451   1.858
 2469SOL     OW 8305   4.040   3.981   5.693
 2469SOL    HW1 8306   4.097   3.959   5.772
 2469SOL    HW2 8307   4.043   4.079   5.674
 2470SOL     OW 8308   4.143   4.123   6.194
 2470SOL    HW1 8309   4.102   4.209   6.226
 2470SOL    HW2 8310   4.177   4.136   6.101
 2471SOL     OW 8311   2.566   5.963   0.712
 2471SOL    HW1 8312   2.610   6.053   0.702
 2471SOL    HW2 8313   2.480   5.962   0.660
 2472SOL     OW 8314   4.808   2.521   4.371
 2472SOL    HW1 8315   4.754   2.553   4.294
 2472SOL    HW2 8316   4.903   2.553   4.362
 2473SOL     OW 8317   1.867   4.180   4.946
 2473SOL    HW1 8318   1.831   4.108   4.887
 2473SOL    HW2 8319   1.959   4.155   4.975
 2474SOL     OW 8320   0.178   5.890   1.043
 2474SOL    HW1 8321   0.273   5.914   1.064
 2474SOL    HW2 8322   0.158   5.912   0.948
 2475SOL     OW 8323   4.505   0.912   2.502
 2475SOL    HW1 8324   4.563   0.907   2.421
 2475SOL    HW2 8325   4.559   0.893   2.583
 2476SOL     OW 8326   6.841   1.542   2.774
 2476SOL    HW1 8327   6.833   1.634   2.811
 2476SOL    HW2 8328   6.894   1.485   2.836
 2477SOL     OW 8329   4.600   1.418   1.998
 2477SOL    HW1 8330   4.650   1.368   1.927
 2477SOL    HW2 8331   4.504   1.390   1.997
 2478SOL     OW 8332   6.070   1.078   1.978
 2478SOL    HW1 8333   5.985   1.067   1.925
 2478SOL    HW2 8334   6.062   1.028   2.064
 2479SOL     OW 8335   1.558   3.778   1.279
 2479SOL    HW1 8336   1.626   3.714   1.246
 2479SOL    HW2 8337   1.506   3.815   1.202
 2480SOL     OW 8338   4.723   4.399   0.700
 2480SOL    HW1 8339   4.675   4.480   0.733
 2480SOL    HW2 8340   4.822   4.414   0.708
 2481SOL     OW 8341   2.230   0.718   0.376
 2481SOL    HW1 8342   2.306   0.776   0.346
 2481SOL    HW2 8343   2.183   0.761   0.452
 2482SOL     OW 8344   5.201   3.701   5.765
 2482SOL    HW1 8345   5.211   3.633   5.837
 2482SOL    HW2 8346   5.106   3.707   5.736
 2483SOL     OW 8347   2.210   1.781   6.882
 2483SOL    HW1 8348   2.178   1.853   6.943
 2483SOL    HW2 8349   2.287   1.733   6.924
 2484SOL     OW 8350   3.511   0.695   6.968
 2484SOL    HW1 8351   3.456   0.689   6.885
 2484SOL    HW2 8352   3.486   0.776   7.020
 2485SOL     OW 8353   5.947   4.190   1.061
 2485SOL    HW1 8354   5.949   4.142   0.973
 2485SOL    HW2 8355   5.961   4.124   1.135
 2486SOL     OW 8356   1.869   4.791   4.282
 2486SOL    HW1 8357   1.900   4.848   4.207
 2486SOL    HW2 8358   1.865   4.696   4.252
 2487SOL     OW 8359   4.015   5.908   0.352
 2487SOL    HW1 8360   4.012   6.008   0.342
 2487SOL    HW2 8361   4.017   5.866   0.261
 2488SOL     OW 8362   2.112   4.506   2.504
 2488SOL    HW1 8363   2.026   4.522   2.552
 2488SOL    HW2 8364   2.189   4.519   2.566
 2489SOL     OW 8365   1.211   5.557   2.534
 2489SOL    HW1 8366   1.130   5.497   2.531
 2489SOL    HW2 8367   1.274   5.531   2.461
 2490SOL     OW 8368   6.589   4.791   1.722
 2490SOL    HW1 8369   6.676   4.812   1.677
 2490SOL    HW2 8370   6.514   4.837   1.674
 2491SOL     OW 8371   3.000   5.407   1.062
 2491SOL    HW1 8372   2.969   5.497   1.092
 2491SOL    HW2 8373   2.921   5.353   1.030
 2492SOL     OW 8374   4.231   2.172   0.982
 2492SOL    HW1 8375   4.267   2.123   1.061
 2492SOL    HW2 8376   4.139   2.205   1.002
 2493SOL     OW 8377   6.132   0.932   2.263
 2493SOL    HW1 8378   6.205   0.972   2.319
 2493SOL    HW2 8379   6.172   0.867   2.198
 2494SOL     OW 8380   5.633   3.414   1.978
 2494SOL    HW1 8381   5.712   3.359   1.951
 2494SOL    HW2 8382   5.589   3.372   2.058
 2495SOL     OW 8383   5.247   0.127   4.512
 2495SOL    HW1 8384   5.213   0.198   4.574
 2495SOL    HW2 8385   5.211   0.143   4.421
 2496SOL     OW 8386   0.458   3.665   5.921
 2496SOL    HW1 8387   0.369   3.619   5.915
 2496SOL    HW2 8388   0.531   3.596   5.926
 2497SOL     OW 8389   0.670   0.566   0.983
 2497SOL    HW1 8390   0.762   0.573   1.022
 2497SOL    HW2 8391   0.639   0.657   0.955
 2498SOL     OW 8392   2.922   1.162   4.826
 2498SOL    HW1 8393   2.997   1.199   4.771
 2498SOL    HW2 8394   2.931   1.062   4.831
 2499SOL     OW 8395   5.497   2.093   3.954
 2499SOL    HW1 8396   5.510   2.188   3.927
 2499SOL    HW2 8397   5.473   2.039   3.873
 2500SOL     OW 8398   4.425   2.963   6.967
 2500SOL    HW1 8399   4.461   2.870   6.961
 2500SOL    HW2 8400   4.350   2.965   0.007
 2501SOL     OW 8401   5.704   5.203   0.248
 2501SOL    HW1 8402   5.642   5.154   0.308
 2501SOL    HW2 8403   5.780   5.143   0.222
 2502SOL     OW 8404   1.771   5.545   3.180
 2502SOL    HW1 8405   1.841   5.613   3.157
 2502SOL    HW2 8406   1.813   5.454   3.181
 2503SOL     OW 8407   3.418   5.544   4.432
 2503SOL    HW1 8408   3.513   5.521   4.453
 2503SOL    HW2 8409   3.363   5.461   4.433
 2504SOL     OW 8410   3.098   5.027   4.667
 2504SOL    HW1 8411   3.169   4.977   4.618
 2504SOL    HW2 8412   3.139   5.072   4.747
 2505SOL     OW 8413   1.175   6.031   3.911
 2505SOL    HW1 8414   1.117   6.026   3.830
 2505SOL    HW2 8415   1.217   6.122   3.916
 2506SOL     OW 8416   6.481   3.600   5.483
 2506SOL    HW1 8417   6.549   3.666   5.517
 2506SOL    HW2 8418   6.513   3.507   5.502
 2507SOL     OW 8419   1.335   4.668   0.911
 2507SOL    HW1 8420   1.410   4.721   0.951
 2507SOL    HW2 8421   1.369   4.579   0.882
 2508SOL     OW 8422   2.489   1.303   2.099
 2508SOL    HW1 8423   2.497   1.295   1.999
 2508SOL    HW2 8424   2.436   1.384   2.121
 2509SOL     OW 8425   6.671   2.413   2.108
 2509SOL    HW1 8426   6.599   2.350   2.138
 2509SOL    HW2 8427   6.737   2.426   2.182
 2510SOL     OW 8428   3.387   4.362   1.392
 2510SOL    HW1 8429   3.386   4.298   1.315
 2510SOL    HW2 8430   3.481   4.373   1.425
 2511SOL     OW 8431   2.623   1.268   3.974
 2511SOL    HW1 8432   2.629   1.185   4.030
 2511SOL    HW2 8433   2.613   1.242   3.877
 2512SOL     OW 8434   4.943   4.412   4.976
 2512SOL    HW1 8435   4.928   4.421   5.075
 2512SOL    HW2 8436   5.009   4.339   4.959
 2513SOL     OW 8437   1.378   3.897   4.335
 2513SOL    HW1 8438   1.446   3.914   4.264
 2513SOL    HW2 8439   1.290   3.874   4.292
 2514SOL     OW 8440   6.371   3.257   3.984
 2514SOL    HW1 8441   6.344   3.339   3.933
 2514SOL    HW2 8442   6.295   3.192   3.987
 2515SOL     OW 8443   1.490   6.189   0.416
 2515SOL    HW1 8444   1.405   6.139   0.401
 2515SOL    HW2 8445   1.471   6.272   0.469
 2516SOL     OW 8446   5.984   0.616   3.106
 2516SOL    HW1 8447   5.920   0.567   3.164
 2516SOL    HW2 8448   5.944   0.703   3.077
 2517SOL     OW 8449   0.546   5.580   5.956
 2517SOL    HW1 8450   0.523   5.514   6.027
 2517SOL    HW2 8451   0.640   5.563   5.924
 2518SOL     OW 8452   1.054   4.143   6.857
 2518SOL    HW1 8453   1.016   4.226   6.898
 2518SOL    HW2 8454   1.047   4.068   6.923
 2519SOL     OW 8455   5.466   6.815   3.908
 2519SOL    HW1 8456   5.560   6.828   3.938
 2519SOL    HW2 8457   5.455   6.853   3.816
 2520SOL     OW 8458   1.973   2.296   6.703
 2520SOL    HW1 8459   2.056   2.332   6.745
 2520SOL    HW2 8460   1.962   2.200   6.729
 2521SOL     OW 8461   1.015   0.208   5.164
 2521SOL    HW1 8462   1.010   0.261   5.079
 2521SOL    HW2 8463   0.944   0.138   5.164
 2522SOL     OW 8464   0.457   3.476   5.637
 2522SOL    HW1 8465   0.436   3.574   5.645
 2522SOL    HW2 8466   0.556   3.464   5.630
 2523SOL     OW 8467   0.062   3.098   1.946
 2523SOL    HW1 8468   0.071   3.071   1.850
 2523SOL    HW2 8469   7.005   3.057   1.986
 2524SOL     OW 8470   0.405   5.708   5.443
 2524SOL    HW1 8471   0.458   5.699   5.527
 2524SOL    HW2 8472   0.308   5.697   5.463
 2525SOL     OW 8473   1.041   2.505   4.512
 2525SOL    HW1 8474   0.992   2.442   4.452
 2525SOL    HW2 8475   0.996   2.595   4.509
 2526SOL     OW 8476   1.362   4.697   5.366
 2526SOL    HW1 8477   1.442   4.751   5.394
 2526SOL    HW2 8478   1.281   4.734   5.410
 2527SOL     OW 8479   5.384   5.876   4.920
 2527SOL    HW1 8480   5.412   5.825   4.838
 2527SOL    HW2 8481   5.289   5.855   4.942
 2528SOL     OW 8482   5.535   4.730   1.459
 2528SOL    HW1 8483   5.503   4.655   1.401
 2528SOL    HW2 8484   5.487   4.814   1.434
 2529SOL     OW 8485   6.608   6.914   6.536
 2529SOL    HW1 8486   6.691   6.910   6.481
 2529SOL    HW2 8487   6.543   6.846   6.501
 2530SOL     OW 8488   2.052   0.086   4.672
 2530SOL    HW1 8489   1.987   0.019   4.637
 2530SOL    HW2 8490   2.014   0.178   4.662
 2531SOL     OW 8491   4.817   5.948   4.431
 2531SOL    HW1 8492   4.820   5.872   4.366
 2531SOL    HW2 8493   4.732   6.000   4.418
 2532SOL     OW 8494   0.645   6.325   0.390
 2532SOL    HW1 8495   0.737   6.352   0.361
 2532SOL    HW2 8496   0.597   6.284   0.313
 2533SOL     OW 8497   2.743   0.087   3.069
 2533SOL    HW1 8498   2.785   7.021   3.068
 2533SOL    HW2 8499   2.800   0.151   3.018
 2534SOL     OW 8500   3.190   1.068   2.863
 2534SOL    HW1 8501   3.247   1.086   2.943
 2534SOL    HW2 8502   3.119   1.138   2.856
 2535SOL     OW 8503   3.472   2.954   5.874
 2535SOL    HW1 8504   3.409   2.921   5.803
 2535SOL    HW2 8505   3.433   2.937   5.964
 2536SOL     OW 8506   6.957   1.770   4.433
 2536SOL    HW1 8507   6.873   1.825   4.434
 2536SOL    HW2 8508   7.000   1.776   4.343
 2537SOL     OW 8509   4.647   6.699   6.502
 2537SOL    HW1 8510   4.679   6.794   6.508
 2537SOL    HW2 8511   4.647   6.658   6.593
 2538SOL     OW 8512   1.231   4.798   4.669
 2538SOL    HW1 8513   1.247   4.843   4.582
 2538SOL    HW2 8514   1.228   4.699   4.655
 2539SOL     OW 8515   5.003   0.914   5.941
 2539SOL    HW1 8516   4.973   0.936   6.034
 2539SOL    HW2 8517   4.990   0.994   5.882
 2540SOL     OW 8518   3.768   1.138   2.448
 2540SOL    HW1 8519   3.700   1.207   2.424
 2540SOL    HW2 8520   3.851   1.183   2.482
 2541SOL     OW 8521   1.851   6.769   5.401
 2541SOL    HW1 8522   1.855   6.710   5.321
 2541SOL    HW2 8523   1.886   6.721   5.481
 2542SOL     OW 8524   4.542   1.260   6.341
 2542SOL    HW1 8525   4.583   1.336   6.291
 2542SOL    HW2 8526   4.607   1.184   6.345
 2543SOL     OW 8527   1.966   1.799   2.849
 2543SOL    HW1 8528   2.066   1.791   2.846
 2543SOL    HW2 8529   1.940   1.867   2.917
 2544SOL     OW 8530   0.273   5.346   1.112
 2544SOL    HW1 8531   0.288   5.370   1.016
 2544SOL    HW2 8532   0.331   5.403   1.170
 2545SOL     OW 8533   1.928   0.795   1.660
 2545SOL    HW1 8534   1.829   0.781   1.662
 2545SOL    HW2 8535   1.948   0.893   1.661
 2546SOL     OW 8536   0.292   2.027   1.529
 2546SOL    HW1 8537   0.290   2.126   1.542
 2546SOL    HW2 8538   0.365   1.988   1.585
 2547SOL     OW 8539   5.863   3.733   0.184
 2547SOL    HW1 8540   5.834   3.818   0.141
 2547SOL    HW2 8541   5.811   3.657   0.146
 2548SOL     OW 8542   2.757   6.729   5.669
 2548SOL    HW1 8543   2.735   6.765   5.578
 2548SOL    HW2 8544   2.727   6.794   5.739
 2549SOL     OW 8545   1.567   0.585   1.368
 2549SOL    HW1 8546   1.602   0.635   1.289
 2549SOL    HW2 8547   1.643   0.545   1.420
 2550SOL     OW 8548   6.663   0.598   6.265
 2550SOL    HW1 8549   6.730   0.525   6.276
 2550SOL    HW2 8550   6.699   0.683   6.305
 2551SOL     OW 8551   3.588   5.446   0.203
 2551SOL    HW1 8552   3.679   5.489   0.205
 2551SOL    HW2 8553   3.582   5.378   0.277
 2552SOL     OW 8554   1.891   5.572   6.091
 2552SOL    HW1 8555   1.988   5.592   6.099
 2552SOL    HW2 8556   1.853   5.622   6.013
 2553SOL     OW 8557   3.825   3.312   6.950
 2553SOL    HW1 8558   3.882   3.252   7.006
 2553SOL    HW2 8559   3.794   3.262   6.869
 2554SOL     OW 8560   1.693   6.511   6.608
 2554SOL    HW1 8561   1.695   6.496   6.510
 2554SOL    HW2 8562   1.769   6.462   6.651
 2555SOL     OW 8563   6.264   6.462   6.617
 2555SOL    HW1 8564   6.348   6.510   6.591
 2555SOL    HW2 8565   6.194   6.477   6.548
 2556SOL     OW 8566   4.639   5.180   0.174
 2556SOL    HW1 8567   4.592   5.180   0.262
 2556SOL    HW2 8568   4.691   5.095   0.164
 2557SOL     OW 8569   2.912   2.604   6.482
 2557SOL    HW1 8570   2.877   2.591   6.575
 2557SOL    HW2 8571   2.859   2.675   6.435
 2558SOL     OW 8572   4.247   3.126   5.548
 2558SOL    HW1 8573   4.241   3.225   5.537
 2558SOL    HW2 8574   4.265   3.083   5.460
 2559SOL     OW 8575   6.502   3.336   4.460
 2559SOL    HW1 8576   6.453   3.250   4.464
 2559SOL    HW2 8577   6.559   3.346   4.542
 2560SOL     OW 8578   5.900   3.214   3.892
 2560SOL    HW1 8579   5.935   3.201   3.800
 2560SOL    HW2 8580   5.800   3.219   3.890
 2561SOL     OW 8581   2.864   0.138   3.885
 2561SOL    HW1 8582   2.803   0.102   3.956
 2561SOL    HW2 8583   2.869   0.072   3.810
 2562SOL     OW 8584   1.570   5.627   2.468
 2562SOL    HW1 8585   1.657   5.676   2.473
 2562SOL    HW2 8586   1.499   5.682   2.512
 2563SOL     OW 8587   4.221   1.884   6.887
 2563SOL    HW1 8588   4.254   1.965   6.840
 2563SOL    HW2 8589   4.193   1.908   6.980
 2564SOL     OW 8590   1.229   6.861   6.336
 2564SOL    HW1 8591   1.291   6.852   6.258
 2564SOL    HW2 8592   1.136   6.879   6.304
 2565SOL     OW 8593   6.738   0.995   0.649
 2565SOL    HW1 8594   6.751   0.914   0.706
 2565SOL    HW2 8595   6.799   1.068   0.680
 2566SOL     OW 8596   1.678   0.060   1.167
 2566SOL    HW1 8597   1.666   0.018   1.257
 2566SOL    HW2 8598   1.596   0.043   1.112
 2567SOL     OW 8599   1.099   1.070   1.612
 2567SOL    HW1 8600   1.149   1.145   1.571
 2567SOL    HW2 8601   1.042   1.026   1.542
 2568SOL     OW 8602   3.625   6.847   7.013
 2568SOL    HW1 8603   3.671   6.758   7.018
 2568SOL    HW2 8604   3.526   6.833   7.006
 2569SOL     OW 8605   2.882   1.172   1.815
 2569SOL    HW1 8606   2.851   1.248   1.872
 2569SOL    HW2 8607   2.803   1.130   1.769
 2570SOL     OW 8608   6.010   0.800   6.610
 2570SOL    HW1 8609   6.012   0.733   6.535
 2570SOL    HW2 8610   5.971   0.756   6.692
 2571SOL     OW 8611   2.083   4.141   5.420
 2571SOL    HW1 8612   2.069   4.239   5.411
 2571SOL    HW2 8613   2.169   4.115   5.375
 2572SOL     OW 8614   2.332   6.041   0.613
 2572SOL    HW1 8615   2.281   6.127   0.616
 2572SOL    HW2 8616   2.270   5.965   0.632
 2573SOL     OW 8617   6.249   1.975   1.825
 2573SOL    HW1 8618   6.198   1.938   1.903
 2573SOL    HW2 8619   6.185   2.011   1.757
 2574SOL     OW 8620   6.345   3.271   0.389
 2574SOL    HW1 8621   6.307   3.363   0.393
 2574SOL    HW2 8622   6.383   3.254   0.297
 2575SOL     OW 8623   4.510   5.270   6.961
 2575SOL    HW1 8624   4.584   5.238   7.019
 2575SOL    HW2 8625   4.471   5.192   6.911
 2576SOL     OW 8626   4.181   6.749   4.537
 2576SOL    HW1 8627   4.214   6.655   4.525
 2576SOL    HW2 8628   4.171   6.768   4.634
 2577SOL     OW 8629   3.619   6.627   1.861
 2577SOL    HW1 8630   3.543   6.690   1.849
 2577SOL    HW2 8631   3.602   6.544   1.808
 2578SOL     OW 8632   4.767   2.298   4.181
 2578SOL    HW1 8633   4.799   2.355   4.256
 2578SOL    HW2 8634   4.794   2.203   4.197
 2579SOL     OW 8635   1.403   6.614   2.873
 2579SOL    HW1 8636   1.322   6.559   2.851
 2579SOL    HW2 8637   1.384   6.710   2.851
 2580SOL     OW 8638   2.752   2.989   6.666
 2580SOL    HW1 8639   2.656   2.989   6.637
 2580SOL    HW2 8640   2.793   3.077   6.642
 2581SOL     OW 8641   6.949   4.141   1.055
 2581SOL    HW1 8642   0.011   4.186   1.068
 2581SOL    HW2 8643   6.880   4.209   1.030
 2582SOL     OW 8644   0.904   4.167   1.950
 2582SOL    HW1 8645   0.837   4.129   1.886
 2582SOL    HW2 8646   0.958   4.093   1.989
 2583SOL     OW 8647   0.593   1.471   1.243
 2583SOL    HW1 8648   0.658   1.395   1.243
 2583SOL    HW2 8649   0.538   1.468   1.327
 2584SOL     OW 8650   4.326   5.564   0.177
 2584SOL    HW1 8651   4.263   5.552   0.253
 2584SOL    HW2 8652   4.420   5.562   0.210
 2585SOL     OW 8653   4.890   2.527   0.792
 2585SOL    HW1 8654   4.802   2.572   0.801
 2585SOL    HW2 8655   4.878   2.439   0.746
 2586SOL     OW 8656   3.333   1.340   3.508
 2586SOL    HW1 8657   3.402   1.282   3.553
 2586SOL    HW2 8658   3.364   1.362   3.415
 2587SOL     OW 8659   0.617   0.614   3.251
 2587SOL    HW1 8660   0.647   0.583   3.161
 2587SOL    HW2 8661   0.550   0.549   3.287
 2588SOL     OW 8662   4.754   0.626   6.526
 2588SOL    HW1 8663   4.792   0.656   6.439
 2588SOL    HW2 8664   4.750   0.704   6.589
 2589SOL     OW 8665   6.852   5.924   6.497
 2589SOL    HW1 8666   6.883   5.832   6.522
 2589SOL    HW2 8667   6.906   5.957   6.419
 2590SOL     OW 8668   3.301   6.246   1.464
 2590SOL    HW1 8669   3.327   6.342   1.465
 2590SOL    HW2 8670   3.254   6.225   1.379
 2591SOL     OW 8671   6.867   5.789   2.164
 2591SOL    HW1 8672   6.829   5.733   2.238
 2591SOL    HW2 8673   6.947   5.743   2.125
 2592SOL     OW 8674   3.614   6.567   1.357
 2592SOL    HW1 8675   3.655   6.480   1.329
 2592SOL    HW2 8676   3.683   6.639   1.354
 2593SOL     OW 8677   2.882   5.551   0.762
 2593SOL    HW1 8678   2.859   5.635   0.713
 2593SOL    HW2 8679   2.804   5.523   0.818
 2594SOL     OW 8680   0.572   5.338   6.120
 2594SOL    HW1 8681   0.599   5.310   6.212
 2594SOL    HW2 8682   0.503   5.275   6.085
 2595SOL     OW 8683   6.407   1.876   4.010
 2595SOL    HW1 8684   6.465   1.812   4.059
 2595SOL    HW2 8685   6.445   1.893   3.919
 2596SOL     OW 8686   4.058   1.856   1.851
 2596SOL    HW1 8687   4.033   1.829   1.758
 2596SOL    HW2 8688   3.976   1.888   1.899
 2597SOL     OW 8689   1.770   4.134   5.655
 2597SOL    HW1 8690   1.813   4.056   5.700
 2597SOL    HW2 8691   1.802   4.218   5.697
 2598SOL     OW 8692   6.230   1.212   3.976
 2598SOL    HW1 8693   6.134   1.233   3.990
 2598SOL    HW2 8694   6.242   1.113   3.962
 2599SOL     OW 8695   2.168   0.098   1.209
 2599SOL    HW1 8696   2.146   0.144   1.123
 2599SOL    HW2 8697   2.229   0.156   1.262
 2600SOL     OW 8698   4.876   3.331   4.258
 2600SOL    HW1 8699   4.824   3.299   4.337
 2600SOL    HW2 8700   4.935   3.256   4.225
 2601SOL     OW 8701   1.978   1.916   0.886
 2601SOL    HW1 8702   1.915   1.955   0.953
 2601SOL    HW2 8703   1.945   1.935   0.794
 2602SOL     OW 8704   0.487   3.909   4.370
 2602SOL    HW1 8705   0.550   3.873   4.301
 2602SOL    HW2 8706   0.463   3.837   4.435
 2603SOL     OW 8707   2.851   1.373   1.965
 2603SOL    HW1 8708   2.843   1.424   2.050
 2603SOL    HW2 8709   2.810   1.426   1.890
 2604SOL     OW 8710   4.866   1.340   3.037
 2604SOL    HW1 8711   4.872   1.341   2.937
 2604SOL    HW2 8712   4.909   1.257   3.072
 2605SOL     OW 8713   1.796   4.408   2.790
 2605SOL    HW1 8714   1.889   4.417   2.826
 2605SOL    HW2 8715   1.733   4.460   2.847
 2606SOL     OW 8716   6.364   4.187   1.653
 2606SOL    HW1 8717   6.375   4.088   1.641
 2606SOL    HW2 8718   6.435   4.234   1.600
 2607SOL     OW 8719   0.966   0.878   0.534
 2607SOL    HW1 8720   1.039   0.815   0.559
 2607SOL    HW2 8721   0.993   0.972   0.555
 2608SOL     OW 8722   4.783   4.925   1.335
 2608SOL    HW1 8723   4.791   4.918   1.235
 2608SOL    HW2 8724   4.740   4.841   1.370
 2609SOL     OW 8725   6.386   1.699   1.457
 2609SOL    HW1 8726   6.348   1.608   1.473
 2609SOL    HW2 8727   6.341   1.741   1.378
 2610SOL     OW 8728   0.530   4.756   4.394
 2610SOL    HW1 8729   0.622   4.795   4.385
 2610SOL    HW2 8730   0.462   4.827   4.374
 2611SOL     OW 8731   4.498   6.346   1.162
 2611SOL    HW1 8732   4.407   6.388   1.166
 2611SOL    HW2 8733   4.560   6.405   1.111
 2612SOL     OW 8734   6.917   6.938   6.152
 2612SOL    HW1 8735   7.005   6.917   6.109
 2612SOL    HW2 8736   6.847   6.946   6.081
 2613SOL     OW 8737   2.672   6.221   6.719
 2613SOL    HW1 8738   2.596   6.265   6.766
 2613SOL    HW2 8739   2.681   6.259   6.627
 2614SOL     OW 8740   6.949   1.061   5.933
 2614SOL    HW1 8741   6.890   1.073   6.013
 2614SOL    HW2 8742   7.000   0.976   5.942
 2615SOL     OW 8743   0.143   2.299   3.343
 2615SOL    HW1 8744   0.184   2.313   3.253
 2615SOL    HW2 8745   0.064   2.359   3.354
 2616SOL     OW 8746   3.465   3.450   5.103
 2616SOL    HW1 8747   3.499   3.483   5.015
 2616SOL    HW2 8748   3.505   3.505   5.177
 2617SOL     OW 8749   3.749   6.466   0.439
 2617SOL    HW1 8750   3.678   6.464   0.369
 2617SOL    HW2 8751   3.713   6.506   0.523
 2618SOL     OW 8752   0.019   0.660   4.131
 2618SOL    HW1 8753   0.048   0.718   4.207
 2618SOL    HW2 8754   0.023   0.712   4.046
 2619SOL     OW 8755   4.211   1.942   3.304
 2619SOL    HW1 8756   4.286   1.882   3.331
 2619SOL    HW2 8757   4.161   1.972   3.385
 2620SOL     OW 8758   0.164   0.339   3.254
 2620SOL    HW1 8759   0.136   0.270   3.320
 2620SOL    HW2 8760   0.261   0.360   3.266
 2621SOL     OW 8761   1.377   5.966   3.206
 2621SOL    HW1 8762   1.418   5.890   3.258
 2621SOL    HW2 8763   1.321   5.928   3.132
 2622SOL     OW 8764   1.927   3.339   5.459
 2622SOL    HW1 8765   1.937   3.249   5.502
 2622SOL    HW2 8766   1.982   3.342   5.376
 2623SOL     OW 8767   1.790   1.139   5.714
 2623SOL    HW1 8768   1.771   1.207   5.644
 2623SOL    HW2 8769   1.713   1.077   5.723
 2624SOL     OW 8770   6.881   1.460   5.705
 2624SOL    HW1 8771   6.789   1.475   5.670
 2624SOL    HW2 8772   6.894   1.512   5.789
 2625SOL     OW 8773   2.078   2.942   5.351
 2625SOL    HW1 8774   2.006   2.923   5.284
 2625SOL    HW2 8775   2.134   2.861   5.362
 2626SOL     OW 8776   0.476   0.397   5.777
 2626SOL    HW1 8777   0.516   0.330   5.713
 2626SOL    HW2 8778   0.438   0.473   5.725
 2627SOL     OW 8779   1.585   0.960   5.725
 2627SOL    HW1 8780   1.540   0.889   5.671
 2627SOL    HW2 8781   1.521   0.996   5.793
 2628SOL     OW 8782   1.600   4.772   5.501
 2628SOL    HW1 8783   1.688   4.756   5.456
 2628SOL    HW2 8784   1.566   4.686   5.539
 2629SOL     OW 8785   3.021   3.083   1.246
 2629SOL    HW1 8786   3.026   3.125   1.337
 2629SOL    HW2 8787   3.035   2.984   1.255
 2630SOL     OW 8788   3.271   2.162   2.593
 2630SOL    HW1 8789   3.180   2.170   2.553
 2630SOL    HW2 8790   3.264   2.126   2.686
 2631SOL     OW 8791   5.269   1.175   5.463
 2631SOL    HW1 8792   5.342   1.157   5.528
 2631SOL    HW2 8793   5.222   1.089   5.441
 2632SOL     OW 8794   4.565   2.557   6.377
 2632SOL    HW1 8795   4.654   2.555   6.423
 2632SOL    HW2 8796   4.545   2.467   6.338
 2633SOL     OW 8797   0.297   1.483   4.331
 2633SOL    HW1 8798   0.294   1.580   4.309
 2633SOL    HW2 8799   0.323   1.471   4.427
 2634SOL     OW 8800   0.491   4.776   3.302
 2634SOL    HW1 8801   0.515   4.815   3.390
 2634SOL    HW2 8802   0.394   4.792   3.283
 2635SOL     OW 8803   6.912   5.556   5.120
 2635SOL    HW1 8804   6.815   5.580   5.114
 2635SOL    HW2 8805   6.924   5.481   5.185
 2636SOL     OW 8806   4.582   0.815   5.250
 2636SOL    HW1 8807   4.533   0.862   5.176
 2636SOL    HW2 8808   4.517   0.788   5.321
 2637SOL     OW 8809   5.081   1.911   3.684
 2637SOL    HW1 8810   5.035   1.824   3.703
 2637SOL    HW2 8811   5.059   1.977   3.755
 2638SOL     OW 8812   0.013   0.010   3.854
 2638SOL    HW1 8813   7.021   6.937   3.857
 2638SOL    HW2 8814   0.009   0.042   3.760
 2639SOL     OW 8815   0.151   5.966   0.777
 2639SOL    HW1 8816   0.175   5.933   0.685
 2639SOL    HW2 8817   0.090   6.045   0.769
 2640SOL     OW 8818   0.713   6.209   5.184
 2640SOL    HW1 8819   0.677   6.118   5.163
 2640SOL    HW2 8820   0.692   6.232   5.279
 2641SOL     OW 8821   5.433   3.010   2.926
 2641SOL    HW1 8822   5.384   2.934   2.969
 2641SOL    HW2 8823   5.426   3.002   2.827
 2642SOL     OW 8824   4.508   6.409   3.930
 2642SOL    HW1 8825   4.576   6.344   3.966
 2642SOL    HW2 8826   4.431   6.415   3.994
 2643SOL     OW 8827   0.259   3.829   3.556
 2643SOL    HW1 8828   0.268   3.752   3.619
 2643SOL    HW2 8829   0.213   3.799   3.473
 2644SOL     OW 8830   5.637   6.615   5.795
 2644SOL    HW1 8831   5.566   6.546   5.781
 2644SOL    HW2 8832   5.719   6.589   5.744
 2645SOL     OW 8833   4.265   5.851   4.552
 2645SOL    HW1 8834   4.323   5.790   4.497
 2645SOL    HW2 8835   4.299   5.944   4.544
 2646SOL     OW 8836   6.193   1.043   6.623
 2646SOL    HW1 8837   6.135   0.965   6.601
 2646SOL    HW2 8838   6.156   1.126   6.581
 2647SOL     OW 8839   6.594   0.004   2.138
 2647SOL    HW1 8840   6.644   7.009   2.222
 2647SOL    HW2 8841   6.515   6.970   2.130
 2648SOL     OW 8842   0.155   0.504   4.499
 2648SOL    HW1 8843   0.199   0.594   4.506
 2648SOL    HW2 8844   0.174   0.465   4.409
 2649SOL     OW 8845   5.580   2.767   6.824
 2649SOL    HW1 8846   5.548   2.704   6.754
 2649SOL    HW2 8847   5.671   2.801   6.800
 2650SOL     OW 8848   1.348   4.164   4.150
 2650SOL    HW1 8849   1.312   4.239   4.094
 2650SOL    HW2 8850   1.379   4.090   4.090
 2651SOL     OW 8851   0.926   1.177   0.605
 2651SOL    HW1 8852   0.839   1.226   0.605
 2651SOL    HW2 8853   0.981   1.207   0.683
 2652SOL     OW 8854   4.120   3.422   4.520
 2652SOL    HW1 8855   4.096   3.389   4.429
 2652SOL    HW2 8856   4.206   3.473   4.515
 2653SOL     OW 8857   5.211   6.927   5.025
 2653SOL    HW1 8858   5.246   6.990   5.094
 2653SOL    HW2 8859   5.222   6.833   5.056
 2654SOL     OW 8860   4.330   6.058   2.519
 2654SOL    HW1 8861   4.298   6.040   2.612
 2654SOL    HW2 8862   4.269   6.125   2.476
 2655SOL     OW 8863   4.565   5.987   4.300
 2655SOL    HW1 8864   4.487   6.026   4.349
 2655SOL    HW2 8865   4.532   5.931   4.224
 2656SOL     OW 8866   3.604   5.081   4.897
 2656SOL    HW1 8867   3.552   5.037   4.823
 2656SOL    HW2 8868   3.541   5.134   4.954
 2657SOL     OW 8869   0.699   3.632   6.271
 2657SOL    HW1 8870   0.653   3.713   6.236
 2657SOL    HW2 8871   0.770   3.659   6.336
 2658SOL     OW 8872   5.221   4.399   1.079
 2658SOL    HW1 8873   5.202   4.410   1.176
 2658SOL    HW2 8874   5.147   4.440   1.026
 2659SOL     OW 8875   5.255   3.041   4.366
 2659SOL    HW1 8876   5.351   3.014   4.366
 2659SOL    HW2 8877   5.200   2.970   4.409
 2660SOL     OW 8878   1.872   7.015   1.834
 2660SOL    HW1 8879   1.872   6.925   1.877
 2660SOL    HW2 8880   1.823   7.011   1.748
 2661SOL     OW 8881   2.653   0.340   1.163
 2661SOL    HW1 8882   2.627   0.424   1.115
 2661SOL    HW2 8883   2.653   0.263   1.098
 2662SOL     OW 8884   5.208   6.521   4.173
 2662SOL    HW1 8885   5.180   6.426   4.156
 2662SOL    HW2 8886   5.235   6.563   4.087
 2663SOL     OW 8887   2.704   4.137   6.723
 2663SOL    HW1 8888   2.772   4.190   6.775
 2663SOL    HW2 8889   2.720   4.040   6.736
 2664SOL     OW 8890   4.514   3.709   5.546
 2664SOL    HW1 8891   4.525   3.639   5.617
 2664SOL    HW2 8892   4.498   3.798   5.589
 2665SOL     OW 8893   2.438   2.776   5.341
 2665SOL    HW1 8894   2.523   2.723   5.337
 2665SOL    HW2 8895   2.455   2.869   5.308
 2666SOL     OW 8896   5.726   5.100   1.276
 2666SOL    HW1 8897   5.680   5.063   1.357
 2666SOL    HW2 8898   5.718   5.034   1.201
 2667SOL     OW 8899   0.123   5.857   4.335
 2667SOL    HW1 8900   0.035   5.882   4.294
 2667SOL    HW2 8901   0.163   5.781   4.284
 2668SOL     OW 8902   0.294   3.368   5.006
 2668SOL    HW1 8903   0.371   3.399   4.950
 2668SOL    HW2 8904   0.230   3.317   4.949
 2669SOL     OW 8905   2.777   4.641   5.358
 2669SOL    HW1 8906   2.849   4.612   5.296
 2669SOL    HW2 8907   2.688   4.630   5.314
 2670SOL     OW 8908   5.869   3.228   6.191
 2670SOL    HW1 8909   5.772   3.245   6.172
 2670SOL    HW2 8910   5.883   3.224   6.290
 2671SOL     OW 8911   4.497   5.467   5.960
 2671SOL    HW1 8912   4.552   5.494   6.039
 2671SOL    HW2 8913   4.537   5.387   5.917
 2672SOL     OW 8914   1.786   5.119   0.435
 2672SOL    HW1 8915   1.845   5.087   0.509
 2672SOL    HW2 8916   1.691   5.119   0.465
 2673SOL     OW 8917   5.705   0.913   2.498
 2673SOL    HW1 8918   5.706   0.963   2.412
 2673SOL    HW2 8919   5.785   0.853   2.502
 2674SOL     OW 8920   1.267   4.257   3.709
 2674SOL    HW1 8921   1.366   4.244   3.711
 2674SOL    HW2 8922   1.246   4.355   3.714
 2675SOL     OW 8923   6.273   5.150   4.084
 2675SOL    HW1 8924   6.370   5.143   4.063
 2675SOL    HW2 8925   6.258   5.130   4.181
 2676SOL     OW 8926   3.588   2.697   1.134
 2676SOL    HW1 8927   3.684   2.680   1.159
 2676SOL    HW2 8928   3.581   2.713   1.036
 2677SOL     OW 8929   3.088   3.827   0.702
 2677SOL    HW1 8930   3.184   3.853   0.692
 2677SOL    HW2 8931   3.082   3.737   0.746
 2678SOL     OW 8932   0.045   2.536   1.532
 2678SOL    HW1 8933   7.004   2.468   1.499
 2678SOL    HW2 8934   7.023   2.607   1.583
 2679SOL     OW 8935   2.887   4.304   1.207
 2679SOL    HW1 8936   2.824   4.293   1.285
 2679SOL    HW2 8937   2.953   4.230   1.206
 2680SOL     OW 8938   1.144   1.866   0.271
 2680SOL    HW1 8939   1.161   1.946   0.213
 2680SOL    HW2 8940   1.052   1.831   0.252
 2681SOL     OW 8941   1.110   2.847   4.241
 2681SOL    HW1 8942   1.047   2.779   4.279
 2681SOL    HW2 8943   1.181   2.867   4.309
 2682SOL     OW 8944   4.808   4.048   2.586
 2682SOL    HW1 8945   4.838   3.993   2.508
 2682SOL    HW2 8946   4.882   4.055   2.653
 2683SOL     OW 8947   2.708   4.961   1.481
 2683SOL    HW1 8948   2.794   4.910   1.485
 2683SOL    HW2 8949   2.638   4.913   1.534
 2684SOL     OW 8950   4.298   5.326   1.999
 2684SOL    HW1 8951   4.224   5.321   2.065
 2684SOL    HW2 8952   4.330   5.420   1.991
 2685SOL     OW 8953   5.702   6.473   6.588
 2685SOL    HW1 8954   5.755   6.494   6.670
 2685SOL    HW2 8955   5.620   6.421   6.615
 2686SOL     OW 8956   2.018   2.170   6.026
 2686SOL    HW1 8957   2.062   2.261   6.026
 2686SOL    HW2 8958   1.920   2.180   6.009
 2687SOL     OW 8959   5.037   4.644   1.400
 2687SOL    HW1 8960   4.983   4.709   1.453
 2687SOL    HW2 8961   4.977   4.591   1.341
 2688SOL     OW 8962   3.542   3.925   0.056
 2688SOL    HW1 8963   3.496   3.844   0.018
 2688SOL    HW2 8964   3.502   3.947   0.145
 2689SOL     OW 8965   1.512   3.855   3.667
 2689SOL    HW1 8966   1.429   3.822   3.711
 2689SOL    HW2 8967   1.519   3.817   3.575
 2690SOL     OW 8968   3.995   3.046   4.321
 2690SOL    HW1 8969   3.984   3.073   4.417
 2690SOL    HW2 8970   4.079   2.992   4.311
 2691SOL     OW 8971   1.796   5.701   2.820
 2691SOL    HW1 8972   1.705   5.742   2.818
 2691SOL    HW2 8973   1.799   5.629   2.889
 2692SOL     OW 8974   3.234   5.373   2.894
 2692SOL    HW1 8975   3.264   5.464   2.921
 2692SOL    HW2 8976   3.228   5.315   2.975
 2693SOL     OW 8977   2.052   5.302   3.383
 2693SOL    HW1 8978   2.011   5.310   3.292
 2693SOL    HW2 8979   1.996   5.351   3.450
 2694SOL     OW 8980   3.591   5.845   3.054
 2694SOL    HW1 8981   3.567   5.750   3.031
 2694SOL    HW2 8982   3.672   5.872   3.000
 2695SOL     OW 8983   5.851   0.151   2.390
 2695SOL    HW1 8984   5.799   0.091   2.451
 2695SOL    HW2 8985   5.946   0.121   2.386
 2696SOL     OW 8986   3.960   3.122   5.502
 2696SOL    HW1 8987   4.029   3.122   5.573
 2696SOL    HW2 8988   3.886   3.059   5.527
 2697SOL     OW 8989   3.394   1.396   2.583
 2697SOL    HW1 8990   3.347   1.311   2.604
 2697SOL    HW2 8991   3.438   1.431   2.666
 2698SOL     OW 8992   1.934   6.362   0.241
 2698SOL    HW1 8993   1.890   6.334   0.327
 2698SOL    HW2 8994   2.015   6.306   0.225
 2699SOL     OW 8995   2.376   6.695   0.811
 2699SOL    HW1 8996   2.384   6.787   0.773
 2699SOL    HW2 8997   2.322   6.638   0.750
 2700SOL     OW 8998   2.534   3.454   7.016
 2700SOL    HW1 8999   2.579   3.452   0.080
 2700SOL    HW2 9000   2.590   3.404   6.950
 2701SOL     OW 9001   5.492   1.415   5.704
 2701SOL    HW1 9002   5.591   1.410   5.717
 2701SOL    HW2 9003   5.446   1.420   5.793
 2702SOL     OW 9004   0.471   2.590   3.710
 2702SOL    HW1 9005   0.406   2.665   3.702
 2702SOL    HW2 9006   0.474   2.559   3.805
 2703SOL     OW 9007   0.912   6.815   1.223
 2703SOL    HW1 9008   0.986   6.789   1.286
 2703SOL    HW2 9009   0.900   6.743   1.154
 2704SOL     OW 9010   0.131   5.674   1.515
 2704SOL    HW1 9011   0.047   5.729   1.516
 2704SOL    HW2 9012   0.117   5.590   1.567
 2705SOL     OW 9013   6.767   5.508   4.826
 2705SOL    HW1 9014   6.866   5.520   4.833
 2705SOL    HW2 9015   6.743   5.414   4.849
 2706SOL     OW 9016   6.872   5.597   1.885
 2706SOL    HW1 9017   6.779   5.601   1.920
 2706SOL    HW2 9018   6.871   5.620   1.787
 2707SOL     OW 9019   3.754   0.245   4.171
 2707SOL    HW1 9020   3.680   0.189   4.207
 2707SOL    HW2 9021   3.840   0.194   4.174
 2708SOL     OW 9022   0.656   2.669   6.953
 2708SOL    HW1 9023   0.607   2.624   6.879
 2708SOL    HW2 9024   0.742   2.622   6.970
 2709SOL     OW 9025   5.271   0.269   0.278
 2709SOL    HW1 9026   5.227   0.333   0.215
 2709SOL    HW2 9027   5.222   0.182   0.278
 2710SOL     OW 9028   0.533   3.882   3.593
 2710SOL    HW1 9029   0.563   3.902   3.500
 2710SOL    HW2 9030   0.434   3.896   3.599
 2711SOL     OW 9031   2.692   0.453   3.767
 2711SOL    HW1 9032   2.740   0.518   3.826
 2711SOL    HW2 9033   2.598   0.441   3.799
 2712SOL     OW 9034   3.211   4.555   1.120
 2712SOL    HW1 9035   3.307   4.580   1.126
 2712SOL    HW2 9036   3.179   4.524   1.209
 2713SOL     OW 9037   2.406   2.624   4.904
 2713SOL    HW1 9038   2.394   2.689   4.979
 2713SOL    HW2 9039   2.444   2.538   4.940
 2714SOL     OW 9040   3.697   2.552   0.235
 2714SOL    HW1 9041   3.655   2.536   0.325
 2714SOL    HW2 9042   3.738   2.466   0.202
 2715SOL     OW 9043   5.067   1.602   0.763
 2715SOL    HW1 9044   4.976   1.608   0.722
 2715SOL    HW2 9045   5.058   1.594   0.862
 2716SOL     OW 9046   5.177   3.794   2.271
 2716SOL    HW1 9047   5.087   3.755   2.252
 2716SOL    HW2 9048   5.183   3.817   2.368
 2717SOL     OW 9049   0.823   6.472   2.242
 2717SOL    HW1 9050   0.888   6.537   2.203
 2717SOL    HW2 9051   0.851   6.449   2.335
 2718SOL     OW 9052   1.454   1.924   4.985
 2718SOL    HW1 9053   1.482   1.893   4.895
 2718SOL    HW2 9054   1.534   1.950   5.039
 2719SOL     OW 9055   0.165   5.187   1.457
 2719SOL    HW1 9056   0.224   5.109   1.439
 2719SOL    HW2 9057   0.216   5.258   1.505
 2720SOL     OW 9058   1.951   5.581   1.927
 2720SOL    HW1 9059   1.854   5.607   1.924
 2720SOL    HW2 9060   2.008   5.658   1.900
 2721SOL     OW 9061   2.970   0.034   3.367
 2721SOL    HW1 9062   2.974   0.120   3.418
 2721SOL    HW2 9063   2.997   0.050   3.272
 2722SOL     OW 9064   6.852   5.314   0.550
 2722SOL    HW1 9065   6.770   5.369   0.564
 2722SOL    HW2 9066   6.885   5.279   0.637
 2723SOL     OW 9067   0.650   0.528   6.475
 2723SOL    HW1 9068   0.667   0.435   6.442
 2723SOL    HW2 9069   0.634   0.526   6.574
 2724SOL     OW 9070   1.928   6.937   6.975
 2724SOL    HW1 9071   1.849   6.958   0.008
 2724SOL    HW2 9072   1.896   6.916   6.882
 2725SOL     OW 9073   5.265   4.763   4.374
 2725SOL    HW1 9074   5.175   4.764   4.417
 2725SOL    HW2 9075   5.327   4.822   4.426
 2726SOL     OW 9076   0.332   2.704   0.758
 2726SOL    HW1 9077   0.338   2.640   0.681
 2726SOL    HW2 9078   0.404   2.683   0.825
 2727SOL     OW 9079   0.055   5.135   2.942
 2727SOL    HW1 9080   0.140   5.185   2.926
 2727SOL    HW2 9081   0.033   5.136   3.040
 2728SOL     OW 9082   4.984   6.643   5.586
 2728SOL    HW1 9083   5.015   6.549   5.597
 2728SOL    HW2 9084   5.036   6.687   5.513
 2729SOL     OW 9085   6.718   6.161   0.628
 2729SOL    HW1 9086   6.653   6.205   0.565
 2729SOL    HW2 9087   6.711   6.204   0.718
 2730SOL     OW 9088   1.874   5.784   1.566
 2730SOL    HW1 9089   1.952   5.790   1.628
 2730SOL    HW2 9090   1.874   5.695   1.520
 2731SOL     OW 9091   3.483   4.177   2.923
 2731SOL    HW1 9092   3.471   4.273   2.896
 2731SOL    HW2 9093   3.508   4.123   2.843
 2732SOL     OW 9094   5.577   2.158   1.727
 2732SOL    HW1 9095   5.555   2.073   1.775
 2732SOL    HW2 9096   5.503   2.224   1.741
 2733SOL     OW 9097   6.603   1.508   4.567
 2733SOL    HW1 9098   6.511   1.546   4.577
 2733SOL    HW2 9099   6.661   1.572   4.516
 2734SOL     OW 9100   3.128   6.070   1.077
 2734SOL    HW1 9101   3.074   6.006   1.132
 2734SOL    HW2 9102   3.122   6.044   0.981
 2735SOL     OW 9103   1.523   3.578   1.734
 2735SOL    HW1 9104   1.469   3.630   1.668
 2735SOL    HW2 9105   1.472   3.571   1.820
 2736SOL     OW 9106   5.973   6.795   4.858
 2736SOL    HW1 9107   6.037   6.844   4.799
 2736SOL    HW2 9108   6.008   6.702   4.873
 2737SOL     OW 9109   3.301   3.433   5.949
 2737SOL    HW1 9110   3.250   3.494   6.010
 2737SOL    HW2 9111   3.248   3.417   5.866
 2738SOL     OW 9112   5.018   6.497   1.747
 2738SOL    HW1 9113   4.952   6.433   1.786
 2738SOL    HW2 9114   5.012   6.584   1.796
 2739SOL     OW 9115   0.882   4.305   1.539
 2739SOL    HW1 9116   0.933   4.371   1.594
 2739SOL    HW2 9117   0.914   4.212   1.560
 2740SOL     OW 9118   0.390   3.915   2.457
 2740SOL    HW1 9119   0.345   3.847   2.399
 2740SOL    HW2 9120   0.332   3.995   2.466
 2741SOL     OW 9121   6.152   0.562   4.843
 2741SOL    HW1 9122   6.119   0.652   4.814
 2741SOL    HW2 9123   6.118   0.542   4.935
 2742SOL     OW 9124   2.064   5.604   6.926
 2742SOL    HW1 9125   2.084   5.674   6.995
 2742SOL    HW2 9126   2.002   5.536   6.965
 2743SOL     OW 9127   6.174   4.821   2.267
 2743SOL    HW1 9128   6.100   4.825   2.201
 2743SOL    HW2 9129   6.262   4.818   2.219
 2744SOL     OW 9130   5.004   2.042   6.526
 2744SOL    HW1 9131   4.956   2.129   6.538
 2744SOL    HW2 9132   5.082   2.055   6.465
 2745SOL     OW 9133   6.837   0.216   6.070
 2745SOL    HW1 9134   6.861   0.311   6.087
 2745SOL    HW2 9135   6.874   0.188   5.981
 2746SOL     OW 9136   2.659   1.594   4.300
 2746SOL    HW1 9137   2.587   1.569   4.235
 2746SOL    HW2 9138   2.729   1.523   4.302
 2747SOL     OW 9139   6.137   3.485   6.442
 2747SOL    HW1 9140   6.229   3.449   6.425
 2747SOL    HW2 9141   6.140   3.549   6.519
 2748SOL     OW 9142   4.611   1.650   1.492
 2748SOL    HW1 9143   4.601   1.718   1.565
 2748SOL    HW2 9144   4.578   1.689   1.406
 2749SOL     OW 9145   0.054   4.759   2.371
 2749SOL    HW1 9146   7.011   4.814   2.417
 2749SOL    HW2 9147   0.085   4.686   2.432
 2750SOL     OW 9148   0.584   5.263   0.864
 2750SOL    HW1 9149   0.638   5.221   0.790
 2750SOL    HW2 9150   0.629   5.347   0.895
 2751SOL     OW 9151   0.807   5.078   1.031
 2751SOL    HW1 9152   0.800   4.981   1.051
 2751SOL    HW2 9153   0.744   5.129   1.090
 2752SOL     OW 9154   4.082   5.592   5.634
 2752SOL    HW1 9155   4.033   5.552   5.557
 2752SOL    HW2 9156   4.071   5.691   5.633
 2753SOL     OW 9157   0.413   6.370   5.501
 2753SOL    HW1 9158   0.436   6.273   5.514
 2753SOL    HW2 9159   0.401   6.388   5.403
 2754SOL     OW 9160   0.484   0.304   2.130
 2754SOL    HW1 9161   0.460   0.395   2.164
 2754SOL    HW2 9162   0.580   0.285   2.149
 2755SOL     OW 9163   2.166   0.079   2.758
 2755SOL    HW1 9164   2.196   0.138   2.833
 2755SOL    HW2 9165   2.203   7.012   2.770
 2756SOL     OW 9166   6.032   4.541   6.654
 2756SOL    HW1 9167   6.035   4.454   6.703
 2756SOL    HW2 9168   5.937   4.564   6.633
 2757SOL     OW 9169   2.769   0.160   7.016
 2757SOL    HW1 9170   2.735   0.104   0.066
 2757SOL    HW2 9171   2.704   0.154   6.939
 2758SOL     OW 9172   3.790   6.060   4.128
 2758SOL    HW1 9173   3.758   5.967   4.110
 2758SOL    HW2 9174   3.811   6.105   4.042
 2759SOL     OW 9175   6.142   6.350   5.185
 2759SOL    HW1 9176   6.045   6.360   5.207
 2759SOL    HW2 9177   6.178   6.436   5.150
 2760SOL     OW 9178   1.167   5.605   2.132
 2760SOL    HW1 9179   1.207   5.645   2.049
 2760SOL    HW2 9180   1.240   5.572   2.192
 2761SOL     OW 9181   2.066   5.255   5.471
 2761SOL    HW1 9182   2.012   5.171   5.475
 2761SOL    HW2 9183   2.043   5.305   5.387
 2762SOL     OW 9184   1.521   0.889   5.149
 2762SOL    HW1 9185   1.491   0.975   5.108
 2762SOL    HW2 9186   1.541   0.903   5.246
 2763SOL     OW 9187   4.664   1.855   3.820
 2763SOL    HW1 9188   4.655   1.928   3.752
 2763SOL    HW2 9189   4.665   1.766   3.775
 2764SOL     OW 9190   6.334   0.868   1.536
 2764SOL    HW1 9191   6.428   0.899   1.550
 2764SOL    HW2 9192   6.274   0.947   1.532
 2765SOL     OW 9193   6.490   6.792   0.487
 2765SOL    HW1 9194   6.518   6.716   0.547
 2765SOL    HW2 9195   6.391   6.802   0.490
 2766SOL     OW 9196   5.111   2.912   0.700
 2766SOL    HW1 9197   5.140   2.912   0.796
 2766SOL    HW2 9198   5.174   2.968   0.646
 2767SOL     OW 9199   6.187   5.434   6.829
 2767SOL    HW1 9200   6.263   5.495   6.852
 2767SOL    HW2 9201   6.192   5.408   6.733
 2768SOL     OW 9202   4.611   0.398   1.321
 2768SOL    HW1 9203   4.608   0.441   1.231
 2768SOL    HW2 9204   4.565   0.310   1.318
 2769SOL     OW 9205   1.726   4.854   5.092
 2769SOL    HW1 9206   1.811   4.802   5.089
 2769SOL    HW2 9207   1.732   4.933   5.032
 2770SOL     OW 9208   3.973   5.748   6.123
 2770SOL    HW1 9209   4.032   5.680   6.167
 2770SOL    HW2 9210   4.029   5.810   6.067
 2771SOL     OW 9211   6.276   0.914   3.693
 2771SOL    HW1 9212   6.368   0.938   3.725
 2771SOL    HW2 9213   6.232   0.853   3.759
 2772SOL     OW 9214   3.861   1.951   1.073
 2772SOL    HW1 9215   3.777   1.910   1.110
 2772SOL    HW2 9216   3.892   2.023   1.134
 2773SOL     OW 9217   6.357   2.168   4.939
 2773SOL    HW1 9218   6.377   2.259   4.975
 2773SOL    HW2 9219   6.258   2.158   4.927
 2774SOL     OW 9220   5.691   2.523   2.825
 2774SOL    HW1 9221   5.751   2.557   2.897
 2774SOL    HW2 9222   5.614   2.585   2.815
 2775SOL     OW 9223   6.524   4.847   5.676
 2775SOL    HW1 9224   6.434   4.890   5.677
 2775SOL    HW2 9225   6.518   4.758   5.632
 2776SOL     OW 9226   4.640   4.730   5.733
 2776SOL    HW1 9227   4.711   4.663   5.753
 2776SOL    HW2 9228   4.617   4.727   5.635
 2777SOL     OW 9229   2.925   1.790   1.585
 2777SOL    HW1 9230   2.983   1.791   1.504
 2777SOL    HW2 9231   2.912   1.883   1.618
 2778SOL     OW 9232   1.758   0.144   5.473
 2778SOL    HW1 9233   1.837   0.098   5.433
 2778SOL    HW2 9234   1.779   0.242   5.484
 2779SOL     OW 9235   4.938   6.806   1.863
 2779SOL    HW1 9236   4.972   6.887   1.911
 2779SOL    HW2 9237   4.913   6.831   1.769
 2780SOL     OW 9238   0.291   6.576   0.196
 2780SOL    HW1 9239   0.291   6.561   0.097
 2780SOL    HW2 9240   0.197   6.591   0.228
 2781SOL     OW 9241   5.402   6.937   1.825
 2781SOL    HW1 9242   5.326   7.001   1.813
 2781SOL    HW2 9243   5.457   6.933   1.742
 2782SOL     OW 9244   5.050   2.138   5.851
 2782SOL    HW1 9245   5.133   2.155   5.905
 2782SOL    HW2 9246   4.998   2.222   5.840
 2783SOL     OW 9247   5.371   4.008   3.011
 2783SOL    HW1 9248   5.376   4.037   2.915
 2783SOL    HW2 9249   5.278   4.023   3.045
 2784SOL     OW 9250   3.331   1.617   2.415
 2784SOL    HW1 9251   3.308   1.624   2.318
 2784SOL    HW2 9252   3.340   1.520   2.440
 2785SOL     OW 9253   5.196   2.673   0.825
 2785SOL    HW1 9254   5.134   2.735   0.777
 2785SOL    HW2 9255   5.285   2.718   0.838
 2786SOL     OW 9256   4.878   0.018   2.637
 2786SOL    HW1 9257   4.923   6.961   2.602
 2786SOL    HW2 9258   4.785   0.023   2.601
 2787SOL     OW 9259   5.224   0.735   6.021
 2787SOL    HW1 9260   5.139   0.782   5.996
 2787SOL    HW2 9261   5.293   0.752   5.951
 2788SOL     OW 9262   2.074   5.446   5.920
 2788SOL    HW1 9263   2.069   5.518   5.851
 2788SOL    HW2 9264   2.038   5.361   5.883
 2789SOL     OW 9265   1.799   2.510   3.551
 2789SOL    HW1 9266   1.774   2.539   3.459
 2789SOL    HW2 9267   1.726   2.535   3.615
 2790SOL     OW 9268   4.028   5.845   2.305
 2790SOL    HW1 9269   3.931   5.832   2.286
 2790SOL    HW2 9270   4.045   5.830   2.403
 2791SOL     OW 9271   0.232   2.801   3.028
 2791SOL    HW1 9272   0.271   2.715   3.061
 2791SOL    HW2 9273   0.207   2.859   3.105
 2792SOL     OW 9274   1.537   6.806   3.898
 2792SOL    HW1 9275   1.554   6.886   3.840
 2792SOL    HW2 9276   1.622   6.755   3.910
 2793SOL     OW 9277   5.863   4.163   1.589
 2793SOL    HW1 9278   5.792   4.099   1.620
 2793SOL    HW2 9279   5.937   4.166   1.657
 2794SOL     OW 9280   0.253   2.335   6.496
 2794SOL    HW1 9281   0.305   2.421   6.493
 2794SOL    HW2 9282   0.193   2.329   6.416
 2795SOL     OW 9283   0.747   2.819   0.810
 2795SOL    HW1 9284   0.727   2.862   0.898
 2795SOL    HW2 9285   0.665   2.817   0.753
 2796SOL     OW 9286   0.325   6.129   3.515
 2796SOL    HW1 9287   0.367   6.055   3.567
 2796SOL    HW2 9288   0.371   6.215   3.537
 2797SOL     OW 9289   4.664   5.399   4.998
 2797SOL    HW1 9290   4.660   5.404   4.898
 2797SOL    HW2 9291   4.593   5.338   5.031
 2798SOL     OW 9292   0.529   5.324   2.011
 2798SOL    HW1 9293   0.512   5.260   2.085
 2798SOL    HW2 9294   0.462   5.309   1.938
 2799SOL     OW 9295   5.918   5.221   6.160
 2799SOL    HW1 9296   5.942   5.306   6.113
 2799SOL    HW2 9297   5.953   5.224   6.254
 2800SOL     OW 9298   4.620   6.371   6.995
 2800SOL    HW1 9299   4.589   6.285   6.954
 2800SOL    HW2 9300   4.580   6.448   6.946
 2801SOL     OW 9301   6.867   5.885   6.032
 2801SOL    HW1 9302   6.952   5.889   5.981
 2801SOL    HW2 9303   6.866   5.804   6.091
 2802SOL     OW 9304   5.643   6.603   5.212
 2802SOL    HW1 9305   5.725   6.649   5.177
 2802SOL    HW2 9306   5.582   6.671   5.253
 2803SOL     OW 9307   4.177   5.641   6.279
 2803SOL    HW1 9308   4.269   5.614   6.308
 2803SOL    HW2 9309   4.114   5.634   6.356
 2804SOL     OW 9310   0.255   4.443   5.494
 2804SOL    HW1 9311   0.299   4.421   5.408
 2804SOL    HW2 9312   0.282   4.376   5.564
 2805SOL     OW 9313   6.186   3.384   1.996
 2805SOL    HW1 9314   6.271   3.342   1.963
 2805SOL    HW2 9315   6.190   3.392   2.096
 2806SOL     OW 9316   0.257   3.903   6.024
 2806SOL    HW1 9317   0.330   3.891   6.093
 2806SOL    HW2 9318   0.288   3.969   5.955
 2807SOL     OW 9319   3.667   6.649   3.883
 2807SOL    HW1 9320   3.710   6.731   3.845
 2807SOL    HW2 9321   3.691   6.570   3.827
 2808SOL     OW 9322   6.366   4.671   2.005
 2808SOL    HW1 9323   6.373   4.592   2.066
 2808SOL    HW2 9324   6.458   4.706   1.985
 2809SOL     OW 9325   5.887   2.790   1.246
 2809SOL    HW1 9326   5.854   2.766   1.155
 2809SOL    HW2 9327   5.851   2.726   1.313
 2810SOL     OW 9328   3.081   5.345   3.342
 2810SOL    HW1 9329   3.110   5.411   3.412
 2810SOL    HW2 9330   3.162   5.307   3.298
 2811SOL     OW 9331   1.309   2.115   3.740
 2811SOL    HW1 9332   1.277   2.022   3.754
 2811SOL    HW2 9333   1.318   2.133   3.641
 2812SOL     OW 9334   5.362   2.739   6.962
 2812SOL    HW1 9335   5.448   2.736   6.910
 2812SOL    HW2 9336   5.379   2.710   0.030
 2813SOL     OW 9337   0.595   0.428   6.742
 2813SOL    HW1 9338   0.545   0.514   6.734
 2813SOL    HW2 9339   0.532   0.356   6.770
 2814SOL     OW 9340   4.134   3.621   5.563
 2814SOL    HW1 9341   4.139   3.702   5.504
 2814SOL    HW2 9342   4.044   3.617   5.606
 2815SOL     OW 9343   6.510   6.573   6.517
 2815SOL    HW1 9344   6.556   6.532   6.439
 2815SOL    HW2 9345   6.567   6.563   6.599
 2816SOL     OW 9346   6.267   5.193   3.542
 2816SOL    HW1 9347   6.172   5.162   3.548
 2816SOL    HW2 9348   6.277   5.281   3.587
 2817SOL     OW 9349   3.023   6.830   1.847
 2817SOL    HW1 9350   2.958   6.891   1.893
 2817SOL    HW2 9351   2.997   6.821   1.751
 2818SOL     OW 9352   0.443   0.174   1.889
 2818SOL    HW1 9353   0.527   0.166   1.836
 2818SOL    HW2 9354   0.456   0.239   1.963
 2819SOL     OW 9355   1.764   0.653   2.242
 2819SOL    HW1 9356   1.686   0.690   2.292
 2819SOL    HW2 9357   1.741   0.644   2.145
 2820SOL     OW 9358   0.661   2.453   3.282
 2820SOL    HW1 9359   0.745   2.400   3.291
 2820SOL    HW2 9360   0.671   2.519   3.208
 2821SOL     OW 9361   3.746   4.242   6.120
 2821SOL    HW1 9362   3.662   4.190   6.102
 2821SOL    HW2 9363   3.801   4.194   6.188
 2822SOL     OW 9364   4.053   2.467   0.649
 2822SOL    HW1 9365   4.046   2.566   0.661
 2822SOL    HW2 9366   4.012   2.441   0.561
 2823SOL     OW 9367   4.980   0.765   0.810
 2823SOL    HW1 9368   4.908   0.719   0.861
 2823SOL    HW2 9369   4.939   0.817   0.734
 2824SOL     OW 9370   2.089   1.538   3.734
 2824SOL    HW1 9371   2.167   1.505   3.682
 2824SOL    HW2 9372   2.061   1.469   3.801
 2825SOL     OW 9373   5.149   6.633   6.615
 2825SOL    HW1 9374   5.097   6.660   6.695
 2825SOL    HW2 9375   5.144   6.534   6.603
 2826SOL     OW 9376   4.976   1.084   6.935
 2826SOL    HW1 9377   5.050   1.129   6.987
 2826SOL    HW2 9378   4.936   1.011   6.991
 2827SOL     OW 9379   1.109   1.535   6.468
 2827SOL    HW1 9380   1.030   1.548   6.407
 2827SOL    HW2 9381   1.087   1.465   6.536
 2828SOL     OW 9382   2.543   1.609   0.357
 2828SOL    HW1 9383   2.516   1.658   0.439
 2828SOL    HW2 9384   2.535   1.671   0.278
 2829SOL     OW 9385   2.942   3.690   4.537
 2829SOL    HW1 9386   2.909   3.598   4.517
 2829SOL    HW2 9387   2.937   3.706   4.636
 2830SOL     OW 9388   2.548   3.712   6.093
 2830SOL    HW1 9389   2.592   3.800   6.112
 2830SOL    HW2 9390   2.454   3.728   6.062
 2831SOL     OW 9391   0.836   4.466   3.492
 2831SOL    HW1 9392   0.751   4.490   3.540
 2831SOL    HW2 9393   0.913   4.507   3.540
 2832SOL     OW 9394   1.192   3.170   2.087
 2832SOL    HW1 9395   1.277   3.179   2.139
 2832SOL    HW2 9396   1.214   3.148   1.992
 2833SOL     OW 9397   2.657   2.083   2.340
 2833SOL    HW1 9398   2.560   2.079   2.366
 2833SOL    HW2 9399   2.711   2.029   2.405
 2834SOL     OW 9400   4.645   6.225   6.117
 2834SOL    HW1 9401   4.587   6.159   6.070
 2834SOL    HW2 9402   4.736   6.224   6.075
 2835SOL     OW 9403   0.407   6.305   1.267
 2835SOL    HW1 9404   0.426   6.335   1.360
 2835SOL    HW2 9405   0.462   6.359   1.203
 2836SOL     OW 9406   0.195   6.065   2.316
 2836SOL    HW1 9407   0.248   5.983   2.340
 2836SOL    HW2 9408   0.243   6.146   2.350
 2837SOL     OW 9409   4.709   4.782   2.352
 2837SOL    HW1 9410   4.663   4.696   2.376
 2837SOL    HW2 9411   4.642   4.846   2.314
 2838SOL     OW 9412   3.520   3.722   0.447
 2838SOL    HW1 9413   3.420   3.731   0.446
 2838SOL    HW2 9414   3.545   3.633   0.486
 2839SOL     OW 9415   6.691   2.012   2.799
 2839SOL    HW1 9416   6.675   2.102   2.759
 2839SOL    HW2 9417   6.645   1.943   2.743
 2840SOL     OW 9418   1.456   0.047   2.414
 2840SOL    HW1 9419   1.405   6.988   2.397
 2840SOL    HW2 9420   1.399   0.125   2.388
 2841SOL     OW 9421   0.162   1.797   6.256
 2841SOL    HW1 9422   0.235   1.832   6.197
 2841SOL    HW2 9423   0.075   1.804   6.208
 2842SOL     OW 9424   0.041   4.020   3.591
 2842SOL    HW1 9425   6.990   4.010   3.654
 2842SOL    HW2 9426   0.125   3.985   3.633
 2843SOL     OW 9427   2.076   1.978   3.200
 2843SOL    HW1 9428   2.073   1.929   3.287
 2843SOL    HW2 9429   2.049   2.073   3.215
 2844SOL     OW 9430   6.389   5.023   6.650
 2844SOL    HW1 9431   6.375   5.084   6.572
 2844SOL    HW2 9432   6.305   4.974   6.671
 2845SOL     OW 9433   5.584   3.229   2.213
 2845SOL    HW1 9434   5.488   3.223   2.187
 2845SOL    HW2 9435   5.619   3.138   2.233
 2846SOL     OW 9436   4.369   1.165   0.511
 2846SOL    HW1 9437   4.320   1.123   0.435
 2846SOL    HW2 9438   4.332   1.132   0.597
 2847SOL     OW 9439   5.329   3.867   3.251
 2847SOL    HW1 9440   5.320   3.939   3.183
 2847SOL    HW2 9441   5.381   3.901   3.329
 2848SOL     OW 9442   1.931   3.093   5.575
 2848SOL    HW1 9443   1.838   3.068   5.602
 2848SOL    HW2 9444   1.968   3.023   5.514
 2849SOL     OW 9445   4.784   0.479   0.642
 2849SOL    HW1 9446   4.824   0.414   0.706
 2849SOL    HW2 9447   4.835   0.476   0.555
 2850SOL     OW 9448   1.878   6.859   2.586
 2850SOL    HW1 9449   1.891   6.812   2.673
 2850SOL    HW2 9450   1.785   6.843   2.553
 2851SOL     OW 9451   5.866   1.821   5.725
 2851SOL    HW1 9452   5.855   1.880   5.645
 2851SOL    HW2 9453   5.937   1.753   5.706
 2852SOL     OW 9454   6.547   3.956   6.927
 2852SOL    HW1 9455   6.470   3.898   6.902
 2852SOL    HW2 9456   6.524   4.009   7.009
 2853SOL     OW 9457   2.114   1.665   6.468
 2853SOL    HW1 9458   2.112   1.675   6.368
 2853SOL    HW2 9459   2.097   1.754   6.511
 2854SOL     OW 9460   4.813   0.667   5.184
 2854SOL    HW1 9461   4.735   0.693   5.241
 2854SOL    HW2 9462   4.834   0.741   5.119
 2855SOL     OW 9463   2.142   2.424   6.009
 2855SOL    HW1 9464   2.241   2.415   6.005
 2855SOL    HW2 9465   2.113   2.499   5.950
 2856SOL     OW 9466   0.319   3.727   5.504
 2856SOL    HW1 9467   0.256   3.655   5.536
 2856SOL    HW2 9468   0.398   3.684   5.460
 2857SOL     OW 9469   2.121   3.056   1.944
 2857SOL    HW1 9470   2.171   2.971   1.954
 2857SOL    HW2 9471   2.126   3.109   2.029
 2858SOL     OW 9472   4.548   4.464   1.782
 2858SOL    HW1 9473   4.528   4.379   1.832
 2858SOL    HW2 9474   4.480   4.533   1.807
 2859SOL     OW 9475   5.067   0.590   6.611
 2859SOL    HW1 9476   5.107   0.527   6.546
 2859SOL    HW2 9477   4.967   0.590   6.601
 2860SOL     OW 9478   2.335   2.437   1.743
 2860SOL    HW1 9479   2.361   2.404   1.652
 2860SOL    HW2 9480   2.377   2.379   1.813
 2861SOL     OW 9481   3.555   5.100   5.738
 2861SOL    HW1 9482   3.608   5.091   5.653
 2861SOL    HW2 9483   3.606   5.058   5.813
 2862SOL     OW 9484   4.853   2.219   2.366
 2862SOL    HW1 9485   4.948   2.189   2.363
 2862SOL    HW2 9486   4.805   2.171   2.440
 2863SOL     OW 9487   4.525   1.523   6.936
 2863SOL    HW1 9488   4.582   1.543   7.016
 2863SOL    HW2 9489   4.577   1.542   6.853
 2864SOL     OW 9490   4.204   1.549   2.087
 2864SOL    HW1 9491   4.121   1.604   2.094
 2864SOL    HW2 9492   4.257   1.558   2.171
 2865SOL     OW 9493   4.319   6.420   5.736
 2865SOL    HW1 9494   4.263   6.342   5.709
 2865SOL    HW2 9495   4.267   6.504   5.726
 2866SOL     OW 9496   5.974   5.246   6.448
 2866SOL    HW1 9497   6.052   5.300   6.478
 2866SOL    HW2 9498   5.953   5.176   6.517
 2867SOL     OW 9499   0.043   6.106   3.449
 2867SOL    HW1 9500   7.008   6.057   3.511
 2867SOL    HW2 9501   0.138   6.091   3.475
 2868SOL     OW 9502   2.117   1.399   5.223
 2868SOL    HW1 9503   2.068   1.442   5.299
 2868SOL    HW2 9504   2.057   1.396   5.142
 2869SOL     OW 9505   6.770   1.109   3.298
 2869SOL    HW1 9506   6.712   1.146   3.371
 2869SOL    HW2 9507   6.820   1.030   3.332
 2870SOL     OW 9508   0.843   1.703   5.516
 2870SOL    HW1 9509   0.786   1.650   5.453
 2870SOL    HW2 9510   0.927   1.652   5.536
 2871SOL     OW 9511   0.105   1.431   6.725
 2871SOL    HW1 9512   0.145   1.514   6.686
 2871SOL    HW2 9513   0.122   1.428   6.823
 2872SOL     OW 9514   2.708   2.220   2.131
 2872SOL    HW1 9515   2.695   2.148   2.199
 2872SOL    HW2 9516   2.804   2.220   2.101
 2873SOL     OW 9517   6.869   5.650   3.041
 2873SOL    HW1 9518   6.811   5.702   2.977
 2873SOL    HW2 9519   6.866   5.693   3.131
 2874SOL     OW 9520   5.238   0.018   3.328
 2874SOL    HW1 9521   5.183   0.087   3.280
 2874SOL    HW2 9522   5.244   6.961   3.272
 2875SOL     OW 9523   5.178   0.145   1.533
 2875SOL    HW1 9524   5.097   0.188   1.493
 2875SOL    HW2 9525   5.257   0.206   1.522
 2876SOL     OW 9526   1.950   6.892   2.200
 2876SOL    HW1 9527   1.858   6.853   2.207
 2876SOL    HW2 9528   2.004   6.866   2.280
 2877SOL     OW 9529   2.244   1.812   5.834
 2877SOL    HW1 9530   2.332   1.774   5.807
 2877SOL    HW2 9531   2.203   1.861   5.756
 2878SOL     OW 9532   4.004   4.359   5.326
 2878SOL    HW1 9533   3.939   4.297   5.282
 2878SOL    HW2 9534   4.095   4.318   5.325
 2879SOL     OW 9535   5.191   4.696   0.062
 2879SOL    HW1 9536   5.115   4.735   0.011
 2879SOL    HW2 9537   5.277   4.721   0.019
 2880SOL     OW 9538   0.223   1.304   2.678
 2880SOL    HW1 9539   0.218   1.205   2.689
 2880SOL    HW2 9540   0.298   1.326   2.616
 2881SOL     OW 9541   4.453   5.786   6.482
 2881SOL    HW1 9542   4.432   5.843   6.402
 2881SOL    HW2 9543   4.402   5.819   6.561
 2882SOL     OW 9544   0.077   5.627   2.088
 2882SOL    HW1 9545   0.076   5.579   2.000
 2882SOL    HW2 9546   0.171   5.632   2.121
 2883SOL     OW 9547   6.189   0.532   3.636
 2883SOL    HW1 9548   6.220   0.591   3.711
 2883SOL    HW2 9549   6.251   0.542   3.558
 2884SOL     OW 9550   1.165   0.020   2.818
 2884SOL    HW1 9551   1.068   0.006   2.838
 2884SOL    HW2 9552   1.192   0.113   2.846
 2885SOL     OW 9553   1.786   3.660   3.722
 2885SOL    HW1 9554   1.754   3.723   3.793
 2885SOL    HW2 9555   1.883   3.676   3.704
 2886SOL     OW 9556   0.429   3.457   6.273
 2886SOL    HW1 9557   0.334   3.462   6.304
 2886SOL    HW2 9558   0.489   3.445   6.352
 2887SOL     OW 9559   0.796   1.038   5.700
 2887SOL    HW1 9560   0.764   1.103   5.769
 2887SOL    HW2 9561   0.764   0.946   5.723
 2888SOL     OW 9562   6.887   4.406   6.643
 2888SOL    HW1 9563   6.912   4.311   6.627
 2888SOL    HW2 9564   6.790   4.411   6.670
 2889SOL     OW 9565   2.822   6.298   2.251
 2889SOL    HW1 9566   2.841   6.396   2.246
 2889SOL    HW2 9567   2.882   6.256   2.319
 2890SOL     OW 9568   1.295   6.182   0.165
 2890SOL    HW1 9569   1.291   6.208   0.069
 2890SOL    HW2 9570   1.202   6.175   0.201
 2891SOL     OW 9571   1.131   4.766   3.405
 2891SOL    HW1 9572   1.211   4.799   3.454
 2891SOL    HW2 9573   1.157   4.691   3.345
 2892SOL     OW 9574   6.262   3.540   0.381
 2892SOL    HW1 9575   6.164   3.556   0.379
 2892SOL    HW2 9576   6.311   3.623   0.354
 2893SOL     OW 9577   6.648   5.313   3.997
 2893SOL    HW1 9578   6.675   5.348   4.086
 2893SOL    HW2 9579   6.590   5.231   4.009
 2894SOL     OW 9580   0.756   3.471   2.106
 2894SOL    HW1 9581   0.755   3.546   2.040
 2894SOL    HW2 9582   0.695   3.398   2.076
 2895SOL     OW 9583   5.132   2.336   5.575
 2895SOL    HW1 9584   5.054   2.283   5.542
 2895SOL    HW2 9585   5.100   2.423   5.613
 2896SOL     OW 9586   4.689   5.902   5.157
 2896SOL    HW1 9587   4.720   5.925   5.250
 2896SOL    HW2 9588   4.708   5.806   5.139
 2897SOL     OW 9589   3.924   4.938   3.238
 2897SOL    HW1 9590   3.831   4.904   3.227
 2897SOL    HW2 9591   3.979   4.870   3.285
 2898SOL     OW 9592   4.495   4.481   4.343
 2898SOL    HW1 9593   4.524   4.572   4.373
 2898SOL    HW2 9594   4.420   4.449   4.401
 2899SOL     OW 9595   0.768   2.218   0.130
 2899SOL    HW1 9596   0.786   2.165   0.212
 2899SOL    HW2 9597   0.778   2.316   0.150
 2900SOL     OW 9598   2.359   3.805   5.890
 2900SOL    HW1 9599   2.443   3.859   5.883
 2900SOL    HW2 9600   2.310   3.809   5.803
 2901SOL     OW 9601   2.778   5.066   3.242
 2901SOL    HW1 9602   2.776   4.966   3.242
 2901SOL    HW2 9603   2.823   5.098   3.325
 2902SOL     OW 9604   5.780   5.442   3.166
 2902SOL    HW1 9605   5.876   5.453   3.140
 2902SOL    HW2 9606   5.745   5.529   3.201
 2903SOL     OW 9607   3.271   0.054   0.661
 2903SOL    HW1 9608   3.278   6.997   0.605
 2903SOL    HW2 9609   3.248   0.029   0.755
 2904SOL     OW 9610   2.423   4.760   4.390
 2904SOL    HW1 9611   2.495   4.692   4.407
 2904SOL    HW2 9612   2.380   4.741   4.302
 2905SOL     OW 9613   1.378   2.375   4.927
 2905SOL    HW1 9614   1.334   2.415   4.847
 2905SOL    HW2 9615   1.354   2.278   4.934
 2906SOL     OW 9616   4.730   5.024   2.167
 2906SOL    HW1 9617   4.828   5.018   2.188
 2906SOL    HW2 9618   4.714   5.104   2.109
 2907SOL     OW 9619   1.021   0.965   3.306
 2907SOL    HW1 9620   0.971   0.972   3.220
 2907SOL    HW2 9621   1.106   0.914   3.292
 2908SOL     OW 9622   5.414   6.564   3.205
 2908SOL    HW1 9623   5.392   6.478   3.158
 2908SOL    HW2 9624   5.489   6.548   3.269
 2909SOL     OW 9625   1.544   5.585   4.062
 2909SOL    HW1 9626   1.570   5.508   4.003
 2909SOL    HW2 9627   1.525   5.551   4.154
 2910SOL     OW 9628   4.699   0.861   4.557
 2910SOL    HW1 9629   4.698   0.777   4.501
 2910SOL    HW2 9630   4.652   0.843   4.643
 2911SOL     OW 9631   1.026   5.632   3.784
 2911SOL    HW1 9632   1.002   5.645   3.688
 2911SOL    HW2 9633   1.125   5.620   3.792
 2912SOL     OW 9634   5.357   0.384   6.545
 2912SOL    HW1 9635   5.445   0.344   6.519
 2912SOL    HW2 9636   5.350   0.387   6.645
 2913SOL     OW 9637   3.198   5.238   1.880
 2913SOL    HW1 9638   3.164   5.158   1.830
 2913SOL    HW2 9639   3.130   5.266   1.948
 2914SOL     OW 9640   6.285   6.451   6.191
 2914SOL    HW1 9641   6.290   6.541   6.148
 2914SOL    HW2 9642   6.376   6.410   6.194
 2915SOL     OW 9643   3.797   2.091   3.778
 2915SOL    HW1 9644   3.749   2.110   3.864
 2915SOL    HW2 9645   3.894   2.076   3.796
 2916SOL     OW 9646   0.605   5.999   0.680
 2916SOL    HW1 9647   0.557   6.072   0.728
 2916SOL    HW2 9648   0.704   6.014   0.688
 2917SOL     OW 9649   2.488   0.841   3.450
 2917SOL    HW1 9650   2.541   0.924   3.442
 2917SOL    HW2 9651   2.467   0.806   3.359
 2918SOL     OW 9652   5.859   4.612   4.914
 2918SOL    HW1 9653   5.776   4.614   4.970
 2918SOL    HW2 9654   5.937   4.586   4.971
 2919SOL     OW 9655   5.416   0.583   2.605
 2919SOL    HW1 9656   5.420   0.577   2.505
 2919SOL    HW2 9657   5.484   0.649   2.637
 2920SOL     OW 9658   3.042   1.361   1.662
 2920SOL    HW1 9659   3.075   1.302   1.588
 2920SOL    HW2 9660   3.000   1.305   1.733
 2921SOL     OW 9661   0.891   0.082   4.672
 2921SOL    HW1 9662   0.805   0.066   4.622
 2921SOL    HW2 9663   0.907   0.006   4.735
 2922SOL     OW 9664   4.778   0.392   1.553
 2922SOL    HW1 9665   4.757   0.443   1.470
 2922SOL    HW2 9666   4.692   0.361   1.595
 2923SOL     OW 9667   6.168   5.020   2.641
 2923SOL    HW1 9668   6.263   5.018   2.611
 2923SOL    HW2 9669   6.161   5.069   2.728
 2924SOL     OW 9670   6.400   2.109   5.818
 2924SOL    HW1 9671   6.375   2.203   5.840
 2924SOL    HW2 9672   6.354   2.046   5.881
 2925SOL     OW 9673   4.851   0.979   2.368
 2925SOL    HW1 9674   4.852   1.027   2.456
 2925SOL    HW2 9675   4.942   0.945   2.347
 2926SOL     OW 9676   6.478   1.793   4.577
 2926SOL    HW1 9677   6.469   1.831   4.485
 2926SOL    HW2 9678   6.514   1.863   4.639
 2927SOL     OW 9679   1.671   4.361   1.323
 2927SOL    HW1 9680   1.700   4.452   1.353
 2927SOL    HW2 9681   1.730   4.331   1.248
 2928SOL     OW 9682   6.987   0.626   6.920
 2928SOL    HW1 9683   0.049   0.615   6.968
 2928SOL    HW2 9684   6.927   0.550   6.945
 2929SOL     OW 9685   1.144   2.094   0.099
 2929SOL    HW1 9686   1.090   2.069   0.019
 2929SOL    HW2 9687   1.185   2.184   0.085
 2930SOL     OW 9688   5.400   0.445   5.306
 2930SOL    HW1 9689   5.459   0.456   5.227
 2930SOL    HW2 9690   5.324   0.384   5.283
 2931SOL     OW 9691   5.635   4.510   6.737
 2931SOL    HW1 9692   5.540   4.538   6.725
 2931SOL    HW2 9693   5.655   4.497   6.834
 2932SOL     OW 9694   1.116   5.443   1.745
 2932SOL    HW1 9695   1.099   5.540   1.762
 2932SOL    HW2 9696   1.032   5.400   1.712
 2933SOL     OW 9697   0.286   5.371   2.899
 2933SOL    HW1 9698   0.386   5.370   2.890
 2933SOL    HW2 9699   0.259   5.435   2.971
 2934SOL     OW 9700   4.612   1.814   0.533
 2934SOL    HW1 9701   4.711   1.821   0.525
 2934SOL    HW2 9702   4.588   1.731   0.584
 2935SOL     OW 9703   6.975   2.807   6.880
 2935SOL    HW1 9704   6.949   2.885   6.937
 2935SOL    HW2 9705   6.995   2.840   6.787
 2936SOL     OW 9706   4.395   6.658   0.356
 2936SOL    HW1 9707   4.470   6.594   0.336
 2936SOL    HW2 9708   4.308   6.609   0.352
 2937SOL     OW 9709   4.880   4.624   1.121
 2937SOL    HW1 9710   4.946   4.592   1.052
 2937SOL    HW2 9711   4.855   4.548   1.180
 2938SOL     OW 9712   4.619   4.956   6.662
 2938SOL    HW1 9713   4.698   4.954   6.724
 2938SOL    HW2 9714   4.650   4.973   6.568
 2939SOL     OW 9715   1.912   0.590   2.790
 2939SOL    HW1 9716   1.963   0.513   2.830
 2939SOL    HW2 9717   1.843   0.554   2.727
 2940SOL     OW 9718   5.807   4.981   5.779
 2940SOL    HW1 9719   5.845   5.073   5.786
 2940SOL    HW2 9720   5.803   4.940   5.870
 2941SOL     OW 9721   2.125   2.174   4.124
 2941SOL    HW1 9722   2.188   2.233   4.175
 2941SOL    HW2 9723   2.040   2.165   4.175
 2942SOL     OW 9724   3.017   2.341   0.465
 2942SOL    HW1 9725   2.986   2.348   0.370
 2942SOL    HW2 9726   2.948   2.380   0.526
 2943SOL     OW 9727   4.950   4.318   3.415
 2943SOL    HW1 9728   4.969   4.301   3.511
 2943SOL    HW2 9729   4.903   4.240   3.375
 2944SOL     OW 9730   2.919   6.004   4.155
 2944SOL    HW1 9731   2.915   5.976   4.251
 2944SOL    HW2 9732   2.891   5.927   4.097
 2945SOL     OW 9733   3.023   3.842   3.450
 2945SOL    HW1 9734   3.089   3.910   3.482
 2945SOL    HW2 9735   3.052   3.751   3.479
 2946SOL     OW 9736   0.902   4.709   5.687
 2946SOL    HW1 9737   0.900   4.754   5.776
 2946SOL    HW2 9738   0.872   4.614   5.698
 2947SOL     OW 9739   0.411   3.522   1.064
 2947SOL    HW1 9740   0.328   3.504   1.011
 2947SOL    HW2 9741   0.491   3.492   1.011
 2948SOL     OW 9742   0.984   3.670   5.132
 2948SOL    HW1 9743   0.991   3.765   5.164
 2948SOL    HW2 9744   1.075   3.637   5.107
 2949SOL     OW 9745   2.793   5.779   0.622
 2949SOL    HW1 9746   2.714   5.801   0.680
 2949SOL    HW2 9747   2.771   5.799   0.526
 2950SOL     OW 9748   5.388   4.619   4.206
 2950SOL    HW1 9749   5.340   4.663   4.282
 2950SOL    HW2 9750   5.435   4.537   4.239
 2951SOL     OW 9751   5.306   1.085   1.466
 2951SOL    HW1 9752   5.207   1.082   1.475
 2951SOL    HW2 9753   5.331   1.111   1.373
 2952SOL     OW 9754   0.113   4.236   4.890
 2952SOL    HW1 9755   0.086   4.210   4.797
 2952SOL    HW2 9756   0.064   4.179   4.956
 2953SOL     OW 9757   4.878   3.343   2.625
 2953SOL    HW1 9758   4.862   3.331   2.723
 2953SOL    HW2 9759   4.961   3.397   2.612
 2954SOL     OW 9760   0.850   5.401   1.616
 2954SOL    HW1 9761   0.816   5.383   1.523
 2954SOL    HW2 9762   0.781   5.452   1.667
 2955SOL     OW 9763   1.060   3.690   2.176
 2955SOL    HW1 9764   1.017   3.628   2.112
 2955SOL    HW2 9765   1.087   3.640   2.258
 2956SOL     OW 9766   5.376   5.857   2.820
 2956SOL    HW1 9767   5.298   5.881   2.877
 2956SOL    HW2 9768   5.358   5.770   2.774
 2957SOL     OW 9769   6.063   3.767   2.253
 2957SOL    HW1 9770   6.016   3.709   2.320
 2957SOL    HW2 9771   6.017   3.758   2.164
 2958SOL     OW 9772   2.602   4.652   3.621
 2958SOL    HW1 9773   2.616   4.749   3.641
 2958SOL    HW2 9774   2.624   4.598   3.702
 2959SOL     OW 9775   5.158   3.874   0.393
 2959SOL    HW1 9776   5.148   3.929   0.310
 2959SOL    HW2 9777   5.111   3.786   0.380
 2960SOL     OW 9778   3.161   1.310   0.423
 2960SOL    HW1 9779   3.216   1.279   0.501
 2960SOL    HW2 9780   3.090   1.243   0.404
 2961SOL     OW 9781   5.188   3.335   3.021
 2961SOL    HW1 9782   5.252   3.412   3.013
 2961SOL    HW2 9783   5.234   3.250   2.996
 2962SOL     OW 9784   4.647   6.814   2.920
 2962SOL    HW1 9785   4.742   6.846   2.917
 2962SOL    HW2 9786   4.615   6.813   3.015
 2963SOL     OW 9787   2.205   1.400   6.478
 2963SOL    HW1 9788   2.265   1.398   6.397
 2963SOL    HW2 9789   2.154   1.486   6.480
 2964SOL     OW 9790   0.648   0.530   3.671
 2964SOL    HW1 9791   0.594   0.592   3.614
 2964SOL    HW2 9792   0.743   0.530   3.639
 2965SOL     OW 9793   0.058   1.472   4.024
 2965SOL    HW1 9794   7.009   1.536   4.006
 2965SOL    HW2 9795   0.050   1.437   4.118
 2966SOL     OW 9796   4.680   5.728   3.424
 2966SOL    HW1 9797   4.665   5.653   3.488
 2966SOL    HW2 9798   4.594   5.752   3.379
 2967SOL     OW 9799   0.029   0.909   4.949
 2967SOL    HW1 9800   0.124   0.893   4.921
 2967SOL    HW2 9801   6.993   0.886   4.874
 2968SOL     OW 9802   1.213   2.610   0.086
 2968SOL    HW1 9803   1.244   2.631   0.179
 2968SOL    HW2 9804   1.228   2.690   0.028
 2969SOL     OW 9805   5.118   1.785   4.266
 2969SOL    HW1 9806   5.203   1.773   4.214
 2969SOL    HW2 9807   5.127   1.863   4.327
 2970SOL     OW 9808   2.068   4.176   5.713
 2970SOL    HW1 9809   2.077   4.131   5.625
 2970SOL    HW2 9810   2.029   4.113   5.780
 2971SOL     OW 9811   5.078   4.249   0.368
 2971SOL    HW1 9812   5.138   4.234   0.446
 2971SOL    HW2 9813   5.096   4.178   0.299
 2972SOL     OW 9814   6.371   4.711   6.280
 2972SOL    HW1 9815   6.398   4.807   6.266
 2972SOL    HW2 9816   6.300   4.706   6.351
 2973SOL     OW 9817   5.522   6.316   2.493
 2973SOL    HW1 9818   5.526   6.246   2.564
 2973SOL    HW2 9819   5.573   6.397   2.523
 2974SOL     OW 9820   0.995   4.674   3.632
 2974SOL    HW1 9821   1.002   4.725   3.547
 2974SOL    HW2 9822   0.903   4.684   3.670
 2975SOL     OW 9823   5.679   3.312   4.109
 2975SOL    HW1 9824   5.688   3.241   4.179
 2975SOL    HW2 9825   5.588   3.307   4.068
 2976SOL     OW 9826   4.459   1.813   3.089
 2976SOL    HW1 9827   4.467   1.715   3.076
 2976SOL    HW2 9828   4.364   1.841   3.073
 2977SOL     OW 9829   2.418   6.612   2.380
 2977SOL    HW1 9830   2.448   6.530   2.429
 2977SOL    HW2 9831   2.461   6.615   2.290
 2978SOL     OW 9832   4.864   4.413   0.337
 2978SOL    HW1 9833   4.931   4.339   0.339
 2978SOL    HW2 9834   4.903   4.495   0.379
 2979SOL     OW 9835   3.823   0.720   4.348
 2979SOL    HW1 9836   3.820   0.739   4.250
 2979SOL    HW2 9837   3.835   0.622   4.363
 2980SOL     OW 9838   1.282   5.797   4.898
 2980SOL    HW1 9839   1.210   5.808   4.829
 2980SOL    HW2 9840   1.279   5.874   4.961
 2981SOL     OW 9841   2.727   1.255   5.644
 2981SOL    HW1 9842   2.790   1.227   5.716
 2981SOL    HW2 9843   2.638   1.277   5.684
 2982SOL     OW 9844   3.248   4.949   2.845
 2982SOL    HW1 9845   3.179   4.986   2.783
 2982SOL    HW2 9846   3.321   5.016   2.857
 2983SOL     OW 9847   0.585   1.020   2.627
 2983SOL    HW1 9848   0.536   1.075   2.559
 2983SOL    HW2 9849   0.684   1.033   2.614
 2984SOL     OW 9850   5.176   4.874   0.611
 2984SOL    HW1 9851   5.227   4.805   0.663
 2984SOL    HW2 9852   5.228   4.899   0.529
 2985SOL     OW 9853   1.635   3.014   5.579
 2985SOL    HW1 9854   1.599   3.092   5.527
 2985SOL    HW2 9855   1.560   2.951   5.601
 2986SOL     OW 9856   3.584   4.054   3.386
 2986SOL    HW1 9857   3.636   3.983   3.434
 2986SOL    HW2 9858   3.556   4.125   3.451
 2987SOL     OW 9859   0.319   1.564   4.059
 2987SOL    HW1 9860   0.246   1.543   3.994
 2987SOL    HW2 9861   0.295   1.526   4.149
 2988SOL     OW 9862   1.505   5.518   2.771
 2988SOL    HW1 9863   1.543   5.452   2.707
 2988SOL    HW2 9864   1.523   5.611   2.738
 2989SOL     OW 9865   5.689   6.097   5.891
 2989SOL    HW1 9866   5.738   6.020   5.851
 2989SOL    HW2 9867   5.730   6.119   5.980
 2990SOL     OW 9868   3.466   2.001   4.861
 2990SOL    HW1 9869   3.427   2.015   4.770
 2990SOL    HW2 9870   3.404   2.037   4.930
 2991SOL     OW 9871   6.547   3.934   5.199
 2991SOL    HW1 9872   6.640   3.930   5.162
 2991SOL    HW2 9873   6.531   4.025   5.236
 2992SOL     OW 9874   2.525   6.431   4.734
 2992SOL    HW1 9875   2.607   6.485   4.719
 2992SOL    HW2 9876   2.506   6.375   4.653
 2993SOL     OW 9877   0.332   4.828   1.708
 2993SOL    HW1 9878   0.281   4.770   1.645
 2993SOL    HW2 9879   0.284   4.915   1.719
 2994SOL     OW 9880   4.138   6.157   6.931
 2994SOL    HW1 9881   4.069   6.229   6.929
 2994SOL    HW2 9882   4.155   6.124   6.838
 2995SOL     OW 9883   2.891   1.814   5.730
 2995SOL    HW1 9884   2.842   1.735   5.693
 2995SOL    HW2 9885   2.841   1.851   5.808
 2996SOL     OW 9886   1.616   1.399   4.082
 2996SOL    HW1 9887   1.572   1.428   3.998
 2996SOL    HW2 9888   1.550   1.399   4.157
 2997SOL     OW 9889   6.329   0.111   3.166
 2997SOL    HW1 9890   6.401   0.053   3.127
 2997SOL    HW2 9891   6.289   0.167   3.094
 2998SOL     OW 9892   4.515   6.936   3.710
 2998SOL    HW1 9893   4.583   6.925   3.638
 2998SOL    HW2 9894   4.504   6.850   3.760
 2999SOL     OW 9895   2.219   5.412   5.024
 2999SOL    HW1 9896   2.258   5.504   5.034
 2999SOL    HW2 9897   2.291   5.344   5.039
 3000SOL     OW 9898   3.087   3.790   6.339
 3000SOL    HW1 9899   3.025   3.868   6.333
 3000SOL    HW2 9900   3.171   3.817   6.385
 3001SOL     OW 9901   6.432   0.509   5.960
 3001SOL    HW1 9902   6.506   0.574   5.943
 3001SOL    HW2 9903   6.470   0.416   5.962
 3002SOL     OW 9904   3.280   1.336   0.010
 3002SOL    HW1 9905   3.346   1.368   6.967
 3002SOL    HW2 9906   3.274   1.403   0.084
 3003SOL     OW 9907   1.788   6.819   0.595
 3003SOL    HW1 9908   1.876   6.865   0.585
 3003SOL    HW2 9909   1.766   6.769   0.511
 3004SOL     OW 9910   0.784   4.465   3.231
 3004SOL    HW1 9911   0.810   4.469   3.328
 3004SOL    HW2 9912   0.686   4.478   3.223
 3005SOL     OW 9913   2.193   1.821   1.031
 3005SOL    HW1 9914   2.227   1.861   1.116
 3005SOL    HW2 9915   2.103   1.858   1.010
 3006SOL     OW 9916   5.609   1.923   5.124
 3006SOL    HW1 9917   5.580   1.943   5.030
 3006SOL    HW2 9918   5.694   1.972   5.144
 3007SOL     OW 9919   5.438   4.549   1.028
 3007SOL    HW1 9920   5.493   4.550   1.111
 3007SOL    HW2 9921   5.354   4.496   1.044
 3008SOL     OW 9922   3.689   2.006   6.131
 3008SOL    HW1 9923   3.672   2.078   6.063
 3008SOL    HW2 9924   3.761   1.945   6.096
 3009SOL     OW 9925   6.895   1.789   2.917
 3009SOL    HW1 9926   6.960   1.854   2.879
 3009SOL    HW2 9927   6.803   1.828   2.914
 3010SOL     OW 9928   3.550   5.915   3.321
 3010SOL    HW1 9929   3.556   5.897   3.222
 3010SOL    HW2 9930   3.453   5.919   3.347
 3011SOL     OW 9931   5.532   1.156   2.369
 3011SOL    HW1 9932   5.623   1.164   2.329
 3011SOL    HW2 9933   5.492   1.067   2.346
 3012SOL     OW 9934   1.919   3.470   6.083
 3012SOL    HW1 9935   1.926   3.428   5.993
 3012SOL    HW2 9936   1.850   3.421   6.137
 3013SOL     OW 9937   5.371   5.551   4.222
 3013SOL    HW1 9938   5.405   5.513   4.136
 3013SOL    HW2 9939   5.357   5.649   4.212
 3014SOL     OW 9940   4.455   2.273   4.616
 3014SOL    HW1 9941   4.452   2.344   4.686
 3014SOL    HW2 9942   4.546   2.231   4.616
 3015SOL     OW 9943   3.346   1.984   0.367
 3015SOL    HW1 9944   3.284   1.906   0.362
 3015SOL    HW2 9945   3.433   1.955   0.408
 3016SOL     OW 9946   2.064   6.512   3.935
 3016SOL    HW1 9947   2.139   6.571   3.967
 3016SOL    HW2 9948   2.020   6.555   3.856
 3017SOL     OW 9949   6.538   4.809   2.278
 3017SOL    HW1 9950   6.583   4.746   2.342
 3017SOL    HW2 9951   6.538   4.769   2.187
 3018SOL     OW 9952   3.179   6.701   5.774
 3018SOL    HW1 9953   3.216   6.626   5.830
 3018SOL    HW2 9954   3.194   6.788   5.821
 3019SOL     OW 9955   1.101   6.756   0.261
 3019SOL    HW1 9956   1.101   6.849   0.297
 3019SOL    HW2 9957   1.008   6.719   0.262
 3020SOL     OW 9958   3.768   2.696   1.446
 3020SOL    HW1 9959   3.687   2.640   1.465
 3020SOL    HW2 9960   3.832   2.688   1.523
 3021SOL     OW 9961   2.998   0.099   6.105
 3021SOL    HW1 9962   2.989   0.189   6.061
 3021SOL    HW2 9963   2.907   0.058   6.114
 3022SOL     OW 9964   3.592   5.348   4.606
 3022SOL    HW1 9965   3.677   5.295   4.610
 3022SOL    HW2 9966   3.602   5.432   4.659
 3023SOL     OW 9967   3.746   6.714   2.883
 3023SOL    HW1 9968   3.811   6.683   2.951
 3023SOL    HW2 9969   3.663   6.658   2.887
 3024SOL     OW 9970   4.689   0.232   4.774
 3024SOL    HW1 9971   4.699   0.271   4.865
 3024SOL    HW2 9972   4.778   0.200   4.741
 3025SOL     OW 9973   2.916   0.009   0.707
 3025SOL    HW1 9974   2.819   0.006   0.682
 3025SOL    HW2 9975   2.967   0.062   0.640
 3026SOL     OW 9976   1.290   0.658   6.830
 3026SOL    HW1 9977   1.369   0.703   6.789
 3026SOL    HW2 9978   1.321   0.590   6.897
 3027SOL     OW 9979   4.160   0.751   3.005
 3027SOL    HW1 9980   4.257   0.730   3.010
 3027SOL    HW2 9981   4.138   0.824   3.069
 3028SOL     OW 9982   1.207   3.633   5.905
 3028SOL    HW1 9983   1.199   3.565   5.978
 3028SOL    HW2 9984   1.188   3.589   5.817
 3029SOL     OW 9985   0.113   2.698   5.011
 3029SOL    HW1 9986   0.084   2.752   5.090
 3029SOL    HW2 9987   0.162   2.756   4.946
 3030SOL     OW 9988   6.896   3.436   0.284
 3030SOL    HW1 9989   6.827   3.366   0.270
 3030SOL    HW2 9990   6.857   3.511   0.337
 3031SOL     OW 9991   0.437   4.025   0.938
 3031SOL    HW1 9992   0.390   3.945   0.975
 3031SOL    HW2 9993   0.533   4.024   0.967
 3032SOL     OW 9994   2.786   6.514   0.843
 3032SOL    HW1 9995   2.883   6.539   0.847
 3032SOL    HW2 9996   2.777   6.416   0.860
 3033SOL     OW 9997   5.942   2.011   1.135
 3033SOL    HW1 9998   5.918   2.029   1.040
 3033SOL    HW2 9999   6.039   2.029   1.150
 3034SOL     OW10000   1.852   5.675   2.564
 3034SOL    HW110001   1.950   5.683   2.544
 3034SOL    HW210002   1.839   5.668   2.663
 3035SOL     OW10003   0.341   2.910   6.438
 3035SOL    HW110004   0.277   2.890   6.364
 3035SOL    HW210005   0.403   2.983   6.411
 3036SOL     OW10006   1.948   2.015   6.349
 3036SOL    HW110007   1.949   1.981   6.443
 3036SOL    HW210008   2.028   1.980   6.301
 3037SOL     OW10009   6.156   5.856   5.511
 3037SOL    HW110010   6.183   5.952   5.513
 3037SOL    HW210011   6.238   5.799   5.519
 3038SOL     OW10012   5.448   6.141   5.778
 3038SOL    HW110013   5.538   6.136   5.822
 3038SOL    HW210014   5.454   6.104   5.686
 3039SOL     OW10015   6.599   3.030   0.373
 3039SOL    HW110016   6.647   2.951   0.411
 3039SOL    HW210017   6.514   3.044   0.424
 3040SOL     OW10018   3.822   3.693   5.953
 3040SOL    HW110019   3.722   3.693   5.954
 3040SOL    HW210020   3.854   3.785   5.929
 3041SOL     OW10021   2.158   2.970   4.462
 3041SOL    HW110022   2.084   3.028   4.496
 3041SOL    HW210023   2.238   2.979   4.522
 3042SOL     OW10024   5.137   5.791   1.948
 3042SOL    HW110025   5.216   5.852   1.953
 3042SOL    HW210026   5.145   5.734   1.866
 3043SOL     OW10027   2.315   4.130   1.929
 3043SOL    HW110028   2.291   4.223   1.901
 3043SOL    HW210029   2.362   4.084   1.854
 3044SOL     OW10030   4.001   4.668   5.481
 3044SOL    HW110031   3.917   4.620   5.454
 3044SOL    HW210032   3.977   4.757   5.521
 3045SOL     OW10033   4.785   0.373   3.147
 3045SOL    HW110034   4.746   0.459   3.181
 3045SOL    HW210035   4.821   0.387   3.055
 3046SOL     OW10036   2.006   0.699   6.261
 3046SOL    HW110037   1.982   0.762   6.335
 3046SOL    HW210038   1.926   0.683   6.204
 3047SOL     OW10039   5.870   0.235   1.835
 3047SOL    HW110040   5.933   0.250   1.759
 3047SOL    HW210041   5.843   0.139   1.838
 3048SOL     OW10042   3.925   2.372   1.760
 3048SOL    HW110043   3.835   2.383   1.804
 3048SOL    HW210044   3.982   2.312   1.816
 3049SOL     OW10045   1.846   6.923   2.964
 3049SOL    HW110046   1.849   7.015   2.925
 3049SOL    HW210047   1.763   6.912   3.019
 3050SOL     OW10048   3.245   1.417   1.970
 3050SOL    HW110049   3.197   1.504   1.980
 3050SOL    HW210050   3.256   1.396   1.873
 3051SOL     OW10051   1.623   5.043   6.289
 3051SOL    HW110052   1.719   5.061   6.309
 3051SOL    HW210053   1.609   5.040   6.190
 3052SOL     OW10054   5.058   6.141   1.946
 3052SOL    HW110055   5.100   6.215   1.998
 3052SOL    HW210056   5.128   6.096   1.890
 3053SOL     OW10057   6.934   2.033   0.146
 3053SOL    HW110058   7.024   2.076   0.157
 3053SOL    HW210059   6.864   2.104   0.137
 3054SOL     OW10060   6.836   2.457   0.964
 3054SOL    HW110061   6.809   2.509   1.045
 3054SOL    HW210062   6.835   2.517   0.884
 3055SOL     OW10063   5.196   0.682   4.986
 3055SOL    HW110064   5.284   0.657   5.025
 3055SOL    HW210065   5.206   0.700   4.889
 3056SOL     OW10066   6.757   0.002   5.100
 3056SOL    HW110067   6.819   6.967   5.050
 3056SOL    HW210068   6.685   0.034   5.038
 3057SOL     OW10069   4.301   6.309   2.771
 3057SOL    HW110070   4.392   6.269   2.775
 3057SOL    HW210071   4.267   6.323   2.864
 3058SOL     OW10072   6.762   5.006   1.596
 3058SOL    HW110073   6.829   4.950   1.644
 3058SOL    HW210074   6.790   5.018   1.501
 3059SOL     OW10075   2.568   2.364   4.485
 3059SOL    HW110076   2.609   2.298   4.548
 3059SOL    HW210077   2.515   2.431   4.537
 3060SOL     OW10078   1.213   5.165   0.162
 3060SOL    HW110079   1.287   5.135   0.102
 3060SOL    HW210080   1.172   5.249   0.126
 3061SOL     OW10081   0.221   6.839   5.191
 3061SOL    HW110082   0.190   6.830   5.097
 3061SOL    HW210083   0.166   6.779   5.250
 3062SOL     OW10084   2.271   0.599   0.669
 3062SOL    HW110085   2.213   0.676   0.643
 3062SOL    HW210086   2.233   0.554   0.749
 3063SOL     OW10087   2.577   4.787   1.667
 3063SOL    HW110088   2.671   4.803   1.698
 3063SOL    HW210089   2.535   4.716   1.724
 3064SOL     OW10090   5.121   3.828   1.807
 3064SOL    HW110091   5.085   3.863   1.721
 3064SOL    HW210092   5.220   3.831   1.806
 3065SOL     OW10093   1.999   1.388   0.341
 3065SOL    HW110094   2.060   1.318   0.306
 3065SOL    HW210095   1.907   1.376   0.302
 3066SOL     OW10096   4.683   5.619   0.969
 3066SOL    HW110097   4.661   5.716   0.983
 3066SOL    HW210098   4.768   5.611   0.919
 3067SOL     OW10099   3.518   1.499   5.351
 3067SOL    HW110100   3.615   1.518   5.363
 3067SOL    HW210101   3.467   1.536   5.430
 3068SOL     OW10102   6.455   0.404   0.619
 3068SOL    HW110103   6.500   0.466   0.684
 3068SOL    HW210104   6.366   0.441   0.594
 3069SOL     OW10105   7.022   5.859   1.905
 3069SOL    HW110106   7.025   5.766   1.940
 3069SOL    HW210107   6.929   5.883   1.879
 3070SOL     OW10108   2.758   1.185   0.100
 3070SOL    HW110109   2.736   1.146   0.010
 3070SOL    HW210110   2.808   1.270   0.088
 3071SOL     OW10111   6.318   5.807   3.653
 3071SOL    HW110112   6.260   5.749   3.710
 3071SOL    HW210113   6.313   5.901   3.685
 3072SOL     OW10114   2.402   6.061   6.730
 3072SOL    HW110115   2.348   5.979   6.709
 3072SOL    HW210116   2.492   6.054   6.686
 3073SOL     OW10117   5.663   2.714   4.309
 3073SOL    HW110118   5.712   2.800   4.319
 3073SOL    HW210119   5.596   2.704   4.383
 3074SOL     OW10120   5.865   3.943   0.421
 3074SOL    HW110121   5.772   3.908   0.408
 3074SOL    HW210122   5.930   3.867   0.416
 3075SOL     OW10123   2.853   5.648   1.710
 3075SOL    HW110124   2.878   5.592   1.788
 3075SOL    HW210125   2.871   5.744   1.729
 3076SOL     OW10126   6.590   0.415   4.287
 3076SOL    HW110127   6.638   0.353   4.225
 3076SOL    HW210128   6.656   0.471   4.337
 3077SOL     OW10129   5.403   5.122   1.216
 3077SOL    HW110130   5.364   5.030   1.229
 3077SOL    HW210131   5.418   5.164   1.306
 3078SOL     OW10132   0.033   2.691   2.858
 3078SOL    HW110133   0.108   2.633   2.826
 3078SOL    HW210134   0.059   2.733   2.945
 3079SOL     OW10135   2.537   2.563   2.960
 3079SOL    HW110136   2.542   2.550   2.861
 3079SOL    HW210137   2.477   2.640   2.981
 3080SOL     OW10138   4.939   4.658   2.263
 3080SOL    HW110139   4.854   4.707   2.284
 3080SOL    HW210140   5.015   4.699   2.312
 3081SOL     OW10141   0.533   2.914   5.203
 3081SOL    HW110142   0.483   2.838   5.245
 3081SOL    HW210143   0.629   2.890   5.191
 3082SOL     OW10144   2.702   6.182   3.862
 3082SOL    HW110145   2.790   6.144   3.833
 3082SOL    HW210146   2.632   6.111   3.854
 3083SOL     OW10147   3.017   6.276   4.084
 3083SOL    HW110148   3.060   6.339   4.149
 3083SOL    HW210149   3.006   6.187   4.127
 3084SOL     OW10150   6.595   3.720   4.240
 3084SOL    HW110151   6.654   3.799   4.249
 3084SOL    HW210152   6.511   3.735   4.292
 3085SOL     OW10153   6.027   4.676   0.298
 3085SOL    HW110154   5.988   4.755   0.250
 3085SOL    HW210155   6.110   4.704   0.347
 3086SOL     OW10156   4.877   1.686   1.247
 3086SOL    HW110157   4.896   1.603   1.195
 3086SOL    HW210158   4.811   1.742   1.198
 3087SOL     OW10159   1.336   5.259   3.814
 3087SOL    HW110160   1.243   5.227   3.834
 3087SOL    HW210161   1.371   5.211   3.734
 3088SOL     OW10162   2.111   4.795   4.828
 3088SOL    HW110163   2.055   4.854   4.771
 3088SOL    HW210164   2.172   4.851   4.884
 3089SOL     OW10165   1.920   3.324   5.857
 3089SOL    HW110166   1.831   3.280   5.856
 3089SOL    HW210167   1.987   3.265   5.812
 3090SOL     OW10168   2.467   2.306   1.933
 3090SOL    HW110169   2.552   2.275   1.890
 3090SOL    HW210170   2.485   2.334   2.027
 3091SOL     OW10171   1.603   6.908   1.374
 3091SOL    HW110172   1.620   6.810   1.377
 3091SOL    HW210173   1.505   6.924   1.357
 3092SOL     OW10174   4.746   1.320   0.682
 3092SOL    HW110175   4.783   1.245   0.736
 3092SOL    HW210176   4.664   1.356   0.726
 3093SOL     OW10177   5.417   6.684   6.342
 3093SOL    HW110178   5.323   6.713   6.360
 3093SOL    HW210179   5.418   6.625   6.261
 3094SOL     OW10180   2.211   6.954   4.304
 3094SOL    HW110181   2.175   6.929   4.214
 3094SOL    HW210182   2.215   6.873   4.362
 3095SOL     OW10183   2.554   5.307   5.285
 3095SOL    HW110184   2.541   5.294   5.384
 3095SOL    HW210185   2.610   5.233   5.249
 3096SOL     OW10186   1.131   5.672   5.466
 3096SOL    HW110187   1.090   5.654   5.376
 3096SOL    HW210188   1.230   5.674   5.458
 3097SOL     OW10189   5.548   2.274   0.437
 3097SOL    HW110190   5.549   2.198   0.502
 3097SOL    HW210191   5.642   2.293   0.408
 3098SOL     OW10192   2.352   2.841   1.666
 3098SOL    HW110193   2.397   2.753   1.650
 3098SOL    HW210194   2.317   2.877   1.579
 3099SOL     OW10195   1.254   0.051   3.489
 3099SOL    HW110196   1.327   0.087   3.547
 3099SOL    HW210197   1.264   6.978   3.480
 3100SOL     OW10198   0.061   5.715   3.592
 3100SOL    HW110199   0.123   5.739   3.517
 3100SOL    HW210200   0.106   5.650   3.653
 3101SOL     OW10201   5.693   6.267   6.923
 3101SOL    HW110202   5.744   6.190   6.962
 3101SOL    HW210203   5.599   6.239   6.905
 3102SOL     OW10204   6.344   5.290   2.355
 3102SOL    HW110205   6.341   5.192   2.376
 3102SOL    HW210206   6.328   5.303   2.257
 3103SOL     OW10207   4.393   0.536   2.174
 3103SOL    HW110208   4.369   0.631   2.195
 3103SOL    HW210209   4.433   0.532   2.082
 3104SOL     OW10210   5.005   1.110   4.883
 3104SOL    HW110211   4.917   1.155   4.900
 3104SOL    HW210212   5.076   1.179   4.870
 3105SOL     OW10213   5.593   4.512   1.238
 3105SOL    HW110214   5.670   4.575   1.244
 3105SOL    HW210215   5.623   4.425   1.198
 3106SOL     OW10216   5.297   0.972   3.700
 3106SOL    HW110217   5.323   1.010   3.611
 3106SOL    HW210218   5.255   1.043   3.756
 3107SOL     OW10219   4.548   1.607   5.098
 3107SOL    HW110220   4.589   1.627   5.008
 3107SOL    HW210221   4.481   1.678   5.120
 3108SOL     OW10222   1.648   6.118   4.190
 3108SOL    HW110223   1.619   6.032   4.148
 3108SOL    HW210224   1.748   6.126   4.184
 3109SOL     OW10225   5.609   6.334   3.696
 3109SOL    HW110226   5.606   6.244   3.652
 3109SOL    HW210227   5.614   6.405   3.626
 3110SOL     OW10228   1.169   2.782   2.537
 3110SOL    HW110229   1.214   2.695   2.515
 3110SOL    HW210230   1.224   2.858   2.504
 3111SOL     OW10231   0.019   5.156   3.209
 3111SOL    HW110232   6.947   5.175   3.222
 3111SOL    HW210233   0.053   5.101   3.286
 3112SOL     OW10234   4.053   3.128   6.651
 3112SOL    HW110235   4.124   3.088   6.592
 3112SOL    HW210236   4.097   3.179   6.725
 3113SOL     OW10237   2.489   5.402   3.739
 3113SOL    HW110238   2.492   5.489   3.690
 3113SOL    HW210239   2.578   5.386   3.782
 3114SOL     OW10240   4.544   2.073   1.073
 3114SOL    HW110241   4.555   2.171   1.087
 3114SOL    HW210242   4.462   2.041   1.121
 3115SOL     OW10243   3.705   4.362   6.417
 3115SOL    HW110244   3.658   4.298   6.478
 3115SOL    HW210245   3.794   4.324   6.391
 3116SOL     OW10246   0.001   3.033   0.030
 3116SOL    HW110247   0.055   2.949   0.037
 3116SOL    HW210248   0.056   3.105   7.013
 3117SOL     OW10249   4.443   3.520   5.326
 3117SOL    HW110250   4.523   3.523   5.266
 3117SOL    HW210251   4.454   3.587   5.399
 3118SOL     OW10252   0.983   5.456   2.450
 3118SOL    HW110253   0.932   5.542   2.456
 3118SOL    HW210254   0.991   5.430   2.354
 3119SOL     OW10255   2.463   3.680   6.431
 3119SOL    HW110256   2.542   3.662   6.489
 3119SOL    HW210257   2.491   3.677   6.335
 3120SOL     OW10258   3.684   0.510   4.989
 3120SOL    HW110259   3.661   0.606   5.003
 3120SOL    HW210260   3.758   0.503   4.922
 3121SOL     OW10261   0.532   0.720   3.499
 3121SOL    HW110262   0.539   0.743   3.402
 3121SOL    HW210263   0.547   0.802   3.554
 3122SOL     OW10264   4.682   6.017   6.300
 3122SOL    HW110265   4.694   6.083   6.226
 3122SOL    HW210266   4.729   6.049   6.382
 3123SOL     OW10267   2.278   1.373   3.156
 3123SOL    HW110268   2.243   1.462   3.183
 3123SOL    HW210269   2.376   1.368   3.173
 3124SOL     OW10270   4.947   0.088   4.737
 3124SOL    HW110271   5.036   0.099   4.693
 3124SOL    HW210272   4.904   0.003   4.705
 3125SOL     OW10273   0.464   2.609   4.912
 3125SOL    HW110274   0.391   2.565   4.964
 3125SOL    HW210275   0.437   2.616   4.816
 3126SOL     OW10276   5.416   4.516   5.316
 3126SOL    HW110277   5.480   4.535   5.242
 3126SOL    HW210278   5.322   4.517   5.280
 3127SOL     OW10279   0.968   3.382   5.471
 3127SOL    HW110280   1.040   3.360   5.406
 3127SOL    HW210281   0.935   3.475   5.454
 3128SOL     OW10282   2.616   0.389   6.112
 3128SOL    HW110283   2.700   0.440   6.131
 3128SOL    HW210284   2.552   0.399   6.188
 3129SOL     OW10285   6.517   3.738   6.559
 3129SOL    HW110286   6.453   3.759   6.633
 3129SOL    HW210287   6.550   3.645   6.569
 3130SOL     OW10288   1.872   4.289   1.105
 3130SOL    HW110289   1.818   4.293   1.020
 3130SOL    HW210290   1.889   4.193   1.128
 3131SOL     OW10291   0.371   2.891   1.682
 3131SOL    HW110292   0.422   2.885   1.768
 3131SOL    HW210293   0.379   2.804   1.634
 3132SOL     OW10294   3.500   5.895   6.381
 3132SOL    HW110295   3.415   5.868   6.336
 3132SOL    HW210296   3.572   5.907   6.313
 3133SOL     OW10297   3.188   1.520   3.682
 3133SOL    HW110298   3.261   1.475   3.632
 3133SOL    HW210299   3.162   1.464   3.761
 3134SOL     OW10300   4.617   4.053   1.722
 3134SOL    HW110301   4.545   4.105   1.768
 3134SOL    HW210302   4.699   4.110   1.714
 3135SOL     OW10303   4.868   1.368   4.516
 3135SOL    HW110304   4.889   1.272   4.500
 3135SOL    HW210305   4.912   1.424   4.446
 3136SOL     OW10306   5.509   0.484   1.870
 3136SOL    HW110307   5.483   0.523   1.782
 3136SOL    HW210308   5.454   0.403   1.889
 3137SOL     OW10309   6.641   0.837   2.269
 3137SOL    HW110310   6.609   0.844   2.363
 3137SOL    HW210311   6.733   0.796   2.268
 3138SOL     OW10312   6.183   4.718   3.672
 3138SOL    HW110313   6.241   4.800   3.678
 3138SOL    HW210314   6.169   4.696   3.575
 3139SOL     OW10315   4.726   6.387   0.778
 3139SOL    HW110316   4.773   6.462   0.825
 3139SOL    HW210317   4.632   6.416   0.756
 3140SOL     OW10318   6.367   0.060   0.143
 3140SOL    HW110319   6.312   0.085   0.064
 3140SOL    HW210320   6.463   0.086   0.128
 3141SOL     OW10321   0.316   6.998   6.621
 3141SOL    HW110322   0.285   6.997   6.526
 3141SOL    HW210323   0.405   6.952   6.627
 3142SOL     OW10324   3.927   0.014   2.037
 3142SOL    HW110325   3.908   0.094   2.094
 3142SOL    HW210326   3.964   6.966   2.093
 3143SOL     OW10327   6.619   2.244   6.606
 3143SOL    HW110328   6.534   2.293   6.589
 3143SOL    HW210329   6.602   2.146   6.604
 3144SOL     OW10330   3.842   4.137   1.433
 3144SOL    HW110331   3.920   4.160   1.491
 3144SOL    HW210332   3.875   4.107   1.343
 3145SOL     OW10333   2.247   5.891   1.305
 3145SOL    HW110334   2.304   5.910   1.225
 3145SOL    HW210335   2.152   5.881   1.276
 3146SOL     OW10336   1.776   0.718   3.664
 3146SOL    HW110337   1.833   0.675   3.594
 3146SOL    HW210338   1.736   0.802   3.627
 3147SOL     OW10339   3.148   6.133   1.668
 3147SOL    HW110340   3.206   6.168   1.595
 3147SOL    HW210341   3.058   6.111   1.631
 3148SOL     OW10342   5.951   5.999   4.472
 3148SOL    HW110343   5.981   6.069   4.408
 3148SOL    HW210344   5.879   6.036   4.530
 3149SOL     OW10345   2.624   1.062   5.446
 3149SOL    HW110346   2.618   1.098   5.353
 3149SOL    HW210347   2.631   1.138   5.511
 3150SOL     OW10348   5.851   5.375   3.989
 3150SOL    HW110349   5.875   5.470   3.970
 3150SOL    HW210350   5.933   5.319   3.990
 3151SOL     OW10351   6.170   1.271   5.290
 3151SOL    HW110352   6.192   1.308   5.380
 3151SOL    HW210353   6.071   1.276   5.275
 3152SOL     OW10354   1.188   5.602   0.557
 3152SOL    HW110355   1.131   5.602   0.639
 3152SOL    HW210356   1.285   5.606   0.583
 3153SOL     OW10357   6.204   4.616   0.928
 3153SOL    HW110358   6.249   4.695   0.886
 3153SOL    HW210359   6.128   4.586   0.871
 3154SOL     OW10360   6.709   1.509   6.505
 3154SOL    HW110361   6.693   1.483   6.600
 3154SOL    HW210362   6.806   1.497   6.483
 3155SOL     OW10363   6.409   4.640   0.617
 3155SOL    HW110364   6.375   4.572   0.551
 3155SOL    HW210365   6.476   4.597   0.677
 3156SOL     OW10366   3.311   2.933   3.556
 3156SOL    HW110367   3.397   2.886   3.575
 3156SOL    HW210368   3.262   2.949   3.641
 3157SOL     OW10369   2.261   2.024   5.048
 3157SOL    HW110370   2.188   1.987   4.990
 3157SOL    HW210371   2.347   2.027   4.996
 3158SOL     OW10372   4.178   1.143   3.500
 3158SOL    HW110373   4.220   1.118   3.413
 3158SOL    HW210374   4.188   1.067   3.565
 3159SOL     OW10375   6.127   1.810   6.993
 3159SOL    HW110376   6.057   1.861   6.943
 3159SOL    HW210377   6.140   1.850   0.058
 3160SOL     OW10378   0.491   6.092   5.534
 3160SOL    HW110379   0.496   6.049   5.624
 3160SOL    HW210380   0.580   6.134   5.513
 3161SOL     OW10381   1.955   2.849   3.540
 3161SOL    HW110382   1.965   2.763   3.491
 3161SOL    HW210383   1.931   2.922   3.476
 3162SOL     OW10384   1.546   6.433   2.287
 3162SOL    HW110385   1.467   6.381   2.253
 3162SOL    HW210386   1.615   6.438   2.215
 3163SOL     OW10387   4.889   2.715   6.027
 3163SOL    HW110388   4.819   2.777   5.992
 3163SOL    HW210389   4.861   2.621   6.011
 3164SOL     OW10390   4.071   4.889   1.083
 3164SOL    HW110391   3.976   4.890   1.051
 3164SOL    HW210392   4.133   4.877   1.005
 3165SOL     OW10393   7.024   6.288   1.350
 3165SOL    HW110394   0.071   6.230   1.312
 3165SOL    HW210395   6.982   6.341   1.276
 3166SOL     OW10396   4.378   1.915   4.499
 3166SOL    HW110397   4.341   1.931   4.408
 3166SOL    HW210398   4.313   1.946   4.568
 3167SOL     OW10399   6.572   4.473   0.773
 3167SOL    HW110400   6.608   4.401   0.715
 3167SOL    HW210401   6.499   4.436   0.832
 3168SOL     OW10402   4.515   2.277   6.372
 3168SOL    HW110403   4.488   2.221   6.450
 3168SOL    HW210404   4.542   2.218   6.296
 3169SOL     OW10405   1.994   3.394   4.344
 3169SOL    HW110406   1.950   3.484   4.345
 3169SOL    HW210407   2.060   3.389   4.419
 3170SOL     OW10408   4.299   0.041   1.638
 3170SOL    HW110409   4.247   0.124   1.658
 3170SOL    HW210410   4.244   7.008   1.577
 3171SOL     OW10411   0.318   0.636   1.393
 3171SOL    HW110412   0.398   0.577   1.386
 3171SOL    HW210413   0.273   0.620   1.481
 3172SOL     OW10414   6.766   5.398   0.180
 3172SOL    HW110415   6.696   5.446   0.233
 3172SOL    HW210416   6.771   5.302   0.210
 3173SOL     OW10417   2.920   2.098   0.655
 3173SOL    HW110418   2.953   2.150   0.576
 3173SOL    HW210419   2.961   2.007   0.654
 3174SOL     OW10420   2.892   1.978   0.298
 3174SOL    HW110421   2.979   2.016   0.329
 3174SOL    HW210422   2.829   2.052   0.275
 3175SOL     OW10423   6.811   0.805   0.848
 3175SOL    HW110424   6.754   0.751   0.909
 3175SOL    HW210425   6.879   0.747   0.805
 3176SOL     OW10426   1.565   4.450   4.762
 3176SOL    HW110427   1.523   4.538   4.743
 3176SOL    HW210428   1.615   4.455   4.849
 3177SOL     OW10429   4.938   3.760   4.184
 3177SOL    HW110430   4.847   3.758   4.225
 3177SOL    HW210431   4.994   3.686   4.224
 3178SOL     OW10432   6.282   2.095   0.484
 3178SOL    HW110433   6.185   2.122   0.490
 3178SOL    HW210434   6.292   2.001   0.515
 3179SOL     OW10435   0.995   3.067   2.241
 3179SOL    HW110436   1.062   3.092   2.170
 3179SOL    HW210437   0.904   3.096   2.211
 3180SOL     OW10438   4.437   1.245   6.995
 3180SOL    HW110439   4.515   1.183   6.988
 3180SOL    HW210440   4.460   1.333   6.953
 3181SOL     OW10441   6.654   1.470   3.079
 3181SOL    HW110442   6.647   1.558   3.031
 3181SOL    HW210443   6.744   1.431   3.063
 3182SOL     OW10444   3.331   0.620   5.710
 3182SOL    HW110445   3.424   0.652   5.727
 3182SOL    HW210446   3.317   0.607   5.612
 3183SOL     OW10447   4.063   4.171   1.596
 3183SOL    HW110448   4.040   4.148   1.691
 3183SOL    HW210449   4.155   4.138   1.576
 3184SOL     OW10450   0.861   2.640   2.919
 3184SOL    HW110451   0.841   2.673   2.826
 3184SOL    HW210452   0.800   2.685   2.984
 3185SOL     OW10453   5.972   5.805   0.142
 3185SOL    HW110454   5.901   5.735   0.152
 3185SOL    HW210455   6.005   5.832   0.233
 3186SOL     OW10456   3.780   1.471   2.188
 3186SOL    HW110457   3.870   1.426   2.187
 3186SOL    HW210458   3.719   1.422   2.249
 3187SOL     OW10459   4.642   4.282   7.012
 3187SOL    HW110460   4.723   4.336   6.985
 3187SOL    HW210461   4.616   4.306   0.080
 3188SOL     OW10462   2.067   0.367   4.427
 3188SOL    HW110463   2.056   0.462   4.398
 3188SOL    HW210464   1.999   0.346   4.497
 3189SOL     OW10465   1.542   1.450   1.488
 3189SOL    HW110466   1.584   1.393   1.559
 3189SOL    HW210467   1.535   1.544   1.521
 3190SOL     OW10468   6.843   6.546   0.538
 3190SOL    HW110469   6.791   6.494   0.470
 3190SOL    HW210470   6.940   6.526   0.528
 3191SOL     OW10471   5.493   6.717   1.079
 3191SOL    HW110472   5.551   6.728   0.998
 3191SOL    HW210473   5.533   6.648   1.140
 3192SOL     OW10474   0.273   2.561   1.787
 3192SOL    HW110475   0.295   2.589   1.693
 3192SOL    HW210476   0.306   2.468   1.802
 3193SOL     OW10477   3.674   1.325   6.726
 3193SOL    HW110478   3.689   1.252   6.659
 3193SOL    HW210479   3.756   1.381   6.733
 3194SOL     OW10480   1.025   2.935   6.383
 3194SOL    HW110481   1.104   2.947   6.443
 3194SOL    HW210482   1.056   2.922   6.289
 3195SOL     OW10483   2.591   2.439   3.456
 3195SOL    HW110484   2.526   2.464   3.384
 3195SOL    HW210485   2.659   2.376   3.418
 3196SOL     OW10486   0.833   1.577   5.946
 3196SOL    HW110487   0.866   1.512   6.014
 3196SOL    HW210488   0.833   1.534   5.856
 3197SOL     OW10489   2.267   6.312   2.977
 3197SOL    HW110490   2.197   6.244   2.956
 3197SOL    HW210491   2.273   6.323   3.077
 3198SOL     OW10492   5.583   2.514   5.066
 3198SOL    HW110493   5.522   2.593   5.067
 3198SOL    HW210494   5.675   2.542   5.092
 3199SOL     OW10495   4.860   3.091   2.529
 3199SOL    HW110496   4.838   3.074   2.433
 3199SOL    HW210497   4.858   3.189   2.548
 3200SOL     OW10498   6.553   2.890   2.046
 3200SOL    HW110499   6.518   2.873   2.138
 3200SOL    HW210500   6.598   2.808   2.011
 3201SOL     OW10501   5.465   4.869   4.510
 3201SOL    HW110502   5.510   4.783   4.535
 3201SOL    HW210503   5.534   4.938   4.490
 3202SOL     OW10504   6.943   4.854   1.730
 3202SOL    HW110505   0.001   4.800   1.722
 3202SOL    HW210506   6.938   4.895   1.821
 3203SOL     OW10507   6.406   2.406   6.645
 3203SOL    HW110508   6.398   2.483   6.583
 3203SOL    HW210509   6.408   2.439   6.739
 3204SOL     OW10510   4.849   6.274   1.828
 3204SOL    HW110511   4.935   6.231   1.855
 3204SOL    HW210512   4.778   6.252   1.895
 3205SOL     OW10513   6.887   3.319   5.954
 3205SOL    HW110514   6.863   3.414   5.971
 3205SOL    HW210515   6.894   3.270   6.041
 3206SOL     OW10516   0.518   6.469   5.763
 3206SOL    HW110517   0.486   6.417   5.684
 3206SOL    HW210518   0.440   6.518   5.804
 3207SOL     OW10519   0.827   0.493   5.256
 3207SOL    HW110520   0.900   0.560   5.246
 3207SOL    HW210521   0.852   0.426   5.325
 3208SOL     OW10522   5.526   6.970   5.781
 3208SOL    HW110523   5.526   6.928   5.872
 3208SOL    HW210524   5.471   6.914   5.719
 3209SOL     OW10525   4.236   5.589   2.875
 3209SOL    HW110526   4.225   5.686   2.896
 3209SOL    HW210527   4.152   5.554   2.833
 3210SOL     OW10528   0.912   4.148   1.144
 3210SOL    HW110529   0.912   4.169   1.046
 3210SOL    HW210530   0.882   4.228   1.196
 3211SOL     OW10531   1.617   3.874   0.997
 3211SOL    HW110532   1.590   3.969   1.009
 3211SOL    HW210533   1.692   3.868   0.931
 3212SOL     OW10534   3.109   0.870   1.048
 3212SOL    HW110535   3.023   0.857   0.998
 3212SOL    HW210536   3.182   0.818   1.002
 3213SOL     OW10537   0.480   5.997   2.184
 3213SOL    HW110538   0.490   6.025   2.280
 3213SOL    HW210539   0.410   6.052   2.140
 3214SOL     OW10540   4.950   5.570   0.864
 3214SOL    HW110541   5.008   5.652   0.872
 3214SOL    HW210542   4.943   5.543   0.768
 3215SOL     OW10543   0.049   2.848   1.056
 3215SOL    HW110544   0.143   2.833   1.085
 3215SOL    HW210545   7.016   2.777   1.094
 3216SOL     OW10546   5.653   5.434   0.880
 3216SOL    HW110547   5.639   5.429   0.781
 3216SOL    HW210548   5.630   5.347   0.923
 3217SOL     OW10549   0.084   6.052   2.651
 3217SOL    HW110550   0.134   6.137   2.637
 3217SOL    HW210551   0.086   5.997   2.568
 3218SOL     OW10552   4.110   0.676   3.653
 3218SOL    HW110553   4.020   0.670   3.610
 3218SOL    HW210554   4.119   0.605   3.722
 3219SOL     OW10555   0.286   1.603   3.047
 3219SOL    HW110556   0.199   1.650   3.062
 3219SOL    HW210557   0.338   1.602   3.133
 3220SOL     OW10558   6.394   6.072   5.754
 3220SOL    HW110559   6.467   6.140   5.752
 3220SOL    HW210560   6.312   6.112   5.796
 3221SOL     OW10561   3.558   6.997   1.252
 3221SOL    HW110562   3.483   0.035   1.270
 3221SOL    HW210563   3.525   6.903   1.257
 3222SOL     OW10564   4.371   1.622   2.350
 3222SOL    HW110565   4.321   1.559   2.410
 3222SOL    HW210566   4.358   1.716   2.382
 3223SOL     OW10567   1.788   5.136   6.632
 3223SOL    HW110568   1.735   5.053   6.652
 3223SOL    HW210569   1.735   5.195   6.571
 3224SOL     OW10570   4.527   3.714   0.070
 3224SOL    HW110571   4.567   3.630   0.034
 3224SOL    HW210572   4.588   3.752   0.140
 3225SOL     OW10573   4.789   3.418   6.277
 3225SOL    HW110574   4.695   3.387   6.266
 3225SOL    HW210575   4.798   3.468   6.364
 3226SOL     OW10576   2.265   1.613   4.319
 3226SOL    HW110577   2.307   1.688   4.269
 3226SOL    HW210578   2.196   1.648   4.382
 3227SOL     OW10579   3.970   2.074   0.574
 3227SOL    HW110580   4.056   2.087   0.623
 3227SOL    HW210581   3.901   2.039   0.637
 3228SOL     OW10582   6.201   3.987   2.807
 3228SOL    HW110583   6.175   4.032   2.722
 3228SOL    HW210584   6.121   3.942   2.846
 3229SOL     OW10585   4.064   0.705   5.509
 3229SOL    HW110586   4.056   0.748   5.419
 3229SOL    HW210587   4.081   0.607   5.497
 3230SOL     OW10588   1.472   3.073   4.416
 3230SOL    HW110589   1.541   3.127   4.465
 3230SOL    HW210590   1.459   3.111   4.325
 3231SOL     OW10591   2.288   1.142   1.790
 3231SOL    HW110592   2.231   1.088   1.852
 3231SOL    HW210593   2.231   1.177   1.715
 3232SOL     OW10594   4.523   5.402   5.384
 3232SOL    HW110595   4.590   5.340   5.343
 3232SOL    HW210596   4.566   5.453   5.459
 3233SOL     OW10597   0.822   2.572   1.806
 3233SOL    HW110598   0.889   2.500   1.787
 3233SOL    HW210599   0.815   2.585   1.905
 3234SOL     OW10600   0.296   1.917   0.064
 3234SOL    HW110601   0.283   1.928   6.991
 3234SOL    HW210602   0.372   1.855   0.081
 3235SOL     OW10603   5.379   0.650   1.362
 3235SOL    HW110604   5.384   0.567   1.306
 3235SOL    HW210605   5.318   0.716   1.318
 3236SOL     OW10606   0.912   3.689   0.962
 3236SOL    HW110607   1.006   3.716   0.941
 3236SOL    HW210608   0.910   3.637   1.047
 3237SOL     OW10609   5.041   1.304   4.236
 3237SOL    HW110610   5.051   1.208   4.260
 3237SOL    HW210611   4.945   1.326   4.223
 3238SOL     OW10612   0.215   4.887   0.954
 3238SOL    HW110613   0.296   4.931   0.994
 3238SOL    HW210614   0.142   4.955   0.944
 3239SOL     OW10615   6.261   1.560   1.728
 3239SOL    HW110616   6.328   1.544   1.800
 3239SOL    HW210617   6.170   1.532   1.759
 3240SOL     OW10618   1.238   0.111   6.158
 3240SOL    HW110619   1.190   0.190   6.120
 3240SOL    HW210620   1.296   0.070   6.088
 3241SOL     OW10621   4.483   1.773   5.415
 3241SOL    HW110622   4.413   1.815   5.474
 3241SOL    HW210623   4.496   1.678   5.442
 3242SOL     OW10624   3.258   4.626   0.343
 3242SOL    HW110625   3.289   4.539   0.380
 3242SOL    HW210626   3.310   4.701   0.385
 3243SOL     OW10627   5.002   4.641   0.412
 3243SOL    HW110628   4.951   4.724   0.387
 3243SOL    HW210629   5.096   4.649   0.379
 3244SOL     OW10630   4.987   5.931   6.932
 3244SOL    HW110631   4.914   5.876   6.892
 3244SOL    HW210632   4.958   5.965   7.022
 3245SOL     OW10633   4.824   3.095   5.244
 3245SOL    HW110634   4.884   3.101   5.324
 3245SOL    HW210635   4.732   3.068   5.274
 3246SOL     OW10636   5.032   0.541   2.710
 3246SOL    HW110637   5.092   0.463   2.691
 3246SOL    HW210638   5.015   0.591   2.626
 3247SOL     OW10639   5.637   4.761   2.635
 3247SOL    HW110640   5.634   4.800   2.727
 3247SOL    HW210641   5.713   4.695   2.628
 3248SOL     OW10642   6.540   3.603   1.451
 3248SOL    HW110643   6.601   3.536   1.408
 3248SOL    HW210644   6.450   3.563   1.464
 3249SOL     OW10645   3.824   3.348   4.566
 3249SOL    HW110646   3.830   3.419   4.637
 3249SOL    HW210647   3.907   3.292   4.569
 3250SOL     OW10648   6.260   6.599   2.259
 3250SOL    HW110649   6.176   6.586   2.206
 3250SOL    HW210650   6.247   6.563   2.352
 3251SOL     OW10651   3.560   0.982   2.319
 3251SOL    HW110652   3.660   0.980   2.305
 3251SOL    HW210653   3.531   0.897   2.364
 3252SOL     OW10654   2.426   1.954   2.482
 3252SOL    HW110655   2.384   1.906   2.559
 3252SOL    HW210656   2.501   1.899   2.446
 3253SOL     OW10657   5.695   2.907   2.137
 3253SOL    HW110658   5.610   2.854   2.126
 3253SOL    HW210659   5.715   2.916   2.235
 3254SOL     OW10660   5.046   5.111   5.496
 3254SOL    HW110661   5.017   5.076   5.407
 3254SOL    HW210662   4.980   5.179   5.528
 3255SOL     OW10663   5.341   5.474   1.157
 3255SOL    HW110664   5.410   5.410   1.190
 3255SOL    HW210665   5.369   5.568   1.179
 3256SOL     OW10666   4.387   0.588   0.322
 3256SOL    HW110667   4.404   0.648   0.401
 3256SOL    HW210668   4.317   0.629   0.264
 3257SOL     OW10669   1.293   1.582   1.075
 3257SOL    HW110670   1.334   1.661   1.029
 3257SOL    HW210671   1.354   1.550   1.147
 3258SOL     OW10672   4.119   4.742   1.899
 3258SOL    HW110673   4.054   4.782   1.964
 3258SOL    HW210674   4.101   4.644   1.890
 3259SOL     OW10675   4.600   5.123   3.678
 3259SOL    HW110676   4.567   5.111   3.584
 3259SOL    HW210677   4.612   5.033   3.721
 3260SOL     OW10678   1.568   1.921   0.759
 3260SOL    HW110679   1.628   1.854   0.802
 3260SOL    HW210680   1.558   1.899   0.662
 3261SOL     OW10681   4.926   6.640   0.433
 3261SOL    HW110682   4.920   6.565   0.367
 3261SOL    HW210683   4.838   6.650   0.480
 3262SOL     OW10684   3.312   2.050   2.884
 3262SOL    HW110685   3.412   2.053   2.893
 3262SOL    HW210686   3.270   2.085   2.968
 3263SOL     OW10687   2.880   1.121   3.506
 3263SOL    HW110688   2.974   1.091   3.517
 3263SOL    HW210689   2.878   1.210   3.461
 3264SOL     OW10690   1.693   4.590   0.909
 3264SOL    HW110691   1.777   4.644   0.918
 3264SOL    HW210692   1.696   4.513   0.973
 3265SOL     OW10693   4.790   1.145   6.142
 3265SOL    HW110694   4.745   1.101   6.064
 3265SOL    HW210695   4.884   1.169   6.117
 3266SOL     OW10696   0.492   3.257   0.237
 3266SOL    HW110697   0.402   3.220   0.260
 3266SOL    HW210698   0.553   3.247   0.315
 3267SOL     OW10699   3.384   1.147   0.168
 3267SOL    HW110700   3.405   1.202   0.248
 3267SOL    HW210701   3.321   1.197   0.108
 3268SOL     OW10702   1.261   4.450   0.234
 3268SOL    HW110703   1.329   4.397   0.285
 3268SOL    HW210704   1.234   4.400   0.152
 3269SOL     OW10705   4.236   4.660   2.348
 3269SOL    HW110706   4.253   4.601   2.427
 3269SOL    HW210707   4.315   4.720   2.333
 3270SOL     OW10708   0.720   4.466   4.354
 3270SOL    HW110709   0.624   4.491   4.339
 3270SOL    HW210710   0.737   4.459   4.452
 3271SOL     OW10711   5.438   3.354   2.408
 3271SOL    HW110712   5.384   3.420   2.356
 3271SOL    HW210713   5.511   3.318   2.350
 3272SOL     OW10714   3.089   4.485   6.575
 3272SOL    HW110715   3.152   4.492   6.497
 3272SOL    HW210716   3.006   4.437   6.546
 3273SOL     OW10717   0.862   6.255   1.566
 3273SOL    HW110718   0.867   6.274   1.468
 3273SOL    HW210719   0.782   6.301   1.605
 3274SOL     OW10720   4.337   1.272   1.764
 3274SOL    HW110721   4.308   1.331   1.840
 3274SOL    HW210722   4.387   1.327   1.697
 3275SOL     OW10723   0.313   1.007   6.510
 3275SOL    HW110724   0.228   0.962   6.533
 3275SOL    HW210725   0.311   1.101   6.544
 3276SOL     OW10726   3.157   6.030   0.267
 3276SOL    HW110727   3.075   6.085   0.248
 3276SOL    HW210728   3.130   5.942   0.304
 3277SOL     OW10729   4.751   6.925   0.544
 3277SOL    HW110730   4.695   6.855   0.500
 3277SOL    HW210731   4.848   6.905   0.528
 3278SOL     OW10732   0.239   1.039   6.067
 3278SOL    HW110733   0.208   1.127   6.101
 3278SOL    HW210734   0.306   1.000   6.130
 3279SOL     OW10735   5.914   1.170   0.491
 3279SOL    HW110736   5.953   1.136   0.576
 3279SOL    HW210737   5.947   1.114   0.415
 3280SOL     OW10738   3.842   4.962   4.904
 3280SOL    HW110739   3.749   4.998   4.902
 3280SOL    HW210740   3.906   5.034   4.877
 3281SOL     OW10741   2.011   5.147   1.507
 3281SOL    HW110742   2.107   5.173   1.500
 3281SOL    HW210743   1.954   5.229   1.511
 3282SOL     OW10744   0.864   5.131   5.245
 3282SOL    HW110745   0.956   5.144   5.281
 3282SOL    HW210746   0.820   5.220   5.234
 3283SOL     OW10747   4.170   1.374   0.781
 3283SOL    HW110748   4.251   1.321   0.759
 3283SOL    HW210749   4.145   1.360   0.876
 3284SOL     OW10750   5.977   5.637   6.861
 3284SOL    HW110751   6.046   5.697   6.901
 3284SOL    HW210752   6.018   5.548   6.841
 3285SOL     OW10753   4.682   2.642   3.797
 3285SOL    HW110754   4.706   2.720   3.856
 3285SOL    HW210755   4.682   2.559   3.852
 3286SOL     OW10756   4.141   3.572   2.409
 3286SOL    HW110757   4.218   3.555   2.348
 3286SOL    HW210758   4.148   3.514   2.490
 3287SOL     OW10759   1.445   6.950   6.669
 3287SOL    HW110760   1.480   6.988   6.583
 3287SOL    HW210761   1.480   7.004   6.745
 3288SOL     OW10762   0.613   5.244   6.356
 3288SOL    HW110763   0.592   5.150   6.384
 3288SOL    HW210764   0.697   5.274   6.402
 3289SOL     OW10765   2.962   6.852   5.375
 3289SOL    HW110766   3.008   6.927   5.328
 3289SOL    HW210767   2.864   6.872   5.382
 3290SOL     OW10768   0.417   6.840   1.698
 3290SOL    HW110769   0.367   6.867   1.780
 3290SOL    HW210770   0.372   6.878   1.617
 3291SOL     OW10771   1.226   5.816   0.835
 3291SOL    HW110772   1.224   5.731   0.887
 3291SOL    HW210773   1.218   5.894   0.897
 3292SOL     OW10774   0.876   0.797   0.866
 3292SOL    HW110775   0.960   0.839   0.900
 3292SOL    HW210776   0.897   0.744   0.783
 3293SOL     OW10777   0.392   3.822   3.243
 3293SOL    HW110778   0.395   3.770   3.158
 3293SOL    HW210779   0.481   3.862   3.262
 3294SOL     OW10780   0.126   1.309   6.141
 3294SOL    HW110781   0.030   1.330   6.122
 3294SOL    HW210782   0.159   1.367   6.215
 3295SOL     OW10783   1.506   3.296   1.754
 3295SOL    HW110784   1.532   3.385   1.716
 3295SOL    HW210785   1.552   3.224   1.701
 3296SOL     OW10786   1.886   6.226   2.229
 3296SOL    HW110787   1.842   6.316   2.220
 3296SOL    HW210788   1.818   6.159   2.258
 3297SOL     OW10789   3.094   0.696   4.564
 3297SOL    HW110790   3.190   0.701   4.536
 3297SOL    HW210791   3.046   0.779   4.535
 3298SOL     OW10792   5.873   1.648   4.600
 3298SOL    HW110793   5.927   1.604   4.528
 3298SOL    HW210794   5.863   1.585   4.677
 3299SOL     OW10795   2.488   6.006   3.881
 3299SOL    HW110796   2.507   5.908   3.881
 3299SOL    HW210797   2.408   6.024   3.938
 3300SOL     OW10798   0.689   0.799   5.778
 3300SOL    HW110799   0.669   0.740   5.700
 3300SOL    HW210800   0.605   0.843   5.810
 3301SOL     OW10801   2.146   3.290   3.238
 3301SOL    HW110802   2.176   3.199   3.266
 3301SOL    HW210803   2.096   3.283   3.151
 3302SOL     OW10804   0.529   5.609   5.673
 3302SOL    HW110805   0.623   5.610   5.639
 3302SOL    HW210806   0.530   5.595   5.773
 3303SOL     OW10807   3.230   3.085   1.953
 3303SOL    HW110808   3.329   3.086   1.963
 3303SOL    HW210809   3.205   3.028   1.875
 3304SOL     OW10810   1.389   5.512   4.330
 3304SOL    HW110811   1.339   5.442   4.279
 3304SOL    HW210812   1.383   5.493   4.428
 3305SOL     OW10813   2.079   1.148   3.236
 3305SOL    HW110814   2.128   1.233   3.216
 3305SOL    HW210815   2.066   1.140   3.335
 3306SOL     OW10816   1.933   5.637   4.726
 3306SOL    HW110817   1.979   5.556   4.688
 3306SOL    HW210818   1.848   5.653   4.675
 3307SOL     OW10819   6.656   5.739   6.851
 3307SOL    HW110820   6.724   5.755   6.923
 3307SOL    HW210821   6.681   5.792   6.770
 3308SOL     OW10822   4.165   5.733   6.920
 3308SOL    HW110823   4.081   5.753   6.971
 3308SOL    HW210824   4.210   5.653   6.960
 3309SOL     OW10825   0.352   5.511   2.438
 3309SOL    HW110826   0.390   5.500   2.346
 3309SOL    HW210827   0.336   5.421   2.478
 3310SOL     OW10828   0.253   3.835   4.973
 3310SOL    HW110829   0.328   3.901   4.975
 3310SOL    HW210830   0.249   3.786   5.060
 3311SOL     OW10831   2.226   3.928   1.437
 3311SOL    HW110832   2.293   3.895   1.370
 3311SOL    HW210833   2.202   4.022   1.416
 3312SOL     OW10834   4.171   4.573   5.827
 3312SOL    HW110835   4.152   4.668   5.849
 3312SOL    HW210836   4.214   4.528   5.905
 3313SOL     OW10837   0.259   5.294   3.191
 3313SOL    HW110838   0.243   5.384   3.232
 3313SOL    HW210839   0.173   5.244   3.185
 3314SOL     OW10840   2.811   1.646   3.885
 3314SOL    HW110841   2.848   1.561   3.849
 3314SOL    HW210842   2.734   1.627   3.946
 3315SOL     OW10843   5.817   2.935   4.392
 3315SOL    HW110844   5.808   2.976   4.301
 3315SOL    HW210845   5.912   2.907   4.407
 3316SOL     OW10846   4.577   1.607   6.545
 3316SOL    HW110847   4.605   1.703   6.555
 3316SOL    HW210848   4.616   1.570   6.461
 3317SOL     OW10849   4.923   3.556   1.760
 3317SOL    HW110850   4.940   3.460   1.783
 3317SOL    HW210851   5.005   3.595   1.719
 3318SOL     OW10852   3.362   0.513   0.261
 3318SOL    HW110853   3.397   0.481   0.173
 3318SOL    HW210854   3.428   0.574   0.304
 3319SOL     OW10855   6.363   0.261   4.196
 3319SOL    HW110856   6.411   0.300   4.275
 3319SOL    HW210857   6.279   0.216   4.226
 3320SOL     OW10858   5.706   1.026   5.738
 3320SOL    HW110859   5.744   1.118   5.749
 3320SOL    HW210860   5.778   0.964   5.709
 3321SOL     OW10861   3.967   2.049   1.286
 3321SOL    HW110862   4.051   2.102   1.294
 3321SOL    HW210863   3.912   2.062   1.368
 3322SOL     OW10864   5.404   3.679   1.278
 3322SOL    HW110865   5.384   3.766   1.233
 3322SOL    HW210866   5.378   3.684   1.374
 3323SOL     OW10867   2.932   3.555   6.458
 3323SOL    HW110868   2.869   3.582   6.531
 3323SOL    HW210869   2.975   3.637   6.420
 3324SOL     OW10870   1.554   3.861   6.450
 3324SOL    HW110871   1.606   3.930   6.400
 3324SOL    HW210872   1.456   3.884   6.448
 3325SOL     OW10873   2.159   2.940   6.568
 3325SOL    HW110874   2.219   2.954   6.489
 3325SOL    HW210875   2.155   3.023   6.623
 3326SOL     OW10876   5.374   2.011   2.399
 3326SOL    HW110877   5.373   1.944   2.473
 3326SOL    HW210878   5.416   1.970   2.318
 3327SOL     OW10879   3.096   5.826   1.571
 3327SOL    HW110880   3.026   5.897   1.580
 3327SOL    HW210881   3.052   5.738   1.551
 3328SOL     OW10882   4.288   1.911   1.459
 3328SOL    HW110883   4.368   1.856   1.433
 3328SOL    HW210884   4.211   1.850   1.478
 3329SOL     OW10885   5.444   0.564   4.863
 3329SOL    HW110886   5.433   0.664   4.860
 3329SOL    HW210887   5.453   0.528   4.771
 3330SOL     OW10888   6.378   6.080   1.485
 3330SOL    HW110889   6.377   6.122   1.576
 3330SOL    HW210890   6.376   6.152   1.416
 3331SOL     OW10891   0.953   3.945   1.356
 3331SOL    HW110892   1.029   3.885   1.331
 3331SOL    HW210893   0.943   4.016   1.286
 3332SOL     OW10894   6.872   4.641   0.525
 3332SOL    HW110895   6.779   4.678   0.519
 3332SOL    HW210896   6.877   4.575   0.600
 3333SOL     OW10897   2.910   4.374   6.396
 3333SOL    HW110898   2.847   4.416   6.330
 3333SOL    HW210899   2.888   4.277   6.406
 3334SOL     OW10900   2.315   4.247   1.564
 3334SOL    HW110901   2.324   4.346   1.570
 3334SOL    HW210902   2.399   4.203   1.596
 3335SOL     OW10903   4.768   6.946   5.811
 3335SOL    HW110904   4.693   6.882   5.826
 3335SOL    HW210905   4.850   6.912   5.856
 3336SOL     OW10906   1.765   6.370   4.692
 3336SOL    HW110907   1.827   6.374   4.614
 3336SOL    HW210908   1.781   6.286   4.743
 3337SOL     OW10909   3.081   3.939   1.542
 3337SOL    HW110910   2.996   3.986   1.519
 3337SOL    HW210911   3.127   3.912   1.457
 3338SOL     OW10912   6.766   2.487   1.605
 3338SOL    HW110913   6.793   2.583   1.604
 3338SOL    HW210914   6.819   2.436   1.537
 3339SOL     OW10915   0.816   7.008   6.469
 3339SOL    HW110916   0.880   6.994   6.545
 3339SOL    HW210917   0.868   7.016   6.384
 3340SOL     OW10918   3.509   1.945   3.146
 3340SOL    HW110919   3.552   1.985   3.226
 3340SOL    HW210920   3.422   1.991   3.128
 3341SOL     OW10921   1.374   3.966   3.943
 3341SOL    HW110922   1.423   4.012   3.869
 3341SOL    HW210923   1.439   3.924   4.006
 3342SOL     OW10924   1.061   6.684   3.476
 3342SOL    HW110925   1.023   6.618   3.411
 3342SOL    HW210926   1.128   6.743   3.429
 3343SOL     OW10927   5.537   3.713   6.972
 3343SOL    HW110928   5.498   3.645   0.008
 3343SOL    HW210929   5.468   3.782   6.949
 3344SOL     OW10930   5.460   3.780   3.546
 3344SOL    HW110931   5.454   3.683   3.523
 3344SOL    HW210932   5.541   3.819   3.503
 3345SOL     OW10933   1.250   3.277   6.172
 3345SOL    HW110934   1.243   3.245   6.077
 3345SOL    HW210935   1.218   3.372   6.177
 3346SOL     OW10936   0.908   0.992   0.153
 3346SOL    HW110937   0.893   1.053   0.231
 3346SOL    HW210938   0.992   0.939   0.168
 3347SOL     OW10939   1.484   2.592   5.074
 3347SOL    HW110940   1.412   2.531   5.041
 3347SOL    HW210941   1.460   2.687   5.052
 3348SOL     OW10942   4.072   3.340   4.248
 3348SOL    HW110943   4.112   3.411   4.191
 3348SOL    HW210944   4.068   3.254   4.198
 3349SOL     OW10945   1.956   5.108   3.036
 3349SOL    HW110946   1.873   5.086   3.087
 3349SOL    HW210947   1.973   5.037   2.968
 3350SOL     OW10948   6.954   2.013   5.753
 3350SOL    HW110949   7.005   1.969   5.827
 3350SOL    HW210950   6.917   1.943   5.692
 3351SOL     OW10951   4.963   0.927   3.148
 3351SOL    HW110952   5.020   0.997   3.104
 3351SOL    HW210953   5.022   0.857   3.189
 3352SOL     OW10954   6.819   3.203   1.260
 3352SOL    HW110955   6.735   3.156   1.234
 3352SOL    HW210956   6.887   3.192   1.187
 3353SOL     OW10957   2.980   5.624   1.233
 3353SOL    HW110958   2.998   5.623   1.331
 3353SOL    HW210959   2.964   5.718   1.203
 3354SOL     OW10960   4.412   2.652   5.621
 3354SOL    HW110961   4.416   2.739   5.672
 3354SOL    HW210962   4.330   2.601   5.649
 3355SOL     OW10963   1.867   1.564   6.383
 3355SOL    HW110964   1.914   1.635   6.436
 3355SOL    HW210965   1.846   1.600   6.292
 3356SOL     OW10966   0.740   5.665   6.334
 3356SOL    HW110967   0.644   5.678   6.310
 3356SOL    HW210968   0.787   5.753   6.337
 3357SOL     OW10969   2.150   3.653   1.759
 3357SOL    HW110970   2.057   3.617   1.756
 3357SOL    HW210971   2.214   3.579   1.780
 3358SOL     OW10972   4.575   1.728   1.730
 3358SOL    HW110973   4.610   1.643   1.690
 3358SOL    HW210974   4.481   1.713   1.761
 3359SOL     OW10975   0.726   6.405   2.952
 3359SOL    HW110976   0.734   6.483   3.013
 3359SOL    HW210977   0.793   6.413   2.878
 3360SOL     OW10978   1.782   0.859   0.225
 3360SOL    HW110979   1.783   0.830   0.129
 3360SOL    HW210980   1.749   0.784   0.282
 3361SOL     OW10981   6.666   5.075   4.407
 3361SOL    HW110982   6.733   5.083   4.333
 3361SOL    HW210983   6.692   5.135   4.483
 3362SOL     OW10984   3.268   1.370   2.885
 3362SOL    HW110985   3.272   1.467   2.909
 3362SOL    HW210986   3.173   1.346   2.862
 3363SOL     OW10987   7.018   1.541   2.170
 3363SOL    HW110988   0.056   1.581   2.104
 3363SOL    HW210989   7.011   1.442   2.154
 3364SOL     OW10990   1.626   4.911   3.639
 3364SOL    HW110991   1.632   4.889   3.737
 3364SOL    HW210992   1.684   4.990   3.619
 3365SOL     OW10993   0.406   2.318   4.770
 3365SOL    HW110994   0.343   2.393   4.792
 3365SOL    HW210995   0.382   2.280   4.681
 3366SOL     OW10996   5.346   5.094   4.212
 3366SOL    HW110997   5.328   5.190   4.191
 3366SOL    HW210998   5.260   5.045   4.225
 3367SOL     OW10999   3.831   3.099   2.514
 3367SOL    HW111000   3.755   3.035   2.527
 3367SOL    HW211001   3.895   3.090   2.590
 3368SOL     OW11002   0.554   5.873   6.731
 3368SOL    HW111003   0.456   5.862   6.718
 3368SOL    HW211004   0.598   5.784   6.732
 3369SOL     OW11005   3.644   1.960   0.349
 3369SOL    HW111006   3.733   1.974   0.306
 3369SOL    HW211007   3.595   1.886   0.303
 3370SOL     OW11008   6.864   6.485   1.200
 3370SOL    HW111009   6.825   6.516   1.113
 3370SOL    HW211010   6.878   6.563   1.260
 3371SOL     OW11011   1.965   3.132   1.552
 3371SOL    HW111012   2.056   3.170   1.534
 3371SOL    HW211013   1.954   3.045   1.503
 3372SOL     OW11014   6.733   2.205   6.839
 3372SOL    HW111015   6.703   2.201   6.744
 3372SOL    HW211016   6.707   2.120   6.885
 3373SOL     OW11017   0.704   1.510   3.634
 3373SOL    HW111018   0.702   1.562   3.549
 3373SOL    HW211019   0.629   1.540   3.694
 3374SOL     OW11020   1.260   6.598   4.514
 3374SOL    HW111021   1.169   6.584   4.476
 3374SOL    HW211022   1.274   6.536   4.592
 3375SOL     OW11023   0.291   4.736   0.155
 3375SOL    HW111024   0.319   4.728   0.059
 3375SOL    HW211025   0.205   4.787   0.160
 3376SOL     OW11026   3.996   3.124   4.636
 3376SOL    HW111027   3.910   3.084   4.668
 3376SOL    HW211028   4.046   3.162   4.714
 3377SOL     OW11029   6.413   5.658   5.942
 3377SOL    HW111030   6.367   5.719   6.007
 3377SOL    HW211031   6.449   5.578   5.991
 3378SOL     OW11032   1.277   0.059   0.657
 3378SOL    HW111033   1.248   0.114   0.735
 3378SOL    HW211034   1.319   7.000   0.689
 3379SOL     OW11035   1.166   2.008   5.261
 3379SOL    HW111036   1.224   1.927   5.252
 3379SOL    HW211037   1.070   1.979   5.272
 3380SOL     OW11038   5.828   6.337   4.466
 3380SOL    HW111039   5.806   6.433   4.448
 3380SOL    HW211040   5.746   6.291   4.501
 3381SOL     OW11041   0.822   2.966   1.603
 3381SOL    HW111042   0.844   3.027   1.527
 3381SOL    HW211043   0.771   2.887   1.568
 3382SOL     OW11044   0.562   2.980   6.887
 3382SOL    HW111045   0.584   2.908   6.953
 3382SOL    HW211046   0.480   2.955   6.835
 3383SOL     OW11047   3.925   5.638   1.273
 3383SOL    HW111048   3.968   5.666   1.186
 3383SOL    HW211049   3.923   5.716   1.335
 3384SOL     OW11050   2.301   3.435   0.738
 3384SOL    HW111051   2.358   3.458   0.817
 3384SOL    HW211052   2.354   3.382   0.672
 3385SOL     OW11053   6.793   3.007   4.729
 3385SOL    HW111054   6.697   3.021   4.752
 3385SOL    HW211055   6.843   2.980   4.812
 3386SOL     OW11056   5.438   4.157   0.434
 3386SOL    HW111057   5.464   4.115   0.521
 3386SOL    HW211058   5.397   4.246   0.450
 3387SOL     OW11059   3.787   0.791   3.166
 3387SOL    HW111060   3.783   0.883   3.127
 3387SOL    HW211061   3.796   0.724   3.092
 3388SOL     OW11062   5.175   3.212   2.597
 3388SOL    HW111063   5.115   3.176   2.668
 3388SOL    HW211064   5.215   3.136   2.546
 3389SOL     OW11065   6.015   5.706   5.979
 3389SOL    HW111066   6.000   5.757   5.894
 3389SOL    HW211067   6.047   5.769   6.050
 3390SOL     OW11068   5.705   6.887   6.640
 3390SOL    HW111069   5.623   6.834   6.619
 3390SOL    HW211070   5.782   6.850   6.588
 3391SOL     OW11071   4.854   2.091   4.639
 3391SOL    HW111072   4.770   2.036   4.637
 3391SOL    HW211073   4.830   2.188   4.628
 3392SOL     OW11074   2.870   6.940   3.680
 3392SOL    HW111075   2.799   6.900   3.737
 3392SOL    HW211076   2.858   6.910   3.585
 3393SOL     OW11077   6.369   5.732   1.132
 3393SOL    HW111078   6.454   5.697   1.093
 3393SOL    HW211079   6.380   5.745   1.230
 3394SOL     OW11080   5.308   3.500   0.868
 3394SOL    HW111081   5.344   3.589   0.895
 3394SOL    HW211082   5.283   3.448   0.950
 3395SOL     OW11083   5.383   2.953   3.749
 3395SOL    HW111084   5.397   2.861   3.788
 3395SOL    HW211085   5.466   2.982   3.702
 3396SOL     OW11086   5.190   1.188   3.886
 3396SOL    HW111087   5.265   1.178   3.952
 3396SOL    HW211088   5.106   1.152   3.926
 3397SOL     OW11089   3.294   6.071   6.740
 3397SOL    HW111090   3.259   6.155   6.783
 3397SOL    HW211091   3.217   6.012   6.716
 3398SOL     OW11092   0.679   0.436   4.502
 3398SOL    HW111093   0.760   0.461   4.555
 3398SOL    HW211094   0.629   0.363   4.549
 3399SOL     OW11095   5.560   5.032   3.562
 3399SOL    HW111096   5.492   5.003   3.629
 3399SOL    HW211097   5.611   5.110   3.597
 3400SOL     OW11098   5.341   3.174   6.876
 3400SOL    HW111099   5.272   3.245   6.893
 3400SOL    HW211100   5.339   3.149   6.779
 3401SOL     OW11101   6.982   3.649   6.506
 3401SOL    HW111102   6.896   3.698   6.492
 3401SOL    HW211103   6.963   3.552   6.522
 3402SOL     OW11104   4.507   5.329   6.599
 3402SOL    HW111105   4.595   5.289   6.624
 3402SOL    HW211106   4.511   5.363   6.505
 3403SOL     OW11107   3.647   5.614   6.347
 3403SOL    HW111108   3.552   5.638   6.328
 3403SOL    HW211109   3.700   5.697   6.364
 3404SOL     OW11110   5.411   2.380   0.804
 3404SOL    HW111111   5.420   2.346   0.897
 3404SOL    HW211112   5.473   2.457   0.790
 3405SOL     OW11113   6.603   3.813   5.904
 3405SOL    HW111114   6.613   3.896   5.959
 3405SOL    HW211115   6.520   3.819   5.849
 3406SOL     OW11116   1.037   3.398   2.203
 3406SOL    HW111117   0.948   3.423   2.163
 3406SOL    HW211118   1.077   3.324   2.150
 3407SOL     OW11119   1.297   3.950   6.461
 3407SOL    HW111120   1.315   4.034   6.409
 3407SOL    HW211121   1.217   3.963   6.520
 3408SOL     OW11122   5.434   3.168   4.725
 3408SOL    HW111123   5.426   3.208   4.816
 3408SOL    HW211124   5.353   3.190   4.671
 3409SOL     OW11125   3.705   6.200   0.230
 3409SOL    HW111126   3.717   6.292   0.193
 3409SOL    HW211127   3.753   6.134   0.171
 3410SOL     OW11128   6.670   7.006   1.566
 3410SOL    HW111129   6.625   7.009   1.655
 3410SOL    HW211130   6.611   0.023   1.497
 3411SOL     OW11131   0.284   2.745   1.158
 3411SOL    HW111132   0.376   2.772   1.131
 3411SOL    HW211133   0.279   2.645   1.160
 3412SOL     OW11134   5.079   3.139   1.148
 3412SOL    HW111135   5.023   3.200   1.204
 3412SOL    HW211136   5.121   3.069   1.205
 3413SOL     OW11137   6.374   1.669   0.683
 3413SOL    HW111138   6.351   1.594   0.621
 3413SOL    HW211139   6.343   1.646   0.776
 3414SOL     OW11140   3.419   1.862   5.816
 3414SOL    HW111141   3.335   1.809   5.825
 3414SOL    HW211142   3.453   1.854   5.722
 3415SOL     OW11143   1.940   3.165   4.496
 3415SOL    HW111144   1.961   3.259   4.469
 3415SOL    HW211145   1.903   3.115   4.417
 3416SOL     OW11146   5.784   6.603   0.704
 3416SOL    HW111147   5.794   6.678   0.639
 3416SOL    HW211148   5.701   6.551   0.684
 3417SOL     OW11149   0.230   5.917   3.875
 3417SOL    HW111150   0.166   5.841   3.864
 3417SOL    HW211151   0.316   5.895   3.829
 3418SOL     OW11152   2.933   5.756   3.741
 3418SOL    HW111153   2.889   5.765   3.830
 3418SOL    HW211154   2.891   5.818   3.676
 3419SOL     OW11155   2.815   5.765   6.031
 3419SOL    HW111156   2.782   5.800   5.943
 3419SOL    HW211157   2.747   5.703   6.070
 3420SOL     OW11158   5.873   2.897   3.069
 3420SOL    HW111159   5.968   2.928   3.066
 3420SOL    HW211160   5.870   2.798   3.056
 3421SOL     OW11161   4.866   2.056   4.272
 3421SOL    HW111162   4.821   1.992   4.210
 3421SOL    HW211163   4.911   2.005   4.346
 3422SOL     OW11164   3.066   0.361   0.674
 3422SOL    HW111165   3.118   0.447   0.679
 3422SOL    HW211166   3.110   0.300   0.608
 3423SOL     OW11167   0.090   4.713   6.572
 3423SOL    HW111168   0.011   4.666   6.532
 3423SOL    HW211169   0.074   4.811   6.572
 3424SOL     OW11170   2.346   6.684   1.242
 3424SOL    HW111171   2.366   6.634   1.326
 3424SOL    HW211172   2.362   6.625   1.163
 3425SOL     OW11173   4.790   4.948   1.880
 3425SOL    HW111174   4.743   4.941   1.967
 3425SOL    HW211175   4.730   4.915   1.807
 3426SOL     OW11176   4.120   2.521   0.926
 3426SOL    HW111177   4.104   2.436   0.977
 3426SOL    HW211178   4.095   2.507   0.830
 3427SOL     OW11179   0.795   1.645   0.762
 3427SOL    HW111180   0.889   1.610   0.762
 3427SOL    HW211181   0.781   1.700   0.680
 3428SOL     OW11182   2.678   5.225   6.958
 3428SOL    HW111183   2.672   5.288   0.010
 3428SOL    HW211184   2.612   5.151   6.970
 3429SOL     OW11185   0.284   2.118   1.110
 3429SOL    HW111186   0.278   2.065   1.025
 3429SOL    HW211187   0.193   2.125   1.151
 3430SOL     OW11188   1.361   6.293   5.631
 3430SOL    HW111189   1.458   6.270   5.619
 3430SOL    HW211190   1.305   6.230   5.577
 3431SOL     OW11191   1.444   6.546   1.793
 3431SOL    HW111192   1.498   6.501   1.864
 3431SOL    HW211193   1.347   6.523   1.806
 3432SOL     OW11194   1.753   3.921   5.042
 3432SOL    HW111195   1.822   3.875   5.098
 3432SOL    HW211196   1.701   3.984   5.100
 3433SOL     OW11197   1.545   0.185   4.833
 3433SOL    HW111198   1.475   0.254   4.814
 3433SOL    HW211199   1.513   0.125   4.907
 3434SOL     OW11200   4.123   1.114   1.991
 3434SOL    HW111201   4.038   1.065   1.971
 3434SOL    HW211202   4.201   1.060   1.961
 3435SOL     OW11203   1.500   1.184   1.133
 3435SOL    HW111204   1.505   1.137   1.045
 3435SOL    HW211205   1.542   1.126   1.204
 3436SOL     OW11206   3.969   6.213   0.385
 3436SOL    HW111207   3.909   6.285   0.352
 3436SOL    HW211208   3.974   6.216   0.485
 3437SOL     OW11209   3.079   0.050   5.640
 3437SOL    HW111210   3.121   0.118   5.581
 3437SOL    HW211211   2.979   0.056   5.634
 3438SOL     OW11212   0.891   3.097   0.971
 3438SOL    HW111213   0.805   3.051   0.994
 3438SOL    HW211214   0.878   3.154   0.890
 3439SOL     OW11215   2.820   5.959   4.776
 3439SOL    HW111216   2.771   6.024   4.835
 3439SOL    HW211217   2.777   5.958   4.686
 3440SOL     OW11218   2.964   3.204   1.820
 3440SOL    HW111219   2.945   3.268   1.895
 3440SOL    HW211220   3.063   3.196   1.808
 3441SOL     OW11221   6.512   5.768   6.302
 3441SOL    HW111222   6.434   5.728   6.254
 3441SOL    HW211223   6.488   5.784   6.398
 3442SOL     OW11224   1.888   4.223   1.611
 3442SOL    HW111225   1.864   4.316   1.641
 3442SOL    HW211226   1.960   4.229   1.542
 3443SOL     OW11227   3.475   6.277   2.277
 3443SOL    HW111228   3.506   6.335   2.201
 3443SOL    HW211229   3.430   6.334   2.346
 3444SOL     OW11230   4.873   5.349   6.971
 3444SOL    HW111231   4.937   5.402   6.916
 3444SOL    HW211232   4.856   5.397   0.032
 3445SOL     OW11233   5.700   5.223   2.584
 3445SOL    HW111234   5.607   5.205   2.614
 3445SOL    HW211235   5.736   5.144   2.535
 3446SOL     OW11236   5.967   0.893   1.691
 3446SOL    HW111237   5.876   0.858   1.672
 3446SOL    HW211238   6.020   0.824   1.741
 3447SOL     OW11239   4.673   6.028   1.152
 3447SOL    HW111240   4.596   6.059   1.207
 3447SOL    HW211241   4.756   6.029   1.208
 3448SOL     OW11242   4.032   0.190   6.592
 3448SOL    HW111243   3.999   0.154   6.505
 3448SOL    HW211244   4.106   0.254   6.577
 3449SOL     OW11245   6.121   5.223   4.613
 3449SOL    HW111246   6.049   5.238   4.544
 3449SOL    HW211247   6.177   5.305   4.621
 3450SOL     OW11248   0.694   1.976   6.890
 3450SOL    HW111249   0.768   2.023   6.938
 3450SOL    HW211250   0.732   1.914   6.821
 3451SOL     OW11251   2.741   6.268   6.997
 3451SOL    HW111252   2.755   6.255   6.899
 3451SOL    HW211253   2.691   6.191   0.009
 3452SOL     OW11254   5.319   0.527   6.801
 3452SOL    HW111255   5.389   0.598   6.814
 3452SOL    HW211256   5.252   0.558   6.734
 3453SOL     OW11257   6.173   5.411   6.552
 3453SOL    HW111258   6.140   5.502   6.577
 3453SOL    HW211259   6.262   5.419   6.507
 3454SOL     OW11260   1.173   3.266   5.275
 3454SOL    HW111261   1.255   3.275   5.219
 3454SOL    HW211262   1.105   3.212   5.225
 3455SOL     OW11263   2.539   1.890   4.685
 3455SOL    HW111264   2.491   1.950   4.622
 3455SOL    HW211265   2.566   1.806   4.637
 3456SOL     OW11266   5.738   5.210   1.685
 3456SOL    HW111267   5.831   5.241   1.665
 3456SOL    HW211268   5.678   5.289   1.698
 3457SOL     OW11269   3.125   5.534   3.544
 3457SOL    HW111270   3.084   5.509   3.632
 3457SOL    HW211271   3.182   5.616   3.555
 3458SOL     OW11272   4.528   0.878   1.991
 3458SOL    HW111273   4.550   0.795   1.940
 3458SOL    HW211274   4.456   0.928   1.943
 3459SOL     OW11275   5.511   2.708   2.785
 3459SOL    HW111276   5.525   2.801   2.751
 3459SOL    HW211277   5.442   2.662   2.729
 3460SOL     OW11278   2.476   2.169   6.953
 3460SOL    HW111279   2.476   2.269   6.944
 3460SOL    HW211280   2.554   2.131   6.904
 3461SOL     OW11281   4.848   4.106   6.482
 3461SOL    HW111282   4.904   4.044   6.537
 3461SOL    HW211283   4.763   4.125   6.531
 3462SOL     OW11284   0.806   3.490   5.035
 3462SOL    HW111285   0.875   3.556   5.064
 3462SOL    HW211286   0.722   3.506   5.086
 3463SOL     OW11287   1.379   4.303   1.917
 3463SOL    HW111288   1.325   4.258   1.846
 3463SOL    HW211289   1.317   4.346   1.983
 3464SOL     OW11290   0.090   4.882   5.606
 3464SOL    HW111291   0.146   4.961   5.581
 3464SOL    HW211292   0.143   4.798   5.593
 3465SOL     OW11293   1.547   2.134   2.456
 3465SOL    HW111294   1.510   2.200   2.391
 3465SOL    HW211295   1.589   2.183   2.532
 3466SOL     OW11296   6.391   5.197   6.424
 3466SOL    HW111297   6.391   5.295   6.442
 3466SOL    HW211298   6.326   5.177   6.351
 3467SOL     OW11299   1.954   2.629   6.836
 3467SOL    HW111300   2.026   2.630   6.767
 3467SOL    HW211301   1.990   2.664   6.923
 3468SOL     OW11302   4.206   6.659   2.961
 3468SOL    HW111303   4.243   6.706   2.881
 3468SOL    HW211304   4.282   6.628   3.019
 3469SOL     OW11305   5.520   0.470   3.546
 3469SOL    HW111306   5.444   0.451   3.483
 3469SOL    HW211307   5.558   0.560   3.526
 3470SOL     OW11308   6.289   3.614   0.937
 3470SOL    HW111309   6.253   3.612   0.844
 3470SOL    HW211310   6.301   3.709   0.967
 3471SOL     OW11311   3.517   4.986   4.156
 3471SOL    HW111312   3.596   4.977   4.096
 3471SOL    HW211313   3.439   4.938   4.115
 3472SOL     OW11314   2.479   0.746   2.456
 3472SOL    HW111315   2.468   0.845   2.445
 3472SOL    HW211316   2.461   0.700   2.370
 3473SOL     OW11317   0.475   2.349   0.377
 3473SOL    HW111318   0.498   2.273   0.316
 3473SOL    HW211319   0.512   2.331   0.468
 3474SOL     OW11320   2.366   4.927   1.563
 3474SOL    HW111321   2.349   5.011   1.615
 3474SOL    HW211322   2.442   4.877   1.605
 3475SOL     OW11323   1.052   5.518   5.197
 3475SOL    HW111324   1.128   5.530   5.133
 3475SOL    HW211325   0.969   5.492   5.146
 3476SOL     OW11326   3.485   1.649   3.190
 3476SOL    HW111327   3.490   1.625   3.287
 3476SOL    HW211328   3.518   1.742   3.177
 3477SOL     OW11329   3.469   4.911   0.747
 3477SOL    HW111330   3.527   4.984   0.783
 3477SOL    HW211331   3.406   4.881   0.817
 3478SOL     OW11332   2.294   6.057   4.907
 3478SOL    HW111333   2.250   5.972   4.877
 3478SOL    HW211334   2.393   6.042   4.915
 3479SOL     OW11335   1.519   0.624   2.489
 3479SOL    HW111336   1.429   0.605   2.528
 3479SOL    HW211337   1.515   0.710   2.437
 3480SOL     OW11338   0.098   0.280   5.405
 3480SOL    HW111339   0.080   0.220   5.484
 3480SOL    HW211340   0.137   0.226   5.331
 3481SOL     OW11341   5.122   0.042   0.275
 3481SOL    HW111342   5.192   7.003   0.305
 3481SOL    HW211343   5.060   7.023   0.210
 3482SOL     OW11344   5.676   1.418   0.979
 3482SOL    HW111345   5.603   1.363   0.939
 3482SOL    HW211346   5.724   1.468   0.906
 3483SOL     OW11347   4.566   1.292   1.397
 3483SOL    HW111348   4.645   1.329   1.448
 3483SOL    HW211349   4.482   1.312   1.447
 3484SOL     OW11350   2.970   3.461   1.455
 3484SOL    HW111351   3.005   3.372   1.484
 3484SOL    HW211352   3.020   3.492   1.373
 3485SOL     OW11353   1.216   0.310   4.143
 3485SOL    HW111354   1.176   0.370   4.213
 3485SOL    HW211355   1.207   0.214   4.172
 3486SOL     OW11356   3.078   1.446   2.569
 3486SOL    HW111357   3.173   1.434   2.599
 3486SOL    HW211358   3.036   1.522   2.618
 3487SOL     OW11359   5.843   2.107   5.199
 3487SOL    HW111360   5.778   2.158   5.144
 3487SOL    HW211361   5.871   2.162   5.278
 3488SOL     OW11362   6.025   2.329   4.156
 3488SOL    HW111363   5.931   2.355   4.133
 3488SOL    HW211364   6.069   2.290   4.076
 3489SOL     OW11365   2.717   6.695   0.483
 3489SOL    HW111366   2.663   6.763   0.434
 3489SOL    HW211367   2.729   6.723   0.578
 3490SOL     OW11368   4.351   4.963   6.751
 3490SOL    HW111369   4.320   4.868   6.744
 3490SOL    HW211370   4.446   4.969   6.720
 3491SOL     OW11371   6.014   2.525   4.829
 3491SOL    HW111372   5.965   2.438   4.831
 3491SOL    HW211373   6.112   2.508   4.832
 3492SOL     OW11374   0.954   5.706   1.277
 3492SOL    HW111375   0.860   5.724   1.306
 3492SOL    HW211376   1.012   5.783   1.303
 3493SOL     OW11377   6.150   4.920   6.719
 3493SOL    HW111378   6.191   4.828   6.720
 3493SOL    HW211379   6.070   4.919   6.659
 3494SOL     OW11380   3.785   0.981   1.567
 3494SOL    HW111381   3.823   1.064   1.526
 3494SOL    HW211382   3.823   0.901   1.522
 3495SOL     OW11383   4.529   4.989   2.315
 3495SOL    HW111384   4.610   5.021   2.264
 3495SOL    HW211385   4.461   5.062   2.317
 3496SOL     OW11386   0.188   3.980   0.739
 3496SOL    HW111387   0.270   3.924   0.730
 3496SOL    HW211388   0.137   3.952   0.821
 3497SOL     OW11389   4.043   6.562   4.041
 3497SOL    HW111390   3.952   6.589   4.011
 3497SOL    HW211391   4.048   6.566   4.141
 3498SOL     OW11392   2.129   2.808   0.436
 3498SOL    HW111393   2.163   2.719   0.469
 3498SOL    HW211394   2.084   2.795   0.347
 3499SOL     OW11395   4.764   2.887   4.696
 3499SOL    HW111396   4.718   2.825   4.759
 3499SOL    HW211397   4.855   2.909   4.731
 3500SOL     OW11398   1.084   4.038   5.013
 3500SOL    HW111399   1.121   4.011   5.102
 3500SOL    HW211400   1.158   4.042   4.946
 3501SOL     OW11401   1.269   5.319   4.187
 3501SOL    HW111402   1.174   5.334   4.161
 3501SOL    HW211403   1.309   5.250   4.127
 3502SOL     OW11404   6.842   2.164   2.218
 3502SOL    HW111405   6.744   2.182   2.204
 3502SOL    HW211406   6.859   2.154   2.316
 3503SOL     OW11407   6.269   5.933   5.123
 3503SOL    HW111408   6.266   5.835   5.143
 3503SOL    HW211409   6.176   5.966   5.107
 3504SOL     OW11410   1.673   2.208   1.147
 3504SOL    HW111411   1.724   2.167   1.072
 3504SOL    HW211412   1.724   2.286   1.184
 3505SOL     OW11413   5.403   4.858   5.196
 3505SOL    HW111414   5.367   4.779   5.147
 3505SOL    HW211415   5.356   4.940   5.167
 3506SOL     OW11416   5.096   6.370   5.579
 3506SOL    HW111417   5.193   6.345   5.587
 3506SOL    HW211418   5.057   6.321   5.501
 3507SOL     OW11419   2.436   0.866   0.303
 3507SOL    HW111420   2.472   0.957   0.321
 3507SOL    HW211421   2.454   0.841   0.208
 3508SOL     OW11422   3.209   2.521   5.946
 3508SOL    HW111423   3.124   2.512   5.894
 3508SOL    HW211424   3.199   2.476   6.035
 3509SOL     OW11425   5.193   0.127   6.407
 3509SOL    HW111426   5.158   0.097   6.319
 3509SOL    HW211427   5.291   0.146   6.400
 3510SOL     OW11428   2.143   2.193   1.618
 3510SOL    HW111429   2.240   2.193   1.592
 3510SOL    HW211430   2.121   2.277   1.667
 3511SOL     OW11431   1.893   4.490   0.339
 3511SOL    HW111432   1.899   4.476   0.241
 3511SOL    HW211433   1.968   4.442   0.385
 3512SOL     OW11434   6.574   4.239   1.008
 3512SOL    HW111435   6.596   4.143   1.027
 3512SOL    HW211436   6.500   4.244   0.941
 3513SOL     OW11437   6.129   3.942   0.030
 3513SOL    HW111438   6.101   3.926   6.960
 3513SOL    HW211439   6.095   4.032   0.060
 3514SOL     OW11440   6.935   1.286   2.153
 3514SOL    HW111441   6.839   1.312   2.154
 3514SOL    HW211442   6.945   1.194   2.189
 3515SOL     OW11443   4.760   6.413   3.002
 3515SOL    HW111444   4.753   6.493   3.061
 3515SOL    HW211445   4.724   6.333   3.051
 3516SOL     OW11446   4.383   6.990   0.970
 3516SOL    HW111447   4.410   0.033   0.902
 3516SOL    HW211448   4.431   6.905   0.951
 3517SOL     OW11449   1.247   2.362   0.479
 3517SOL    HW111450   1.270   2.301   0.555
 3517SOL    HW211451   1.329   2.381   0.425
 3518SOL     OW11452   5.574   4.362   4.693
 3518SOL    HW111453   5.578   4.411   4.780
 3518SOL    HW211454   5.490   4.308   4.689
 3519SOL     OW11455   1.657   0.512   6.424
 3519SOL    HW111456   1.683   0.519   6.521
 3519SOL    HW211457   1.564   0.475   6.417
 3520SOL     OW11458   3.347   4.694   6.944
 3520SOL    HW111459   3.407   4.614   6.946
 3520SOL    HW211460   3.303   4.701   6.854
 3521SOL     OW11461   5.506   3.232   1.292
 3521SOL    HW111462   5.585   3.209   1.349
 3521SOL    HW211463   5.425   3.185   1.328
 3522SOL     OW11464   4.870   5.306   1.853
 3522SOL    HW111465   4.924   5.385   1.825
 3522SOL    HW211466   4.914   5.262   1.931
 3523SOL     OW11467   2.672   4.760   5.786
 3523SOL    HW111468   2.734   4.833   5.813
 3523SOL    HW211469   2.709   4.713   5.706
 3524SOL     OW11470   2.713   1.231   1.029
 3524SOL    HW111471   2.750   1.177   0.953
 3524SOL    HW211472   2.728   1.182   1.115
 3525SOL     OW11473   0.407   4.162   2.251
 3525SOL    HW111474   0.385   4.073   2.211
 3525SOL    HW211475   0.505   4.177   2.247
 3526SOL     OW11476   2.298   5.814   3.556
 3526SOL    HW111477   2.349   5.899   3.570
 3526SOL    HW211478   2.225   5.807   3.624
 3527SOL     OW11479   6.253   3.589   5.869
 3527SOL    HW111480   6.154   3.586   5.852
 3527SOL    HW211481   6.288   3.679   5.844
 3528SOL     OW11482   1.142   5.236   3.426
 3528SOL    HW111483   1.167   5.215   3.331
 3528SOL    HW211484   1.044   5.224   3.438
 3529SOL     OW11485   5.189   0.261   5.289
 3529SOL    HW111486   5.129   0.269   5.369
 3529SOL    HW211487   5.136   0.282   5.206
 3530SOL     OW11488   2.525   4.843   3.393
 3530SOL    HW111489   2.521   4.753   3.435
 3530SOL    HW211490   2.554   4.910   3.462
 3531SOL     OW11491   4.852   4.406   1.362
 3531SOL    HW111492   4.767   4.395   1.413
 3531SOL    HW211493   4.924   4.350   1.402
 3532SOL     OW11494   2.421   0.248   0.437
 3532SOL    HW111495   2.433   0.234   0.535
 3532SOL    HW211496   2.378   0.167   0.397
 3533SOL     OW11497   1.141   2.101   2.485
 3533SOL    HW111498   1.117   2.018   2.536
 3533SOL    HW211499   1.154   2.078   2.389
 3534SOL     OW11500   6.898   1.103   5.388
 3534SOL    HW111501   6.870   1.077   5.480
 3534SOL    HW211502   6.824   1.083   5.323
 3535SOL     OW11503   6.517   5.645   0.724
 3535SOL    HW111504   6.447   5.710   0.694
 3535SOL    HW211505   6.579   5.691   0.787
 3536SOL     OW11506   2.331   2.752   3.273
 3536SOL    HW111507   2.392   2.675   3.253
 3536SOL    HW211508   2.318   2.759   3.372
 3537SOL     OW11509   2.489   5.009   0.324
 3537SOL    HW111510   2.568   4.976   0.274
 3537SOL    HW211511   2.518   5.044   0.414
 3538SOL     OW11512   3.114   0.442   4.517
 3538SOL    HW111513   3.111   0.539   4.539
 3538SOL    HW211514   3.087   0.388   4.597
 3539SOL     OW11515   5.945   3.264   6.455
 3539SOL    HW111516   5.996   3.349   6.447
 3539SOL    HW211517   6.006   3.186   6.441
 3540SOL     OW11518   1.961   1.524   5.404
 3540SOL    HW111519   1.886   1.552   5.344
 3540SOL    HW211520   2.027   1.598   5.412
 3541SOL     OW11521   3.007   2.904   6.686
 3541SOL    HW111522   3.038   2.974   6.751
 3541SOL    HW211523   2.908   2.909   6.676
 3542SOL     OW11524   0.434   3.143   1.218
 3542SOL    HW111525   0.449   3.119   1.122
 3542SOL    HW211526   0.340   3.119   1.243
 3543SOL     OW11527   1.593   3.619   5.261
 3543SOL    HW111528   1.526   3.691   5.279
 3543SOL    HW211529   1.610   3.613   5.163
 3544SOL     OW11530   1.778   4.732   6.362
 3544SOL    HW111531   1.862   4.769   6.323
 3544SOL    HW211532   1.701   4.789   6.333
 3545SOL     OW11533   3.529   5.315   6.402
 3545SOL    HW111534   3.489   5.231   6.439
 3545SOL    HW211535   3.568   5.296   6.312
 3546SOL     OW11536   6.579   4.824   3.308
 3546SOL    HW111537   6.551   4.782   3.394
 3546SOL    HW211538   6.665   4.873   3.320
 3547SOL     OW11539   6.645   3.963   4.553
 3547SOL    HW111540   6.618   3.977   4.648
 3547SOL    HW211541   6.609   3.875   4.521
 3548SOL     OW11542   5.348   0.265   6.039
 3548SOL    HW111543   5.325   0.363   6.041
 3548SOL    HW211544   5.276   0.215   5.993
 3549SOL     OW11545   1.587   4.152   6.368
 3549SOL    HW111546   1.491   4.171   6.344
 3549SOL    HW211547   1.641   4.235   6.357
 3550SOL     OW11548   6.269   2.443   4.838
 3550SOL    HW111549   6.348   2.464   4.896
 3550SOL    HW211550   6.301   2.404   4.752
 3551SOL     OW11551   3.798   1.388   4.004
 3551SOL    HW111552   3.864   1.391   4.080
 3551SOL    HW211553   3.723   1.451   4.024
 3552SOL     OW11554   6.513   6.662   1.909
 3552SOL    HW111555   6.470   6.752   1.916
 3552SOL    HW211556   6.447   6.591   1.934
 3553SOL     OW11557   3.828   5.643   0.291
 3553SOL    HW111558   3.755   5.698   0.331
 3553SOL    HW211559   3.851   5.679   0.200
 3554SOL     OW11560   4.260   2.808   0.657
 3554SOL    HW111561   4.326   2.761   0.715
 3554SOL    HW211562   4.271   2.777   0.562
 3555SOL     OW11563   0.752   3.275   3.916
 3555SOL    HW111564   0.762   3.278   3.817
 3555SOL    HW211565   0.771   3.365   3.954
 3556SOL     OW11566   3.896   1.080   4.216
 3556SOL    HW111567   3.818   1.048   4.162
 3556SOL    HW211568   3.881   1.057   4.312
 3557SOL     OW11569   1.480   7.018   4.266
 3557SOL    HW111570   1.529   0.061   4.320
 3557SOL    HW211571   1.472   6.933   4.318
 3558SOL     OW11572   1.654   4.697   1.597
 3558SOL    HW111573   1.680   4.779   1.649
 3558SOL    HW211574   1.614   4.629   1.659
 3559SOL     OW11575   0.996   6.211   5.282
 3559SOL    HW111576   1.036   6.131   5.238
 3559SOL    HW211577   0.897   6.197   5.291
 3560SOL     OW11578   2.118   4.824   2.657
 3560SOL    HW111579   2.142   4.872   2.741
 3560SOL    HW211580   2.045   4.759   2.677
 3561SOL     OW11581   5.220   4.115   5.385
 3561SOL    HW111582   5.197   4.072   5.297
 3561SOL    HW211583   5.160   4.079   5.456
 3562SOL     OW11584   2.893   1.372   3.454
 3562SOL    HW111585   2.975   1.381   3.397
 3562SOL    HW211586   2.913   1.406   3.546
 3563SOL     OW11587   6.589   1.967   6.654
 3563SOL    HW111588   6.674   1.916   6.644
 3563SOL    HW211589   6.539   1.935   6.734
 3564SOL     OW11590   0.385   4.629   2.681
 3564SOL    HW111591   0.427   4.575   2.608
 3564SOL    HW211592   0.437   4.616   2.766
 3565SOL     OW11593   3.429   5.887   4.009
 3565SOL    HW111594   3.511   5.830   3.997
 3565SOL    HW211595   3.445   5.953   4.082
 3566SOL     OW11596   6.405   2.243   6.345
 3566SOL    HW111597   6.487   2.299   6.337
 3566SOL    HW211598   6.330   2.285   6.294
 3567SOL     OW11599   0.896   2.528   0.023
 3567SOL    HW111600   0.861   2.518   0.116
 3567SOL    HW211601   0.990   2.562   0.026
 3568SOL     OW11602   5.059   4.351   4.685
 3568SOL    HW111603   5.021   4.292   4.755
 3568SOL    HW211604   5.143   4.311   4.649
 3569SOL     OW11605   2.806   2.825   6.381
 3569SOL    HW111606   2.755   2.824   6.294
 3569SOL    HW211607   2.890   2.877   6.370
 3570SOL     OW11608   5.158   0.434   6.384
 3570SOL    HW111609   5.235   0.424   6.446
 3570SOL    HW211610   5.191   0.462   6.294
 3571SOL     OW11611   0.343   5.331   6.703
 3571SOL    HW111612   0.255   5.363   6.667
 3571SOL    HW211613   0.329   5.245   6.753
 3572SOL     OW11614   5.647   4.288   3.172
 3572SOL    HW111615   5.555   4.274   3.208
 3572SOL    HW211616   5.662   4.225   3.095
 3573SOL     OW11617   0.334   4.588   3.682
 3573SOL    HW111618   0.337   4.563   3.779
 3573SOL    HW211619   0.255   4.544   3.639
 3574SOL     OW11620   0.581   4.381   0.654
 3574SOL    HW111621   0.507   4.314   0.667
 3574SOL    HW211622   0.549   4.471   0.683
 3575SOL     OW11623   5.160   4.572   3.050
 3575SOL    HW111624   5.236   4.611   2.998
 3575SOL    HW211625   5.113   4.645   3.100
 3576SOL     OW11626   1.501   1.728   5.534
 3576SOL    HW111627   1.489   1.800   5.602
 3576SOL    HW211628   1.560   1.761   5.461
 3577SOL     OW11629   1.281   2.912   5.966
 3577SOL    HW111630   1.275   3.004   5.926
 3577SOL    HW211631   1.351   2.912   6.037
 3578SOL     OW11632   3.026   2.488   0.839
 3578SOL    HW111633   2.961   2.428   0.885
 3578SOL    HW211634   3.001   2.496   0.742
 3579SOL     OW11635   5.884   3.551   5.104
 3579SOL    HW111636   5.898   3.520   5.010
 3579SOL    HW211637   5.962   3.525   5.160
 3580SOL     OW11638   6.160   2.817   1.230
 3580SOL    HW111639   6.186   2.771   1.315
 3580SOL    HW211640   6.061   2.810   1.218
 3581SOL     OW11641   0.641   5.908   3.509
 3581SOL    HW111642   0.610   5.854   3.430
 3581SOL    HW211643   0.657   6.002   3.480
 3582SOL     OW11644   0.777   2.146   5.499
 3582SOL    HW111645   0.738   2.214   5.561
 3582SOL    HW211646   0.838   2.192   5.434
 3583SOL     OW11647   1.536   3.265   6.124
 3583SOL    HW111648   1.603   3.304   6.187
 3583SOL    HW211649   1.445   3.300   6.146
 3584SOL     OW11650   5.587   5.059   6.516
 3584SOL    HW111651   5.636   4.987   6.466
 3584SOL    HW211652   5.587   5.038   6.614
 3585SOL     OW11653   4.619   6.347   5.288
 3585SOL    HW111654   4.678   6.378   5.362
 3585SOL    HW211655   4.672   6.296   5.222
 3586SOL     OW11656   0.469   2.362   5.395
 3586SOL    HW111657   0.443   2.367   5.492
 3586SOL    HW211658   0.531   2.437   5.373
 3587SOL     OW11659   3.034   5.393   6.700
 3587SOL    HW111660   2.940   5.366   6.722
 3587SOL    HW211661   3.032   5.470   6.637
 3588SOL     OW11662   0.812   2.827   5.184
 3588SOL    HW111663   0.906   2.811   5.154
 3588SOL    HW211664   0.812   2.860   5.279
 3589SOL     OW11665   3.711   2.103   4.868
 3589SOL    HW111666   3.627   2.052   4.887
 3589SOL    HW211667   3.702   2.149   4.780
 3590SOL     OW11668   1.449   2.870   6.750
 3590SOL    HW111669   1.483   2.777   6.740
 3590SOL    HW211670   1.523   2.935   6.736
 3591SOL     OW11671   5.220   3.474   6.612
 3591SOL    HW111672   5.227   3.572   6.594
 3591SOL    HW211673   5.201   3.426   6.526
 3592SOL     OW11674   6.535   4.113   1.854
 3592SOL    HW111675   6.584   4.185   1.903
 3592SOL    HW211676   6.458   4.152   1.805
 3593SOL     OW11677   1.837   6.138   4.800
 3593SOL    HW111678   1.895   6.160   4.878
 3593SOL    HW211679   1.862   6.049   4.763
 3594SOL     OW11680   4.674   0.636   3.188
 3594SOL    HW111681   4.659   0.693   3.108
 3594SOL    HW211682   4.604   0.656   3.257
 3595SOL     OW11683   2.435   5.926   0.386
 3595SOL    HW111684   2.387   5.928   0.298
 3595SOL    HW211685   2.375   5.964   0.457
 3596SOL     OW11686   6.745   1.750   3.179
 3596SOL    HW111687   6.682   1.752   3.102
 3596SOL    HW211688   6.728   1.668   3.234
 3597SOL     OW11689   2.348   1.505   4.576
 3597SOL    HW111690   2.330   1.500   4.477
 3597SOL    HW211691   2.280   1.450   4.625
 3598SOL     OW11692   1.523   6.047   6.380
 3598SOL    HW111693   1.537   5.952   6.352
 3598SOL    HW211694   1.566   6.108   6.313
 3599SOL     OW11695   0.637   2.086   5.767
 3599SOL    HW111696   0.619   2.171   5.717
 3599SOL    HW211697   0.628   2.008   5.706
 3600SOL     OW11698   0.797   3.678   0.182
 3600SOL    HW111699   0.722   3.689   0.247
 3600SOL    HW211700   0.869   3.744   0.202
 3601SOL     OW11701   5.517   4.433   6.143
 3601SOL    HW111702   5.426   4.432   6.183
 3601SOL    HW211703   5.528   4.513   6.084
 3602SOL     OW11704   1.578   2.914   0.756
 3602SOL    HW111705   1.597   2.833   0.811
 3602SOL    HW211706   1.643   2.987   0.779
 3603SOL     OW11707   3.520   7.012   3.787
 3603SOL    HW111708   3.479   6.932   3.743
 3603SOL    HW211709   3.476   0.070   3.754
 3604SOL     OW11710   6.796   4.363   2.785
 3604SOL    HW111711   6.820   4.432   2.717
 3604SOL    HW211712   6.872   4.299   2.794
 3605SOL     OW11713   5.787   4.103   5.232
 3605SOL    HW111714   5.834   4.153   5.159
 3605SOL    HW211715   5.763   4.167   5.305
 3606SOL     OW11716   6.882   6.717   5.704
 3606SOL    HW111717   6.856   6.748   5.613
 3606SOL    HW211718   6.864   6.619   5.712
 3607SOL     OW11719   5.612   6.083   1.318
 3607SOL    HW111720   5.600   5.997   1.268
 3607SOL    HW211721   5.544   6.150   1.286
 3608SOL     OW11722   5.793   1.426   3.660
 3608SOL    HW111723   5.712   1.369   3.670
 3608SOL    HW211724   5.780   1.491   3.585
 3609SOL     OW11725   0.707   0.338   4.241
 3609SOL    HW111726   0.676   0.383   4.325
 3609SOL    HW211727   0.740   0.246   4.263
 3610SOL     OW11728   1.522   6.845   5.790
 3610SOL    HW111729   1.487   6.769   5.844
 3610SOL    HW211730   1.579   6.810   5.715
 3611SOL     OW11731   4.904   5.854   5.993
 3611SOL    HW111732   4.877   5.894   5.906
 3611SOL    HW211733   4.982   5.793   5.979
 3612SOL     OW11734   6.036   0.062   6.891
 3612SOL    HW111735   6.120   0.116   6.883
 3612SOL    HW211736   6.060   6.992   6.910
 3613SOL     OW11737   4.583   5.524   2.030
 3613SOL    HW111738   4.631   5.445   2.068
 3613SOL    HW211739   4.637   5.563   1.955
 3614SOL     OW11740   4.126   3.543   1.613
 3614SOL    HW111741   4.103   3.560   1.709
 3614SOL    HW211742   4.104   3.624   1.559
 3615SOL     OW11743   5.006   5.459   0.187
 3615SOL    HW111744   5.029   5.552   0.215
 3615SOL    HW211745   4.974   5.407   0.267
 3616SOL     OW11746   0.794   2.896   6.520
 3616SOL    HW111747   0.823   2.951   6.599
 3616SOL    HW211748   0.861   2.905   6.447
 3617SOL     OW11749   3.719   1.689   6.333
 3617SOL    HW111750   3.672   1.731   6.256
 3617SOL    HW211751   3.653   1.642   6.392
 3618SOL     OW11752   2.483   2.154   5.663
 3618SOL    HW111753   2.576   2.158   5.627
 3618SOL    HW211754   2.420   2.190   5.594
 3619SOL     OW11755   5.503   2.400   4.324
 3619SOL    HW111756   5.426   2.436   4.375
 3619SOL    HW211757   5.491   2.302   4.310
 3620SOL     OW11758   6.178   6.128   5.879
 3620SOL    HW111759   6.155   6.212   5.929
 3620SOL    HW211760   6.214   6.060   5.943
 3621SOL     OW11761   3.610   3.102   5.487
 3621SOL    HW111762   3.619   3.154   5.573
 3621SOL    HW211763   3.574   3.163   5.416
 3622SOL     OW11764   1.798   1.340   4.900
 3622SOL    HW111765   1.776   1.437   4.901
 3622SOL    HW211766   1.887   1.326   4.857
 3623SOL     OW11767   5.969   5.846   4.073
 3623SOL    HW111768   5.953   5.942   4.048
 3623SOL    HW211769   5.933   5.786   4.002
 3624SOL     OW11770   2.072   6.361   1.843
 3624SOL    HW111771   2.106   6.298   1.773
 3624SOL    HW211772   2.103   6.329   1.933
 3625SOL     OW11773   6.120   3.319   6.842
 3625SOL    HW111774   6.113   3.261   6.924
 3625SOL    HW211775   6.029   3.327   6.800
 3626SOL     OW11776   0.878   3.182   6.326
 3626SOL    HW111777   0.895   3.221   6.416
 3626SOL    HW211778   0.939   3.104   6.311
 3627SOL     OW11779   3.429   2.859   3.292
 3627SOL    HW111780   3.390   2.769   3.312
 3627SOL    HW211781   3.431   2.914   3.375
 3628SOL     OW11782   1.254   1.318   1.460
 3628SOL    HW111783   1.207   1.406   1.457
 3628SOL    HW211784   1.341   1.328   1.509
 3629SOL     OW11785   6.907   1.906   5.337
 3629SOL    HW111786   6.876   1.812   5.346
 3629SOL    HW211787   6.999   1.914   5.378
 3630SOL     OW11788   5.292   3.071   4.080
 3630SOL    HW111789   5.367   3.009   4.055
 3630SOL    HW211790   5.263   3.051   4.173
 3631SOL     OW11791   1.602   6.925   3.601
 3631SOL    HW111792   1.537   6.861   3.560
 3631SOL    HW211793   1.695   6.894   3.583
 3632SOL     OW11794   4.962   6.006   1.625
 3632SOL    HW111795   4.886   5.955   1.583
 3632SOL    HW211796   4.984   6.085   1.568
 3633SOL     OW11797   3.817   1.808   5.510
 3633SOL    HW111798   3.789   1.716   5.483
 3633SOL    HW211799   3.787   1.825   5.604
 3634SOL     OW11800   0.672   5.207   4.870
 3634SOL    HW111801   0.751   5.146   4.883
 3634SOL    HW211802   0.596   5.175   4.926
 3635SOL     OW11803   3.057   6.852   6.052
 3635SOL    HW111804   3.035   6.949   6.054
 3635SOL    HW211805   2.999   6.805   5.985
 3636SOL     OW11806   0.176   5.435   0.509
 3636SOL    HW111807   0.220   5.524   0.523
 3636SOL    HW211808   0.080   5.449   0.485
 3637SOL     OW11809   6.558   1.631   1.811
 3637SOL    HW111810   6.502   1.708   1.779
 3637SOL    HW211811   6.628   1.665   1.874
 3638SOL     OW11812   0.277   4.213   3.907
 3638SOL    HW111813   0.308   4.132   3.956
 3638SOL    HW211814   0.264   4.289   3.971
 3639SOL     OW11815   3.448   3.960   0.300
 3639SOL    HW111816   3.485   3.873   0.335
 3639SOL    HW211817   3.351   3.949   0.282
 3640SOL     OW11818   3.889   0.880   0.760
 3640SOL    HW111819   3.941   0.799   0.733
 3640SOL    HW211820   3.938   0.928   0.832
 3641SOL     OW11821   5.168   3.263   3.559
 3641SOL    HW111822   5.185   3.232   3.465
 3641SOL    HW211823   5.255   3.275   3.607
 3642SOL     OW11824   5.405   1.075   6.846
 3642SOL    HW111825   5.358   1.073   6.758
 3642SOL    HW211826   5.484   1.137   6.841
 3643SOL     OW11827   2.745   6.140   5.271
 3643SOL    HW111828   2.814   6.182   5.331
 3643SOL    HW211829   2.744   6.041   5.285
 3644SOL     OW11830   6.786   1.119   1.842
 3644SOL    HW111831   6.742   1.097   1.755
 3644SOL    HW211832   6.760   1.211   1.870
 3645SOL     OW11833   0.133   2.940   3.238
 3645SOL    HW111834   0.137   3.000   3.318
 3645SOL    HW211835   0.059   2.874   3.250
 3646SOL     OW11836   0.515   4.204   6.813
 3646SOL    HW111837   0.505   4.104   6.819
 3646SOL    HW211838   0.570   4.236   6.891
 3647SOL     OW11839   2.705   4.833   6.258
 3647SOL    HW111840   2.656   4.875   6.334
 3647SOL    HW211841   2.766   4.900   6.215
 3648SOL     OW11842   3.968   5.052   1.813
 3648SOL    HW111843   3.950   5.085   1.906
 3648SOL    HW211844   3.922   4.964   1.800
 3649SOL     OW11845   4.651   2.663   1.903
 3649SOL    HW111846   4.719   2.592   1.884
 3649SOL    HW211847   4.698   2.748   1.926
 3650SOL     OW11848   7.013   5.425   1.059
 3650SOL    HW111849   0.082   5.394   1.044
 3650SOL    HW211850   6.962   5.356   1.109
 3651SOL     OW11851   0.361   6.550   4.717
 3651SOL    HW111852   0.293   6.520   4.650
 3651SOL    HW211853   0.327   6.533   4.809
 3652SOL     OW11854   5.652   6.135   3.510
 3652SOL    HW111855   5.580   6.127   3.441
 3652SOL    HW211856   5.716   6.058   3.500
 3653SOL     OW11857   0.527   1.201   4.048
 3653SOL    HW111858   0.442   1.211   4.100
 3653SOL    HW211859   0.563   1.292   4.026
 3654SOL     OW11860   2.658   4.330   0.674
 3654SOL    HW111861   2.596   4.362   0.602
 3654SOL    HW211862   2.627   4.241   0.708
 3655SOL     OW11863   1.640   6.398   4.327
 3655SOL    HW111864   1.568   6.460   4.294
 3655SOL    HW211865   1.620   6.305   4.297
 3656SOL     OW11866   1.162   4.221   1.736
 3656SOL    HW111867   1.104   4.158   1.684
 3656SOL    HW211868   1.107   4.266   1.806
 3657SOL     OW11869   5.285   5.038   5.859
 3657SOL    HW111870   5.283   4.939   5.869
 3657SOL    HW211871   5.361   5.063   5.798
 3658SOL     OW11872   1.712   5.116   5.365
 3658SOL    HW111873   1.695   5.156   5.275
 3658SOL    HW211874   1.805   5.078   5.368
 3659SOL     OW11875   1.527   3.425   4.901
 3659SOL    HW111876   1.535   3.520   4.870
 3659SOL    HW211877   1.457   3.419   4.972
 3660SOL     OW11878   5.755   6.765   3.666
 3660SOL    HW111879   5.722   6.854   3.698
 3660SOL    HW211880   5.773   6.706   3.745
 3661SOL     OW11881   5.554   1.433   5.447
 3661SOL    HW111882   5.540   1.340   5.412
 3661SOL    HW211883   5.531   1.437   5.544
 3662SOL     OW11884   4.210   6.342   3.937
 3662SOL    HW111885   4.131   6.390   3.976
 3662SOL    HW211886   4.275   6.321   4.010
 3663SOL     OW11887   1.989   1.665   0.645
 3663SOL    HW111888   1.975   1.763   0.660
 3663SOL    HW211889   2.073   1.635   0.691
 3664SOL     OW11890   5.087   3.010   1.465
 3664SOL    HW111891   5.060   2.953   1.542
 3664SOL    HW211892   5.005   3.050   1.422
 3665SOL     OW11893   1.817   6.077   5.267
 3665SOL    HW111894   1.763   6.041   5.343
 3665SOL    HW211895   1.884   6.008   5.239
 3666SOL     OW11896   1.009   4.199   2.778
 3666SOL    HW111897   1.002   4.131   2.705
 3666SOL    HW211898   1.105   4.207   2.807
 3667SOL     OW11899   0.834   0.766   2.378
 3667SOL    HW111900   0.863   0.770   2.474
 3667SOL    HW211901   0.887   0.831   2.324
 3668SOL     OW11902   1.650   0.807   1.664
 3668SOL    HW111903   1.598   0.871   1.606
 3668SOL    HW211904   1.590   0.734   1.696
 3669SOL     OW11905   4.656   0.684   3.606
 3669SOL    HW111906   4.592   0.620   3.562
 3669SOL    HW211907   4.718   0.633   3.665
 3670SOL     OW11908   2.229   5.198   0.152
 3670SOL    HW111909   2.229   5.210   0.053
 3670SOL    HW211910   2.313   5.236   0.191
 3671SOL     OW11911   6.420   0.960   4.285
 3671SOL    HW111912   6.362   0.880   4.271
 3671SOL    HW211913   6.497   0.935   4.344
 3672SOL     OW11914   5.505   1.892   1.437
 3672SOL    HW111915   5.411   1.908   1.406
 3672SOL    HW211916   5.568   1.909   1.362
 3673SOL     OW11917   4.514   6.225   6.656
 3673SOL    HW111918   4.421   6.210   6.622
 3673SOL    HW211919   4.579   6.213   6.581
 3674SOL     OW11920   0.768   6.585   5.467
 3674SOL    HW111921   0.864   6.604   5.489
 3674SOL    HW211922   0.726   6.667   5.430
 3675SOL     OW11923   2.132   3.045   3.987
 3675SOL    HW111924   2.218   2.993   3.990
 3675SOL    HW211925   2.063   2.998   4.041
 3676SOL     OW11926   5.137   4.069   3.122
 3676SOL    HW111927   5.051   4.021   3.138
 3676SOL    HW211928   5.125   4.166   3.143
 3677SOL     OW11929   2.128   5.697   3.346
 3677SOL    HW111930   2.220   5.728   3.370
 3677SOL    HW211931   2.066   5.713   3.424
 3678SOL     OW11932   0.640   2.557   5.258
 3678SOL    HW111933   0.644   2.505   5.172
 3678SOL    HW211934   0.557   2.613   5.259
 3679SOL     OW11935   1.105   0.161   3.243
 3679SOL    HW111936   1.180   0.164   3.309
 3679SOL    HW211937   1.033   0.224   3.272
 3680SOL     OW11938   5.830   2.795   3.969
 3680SOL    HW111939   5.889   2.755   4.040
 3680SOL    HW211940   5.823   2.893   3.983
 3681SOL     OW11941   0.678   0.146   0.043
 3681SOL    HW111942   0.702   0.065   7.016
 3681SOL    HW211943   0.581   0.143   0.068
 3682SOL     OW11944   5.763   2.019   0.140
 3682SOL    HW111945   5.663   2.009   0.145
 3682SOL    HW211946   5.805   1.971   0.217
 3683SOL     OW11947   6.529   0.450   2.782
 3683SOL    HW111948   6.457   0.520   2.778
 3683SOL    HW211949   6.557   0.436   2.877
 3684SOL     OW11950   1.975   5.224   0.236
 3684SOL    HW111951   1.930   5.177   0.312
 3684SOL    HW211952   2.074   5.218   0.246
 3685SOL     OW11953   0.244   6.552   6.929
 3685SOL    HW111954   0.245   6.630   6.867
 3685SOL    HW211955   0.327   6.498   6.917
 3686SOL     OW11956   5.611   5.598   3.772
 3686SOL    HW111957   5.578   5.575   3.863
 3686SOL    HW211958   5.535   5.596   3.707
 3687SOL     OW11959   3.643   6.088   4.880
 3687SOL    HW111960   3.551   6.102   4.917
 3687SOL    HW211961   3.662   6.157   4.811
 3688SOL     OW11962   6.720   3.958   6.551
 3688SOL    HW111963   6.667   4.041   6.535
 3688SOL    HW211964   6.658   3.882   6.567
 3689SOL     OW11965   2.271   0.270   6.115
 3689SOL    HW111966   2.306   0.176   6.120
 3689SOL    HW211967   2.324   0.328   6.176
 3690SOL     OW11968   4.576   5.895   0.424
 3690SOL    HW111969   4.562   5.928   0.331
 3690SOL    HW211970   4.488   5.891   0.471
 3691SOL     OW11971   2.729   2.006   6.889
 3691SOL    HW111972   2.718   1.921   6.839
 3691SOL    HW211973   2.816   2.049   6.864
 3692SOL     OW11974   6.529   5.293   5.475
 3692SOL    HW111975   6.487   5.202   5.463
 3692SOL    HW211976   6.575   5.319   5.390
 3693SOL     OW11977   2.210   4.078   2.767
 3693SOL    HW111978   2.260   4.163   2.786
 3693SOL    HW211979   2.226   4.013   2.842
 3694SOL     OW11980   1.581   6.140   3.125
 3694SOL    HW111981   1.549   6.194   3.047
 3694SOL    HW211982   1.503   6.101   3.173
 3695SOL     OW11983   6.549   3.265   1.576
 3695SOL    HW111984   6.510   3.238   1.488
 3695SOL    HW211985   6.480   3.313   1.630
 3696SOL     OW11986   3.740   6.121   5.270
 3696SOL    HW111987   3.804   6.196   5.256
 3696SOL    HW211988   3.691   6.102   5.185
 3697SOL     OW11989   0.476   6.641   3.185
 3697SOL    HW111990   0.430   6.625   3.098
 3697SOL    HW211991   0.456   6.566   3.248
 3698SOL     OW11992   2.122   0.491   4.037
 3698SOL    HW111993   2.098   0.544   3.956
 3698SOL    HW211994   2.040   0.478   4.093
 3699SOL     OW11995   0.953   2.082   3.547
 3699SOL    HW111996   0.996   2.101   3.636
 3699SOL    HW211997   1.023   2.086   3.475
 3700SOL     OW11998   0.829   6.151   4.852
 3700SOL    HW111999   0.925   6.131   4.835
 3700SOL    HW212000   0.820   6.243   4.890
 3701SOL     OW12001   1.592   0.537   3.326
 3701SOL    HW112002   1.639   0.533   3.237
 3701SOL    HW212003   1.640   0.478   3.391
 3702SOL     OW12004   6.384   6.596   3.444
 3702SOL    HW112005   6.366   6.574   3.539
 3702SOL    HW212006   6.300   6.588   3.391
 3703SOL     OW12007   5.591   1.394   5.120
 3703SOL    HW112008   5.608   1.485   5.157
 3703SOL    HW212009   5.505   1.359   5.157
 3704SOL     OW12010   3.902   2.171   1.522
 3704SOL    HW112011   3.839   2.152   1.598
 3704SOL    HW212012   3.905   2.270   1.506
 3705SOL     OW12013   3.945   4.831   4.006
 3705SOL    HW112014   3.906   4.769   4.075
 3705SOL    HW212015   4.022   4.786   3.961
 3706SOL     OW12016   1.848   3.308   6.781
 3706SOL    HW112017   1.915   3.381   6.796
 3706SOL    HW212018   1.762   3.347   6.748
 3707SOL     OW12019   5.560   4.622   4.561
 3707SOL    HW112020   5.572   4.541   4.619
 3707SOL    HW212021   5.624   4.619   4.485
 3708SOL     OW12022   0.232   0.452   6.671
 3708SOL    HW112023   0.250   0.380   6.738
 3708SOL    HW212024   0.190   0.411   6.590
 3709SOL     OW12025   3.290   0.716   0.873
 3709SOL    HW112026   3.367   0.690   0.814
 3709SOL    HW212027   3.223   0.766   0.819
 3710SOL     OW12028   5.982   5.607   5.663
 3710SOL    HW112029   6.027   5.667   5.596
 3710SOL    HW212030   5.982   5.513   5.628
 3711SOL     OW12031   0.685   0.081   4.385
 3711SOL    HW112032   0.756   0.012   4.370
 3711SOL    HW212033   0.604   0.058   4.329
 3712SOL     OW12034   0.032   5.567   6.811
 3712SOL    HW112035   6.999   5.521   6.878
 3712SOL    HW212036   0.116   5.599   6.855
 3713SOL     OW12037   0.997   6.387   5.803
 3713SOL    HW112038   1.093   6.369   5.823
 3713SOL    HW212039   0.985   6.484   5.779
 3714SOL     OW12040   5.345   6.269   5.504
 3714SOL    HW112041   5.435   6.311   5.489
 3714SOL    HW212042   5.327   6.204   5.430
 3715SOL     OW12043   0.481   4.472   2.498
 3715SOL    HW112044   0.433   4.467   2.411
 3715SOL    HW212045   0.492   4.379   2.535
 3716SOL     OW12046   6.412   0.312   5.114
 3716SOL    HW112047   6.336   0.284   5.172
 3716SOL    HW212048   6.391   0.398   5.069
 3717SOL     OW12049   6.214   6.509   6.878
 3717SOL    HW112050   6.229   6.473   6.786
 3717SOL    HW212051   6.181   6.604   6.871
 3718SOL     OW12052   1.655   0.609   6.685
 3718SOL    HW112053   1.606   0.529   6.720
 3718SOL    HW212054   1.593   0.687   6.681
 3719SOL     OW12055   5.441   4.447   1.542
 3719SOL    HW112056   5.463   4.478   1.634
 3719SOL    HW212057   5.518   4.396   1.504
 3720SOL     OW12058   5.973   2.528   6.506
 3720SOL    HW112059   6.044   2.465   6.537
 3720SOL    HW212060   5.973   2.532   6.407
 3721SOL     OW12061   6.299   4.508   1.666
 3721SOL    HW112062   6.247   4.447   1.606
 3721SOL    HW212063   6.370   4.554   1.613
 3722SOL     OW12064   6.368   5.972   0.900
 3722SOL    HW112065   6.441   5.942   0.960
 3722SOL    HW212066   6.293   6.009   0.955
 3723SOL     OW12067   6.157   5.222   1.728
 3723SOL    HW112068   6.249   5.223   1.688
 3723SOL    HW212069   6.137   5.131   1.763
 3724SOL     OW12070   2.073   4.668   4.558
 3724SOL    HW112071   1.993   4.725   4.541
 3724SOL    HW212072   2.115   4.695   4.644
 3725SOL     OW12073   6.009   5.356   0.806
 3725SOL    HW112074   6.019   5.455   0.814
 3725SOL    HW212075   6.011   5.329   0.710
 3726SOL     OW12076   5.572   3.861   0.876
 3726SOL    HW112077   5.485   3.811   0.878
 3726SOL    HW212078   5.648   3.796   0.871
 3727SOL     OW12079   0.114   1.910   4.613
 3727SOL    HW112080   0.198   1.904   4.560
 3727SOL    HW212081   0.036   1.888   4.556
 3728SOL     OW12082   1.685   3.612   6.410
 3728SOL    HW112083   1.615   3.683   6.415
 3728SOL    HW212084   1.745   3.619   6.489
 3729SOL     OW12085   0.670   2.616   3.960
 3729SOL    HW112086   0.699   2.539   3.903
 3729SOL    HW212087   0.574   2.604   3.986
 3730SOL     OW12088   2.274   5.246   6.171
 3730SOL    HW112089   2.311   5.316   6.111
 3730SOL    HW212090   2.179   5.226   6.146
 3731SOL     OW12091   6.572   2.129   0.700
 3731SOL    HW112092   6.512   2.168   0.769
 3731SOL    HW212093   6.523   2.057   0.650
 3732SOL     OW12094   2.902   1.386   0.560
 3732SOL    HW112095   2.912   1.314   0.491
 3732SOL    HW212096   2.992   1.425   0.580
 3733SOL     OW12097   1.718   3.743   2.484
 3733SOL    HW112098   1.706   3.717   2.388
 3733SOL    HW212099   1.729   3.661   2.539
 3734SOL     OW12100   5.105   0.857   2.277
 3734SOL    HW112101   5.074   0.842   2.184
 3734SOL    HW212102   5.196   0.900   2.276
 3735SOL     OW12103   1.992   0.926   3.743
 3735SOL    HW112104   2.067   0.871   3.708
 3735SOL    HW212105   1.908   0.872   3.746
 3736SOL     OW12106   0.303   2.442   1.051
 3736SOL    HW112107   0.359   2.491   0.984
 3736SOL    HW212108   0.295   2.346   1.023
 3737SOL     OW12109   4.943   0.669   3.359
 3737SOL    HW112110   4.863   0.718   3.324
 3737SOL    HW212111   4.941   0.669   3.459
 3738SOL     OW12112   0.072   0.088   2.649
 3738SOL    HW112113   0.092   0.005   2.701
 3738SOL    HW212114   0.140   0.158   2.671
 3739SOL     OW12115   2.559   4.519   1.382
 3739SOL    HW112116   2.644   4.552   1.342
 3739SOL    HW212117   2.553   4.549   1.478
 3740SOL     OW12118   5.776   1.001   0.873
 3740SOL    HW112119   5.803   1.011   0.969
 3740SOL    HW212120   5.762   0.905   0.852
 3741SOL     OW12121   5.345   2.745   0.401
 3741SOL    HW112122   5.269   2.802   0.371
 3741SOL    HW212123   5.402   2.720   0.322
 3742SOL     OW12124   2.795   1.731   0.046
 3742SOL    HW112125   2.764   1.728   6.977
 3742SOL    HW212126   2.717   1.742   0.107
 3743SOL     OW12127   5.781   3.518   0.576
 3743SOL    HW112128   5.747   3.600   0.622
 3743SOL    HW212129   5.708   3.450   0.571
 3744SOL     OW12130   1.423   5.847   2.256
 3744SOL    HW112131   1.328   5.828   2.282
 3744SOL    HW212132   1.442   5.945   2.265
 3745SOL     OW12133   4.191   4.913   1.582
 3745SOL    HW112134   4.160   4.835   1.528
 3745SOL    HW212135   4.195   4.994   1.525
 3746SOL     OW12136   5.196   0.702   3.065
 3746SOL    HW112137   5.213   0.771   3.135
 3746SOL    HW212138   5.236   0.731   2.978
 3747SOL     OW12139   2.488   6.575   5.047
 3747SOL    HW112140   2.412   6.509   5.052
 3747SOL    HW212141   2.574   6.525   5.034
 3748SOL     OW12142   5.156   1.155   1.207
 3748SOL    HW112143   5.094   1.187   1.136
 3748SOL    HW212144   5.234   1.217   1.213
 3749SOL     OW12145   1.482   5.596   3.485
 3749SOL    HW112146   1.389   5.564   3.472
 3749SOL    HW212147   1.485   5.660   3.562
 3750SOL     OW12148   0.941   4.145   0.883
 3750SOL    HW112149   0.991   4.066   0.848
 3750SOL    HW212150   0.898   4.193   0.807
 3751SOL     OW12151   7.023   3.427   1.519
 3751SOL    HW112152   7.000   3.452   1.613
 3751SOL    HW212153   7.000   3.331   1.504
 3752SOL     OW12154   5.185   0.507   0.408
 3752SOL    HW112155   5.245   0.577   0.446
 3752SOL    HW212156   5.232   0.419   0.407
 3753SOL     OW12157   6.222   6.789   4.732
 3753SOL    HW112158   6.250   6.885   4.732
 3753SOL    HW212159   6.232   6.752   4.640
 3754SOL     OW12160   2.341   0.878   1.471
 3754SOL    HW112161   2.253   0.839   1.445
 3754SOL    HW212162   2.356   0.864   1.569
 3755SOL     OW12163   4.963   4.536   4.303
 3755SOL    HW112164   4.910   4.482   4.369
 3755SOL    HW212165   5.002   4.615   4.349
 3756SOL     OW12166   2.993   5.183   6.472
 3756SOL    HW112167   2.949   5.221   6.553
 3756SOL    HW212168   3.028   5.257   6.414
 3757SOL     OW12169   5.374   5.835   0.111
 3757SOL    HW112170   5.407   5.752   0.156
 3757SOL    HW212171   5.452   5.894   0.088
 3758SOL     OW12172   2.473   1.490   5.110
 3758SOL    HW112173   2.523   1.403   5.114
 3758SOL    HW212174   2.536   1.563   5.084
 3759SOL     OW12175   3.938   6.918   6.573
 3759SOL    HW112176   3.852   6.891   6.617
 3759SOL    HW212177   3.921   6.991   6.507
 3760SOL     OW12178   1.738   1.601   4.941
 3760SOL    HW112179   1.642   1.575   4.949
 3760SOL    HW212180   1.746   1.685   4.887
 3761SOL     OW12181   0.967   1.264   5.102
 3761SOL    HW112182   0.958   1.234   5.196
 3761SOL    HW212183   0.970   1.364   5.099
 3762SOL     OW12184   1.430   5.011   1.169
 3762SOL    HW112185   1.496   4.971   1.233
 3762SOL    HW212186   1.341   4.968   1.180
 3763SOL     OW12187   6.817   3.785   0.846
 3763SOL    HW112188   6.786   3.723   0.918
 3763SOL    HW212189   6.914   3.804   0.858
 3764SOL     OW12190   1.795   0.294   2.584
 3764SOL    HW112191   1.876   0.276   2.527
 3764SOL    HW212192   1.773   0.391   2.581
 3765SOL     OW12193   5.353   1.547   1.178
 3765SOL    HW112194   5.391   1.550   1.270
 3765SOL    HW212195   5.407   1.605   1.117
 3766SOL     OW12196   2.387   1.847   4.243
 3766SOL    HW112197   2.457   1.864   4.175
 3766SOL    HW212198   2.407   1.899   4.326
 3767SOL     OW12199   2.131   4.768   6.698
 3767SOL    HW112200   2.217   4.798   6.657
 3767SOL    HW212201   2.089   4.845   6.747
 3768SOL     OW12202   0.904   6.487   4.183
 3768SOL    HW112203   0.969   6.525   4.117
 3768SOL    HW212204   0.916   6.388   4.188
 3769SOL     OW12205   5.829   5.800   4.329
 3769SOL    HW112206   5.867   5.857   4.402
 3769SOL    HW212207   5.894   5.796   4.253
 3770SOL     OW12208   1.348   0.891   6.298
 3770SOL    HW112209   1.371   0.812   6.240
 3770SOL    HW212210   1.276   0.866   6.362
 3771SOL     OW12211   5.126   2.876   0.288
 3771SOL    HW112212   5.054   2.930   0.332
 3771SOL    HW212213   5.117   2.883   0.188
 3772SOL     OW12214   0.422   1.002   0.504
 3772SOL    HW112215   0.419   1.053   0.590
 3772SOL    HW212216   0.500   0.941   0.504
 3773SOL     OW12217   5.940   3.512   5.542
 3773SOL    HW112218   5.963   3.500   5.638
 3773SOL    HW212219   5.867   3.580   5.534
 3774SOL     OW12220   6.193   5.849   1.468
 3774SOL    HW112221   6.261   5.912   1.432
 3774SOL    HW212222   6.231   5.757   1.472
 3775SOL     OW12223   4.745   4.844   2.845
 3775SOL    HW112224   4.718   4.749   2.829
 3775SOL    HW212225   4.708   4.901   2.771
 3776SOL     OW12226   4.532   1.813   6.850
 3776SOL    HW112227   4.437   1.835   6.826
 3776SOL    HW212228   4.539   1.794   6.948
 3777SOL     OW12229   3.452   5.651   3.477
 3777SOL    HW112230   3.398   5.735   3.474
 3777SOL    HW212231   3.448   5.606   3.387
 3778SOL     OW12232   3.074   5.412   2.497
 3778SOL    HW112233   3.157   5.466   2.490
 3778SOL    HW212234   3.084   5.328   2.445
 3779SOL     OW12235   0.840   4.874   0.337
 3779SOL    HW112236   0.921   4.913   0.292
 3779SOL    HW212237   0.791   4.816   0.273
 3780SOL     OW12238   5.672   5.041   4.528
 3780SOL    HW112239   5.672   5.006   4.621
 3780SOL    HW212240   5.761   5.025   4.485
 3781SOL     OW12241   0.336   6.488   4.347
 3781SOL    HW112242   0.287   6.500   4.261
 3781SOL    HW212243   0.271   6.495   4.423
 3782SOL     OW12244   2.385   6.894   3.125
 3782SOL    HW112245   2.443   6.965   3.084
 3782SOL    HW212246   2.301   6.935   3.160
 3783SOL     OW12247   5.702   5.380   4.236
 3783SOL    HW112248   5.751   5.401   4.151
 3783SOL    HW212249   5.732   5.442   4.308
 3784SOL     OW12250   4.924   2.348   2.948
 3784SOL    HW112251   4.841   2.302   2.917
 3784SOL    HW212252   4.949   2.419   2.882
 3785SOL     OW12253   1.933   3.754   5.258
 3785SOL    HW112254   1.907   3.790   5.348
 3785SOL    HW212255   2.031   3.763   5.245
 3786SOL     OW12256   2.313   5.092   3.102
 3786SOL    HW112257   2.270   5.131   3.021
 3786SOL    HW212258   2.272   5.132   3.184
 3787SOL     OW12259   5.941   1.368   3.198
 3787SOL    HW112260   5.920   1.302   3.126
 3787SOL    HW212261   5.893   1.454   3.180
 3788SOL     OW12262   6.949   4.543   4.871
 3788SOL    HW112263   6.888   4.477   4.916
 3788SOL    HW212264   6.905   4.576   4.788
 3789SOL     OW12265   0.280   2.837   4.441
 3789SOL    HW112266   0.251   2.932   4.452
 3789SOL    HW212267   0.209   2.776   4.476
 3790SOL     OW12268   1.379   4.291   5.880
 3790SOL    HW112269   1.325   4.278   5.963
 3790SOL    HW212270   1.378   4.208   5.825
 3791SOL     OW12271   4.719   1.057   6.375
 3791SOL    HW112272   4.750   1.089   6.286
 3791SOL    HW212273   4.791   1.070   6.442
 3792SOL     OW12274   1.259   2.143   4.079
 3792SOL    HW112275   1.307   2.077   4.137
 3792SOL    HW212276   1.240   2.102   3.990
 3793SOL     OW12277   4.976   6.200   2.226
 3793SOL    HW112278   4.993   6.132   2.155
 3793SOL    HW212279   5.029   6.282   2.207
 3794SOL     OW12280   2.235   2.532   1.067
 3794SOL    HW112281   2.262   2.608   1.008
 3794SOL    HW212282   2.138   2.511   1.051
 3795SOL     OW12283   4.409   6.165   0.990
 3795SOL    HW112284   4.498   6.147   0.947
 3795SOL    HW212285   4.423   6.208   1.079
 3796SOL     OW12286   3.360   2.112   2.325
 3796SOL    HW112287   3.275   2.131   2.276
 3796SOL    HW212288   3.353   2.144   2.419
 3797SOL     OW12289   0.425   3.559   2.261
 3797SOL    HW112290   0.452   3.525   2.352
 3797SOL    HW212291   0.500   3.611   2.221
 3798SOL     OW12292   2.500   5.136   3.398
 3798SOL    HW112293   2.553   5.218   3.377
 3798SOL    HW212294   2.524   5.063   3.334
 3799SOL     OW12295   6.087   2.216   3.562
 3799SOL    HW112296   5.993   2.251   3.559
 3799SOL    HW212297   6.089   2.122   3.529
 3800SOL     OW12298   5.686   2.590   4.059
 3800SOL    HW112299   5.680   2.625   4.153
 3800SOL    HW212300   5.751   2.645   4.007
 3801SOL     OW12301   6.011   6.575   2.018
 3801SOL    HW112302   5.983   6.671   2.023
 3801SOL    HW212303   5.937   6.518   2.054
 3802SOL     OW12304   1.369   2.183   1.677
 3802SOL    HW112305   1.468   2.170   1.676
 3802SOL    HW212306   1.340   2.224   1.591
 3803SOL     OW12307   4.028   3.317   2.275
 3803SOL    HW112308   4.050   3.360   2.187
 3803SOL    HW212309   4.025   3.218   2.264
 3804SOL     OW12310   4.642   1.063   4.124
 3804SOL    HW112311   4.608   1.087   4.215
 3804SOL    HW212312   4.587   0.989   4.086
 3805SOL     OW12313   2.110   2.725   1.304
 3805SOL    HW112314   2.104   2.626   1.318
 3805SOL    HW212315   2.169   2.745   1.226
 3806SOL     OW12316   3.874   3.574   5.658
 3806SOL    HW112317   3.893   3.524   5.742
 3806SOL    HW212318   3.839   3.665   5.680
 3807SOL     OW12319   1.492   5.807   2.711
 3807SOL    HW112320   1.531   5.884   2.661
 3807SOL    HW212321   1.397   5.827   2.734
 3808SOL     OW12322   4.672   0.988   0.722
 3808SOL    HW112323   4.762   1.031   0.732
 3808SOL    HW212324   4.626   0.986   0.810
 3809SOL     OW12325   5.763   2.569   1.830
 3809SOL    HW112326   5.791   2.641   1.894
 3809SOL    HW212327   5.782   2.599   1.737
 3810SOL     OW12328   4.537   2.527   3.576
 3810SOL    HW112329   4.557   2.590   3.651
 3810SOL    HW212330   4.450   2.482   3.593
 3811SOL     OW12331   0.873   5.414   4.967
 3811SOL    HW112332   0.843   5.494   4.915
 3811SOL    HW212333   0.804   5.341   4.959
 3812SOL     OW12334   4.680   5.127   5.373
 3812SOL    HW112335   4.728   5.158   5.455
 3812SOL    HW212336   4.698   5.030   5.358
 3813SOL     OW12337   4.174   3.219   0.385
 3813SOL    HW112338   4.102   3.288   0.378
 3813SOL    HW212339   4.164   3.169   0.471
 3814SOL     OW12340   6.930   6.618   6.128
 3814SOL    HW112341   6.837   6.606   6.164
 3814SOL    HW212342   6.996   6.614   6.202
 3815SOL     OW12343   3.800   2.323   0.844
 3815SOL    HW112344   3.884   2.369   0.815
 3815SOL    HW212345   3.734   2.323   0.769
 3816SOL     OW12346   1.195   5.887   6.369
 3816SOL    HW112347   1.100   5.868   6.395
 3816SOL    HW212348   1.242   5.931   6.445
 3817SOL     OW12349   4.900   3.316   2.921
 3817SOL    HW112350   4.995   3.336   2.946
 3817SOL    HW212351   4.839   3.372   2.976
 3818SOL     OW12352   6.403   0.859   6.807
 3818SOL    HW112353   6.341   0.916   6.753
 3818SOL    HW212354   6.459   0.918   6.866
 3819SOL     OW12355   4.983   5.518   1.714
 3819SOL    HW112356   5.071   5.565   1.729
 3819SOL    HW212357   4.966   5.512   1.616
 3820SOL     OW12358   5.345   6.883   3.644
 3820SOL    HW112359   5.245   6.894   3.644
 3820SOL    HW212360   5.386   6.957   3.590
 3821SOL     OW12361   2.287   1.611   1.532
 3821SOL    HW112362   2.254   1.676   1.601
 3821SOL    HW212363   2.386   1.606   1.535
 3822SOL     OW12364   2.366   0.692   1.180
 3822SOL    HW112365   2.322   0.778   1.155
 3822SOL    HW212366   2.399   0.698   1.274
 3823SOL     OW12367   3.528   3.465   6.057
 3823SOL    HW112368   3.444   3.439   6.009
 3823SOL    HW212369   3.525   3.562   6.080
 3824SOL     OW12370   0.136   3.398   0.244
 3824SOL    HW112371   0.042   3.425   0.262
 3824SOL    HW212372   0.142   3.298   0.240
 3825SOL     OW12373   0.318   5.734   0.738
 3825SOL    HW112374   0.267   5.811   0.775
 3825SOL    HW212375   0.362   5.684   0.812
 3826SOL     OW12376   1.087   3.366   6.723
 3826SOL    HW112377   1.171   3.314   6.732
 3826SOL    HW212378   1.021   3.314   6.669
 3827SOL     OW12379   1.567   1.138   1.929
 3827SOL    HW112380   1.651   1.085   1.940
 3827SOL    HW212381   1.583   1.232   1.956
 3828SOL     OW12382   3.603   3.619   2.732
 3828SOL    HW112383   3.613   3.716   2.711
 3828SOL    HW212384   3.588   3.567   2.648
 3829SOL     OW12385   1.435   5.138   3.005
 3829SOL    HW112386   1.441   5.106   2.910
 3829SOL    HW212387   1.521   5.118   3.052
 3830SOL     OW12388   0.835   1.134   5.307
 3830SOL    HW112389   0.882   1.102   5.389
 3830SOL    HW212390   0.846   1.067   5.234
 3831SOL     OW12391   4.647   2.551   2.195
 3831SOL    HW112392   4.568   2.520   2.249
 3831SOL    HW212393   4.625   2.544   2.097
 3832SOL     OW12394   5.822   0.798   2.995
 3832SOL    HW112395   5.724   0.806   2.977
 3832SOL    HW212396   5.874   0.828   2.915
 3833SOL     OW12397   0.298   6.570   6.276
 3833SOL    HW112398   0.288   6.499   6.207
 3833SOL    HW212399   0.208   6.608   6.300
 3834SOL     OW12400   4.359   4.526   1.274
 3834SOL    HW112401   4.347   4.427   1.277
 3834SOL    HW212402   4.275   4.570   1.243
 3835SOL     OW12403   3.545   5.590   4.714
 3835SOL    HW112404   3.541   5.520   4.785
 3835SOL    HW212405   3.634   5.636   4.717
 3836SOL     OW12406   1.544   3.982   6.143
 3836SOL    HW112407   1.537   4.061   6.204
 3836SOL    HW212408   1.454   3.958   6.109
 3837SOL     OW12409   4.549   4.725   6.114
 3837SOL    HW112410   4.538   4.723   6.213
 3837SOL    HW212411   4.486   4.791   6.074
 3838SOL     OW12412   0.691   3.855   4.208
 3838SOL    HW112413   0.741   3.821   4.288
 3838SOL    HW212414   0.750   3.852   4.128
 3839SOL     OW12415   5.439   0.880   4.105
 3839SOL    HW112416   5.523   0.843   4.145
 3839SOL    HW212417   5.373   0.805   4.092
 3840SOL     OW12418   2.611   0.907   6.165
 3840SOL    HW112419   2.623   0.944   6.257
 3840SOL    HW212420   2.517   0.874   6.154
 3841SOL     OW12421   6.991   3.214   4.303
 3841SOL    HW112422   6.968   3.305   4.338
 3841SOL    HW212423   6.992   3.217   4.203
 3842SOL     OW12424   2.105   3.015   1.027
 3842SOL    HW112425   2.131   2.940   0.965
 3842SOL    HW212426   2.188   3.051   1.070
 3843SOL     OW12427   5.717   4.670   2.194
 3843SOL    HW112428   5.722   4.614   2.277
 3843SOL    HW212429   5.622   4.689   2.172
 3844SOL     OW12430   0.669   3.121   6.125
 3844SOL    HW112431   0.745   3.155   6.179
 3844SOL    HW212432   0.686   3.137   6.028
 3845SOL     OW12433   2.876   3.538   5.510
 3845SOL    HW112434   2.838   3.497   5.427
 3845SOL    HW212435   2.871   3.637   5.503
 3846SOL     OW12436   0.628   5.381   3.861
 3846SOL    HW112437   0.619   5.316   3.786
 3846SOL    HW212438   0.591   5.469   3.833
 3847SOL     OW12439   5.557   1.435   4.459
 3847SOL    HW112440   5.507   1.518   4.435
 3847SOL    HW212441   5.592   1.443   4.553
 3848SOL     OW12442   4.432   5.120   3.102
 3848SOL    HW112443   4.350   5.063   3.107
 3848SOL    HW212444   4.412   5.202   3.048
 3849SOL     OW12445   1.729   1.138   6.076
 3849SOL    HW112446   1.630   1.131   6.087
 3849SOL    HW212447   1.750   1.209   6.009
 3850SOL     OW12448   2.310   3.549   1.196
 3850SOL    HW112449   2.354   3.638   1.202
 3850SOL    HW212450   2.350   3.486   1.263
 3851SOL     OW12451   0.813   4.662   1.958
 3851SOL    HW112452   0.772   4.750   1.982
 3851SOL    HW212453   0.894   4.677   1.901
 3852SOL     OW12454   4.443   6.264   3.717
 3852SOL    HW112455   4.389   6.184   3.742
 3852SOL    HW212456   4.461   6.319   3.798
 3853SOL     OW12457   0.995   4.399   3.012
 3853SOL    HW112458   0.918   4.394   3.076
 3853SOL    HW212459   0.996   4.317   2.955
 3854SOL     OW12460   1.776   3.227   2.597
 3854SOL    HW112461   1.813   3.234   2.689
 3854SOL    HW212462   1.844   3.184   2.537
 3855SOL     OW12463   5.159   6.359   6.151
 3855SOL    HW112464   5.217   6.363   6.232
 3855SOL    HW212465   5.183   6.279   6.096
 3856SOL     OW12466   0.556   1.104   6.074
 3856SOL    HW112467   0.574   1.038   6.001
 3856SOL    HW212468   0.522   1.056   6.155
 3857SOL     OW12469   0.269   6.156   6.890
 3857SOL    HW112470   0.228   6.101   6.963
 3857SOL    HW212471   0.260   6.107   6.803
 3858SOL     OW12472   1.822   0.418   5.486
 3858SOL    HW112473   1.867   0.432   5.574
 3858SOL    HW212474   1.881   0.450   5.412
 3859SOL     OW12475   5.957   1.139   2.745
 3859SOL    HW112476   5.868   1.167   2.708
 3859SOL    HW212477   6.030   1.175   2.686
 3860SOL     OW12478   3.130   0.410   5.669
 3860SOL    HW112479   3.036   0.424   5.700
 3860SOL    HW212480   3.175   0.498   5.657
 3861SOL     OW12481   4.958   4.588   3.363
 3861SOL    HW112482   4.963   4.488   3.366
 3861SOL    HW212483   4.911   4.616   3.279
 3862SOL     OW12484   1.395   0.249   5.368
 3862SOL    HW112485   1.419   0.328   5.311
 3862SOL    HW212486   1.443   0.256   5.456
 3863SOL     OW12487   4.681   2.893   6.561
 3863SOL    HW112488   4.779   2.902   6.547
 3863SOL    HW212489   4.655   2.938   6.647
 3864SOL     OW12490   2.674   0.392   5.406
 3864SOL    HW112491   2.709   0.298   5.401
 3864SOL    HW212492   2.670   0.431   5.314
 3865SOL     OW12493   3.469   0.190   0.033
 3865SOL    HW112494   3.526   0.134   0.092
 3865SOL    HW212495   3.502   0.284   0.034
 3866SOL     OW12496   4.178   1.043   1.186
 3866SOL    HW112497   4.270   1.020   1.155
 3866SOL    HW212498   4.182   1.080   1.279
 3867SOL     OW12499   1.451   3.994   3.283
 3867SOL    HW112500   1.506   3.962   3.360
 3867SOL    HW212501   1.368   3.939   3.277
 3868SOL     OW12502   3.350   6.925   0.269
 3868SOL    HW112503   3.270   6.983   0.288
 3868SOL    HW212504   3.433   6.981   0.274
 3869SOL     OW12505   5.943   4.310   5.109
 3869SOL    HW112506   5.959   4.277   5.017
 3869SOL    HW212507   5.968   4.407   5.115
 3870SOL     OW12508   4.778   5.115   6.833
 3870SOL    HW112509   4.759   5.054   6.910
 3870SOL    HW212510   4.811   5.203   6.867
 3871SOL     OW12511   3.486   0.441   2.657
 3871SOL    HW112512   3.489   0.527   2.709
 3871SOL    HW212513   3.559   0.381   2.690
 3872SOL     OW12514   3.685   3.071   3.209
 3872SOL    HW112515   3.622   2.996   3.191
 3872SOL    HW212516   3.735   3.053   3.294
 3873SOL     OW12517   6.036   2.975   2.012
 3873SOL    HW112518   6.022   3.031   2.094
 3873SOL    HW212519   6.059   3.035   1.935
 3874SOL     OW12520   4.231   5.791   6.672
 3874SOL    HW112521   4.213   5.771   6.769
 3874SOL    HW212522   4.174   5.731   6.615
 3875SOL     OW12523   1.640   2.826   1.605
 3875SOL    HW112524   1.573   2.805   1.534
 3875SOL    HW212525   1.621   2.915   1.644
 3876SOL     OW12526   4.570   4.841   0.292
 3876SOL    HW112527   4.540   4.867   0.201
 3876SOL    HW212528   4.527   4.755   0.319
 3877SOL     OW12529   6.681   2.793   0.474
 3877SOL    HW112530   6.753   2.727   0.450
 3877SOL    HW212531   6.670   2.795   0.573
 3878SOL     OW12532   3.240   6.822   4.488
 3878SOL    HW112533   3.337   6.810   4.467
 3878SOL    HW212534   3.230   6.874   4.572
 3879SOL     OW12535   5.075   6.155   1.423
 3879SOL    HW112536   5.107   6.194   1.509
 3879SOL    HW212537   5.082   6.223   1.351
 3880SOL     OW12538   6.304   4.949   3.643
 3880SOL    HW112539   6.396   4.960   3.681
 3880SOL    HW212540   6.277   5.033   3.595
 3881SOL     OW12541   1.236   4.500   1.139
 3881SOL    HW112542   1.176   4.537   1.210
 3881SOL    HW212543   1.266   4.573   1.078
 3882SOL     OW12544   0.896   1.943   5.365
 3882SOL    HW112545   0.848   2.023   5.402
 3882SOL    HW212546   0.905   1.874   5.437
 3883SOL     OW12547   4.246   0.952   3.958
 3883SOL    HW112548   4.289   0.918   4.042
 3883SOL    HW212549   4.148   0.934   3.960
 3884SOL     OW12550   0.528   5.239   3.149
 3884SOL    HW112551   0.583   5.316   3.117
 3884SOL    HW212552   0.436   5.271   3.175
 3885SOL     OW12553   6.125   0.598   2.486
 3885SOL    HW112554   6.201   0.663   2.482
 3885SOL    HW212555   6.109   0.560   2.395
 3886SOL     OW12556   6.396   5.654   4.570
 3886SOL    HW112557   6.303   5.679   4.544
 3886SOL    HW212558   6.422   5.704   4.653
 3887SOL     OW12559   0.422   0.964   6.254
 3887SOL    HW112560   0.461   0.873   6.263
 3887SOL    HW212561   0.379   0.991   6.341
 3888SOL     OW12562   0.388   0.234   6.804
 3888SOL    HW112563   0.340   0.182   6.733
 3888SOL    HW212564   0.390   0.182   6.889
 3889SOL     OW12565   6.779   3.688   5.743
 3889SOL    HW112566   6.704   3.733   5.791
 3889SOL    HW212567   6.802   3.602   5.788
 3890SOL     OW12568   5.842   5.653   2.696
 3890SOL    HW112569   5.779   5.648   2.774
 3890SOL    HW212570   5.807   5.596   2.622
 3891SOL     OW12571   5.800   4.300   4.234
 3891SOL    HW112572   5.759   4.210   4.221
 3891SOL    HW212573   5.776   4.335   4.325
 3892SOL     OW12574   0.381   2.267   1.355
 3892SOL    HW112575   0.370   2.203   1.279
 3892SOL    HW212576   0.292   2.279   1.401
 3893SOL     OW12577   3.352   5.404   0.711
 3893SOL    HW112578   3.375   5.469   0.783
 3893SOL    HW212579   3.372   5.443   0.622
 3894SOL     OW12580   2.776   2.041   0.914
 3894SOL    HW112581   2.802   1.960   0.861
 3894SOL    HW212582   2.728   2.013   0.997
 3895SOL     OW12583   1.720   0.514   5.070
 3895SOL    HW112584   1.804   0.497   5.120
 3895SOL    HW212585   1.715   0.454   4.991
 3896SOL     OW12586   0.517   1.859   6.601
 3896SOL    HW112587   0.488   1.778   6.549
 3896SOL    HW212588   0.573   1.830   6.679
 3897SOL     OW12589   3.583   6.461   2.097
 3897SOL    HW112590   3.679   6.465   2.125
 3897SOL    HW212591   3.575   6.489   2.001
 3898SOL     OW12592   3.541   3.383   4.064
 3898SOL    HW112593   3.493   3.311   4.014
 3898SOL    HW212594   3.542   3.359   4.161
 3899SOL     OW12595   5.040   0.873   4.717
 3899SOL    HW112596   4.968   0.809   4.745
 3899SOL    HW212597   5.057   0.939   4.791
 3900SOL     OW12598   5.088   2.593   4.071
 3900SOL    HW112599   5.180   2.600   4.110
 3900SOL    HW212600   5.085   2.516   4.008
 3901SOL     OW12601   3.169   6.372   5.335
 3901SOL    HW112602   3.167   6.472   5.326
 3901SOL    HW212603   3.261   6.339   5.313
 3902SOL     OW12604   5.951   3.772   1.536
 3902SOL    HW112605   6.017   3.821   1.478
 3902SOL    HW212606   5.883   3.726   1.479
 3903SOL     OW12607   5.005   4.493   6.885
 3903SOL    HW112608   4.949   4.453   6.813
 3903SOL    HW212609   5.025   4.589   6.863
 3904SOL     OW12610   2.190   6.790   5.653
 3904SOL    HW112611   2.146   6.744   5.730
 3904SOL    HW212612   2.265   6.848   5.687
 3905SOL     OW12613   5.982   6.945   5.832
 3905SOL    HW112614   6.031   6.859   5.847
 3905SOL    HW212615   6.045   7.022   5.843
 3906SOL     OW12616   2.527   5.668   5.242
 3906SOL    HW112617   2.538   5.766   5.258
 3906SOL    HW212618   2.617   5.624   5.236
 3907SOL     OW12619   6.897   6.636   5.081
 3907SOL    HW112620   6.898   6.695   5.001
 3907SOL    HW212621   6.810   6.646   5.129
 3908SOL     OW12622   1.696   1.036   6.946
 3908SOL    HW112623   1.772   1.101   6.955
 3908SOL    HW212624   1.653   1.047   6.857
 3909SOL     OW12625   0.282   4.847   6.318
 3909SOL    HW112626   0.251   4.916   6.384
 3909SOL    HW212627   0.316   4.767   6.368
 3910SOL     OW12628   3.693   4.206   1.833
 3910SOL    HW112629   3.643   4.125   1.804
 3910SOL    HW212630   3.698   4.207   1.933
 3911SOL     OW12631   4.624   1.802   0.123
 3911SOL    HW112632   4.589   1.725   0.176
 3911SOL    HW212633   4.586   1.887   0.159
 3912SOL     OW12634   3.559   1.519   6.484
 3912SOL    HW112635   3.612   1.436   6.499
 3912SOL    HW212636   3.469   1.510   6.526
 3913SOL     OW12637   2.867   6.054   6.691
 3913SOL    HW112638   2.798   6.126   6.697
 3913SOL    HW212639   2.932   6.076   6.617
 3914SOL     OW12640   5.216   0.815   1.206
 3914SOL    HW112641   5.196   0.798   1.110
 3914SOL    HW212642   5.143   0.870   1.247
 3915SOL     OW12643   4.196   6.035   0.879
 3915SOL    HW112644   4.172   6.073   0.790
 3915SOL    HW212645   4.276   6.083   0.915
 3916SOL     OW12646   1.842   6.610   2.382
 3916SOL    HW112647   1.923   6.662   2.408
 3916SOL    HW212648   1.772   6.618   2.453
 3917SOL     OW12649   1.281   4.601   0.538
 3917SOL    HW112650   1.358   4.614   0.476
 3917SOL    HW212651   1.295   4.518   0.592
 3918SOL     OW12652   4.316   6.401   1.975
 3918SOL    HW112653   4.238   6.444   1.931
 3918SOL    HW212654   4.318   6.426   2.072
 3919SOL     OW12655   3.246   7.003   6.740
 3919SOL    HW112656   3.240   6.955   6.653
 3919SOL    HW212657   3.156   7.009   6.782
 3920SOL     OW12658   2.570   2.101   6.450
 3920SOL    HW112659   2.604   2.195   6.448
 3920SOL    HW212660   2.472   2.101   6.432
 3921SOL     OW12661   0.503   3.229   6.996
 3921SOL    HW112662   0.515   3.243   0.069
 3921SOL    HW212663   0.519   3.132   6.975
 3922SOL     OW12664   4.522   5.143   0.427
 3922SOL    HW112665   4.533   5.049   0.397
 3922SOL    HW212666   4.587   5.162   0.501
 3923SOL     OW12667   6.241   1.953   0.171
 3923SOL    HW112668   6.234   2.038   0.119
 3923SOL    HW212669   6.259   1.973   0.267
 3924SOL     OW12670   0.462   5.008   3.002
 3924SOL    HW112671   0.472   5.086   3.063
 3924SOL    HW212672   0.386   4.951   3.033
 3925SOL     OW12673   4.142   4.133   0.602
 3925SOL    HW112674   4.129   4.080   0.686
 3925SOL    HW212675   4.239   4.138   0.581
 3926SOL     OW12676   6.889   6.723   4.112
 3926SOL    HW112677   6.958   6.730   4.183
 3926SOL    HW212678   6.819   6.658   4.141
 3927SOL     OW12679   0.168   3.085   4.424
 3927SOL    HW112680   0.099   3.123   4.362
 3927SOL    HW212681   0.257   3.125   4.404
 3928SOL     OW12682   3.989   5.518   4.829
 3928SOL    HW112683   3.959   5.528   4.924
 3928SOL    HW212684   4.014   5.423   4.812
 3929SOL     OW12685   0.270   1.960   6.830
 3929SOL    HW112686   0.184   2.010   6.844
 3929SOL    HW212687   0.317   1.995   6.750
 3930SOL     OW12688   1.653   1.919   3.684
 3930SOL    HW112689   1.638   1.844   3.748
 3930SOL    HW212690   1.748   1.920   3.655
 3931SOL     OW12691   2.005   1.650   1.865
 3931SOL    HW112692   1.937   1.683   1.931
 3931SOL    HW212693   2.058   1.728   1.830
 3932SOL     OW12694   1.922   4.104   3.497
 3932SOL    HW112695   1.973   4.187   3.480
 3932SOL    HW212696   1.864   4.116   3.578
 3933SOL     OW12697   1.753   0.025   0.256
 3933SOL    HW112698   1.741   6.984   0.330
 3933SOL    HW212699   1.698   7.024   0.178
 3934SOL     OW12700   0.554   0.862   1.983
 3934SOL    HW112701   0.625   0.808   2.028
 3934SOL    HW212702   0.500   0.911   2.051
 3935SOL     OW12703   1.853   0.902   5.485
 3935SOL    HW112704   1.883   0.948   5.569
 3935SOL    HW212705   1.756   0.920   5.470
 3936SOL     OW12706   6.725   6.323   5.371
 3936SOL    HW112707   6.760   6.237   5.335
 3936SOL    HW212708   6.649   6.354   5.314
 3937SOL     OW12709   0.322   6.615   2.757
 3937SOL    HW112710   0.405   6.600   2.702
 3937SOL    HW212711   0.328   6.560   2.840
 3938SOL     OW12712   5.915   2.825   3.463
 3938SOL    HW112713   5.907   2.801   3.560
 3938SOL    HW212714   5.826   2.818   3.419
 3939SOL     OW12715   2.837   1.991   3.133
 3939SOL    HW112716   2.753   2.045   3.138
 3939SOL    HW212717   2.897   2.015   3.209
 3940SOL     OW12718   3.847   4.898   2.045
 3940SOL    HW112719   3.776   4.831   2.020
 3940SOL    HW212720   3.904   4.860   2.117
 3941SOL     OW12721   6.358   0.557   5.011
 3941SOL    HW112722   6.311   0.568   4.924
 3941SOL    HW212723   6.457   0.558   4.996
 3942SOL     OW12724   0.741   6.289   5.756
 3942SOL    HW112725   0.838   6.311   5.746
 3942SOL    HW212726   0.686   6.370   5.737
 3943SOL     OW12727   0.479   3.421   2.503
 3943SOL    HW112728   0.571   3.418   2.464
 3943SOL    HW212729   0.464   3.339   2.558
 3944SOL     OW12730   5.769   3.709   5.528
 3944SOL    HW112731   5.720   3.723   5.614
 3944SOL    HW212732   5.731   3.770   5.458
 3945SOL     OW12733   1.084   2.523   2.697
 3945SOL    HW112734   1.051   2.486   2.610
 3945SOL    HW212735   1.063   2.458   2.771
 3946SOL     OW12736   6.609   4.091   6.039
 3946SOL    HW112737   6.645   4.176   6.002
 3946SOL    HW212738   6.542   4.111   6.110
 3947SOL     OW12739   5.503   5.631   1.316
 3947SOL    HW112740   5.480   5.670   1.406
 3947SOL    HW212741   5.532   5.536   1.328
 3948SOL     OW12742   0.511   4.973   0.540
 3948SOL    HW112743   0.424   5.021   0.553
 3948SOL    HW212744   0.580   5.015   0.599
 3949SOL     OW12745   6.181   6.586   3.208
 3949SOL    HW112746   6.135   6.655   3.151
 3949SOL    HW212747   6.115   6.547   3.272
 3950SOL     OW12748   3.362   4.178   1.176
 3950SOL    HW112749   3.446   4.131   1.147
 3950SOL    HW212750   3.306   4.197   1.095
 3951SOL     OW12751   0.251   0.507   7.009
 3951SOL    HW112752   0.250   0.594   0.033
 3951SOL    HW212753   0.346   0.480   6.991
 3952SOL     OW12754   6.060   3.406   4.626
 3952SOL    HW112755   6.007   3.358   4.556
 3952SOL    HW212756   6.145   3.441   4.586
 3953SOL     OW12757   3.610   4.818   7.007
 3953SOL    HW112758   3.645   4.897   0.031
 3953SOL    HW212759   3.511   4.823   7.002
 3954SOL     OW12760   5.659   5.527   5.592
 3954SOL    HW112761   5.713   5.504   5.674
 3954SOL    HW212762   5.661   5.450   5.529
 3955SOL     OW12763   4.719   6.832   6.839
 3955SOL    HW112764   4.677   6.756   6.888
 3955SOL    HW212765   4.662   6.914   6.850
 3956SOL     OW12766   1.318   1.847   4.398
 3956SOL    HW112767   1.408   1.870   4.436
 3956SOL    HW212768   1.248   1.904   4.441
 3957SOL     OW12769   4.204   6.882   3.575
 3957SOL    HW112770   4.202   6.982   3.568
 3957SOL    HW212771   4.199   6.854   3.671
 3958SOL     OW12772   5.823   0.247   6.201
 3958SOL    HW112773   5.863   0.312   6.266
 3958SOL    HW212774   5.799   0.162   6.248
 3959SOL     OW12775   3.607   6.549   0.658
 3959SOL    HW112776   3.616   6.648   0.666
 3959SOL    HW212777   3.529   6.518   0.712
 3960SOL     OW12778   5.924   1.906   6.009
 3960SOL    HW112779   5.936   1.901   5.910
 3960SOL    HW212780   5.826   1.905   6.031
 3961SOL     OW12781   5.246   2.952   2.471
 3961SOL    HW112782   5.305   2.895   2.414
 3961SOL    HW212783   5.181   2.894   2.520
 3962SOL     OW12784   1.355   5.912   6.683
 3962SOL    HW112785   1.416   5.869   6.616
 3962SOL    HW212786   1.368   5.867   6.772
 3963SOL     OW12787   5.056   5.056   3.795
 3963SOL    HW112788   4.981   5.050   3.729
 3963SOL    HW212789   5.065   4.969   3.843
 3964SOL     OW12790   4.238   4.804   5.069
 3964SOL    HW112791   4.300   4.861   5.014
 3964SOL    HW212792   4.266   4.708   5.061
 3965SOL     OW12793   4.158   3.828   6.501
 3965SOL    HW112794   4.248   3.843   6.542
 3965SOL    HW212795   4.111   3.753   6.548
 3966SOL     OW12796   6.729   5.069   0.078
 3966SOL    HW112797   6.675   4.986   0.065
 3966SOL    HW212798   6.731   5.092   0.175
 3967SOL     OW12799   1.213   4.731   2.556
 3967SOL    HW112800   1.123   4.755   2.520
 3967SOL    HW212801   1.273   4.704   2.480
 3968SOL     OW12802   6.837   0.361   1.042
 3968SOL    HW112803   6.849   0.457   1.064
 3968SOL    HW212804   6.913   0.308   1.079
 3969SOL     OW12805   0.187   4.064   3.056
 3969SOL    HW112806   0.262   4.091   3.115
 3969SOL    HW212807   0.175   3.965   3.061
 3970SOL     OW12808   4.305   5.234   3.832
 3970SOL    HW112809   4.320   5.329   3.804
 3970SOL    HW212810   4.310   5.174   3.752
 3971SOL     OW12811   2.374   4.708   2.240
 3971SOL    HW112812   2.407   4.615   2.224
 3971SOL    HW212813   2.281   4.704   2.279
 3972SOL     OW12814   1.902   5.298   1.731
 3972SOL    HW112815   1.819   5.334   1.688
 3972SOL    HW212816   1.900   5.320   1.829
 3973SOL     OW12817   2.421   4.487   5.534
 3973SOL    HW112818   2.430   4.586   5.547
 3973SOL    HW212819   2.362   4.449   5.605
 3974SOL     OW12820   2.061   0.834   5.766
 3974SOL    HW112821   2.089   0.930   5.773
 3974SOL    HW212822   1.963   0.826   5.785
 3975SOL     OW12823   5.720   0.151   6.619
 3975SOL    HW112824   5.796   0.171   6.681
 3975SOL    HW212825   5.688   0.058   6.635
 3976SOL     OW12826   2.203   4.745   0.968
 3976SOL    HW112827   2.123   4.699   1.006
 3976SOL    HW212828   2.276   4.746   1.036
 3977SOL     OW12829   2.930   4.790   5.552
 3977SOL    HW112830   2.888   4.713   5.601
 3977SOL    HW212831   2.888   4.799   5.462
 3978SOL     OW12832   5.780   0.573   4.592
 3978SOL    HW112833   5.805   0.628   4.671
 3978SOL    HW212834   5.815   0.617   4.509
 3979SOL     OW12835   2.473   6.195   1.451
 3979SOL    HW112836   2.416   6.131   1.502
 3979SOL    HW212837   2.453   6.187   1.354
 3980SOL     OW12838   0.061   4.536   6.238
 3980SOL    HW112839   0.012   4.593   6.304
 3980SOL    HW212840   0.095   4.454   6.283
 3981SOL     OW12841   1.634   1.718   6.684
 3981SOL    HW112842   1.647   1.817   6.684
 3981SOL    HW212843   1.612   1.687   6.592
 3982SOL     OW12844   2.254   0.352   4.224
 3982SOL    HW112845   2.247   0.378   4.320
 3982SOL    HW212846   2.202   0.416   4.168
 3983SOL     OW12847   4.012   5.671   4.185
 3983SOL    HW112848   4.020   5.676   4.285
 3983SOL    HW212849   3.967   5.585   4.159
 3984SOL     OW12850   2.218   0.305   2.481
 3984SOL    HW112851   2.240   0.212   2.510
 3984SOL    HW212852   2.239   0.369   2.556
 3985SOL     OW12853   2.177   4.485   6.831
 3985SOL    HW112854   2.227   4.427   6.767
 3985SOL    HW212855   2.151   4.570   6.786
 3986SOL     OW12856   6.724   1.556   3.406
 3986SOL    HW112857   6.625   1.547   3.411
 3986SOL    HW212858   6.764   1.473   3.367
 3987SOL     OW12859   1.722   5.844   4.853
 3987SOL    HW112860   1.684   5.754   4.831
 3987SOL    HW212861   1.678   5.879   4.936
 3988SOL     OW12862   3.973   2.829   5.581
 3988SOL    HW112863   3.957   2.827   5.482
 3988SOL    HW212864   4.031   2.752   5.607
 3989SOL     OW12865   6.455   1.541   0.158
 3989SOL    HW112866   6.515   1.609   0.116
 3989SOL    HW212867   6.462   1.546   0.257
 3990SOL     OW12868   6.099   1.583   4.103
 3990SOL    HW112869   6.071   1.569   4.008
 3990SOL    HW212870   6.157   1.507   4.132
 3991SOL     OW12871   5.709   1.488   2.152
 3991SOL    HW112872   5.649   1.485   2.072
 3991SOL    HW212873   5.655   1.476   2.235
 3992SOL     OW12874   3.911   1.942   6.457
 3992SOL    HW112875   3.834   1.905   6.405
 3992SOL    HW212876   3.899   2.040   6.468
 3993SOL     OW12877   1.232   2.110   3.429
 3993SOL    HW112878   1.294   2.179   3.465
 3993SOL    HW212879   1.278   2.058   3.357
 3994SOL     OW12880   1.413   2.903   5.662
 3994SOL    HW112881   1.429   2.833   5.732
 3994SOL    HW212882   1.318   2.899   5.633
 3995SOL     OW12883   2.174   4.028   4.417
 3995SOL    HW112884   2.164   3.941   4.368
 3995SOL    HW212885   2.105   4.033   4.489
 3996SOL     OW12886   1.363   0.722   4.607
 3996SOL    HW112887   1.315   0.752   4.690
 3996SOL    HW212888   1.383   0.801   4.549
 3997SOL     OW12889   4.717   2.865   2.962
 3997SOL    HW112890   4.705   2.895   2.867
 3997SOL    HW212891   4.782   2.925   3.008
 3998SOL     OW12892   5.116   1.597   2.460
 3998SOL    HW112893   5.141   1.525   2.525
 3998SOL    HW212894   5.059   1.558   2.387
 3999SOL     OW12895   5.367   3.343   3.760
 3999SOL    HW112896   5.398   3.424   3.810
 3999SOL    HW212897   5.294   3.298   3.812
 4000SOL     OW12898   3.589   5.588   2.939
 4000SOL    HW112899   3.542   5.626   2.859
 4000SOL    HW212900   3.621   5.496   2.918
 4001SOL     OW12901   1.494   2.650   4.417
 4001SOL    HW112902   1.585   2.667   4.381
 4001SOL    HW212903   1.491   2.560   4.461
 4002SOL     OW12904   2.548   2.946   0.238
 4002SOL    HW112905   2.522   2.877   0.170
 4002SOL    HW212906   2.517   3.036   0.206
 4003SOL     OW12907   2.726   6.889   5.876
 4003SOL    HW112908   2.759   6.864   5.967
 4003SOL    HW212909   2.784   6.960   5.838
 4004SOL     OW12910   6.010   2.716   4.161
 4004SOL    HW112911   5.994   2.650   4.235
 4004SOL    HW212912   6.085   2.776   4.186
 4005SOL     OW12913   5.144   5.285   1.150
 4005SOL    HW112914   5.192   5.371   1.167
 4005SOL    HW212915   5.211   5.212   1.136
 4006SOL     OW12916   4.374   4.675   1.794
 4006SOL    HW112917   4.294   4.693   1.851
 4006SOL    HW212918   4.434   4.756   1.794
 4007SOL     OW12919   0.767   3.116   2.089
 4007SOL    HW112920   0.696   3.179   2.057
 4007SOL    HW212921   0.800   3.061   2.013
 4008SOL     OW12922   3.423   1.736   4.764
 4008SOL    HW112923   3.341   1.723   4.819
 4008SOL    HW212924   3.457   1.829   4.776
 4009SOL     OW12925   4.856   2.297   0.686
 4009SOL    HW112926   4.899   2.332   0.602
 4009SOL    HW212927   4.775   2.244   0.662
 4010SOL     OW12928   2.014   3.615   1.216
 4010SOL    HW112929   2.057   3.537   1.172
 4010SOL    HW212930   2.023   3.607   1.315
 4011SOL     OW12931   1.040   6.908   1.880
 4011SOL    HW112932   1.080   6.940   1.966
 4011SOL    HW212933   0.948   6.946   1.870
 4012SOL     OW12934   4.527   4.580   1.064
 4012SOL    HW112935   4.482   4.578   1.153
 4012SOL    HW212936   4.493   4.657   1.011
 4013SOL     OW12937   2.915   0.484   1.016
 4013SOL    HW112938   2.836   0.422   1.013
 4013SOL    HW212939   2.929   0.515   1.110
 4014SOL     OW12940   4.093   5.569   3.448
 4014SOL    HW112941   4.190   5.551   3.429
 4014SOL    HW212942   4.056   5.495   3.503
 4015SOL     OW12943   3.948   5.186   6.014
 4015SOL    HW112944   3.999   5.167   5.930
 4015SOL    HW212945   3.866   5.239   5.992
 4016SOL     OW12946   1.069   5.209   6.501
 4016SOL    HW112947   1.050   5.300   6.464
 4016SOL    HW212948   1.119   5.218   6.586
 4017SOL     OW12949   0.365   6.897   0.323
 4017SOL    HW112950   0.460   6.897   0.293
 4017SOL    HW212951   0.305   6.905   0.244
 4018SOL     OW12952   5.774   6.396   2.072
 4018SOL    HW112953   5.689   6.435   2.105
 4018SOL    HW212954   5.814   6.338   2.143
 4019SOL     OW12955   5.933   3.551   2.071
 4019SOL    HW112956   5.897   3.474   2.125
 4019SOL    HW212957   6.010   3.520   2.016
 4020SOL     OW12958   6.327   2.516   5.694
 4020SOL    HW112959   6.233   2.536   5.667
 4020SOL    HW212960   6.327   2.446   5.765
 4021SOL     OW12961   2.992   4.099   5.843
 4021SOL    HW112962   3.013   4.058   5.755
 4021SOL    HW212963   2.998   4.030   5.915
 4022SOL     OW12964   4.296   0.290   6.765
 4022SOL    HW112965   4.351   0.268   6.685
 4022SOL    HW212966   4.263   0.205   6.806
 4023SOL     OW12967   0.013   1.087   4.124
 4023SOL    HW112968   0.059   1.061   4.039
 4023SOL    HW212969   6.940   1.099   4.106
 4024SOL     OW12970   2.891   5.133   4.194
 4024SOL    HW112971   2.831   5.124   4.274
 4024SOL    HW212972   2.973   5.077   4.207
 4025SOL     OW12973   0.365   5.844   4.894
 4025SOL    HW112974   0.397   5.784   4.967
 4025SOL    HW212975   0.289   5.900   4.928
 4026SOL     OW12976   6.757   6.981   3.305
 4026SOL    HW112977   6.664   6.945   3.300
 4026SOL    HW212978   6.820   6.908   3.333
 4027SOL     OW12979   2.624   2.711   0.876
 4027SOL    HW112980   2.655   2.649   0.948
 4027SOL    HW212981   2.564   2.780   0.916
 4028SOL     OW12982   2.829   2.157   2.894
 4028SOL    HW112983   2.754   2.096   2.869
 4028SOL    HW212984   2.793   2.234   2.946
 4029SOL     OW12985   3.086   4.683   6.020
 4029SOL    HW112986   3.089   4.735   6.106
 4029SOL    HW212987   3.016   4.613   6.026
 4030SOL     OW12988   0.817   2.057   0.345
 4030SOL    HW112989   0.893   2.114   0.376
 4030SOL    HW212990   0.748   2.051   0.417
 4031SOL     OW12991   4.992   6.561   3.431
 4031SOL    HW112992   4.937   6.618   3.370
 4031SOL    HW212993   4.979   6.465   3.408
 4032SOL     OW12994   6.490   0.427   2.256
 4032SOL    HW112995   6.564   0.366   2.226
 4032SOL    HW212996   6.500   0.516   2.212
 4033SOL     OW12997   2.958   3.676   1.992
 4033SOL    HW112998   2.998   3.729   2.066
 4033SOL    HW212999   2.922   3.738   1.921
 4034SOL     OW13000   0.389   1.341   4.869
 4034SOL    HW113001   0.480   1.366   4.905
 4034SOL    HW213002   0.340   1.424   4.844
 4035SOL     OW13003   6.858   2.588   0.719
 4035SOL    HW113004   6.791   2.662   0.712
 4035SOL    HW213005   6.818   2.503   0.684
 4036SOL     OW13006   5.065   6.549   2.364
 4036SOL    HW113007   5.014   6.569   2.280
 4036SOL    HW213008   5.111   6.632   2.395
 4037SOL     OW13009   2.240   1.109   0.842
 4037SOL    HW113010   2.314   1.172   0.816
 4037SOL    HW213011   2.152   1.154   0.829
 4038SOL     OW13012   4.336   4.138   1.549
 4038SOL    HW113013   4.408   4.167   1.487
 4038SOL    HW213014   4.365   4.152   1.643
 4039SOL     OW13015   4.636   4.414   1.544
 4039SOL    HW113016   4.585   4.439   1.627
 4039SOL    HW213017   4.587   4.342   1.495
 4040SOL     OW13018   3.757   0.350   6.030
 4040SOL    HW113019   3.731   0.430   5.977
 4040SOL    HW213020   3.743   0.268   5.975
 4041SOL     OW13021   2.242   5.159   1.321
 4041SOL    HW113022   2.251   5.059   1.319
 4041SOL    HW213023   2.203   5.190   1.234
 4042SOL     OW13024   6.131   5.400   2.692
 4042SOL    HW113025   6.047   5.356   2.722
 4042SOL    HW213026   6.126   5.419   2.593
 4043SOL     OW13027   5.085   2.479   4.715
 4043SOL    HW113028   4.999   2.504   4.668
 4043SOL    HW213029   5.113   2.388   4.687
 4044SOL     OW13030   4.645   0.177   3.479
 4044SOL    HW113031   4.555   0.173   3.522
 4044SOL    HW213032   4.635   0.169   3.379
 4045SOL     OW13033   2.873   5.277   6.031
 4045SOL    HW113034   2.966   5.312   6.045
 4045SOL    HW213035   2.820   5.344   5.980
 4046SOL     OW13036   0.988   1.463   3.756
 4046SOL    HW113037   0.913   1.399   3.735
 4046SOL    HW213038   1.005   1.463   3.855
 4047SOL     OW13039   1.705   2.350   0.587
 4047SOL    HW113040   1.650   2.276   0.625
 4047SOL    HW213041   1.648   2.432   0.578
 4048SOL     OW13042   5.273   2.347   2.268
 4048SOL    HW113043   5.292   2.359   2.171
 4048SOL    HW213044   5.216   2.422   2.300
 4049SOL     OW13045   6.208   6.122   6.665
 4049SOL    HW113046   6.147   6.201   6.669
 4049SOL    HW213047   6.254   6.120   6.577
 4050SOL     OW13048   1.401   6.439   0.553
 4050SOL    HW113049   1.432   6.442   0.649
 4050SOL    HW213050   1.364   6.527   0.527
 4051SOL     OW13051   3.620   2.844   6.860
 4051SOL    HW113052   3.553   2.772   6.877
 4051SOL    HW213053   3.709   2.816   6.895
 4052SOL     OW13054   0.090   0.680   2.082
 4052SOL    HW113055   0.103   0.758   2.143
 4052SOL    HW213056   0.177   0.657   2.038
 4053SOL     OW13057   2.998   5.335   4.062
 4053SOL    HW113058   2.934   5.282   4.118
 4053SOL    HW213059   3.025   5.418   4.111
 4054SOL     OW13060   7.000   3.314   2.225
 4054SOL    HW113061   6.926   3.360   2.177
 4054SOL    HW213062   0.062   3.343   2.186
 4055SOL     OW13063   4.172   3.388   6.305
 4055SOL    HW113064   4.197   3.483   6.287
 4055SOL    HW213065   4.098   3.385   6.372
 4056SOL     OW13066   4.034   3.559   0.692
 4056SOL    HW113067   4.009   3.646   0.650
 4056SOL    HW213068   4.130   3.539   0.672
 4057SOL     OW13069   5.399   2.432   1.523
 4057SOL    HW113070   5.338   2.394   1.454
 4057SOL    HW213071   5.362   2.519   1.556
 4058SOL     OW13072   1.924   0.200   3.804
 4058SOL    HW113073   1.933   0.137   3.881
 4058SOL    HW213074   1.849   0.264   3.821
 4059SOL     OW13075   0.893   2.792   3.673
 4059SOL    HW113076   0.843   2.797   3.587
 4059SOL    HW213077   0.829   2.798   3.750
 4060SOL     OW13078   4.747   5.483   4.728
 4060SOL    HW113079   4.769   5.493   4.631
 4060SOL    HW213080   4.766   5.569   4.776
 4061SOL     OW13081   3.382   5.171   1.671
 4061SOL    HW113082   3.419   5.263   1.653
 4061SOL    HW213083   3.322   5.174   1.751
 4062SOL     OW13084   3.061   1.739   3.118
 4062SOL    HW113085   3.118   1.801   3.063
 4062SOL    HW213086   2.986   1.704   3.061
 4063SOL     OW13087   6.253   6.610   5.150
 4063SOL    HW113088   6.328   6.610   5.084
 4063SOL    HW213089   6.289   6.617   5.243
 4064SOL     OW13090   1.786   6.406   3.490
 4064SOL    HW113091   1.754   6.469   3.561
 4064SOL    HW213092   1.743   6.430   3.403
 4065SOL     OW13093   0.019   6.410   0.776
 4065SOL    HW113094   0.112   6.403   0.811
 4065SOL    HW213095   0.013   6.483   0.708
 4066SOL     OW13096   4.915   5.181   2.632
 4066SOL    HW113097   4.983   5.110   2.614
 4066SOL    HW213098   4.860   5.155   2.712
 4067SOL     OW13099   5.608   2.979   3.131
 4067SOL    HW113100   5.547   2.985   3.051
 4067SOL    HW213101   5.703   2.973   3.101
 4068SOL     OW13102   3.551   0.470   4.383
 4068SOL    HW113103   3.492   0.390   4.399
 4068SOL    HW213104   3.638   0.440   4.344
 4069SOL     OW13105   4.280   4.481   6.060
 4069SOL    HW113106   4.245   4.569   6.092
 4069SOL    HW213107   4.275   4.414   6.134
 4070SOL     OW13108   0.690   3.673   1.943
 4070SOL    HW113109   0.670   3.732   2.022
 4070SOL    HW213110   0.609   3.667   1.885
 4071SOL     OW13111   1.498   0.704   5.531
 4071SOL    HW113112   1.502   0.642   5.452
 4071SOL    HW213113   1.466   0.654   5.611
 4072SOL     OW13114   1.115   5.884   4.139
 4072SOL    HW113115   1.126   5.953   4.067
 4072SOL    HW213116   1.160   5.799   4.111
 4073SOL     OW13117   2.582   5.880   5.922
 4073SOL    HW113118   2.586   5.979   5.930
 4073SOL    HW213119   2.612   5.839   6.008
 4074SOL     OW13120   0.586   2.907   2.030
 4074SOL    HW113121   0.609   2.812   2.006
 4074SOL    HW213122   0.665   2.965   2.013
 4075SOL     OW13123   3.609   2.157   2.641
 4075SOL    HW113124   3.616   2.116   2.732
 4075SOL    HW213125   3.513   2.172   2.617
 4076SOL     OW13126   2.568   3.936   5.554
 4076SOL    HW113127   2.517   3.895   5.478
 4076SOL    HW213128   2.507   3.993   5.608
 4077SOL     OW13129   3.685   0.033   0.178
 4077SOL    HW113130   3.680   7.013   0.268
 4077SOL    HW213131   3.683   6.989   0.106
 4078SOL     OW13132   6.088   5.510   2.112
 4078SOL    HW113133   6.064   5.548   2.201
 4078SOL    HW213134   6.187   5.520   2.097
 4079SOL     OW13135   0.301   1.587   3.405
 4079SOL    HW113136   0.229   1.522   3.429
 4079SOL    HW213137   0.323   1.643   3.485
 4080SOL     OW13138   2.556   3.507   0.518
 4080SOL    HW113139   2.515   3.422   0.550
 4080SOL    HW213140   2.485   3.567   0.481
 4081SOL     OW13141   1.610   2.078   3.931
 4081SOL    HW113142   1.581   2.085   3.836
 4081SOL    HW213143   1.665   1.996   3.944
 4082SOL     OW13144   1.811   2.458   1.246
 4082SOL    HW113145   1.749   2.516   1.298
 4082SOL    HW213146   1.888   2.430   1.304
 4083SOL     OW13147   6.004   4.529   2.247
 4083SOL    HW113148   5.958   4.618   2.244
 4083SOL    HW213149   5.964   4.474   2.321
 4084SOL     OW13150   4.596   2.267   3.191
 4084SOL    HW113151   4.605   2.177   3.233
 4084SOL    HW213152   4.512   2.311   3.224
 4085SOL     OW13153   2.672   5.533   0.980
 4085SOL    HW113154   2.581   5.512   0.945
 4085SOL    HW213155   2.696   5.467   1.052
 4086SOL     OW13156   0.048   4.709   1.331
 4086SOL    HW113157   0.116   4.740   1.265
 4086SOL    HW213158   0.094   4.671   1.411
 4087SOL     OW13159   1.660   1.684   2.918
 4087SOL    HW113160   1.686   1.614   2.852
 4087SOL    HW213161   1.742   1.720   2.963
 4088SOL     OW13162   6.504   1.100   6.580
 4088SOL    HW113163   6.533   1.005   6.587
 4088SOL    HW213164   6.426   1.107   6.518
 4089SOL     OW13165   6.271   4.566   4.282
 4089SOL    HW113166   6.345   4.573   4.216
 4089SOL    HW213167   6.249   4.657   4.317
 4090SOL     OW13168   1.707   5.866   5.444
 4090SOL    HW113169   1.772   5.818   5.504
 4090SOL    HW213170   1.656   5.800   5.390
 4091SOL     OW13171   0.551   6.244   0.154
 4091SOL    HW113172   0.548   6.275   0.059
 4091SOL    HW213173   0.464   6.199   0.177
 4092SOL     OW13174   5.796   2.738   3.707
 4092SOL    HW113175   5.700   2.724   3.680
 4092SOL    HW213176   5.799   2.761   3.804
 4093SOL     OW13177   5.192   6.311   1.603
 4093SOL    HW113178   5.260   6.346   1.538
 4093SOL    HW213179   5.114   6.374   1.606
 4094SOL     OW13180   1.154   4.721   6.088
 4094SOL    HW113181   1.054   4.717   6.084
 4094SOL    HW213182   1.186   4.676   6.171
 4095SOL     OW13183   0.045   3.688   0.348
 4095SOL    HW113184   0.058   3.682   0.248
 4095SOL    HW213185   0.115   3.632   0.393
 4096SOL     OW13186   4.228   0.547   6.688
 4096SOL    HW113187   4.147   0.541   6.630
 4096SOL    HW213188   4.256   0.455   6.715
 4097SOL     OW13189   4.746   4.673   4.612
 4097SOL    HW113190   4.693   4.672   4.697
 4097SOL    HW213191   4.843   4.687   4.633
 4098SOL     OW13192   0.891   2.301   1.781
 4098SOL    HW113193   0.971   2.247   1.806
 4098SOL    HW213194   0.809   2.256   1.814
 4099SOL     OW13195   3.911   5.244   0.826
 4099SOL    HW113196   3.893   5.337   0.858
 4099SOL    HW213197   4.003   5.216   0.853
 4100SOL     OW13198   0.514   6.747   4.320
 4100SOL    HW113199   0.475   6.804   4.392
 4100SOL    HW213200   0.477   6.655   4.326
 4101SOL     OW13201   0.364   1.233   0.337
 4101SOL    HW113202   0.271   1.253   0.308
 4101SOL    HW213203   0.364   1.155   0.400
 4102SOL     OW13204   1.362   0.889   1.063
 4102SOL    HW113205   1.410   0.878   0.976
 4102SOL    HW213206   1.365   0.803   1.114
 4103SOL     OW13207   0.423   6.853   1.150
 4103SOL    HW113208   0.429   6.804   1.237
 4103SOL    HW213209   0.431   6.788   1.074
 4104SOL     OW13210   0.207   4.597   3.209
 4104SOL    HW113211   0.244   4.521   3.156
 4104SOL    HW213212   0.185   4.673   3.148
 4105SOL     OW13213   6.164   0.246   2.966
 4105SOL    HW113214   6.155   0.337   2.927
 4105SOL    HW213215   6.074   0.214   2.997
 4106SOL     OW13216   0.112   3.118   3.455
 4106SOL    HW113217   0.135   3.207   3.415
 4106SOL    HW213218   0.053   3.132   3.534
 4107SOL     OW13219   1.424   5.668   0.686
 4107SOL    HW113220   1.375   5.732   0.744
 4107SOL    HW213221   1.521   5.668   0.710
 4108SOL     OW13222   6.541   4.835   4.415
 4108SOL    HW113223   6.589   4.922   4.425
 4108SOL    HW213224   6.607   4.760   4.417
 4109SOL     OW13225   6.655   0.302   4.746
 4109SOL    HW113226   6.642   0.219   4.800
 4109SOL    HW213227   6.569   0.329   4.704
 4110SOL     OW13228   4.269   3.633   6.146
 4110SOL    HW113229   4.297   3.729   6.147
 4110SOL    HW213230   4.214   3.615   6.064
 4111SOL     OW13231   5.822   4.593   6.411
 4111SOL    HW113232   5.905   4.605   6.356
 4111SOL    HW213233   5.782   4.503   6.391
 4112SOL     OW13234   4.913   6.193   4.768
 4112SOL    HW113235   4.877   6.272   4.718
 4112SOL    HW213236   4.956   6.225   4.853
 4113SOL     OW13237   5.312   5.592   5.161
 4113SOL    HW113238   5.358   5.641   5.234
 4113SOL    HW213239   5.260   5.515   5.200
 4114SOL     OW13240   4.037   2.026   3.880
 4114SOL    HW113241   4.060   1.929   3.895
 4114SOL    HW213242   4.117   2.082   3.902
 4115SOL     OW13243   3.326   4.943   2.300
 4115SOL    HW113244   3.275   4.920   2.217
 4115SOL    HW213245   3.294   4.885   2.375
 4116SOL     OW13246   4.186   1.655   3.153
 4116SOL    HW113247   4.264   1.593   3.163
 4116SOL    HW213248   4.115   1.631   3.219
 4117SOL     OW13249   0.739   3.703   2.560
 4117SOL    HW113250   0.649   3.684   2.597
 4117SOL    HW213251   0.764   3.632   2.493
 4118SOL     OW13252   5.192   6.586   0.457
 4118SOL    HW113253   5.223   6.554   0.368
 4118SOL    HW213254   5.099   6.622   0.449
 4119SOL     OW13255   2.895   1.315   4.112
 4119SOL    HW113256   2.798   1.330   4.093
 4119SOL    HW213257   2.912   1.329   4.210
 4120SOL     OW13258   3.669   0.968   5.581
 4120SOL    HW113259   3.693   1.016   5.497
 4120SOL    HW213260   3.752   0.936   5.626
 4121SOL     OW13261   6.656   0.122   3.698
 4121SOL    HW113262   6.691   0.192   3.760
 4121SOL    HW213263   6.666   0.153   3.604
 4122SOL     OW13264   1.455   6.794   4.437
 4122SOL    HW113265   1.480   6.853   4.513
 4122SOL    HW213266   1.376   6.738   4.463
 4123SOL     OW13267   4.242   4.587   5.311
 4123SOL    HW113268   4.153   4.610   5.348
 4123SOL    HW213269   4.235   4.505   5.253
 4124SOL     OW13270   6.497   6.257   0.426
 4124SOL    HW113271   6.541   6.346   0.408
 4124SOL    HW213272   6.416   6.271   0.482
 4125SOL     OW13273   4.352   2.142   2.753
 4125SOL    HW113274   4.425   2.074   2.755
 4125SOL    HW213275   4.384   2.225   2.708
 4126SOL     OW13276   1.609   3.104   3.358
 4126SOL    HW113277   1.661   3.019   3.349
 4126SOL    HW213278   1.669   3.182   3.342
 4127SOL     OW13279   5.688   3.493   5.278
 4127SOL    HW113280   5.746   3.509   5.197
 4127SOL    HW213281   5.705   3.566   5.345
 4128SOL     OW13282   0.858   3.160   1.422
 4128SOL    HW113283   0.921   3.237   1.436
 4128SOL    HW213284   0.774   3.193   1.381
 4129SOL     OW13285   3.234   0.868   6.737
 4129SOL    HW113286   3.313   0.812   6.761
 4129SOL    HW213287   3.262   0.939   6.673
 4130SOL     OW13288   6.487   2.531   0.781
 4130SOL    HW113289   6.491   2.520   0.682
 4130SOL    HW213290   6.442   2.617   0.803
 4131SOL     OW13291   0.419   1.250   3.116
 4131SOL    HW113292   0.471   1.297   3.187
 4131SOL    HW213293   0.413   1.309   3.035
 4132SOL     OW13294   4.914   4.218   3.695
 4132SOL    HW113295   4.924   4.119   3.697
 4132SOL    HW213296   4.817   4.242   3.697
 4133SOL     OW13297   3.512   6.042   1.636
 4133SOL    HW113298   3.547   6.031   1.729
 4133SOL    HW213299   3.447   6.117   1.633
 4134SOL     OW13300   2.154   3.829   1.134
 4134SOL    HW113301   2.251   3.810   1.148
 4134SOL    HW213302   2.099   3.761   1.182
 4135SOL     OW13303   0.445   2.150   2.233
 4135SOL    HW113304   0.378   2.154   2.308
 4135SOL    HW213305   0.495   2.236   2.229
 4136SOL     OW13306   1.301   3.309   3.001
 4136SOL    HW113307   1.356   3.329   3.082
 4136SOL    HW213308   1.263   3.218   3.008
 4137SOL     OW13309   1.536   3.424   1.174
 4137SOL    HW113310   1.589   3.397   1.254
 4137SOL    HW213311   1.595   3.473   1.109
 4138SOL     OW13312   4.215   5.682   2.430
 4138SOL    HW113313   4.312   5.702   2.441
 4138SOL    HW213314   4.179   5.644   2.516
 4139SOL     OW13315   1.828   1.244   5.444
 4139SOL    HW113316   1.781   1.273   5.361
 4139SOL    HW213317   1.921   1.282   5.446
 4140SOL     OW13318   3.680   0.786   5.234
 4140SOL    HW113319   3.682   0.792   5.135
 4140SOL    HW213320   3.700   0.875   5.274
 4141SOL     OW13321   4.959   6.027   1.179
 4141SOL    HW113322   5.019   6.047   1.256
 4141SOL    HW213323   4.958   6.105   1.116
 4142SOL     OW13324   6.414   4.879   1.155
 4142SOL    HW113325   6.419   4.890   1.055
 4142SOL    HW213326   6.506   4.860   1.190
 4143SOL     OW13327   5.691   2.563   1.232
 4143SOL    HW113328   5.597   2.588   1.209
 4143SOL    HW213329   5.691   2.497   1.307
 4144SOL     OW13330   5.107   1.671   0.239
 4144SOL    HW113331   5.110   1.770   0.248
 4144SOL    HW213332   5.186   1.631   0.285
 4145SOL     OW13333   0.213   6.519   1.619
 4145SOL    HW113334   0.201   6.555   1.711
 4145SOL    HW213335   0.160   6.435   1.608
 4146SOL     OW13336   6.631   0.186   3.445
 4146SOL    HW113337   6.540   0.160   3.413
 4146SOL    HW213338   6.700   0.137   3.391
 4147SOL     OW13339   4.475   4.959   5.782
 4147SOL    HW113340   4.546   4.889   5.775
 4147SOL    HW213341   4.450   4.991   5.690
 4148SOL     OW13342   2.536   0.093   4.537
 4148SOL    HW113343   2.489   0.079   4.450
 4148SOL    HW213344   2.628   0.054   4.531
 4149SOL     OW13345   0.259   4.184   1.677
 4149SOL    HW113346   0.343   4.172   1.625
 4149SOL    HW213347   0.281   4.201   1.773
 4150SOL     OW13348   1.345   0.907   5.898
 4150SOL    HW113349   1.321   0.824   5.948
 4150SOL    HW213350   1.284   0.916   5.819
 4151SOL     OW13351   3.296   6.234   5.760
 4151SOL    HW113352   3.304   6.230   5.859
 4151SOL    HW213353   3.247   6.317   5.734
 4152SOL     OW13354   4.293   5.845   1.473
 4152SOL    HW113355   4.252   5.866   1.385
 4152SOL    HW213356   4.292   5.926   1.531
 4153SOL     OW13357   5.584   5.362   1.273
 4153SOL    HW113358   5.624   5.282   1.228
 4153SOL    HW213359   5.643   5.391   1.348
 4154SOL     OW13360   6.912   5.088   4.263
 4154SOL    HW113361   6.952   5.075   4.354
 4154SOL    HW213362   6.944   5.174   4.225
 4155SOL     OW13363   7.003   0.845   1.258
 4155SOL    HW113364   0.077   0.854   1.255
 4155SOL    HW213365   6.963   0.930   1.294
 4156SOL     OW13366   6.001   5.943   5.023
 4156SOL    HW113367   5.929   6.002   5.060
 4156SOL    HW213368   6.018   5.967   4.928
 4157SOL     OW13369   5.154   5.869   4.520
 4157SOL    HW113370   5.088   5.797   4.539
 4157SOL    HW213371   5.145   5.899   4.425
 4158SOL     OW13372   0.867   2.935   1.903
 4158SOL    HW113373   0.926   2.856   1.919
 4158SOL    HW213374   0.859   2.952   1.805
 4159SOL     OW13375   1.616   2.990   2.885
 4159SOL    HW113376   1.680   2.923   2.847
 4159SOL    HW213377   1.587   2.961   2.976
 4160SOL     OW13378   5.223   0.876   0.169
 4160SOL    HW113379   5.219   0.955   0.230
 4160SOL    HW213380   5.154   0.809   0.198
 4161SOL     OW13381   0.966   2.230   0.794
 4161SOL    HW113382   0.963   2.257   0.890
 4161SOL    HW213383   1.062   2.223   0.764
 4162SOL     OW13384   6.504   5.879   0.200
 4162SOL    HW113385   6.544   5.952   0.144
 4162SOL    HW213386   6.477   5.916   0.289
 4163SOL     OW13387   5.197   0.335   3.483
 4163SOL    HW113388   5.130   0.349   3.555
 4163SOL    HW213389   5.190   0.242   3.447
 4164SOL     OW13390   1.921   6.602   5.619
 4164SOL    HW113391   1.913   6.502   5.620
 4164SOL    HW213392   1.962   6.633   5.705
 4165SOL     OW13393   4.658   0.523   6.012
 4165SOL    HW113394   4.738   0.540   5.956
 4165SOL    HW213395   4.646   0.598   6.077
 4166SOL     OW13396   5.600   1.550   0.425
 4166SOL    HW113397   5.648   1.463   0.418
 4166SOL    HW213398   5.504   1.537   0.401
 4167SOL     OW13399   2.385   4.800   6.544
 4167SOL    HW113400   2.411   4.706   6.526
 4167SOL    HW213401   2.460   4.848   6.589
 4168SOL     OW13402   0.181   4.186   1.418
 4168SOL    HW113403   0.187   4.113   1.487
 4168SOL    HW213404   0.238   4.162   1.339
 4169SOL     OW13405   5.614   5.494   4.939
 4169SOL    HW113406   5.625   5.395   4.930
 4169SOL    HW213407   5.517   5.518   4.935
 4170SOL     OW13408   4.667   3.281   6.609
 4170SOL    HW113409   4.594   3.265   6.542
 4170SOL    HW213410   4.673   3.202   6.670
 4171SOL     OW13411   6.309   5.833   0.655
 4171SOL    HW113412   6.310   5.895   0.734
 4171SOL    HW213413   6.218   5.793   0.645
 4172SOL     OW13414   1.555   2.199   6.167
 4172SOL    HW113415   1.466   2.173   6.131
 4172SOL    HW213416   1.545   2.275   6.230
 4173SOL     OW13417   5.029   3.804   4.696
 4173SOL    HW113418   5.003   3.711   4.724
 4173SOL    HW213419   4.966   3.837   4.626
 4174SOL     OW13420   4.621   1.377   2.684
 4174SOL    HW113421   4.599   1.474   2.681
 4174SOL    HW213422   4.574   1.330   2.609
 4175SOL     OW13423   1.963   5.287   4.591
 4175SOL    HW113424   2.032   5.283   4.664
 4175SOL    HW213425   2.004   5.258   4.505
 4176SOL     OW13426   3.358   5.996   2.088
 4176SOL    HW113427   3.289   5.935   2.049
 4176SOL    HW213428   3.314   6.062   2.149
 4177SOL     OW13429   6.031   5.420   5.418
 4177SOL    HW113430   5.994   5.345   5.363
 4177SOL    HW213431   6.130   5.409   5.428
 4178SOL     OW13432   3.908   6.553   4.291
 4178SOL    HW113433   3.892   6.465   4.246
 4178SOL    HW213434   3.863   6.626   4.240
 4179SOL     OW13435   5.488   3.203   3.214
 4179SOL    HW113436   5.389   3.203   3.229
 4179SOL    HW213437   5.520   3.109   3.207
 4180SOL     OW13438   4.301   3.809   0.462
 4180SOL    HW113439   4.351   3.894   0.479
 4180SOL    HW213440   4.297   3.792   0.364
 4181SOL     OW13441   3.535   0.914   0.131
 4181SOL    HW113442   3.629   0.932   0.102
 4181SOL    HW213443   3.488   1.001   0.149
 4182SOL     OW13444   0.733   6.156   3.343
 4182SOL    HW113445   0.711   6.161   3.246
 4182SOL    HW213446   0.819   6.107   3.355
 4183SOL     OW13447   2.935   1.400   0.088
 4183SOL    HW113448   2.953   1.416   7.016
 4183SOL    HW213449   2.983   1.469   0.143
 4184SOL     OW13450   3.834   6.385   2.193
 4184SOL    HW113451   3.840   6.287   2.178
 4184SOL    HW213452   3.922   6.428   2.170
 4185SOL     OW13453   0.902   4.721   3.068
 4185SOL    HW113454   0.990   4.712   3.022
 4185SOL    HW213455   0.895   4.653   3.140
 4186SOL     OW13456   2.816   4.731   0.222
 4186SOL    HW113457   2.870   4.684   0.152
 4186SOL    HW213458   2.725   4.692   0.226
 4187SOL     OW13459   3.956   3.505   5.164
 4187SOL    HW113460   3.920   3.478   5.254
 4187SOL    HW213461   3.900   3.579   5.127
 4188SOL     OW13462   5.508   0.835   5.162
 4188SOL    HW113463   5.418   0.851   5.203
 4188SOL    HW213464   5.579   0.871   5.223
 4189SOL     OW13465   3.533   4.958   5.290
 4189SOL    HW113466   3.609   4.897   5.271
 4189SOL    HW213467   3.541   5.039   5.231
 4190SOL     OW13468   0.711   0.366   0.590
 4190SOL    HW113469   0.658   0.344   0.508
 4190SOL    HW213470   0.731   0.282   0.640
 4191SOL     OW13471   4.885   4.623   3.858
 4191SOL    HW113472   4.928   4.710   3.883
 4191SOL    HW213473   4.812   4.639   3.792
 4192SOL     OW13474   0.791   1.093   4.063
 4192SOL    HW113475   0.706   1.141   4.087
 4192SOL    HW213476   0.787   1.063   3.968
 4193SOL     OW13477   6.917   1.384   1.465
 4193SOL    HW113478   6.858   1.411   1.541
 4193SOL    HW213479   6.997   1.337   1.500
 4194SOL     OW13480   5.904   0.215   4.281
 4194SOL    HW113481   5.956   0.171   4.208
 4194SOL    HW213482   5.966   0.237   4.357
 4195SOL     OW13483   3.841   6.722   1.343
 4195SOL    HW113484   3.880   6.792   1.403
 4195SOL    HW213485   3.856   6.747   1.247
 4196SOL     OW13486   5.946   2.140   2.412
 4196SOL    HW113487   5.968   2.141   2.510
 4196SOL    HW213488   5.905   2.052   2.388
 4197SOL     OW13489   4.840   5.272   5.848
 4197SOL    HW113490   4.893   5.272   5.932
 4197SOL    HW213491   4.746   5.241   5.867
 4198SOL     OW13492   6.104   2.074   6.775
 4198SOL    HW113493   6.164   2.076   6.855
 4198SOL    HW213494   6.030   2.008   6.790
 4199SOL     OW13495   1.880   2.682   6.279
 4199SOL    HW113496   1.827   2.754   6.324
 4199SOL    HW213497   1.884   2.602   6.338
 4200SOL     OW13498   3.632   0.569   5.903
 4200SOL    HW113499   3.604   0.632   5.974
 4200SOL    HW213500   3.609   0.607   5.813
 4201SOL     OW13501   6.401   0.174   3.770
 4201SOL    HW113502   6.342   0.135   3.699
 4201SOL    HW213503   6.496   0.152   3.749
 4202SOL     OW13504   3.707   5.832   4.951
 4202SOL    HW113505   3.683   5.921   4.912
 4202SOL    HW213506   3.738   5.771   4.878
 4203SOL     OW13507   3.866   5.040   6.794
 4203SOL    HW113508   3.855   5.117   6.857
 4203SOL    HW213509   3.942   4.983   6.824
 4204SOL     OW13510   4.085   3.700   3.288
 4204SOL    HW113511   4.137   3.714   3.204
 4204SOL    HW213512   4.041   3.785   3.315
 4205SOL     OW13513   3.966   5.906   3.132
 4205SOL    HW113514   3.992   5.812   3.155
 4205SOL    HW213515   3.892   5.904   3.065
 4206SOL     OW13516   6.916   0.494   5.816
 4206SOL    HW113517   6.926   0.526   5.722
 4206SOL    HW213518   7.002   0.507   5.865
 4207SOL     OW13519   2.020   2.106   1.276
 4207SOL    HW113520   1.953   2.086   1.204
 4207SOL    HW213521   2.031   2.205   1.284
 4208SOL     OW13522   6.960   2.801   5.459
 4208SOL    HW113523   7.013   2.803   5.374
 4208SOL    HW213524   7.015   2.762   5.532
 4209SOL     OW13525   0.294   0.117   3.795
 4209SOL    HW113526   0.318   0.074   3.707
 4209SOL    HW213527   0.212   0.073   3.831
 4210SOL     OW13528   3.378   3.407   2.363
 4210SOL    HW113529   3.326   3.325   2.389
 4210SOL    HW213530   3.352   3.434   2.270
 4211SOL     OW13531   4.746   6.172   6.518
 4211SOL    HW113532   4.810   6.097   6.534
 4211SOL    HW213533   4.791   6.244   6.465
 4212SOL     OW13534   6.099   1.698   2.667
 4212SOL    HW113535   6.074   1.619   2.611
 4212SOL    HW213536   6.017   1.747   2.695
 4213SOL     OW13537   1.619   1.056   1.332
 4213SOL    HW113538   1.578   1.027   1.418
 4213SOL    HW213539   1.671   0.980   1.293
 4214SOL     OW13540   0.851   5.037   4.965
 4214SOL    HW113541   0.927   4.988   4.922
 4214SOL    HW213542   0.880   5.077   5.051
 4215SOL     OW13543   5.737   0.013   6.010
 4215SOL    HW113544   5.803   6.992   5.951
 4215SOL    HW213545   5.786   0.061   6.083
 4216SOL     OW13546   1.180   1.624   2.574
 4216SOL    HW113547   1.097   1.584   2.613
 4216SOL    HW213548   1.156   1.694   2.508
 4217SOL     OW13549   1.066   0.259   2.224
 4217SOL    HW113550   1.076   0.251   2.323
 4217SOL    HW213551   0.969   0.258   2.200
 4218SOL     OW13552   4.340   0.786   1.288
 4218SOL    HW113553   4.363   0.696   1.324
 4218SOL    HW213554   4.268   0.826   1.344
 4219SOL     OW13555   3.852   5.543   3.870
 4219SOL    HW113556   3.835   5.472   3.801
 4219SOL    HW213557   3.837   5.506   3.961
 4220SOL     OW13558   6.102   2.605   3.879
 4220SOL    HW113559   6.050   2.582   3.961
 4220SOL    HW213560   6.048   2.583   3.798
 4221SOL     OW13561   5.805   4.715   6.639
 4221SOL    HW113562   5.736   4.676   6.699
 4221SOL    HW213563   5.801   4.670   6.550
 4222SOL     OW13564   6.974   2.064   2.794
 4222SOL    HW113565   6.952   2.152   2.835
 4222SOL    HW213566   6.892   2.023   2.755
 4223SOL     OW13567   3.885   3.192   6.293
 4223SOL    HW113568   3.810   3.134   6.325
 4223SOL    HW213569   3.892   3.273   6.351
 4224SOL     OW13570   5.389   3.784   4.034
 4224SOL    HW113571   5.361   3.690   4.051
 4224SOL    HW213572   5.311   3.838   4.004
 4225SOL     OW13573   4.060   1.199   5.509
 4225SOL    HW113574   4.156   1.196   5.479
 4225SOL    HW213575   4.046   1.134   5.583
 4226SOL     OW13576   1.114   0.495   2.092
 4226SOL    HW113577   1.129   0.409   2.140
 4226SOL    HW213578   1.174   0.566   2.130
 4227SOL     OW13579   3.798   4.887   1.000
 4227SOL    HW113580   3.768   4.811   0.943
 4227SOL    HW213581   3.748   4.970   0.974
 4228SOL     OW13582   0.552   4.341   4.707
 4228SOL    HW113583   0.465   4.382   4.679
 4228SOL    HW213584   0.576   4.268   4.644
 4229SOL     OW13585   5.084   5.459   5.700
 4229SOL    HW113586   5.137   5.398   5.641
 4229SOL    HW213587   4.998   5.415   5.725
 4230SOL     OW13588   1.725   6.275   2.665
 4230SOL    HW113589   1.803   6.337   2.660
 4230SOL    HW213590   1.758   6.180   2.664
 4231SOL     OW13591   5.790   6.909   5.660
 4231SOL    HW113592   5.869   6.930   5.718
 4231SOL    HW213593   5.706   6.915   5.714
 4232SOL     OW13594   6.896   4.920   2.508
 4232SOL    HW113595   6.873   5.011   2.471
 4232SOL    HW213596   6.817   4.884   2.557
 4233SOL     OW13597   0.052   0.895   6.511
 4233SOL    HW113598   0.038   0.865   6.606
 4233SOL    HW213599   7.010   0.850   6.452
 4234SOL     OW13600   2.542   6.646   5.311
 4234SOL    HW113601   2.610   6.579   5.340
 4234SOL    HW213602   2.491   6.610   5.233
 4235SOL     OW13603   5.665   3.851   5.735
 4235SOL    HW113604   5.735   3.902   5.784
 4235SOL    HW213605   5.608   3.915   5.683
 4236SOL     OW13606   5.983   3.840   2.879
 4236SOL    HW113607   5.960   3.748   2.849
 4236SOL    HW213608   5.974   3.847   2.978
 4237SOL     OW13609   5.594   5.820   2.033
 4237SOL    HW113610   5.675   5.761   2.031
 4237SOL    HW213611   5.622   5.914   2.055
 4238SOL     OW13612   2.956   5.548   3.027
 4238SOL    HW113613   2.922   5.456   3.049
 4238SOL    HW213614   2.976   5.554   2.930
 4239SOL     OW13615   5.676   1.548   3.169
 4239SOL    HW113616   5.579   1.567   3.179
 4239SOL    HW213617   5.690   1.476   3.102
 4240SOL     OW13618   2.241   6.512   6.905
 4240SOL    HW113619   2.180   6.572   6.854
 4240SOL    HW213620   2.292   6.565   6.973
 4241SOL     OW13621   6.295   1.165   0.093
 4241SOL    HW113622   6.316   1.162   7.021
 4241SOL    HW213623   6.347   1.094   0.140
 4242SOL     OW13624   2.721   0.985   3.990
 4242SOL    HW113625   2.814   0.953   3.973
 4242SOL    HW213626   2.655   0.916   3.961
 4243SOL     OW13627   6.549   3.055   3.256
 4243SOL    HW113628   6.597   3.112   3.189
 4243SOL    HW213629   6.543   2.961   3.221
 4244SOL     OW13630   4.358   4.151   1.210
 4244SOL    HW113631   4.352   4.054   1.184
 4244SOL    HW213632   4.267   4.187   1.227
 4245SOL     OW13633   0.486   1.630   6.411
 4245SOL    HW113634   0.392   1.623   6.377
 4245SOL    HW213635   0.549   1.627   6.333
 4246SOL     OW13636   6.966   3.960   3.083
 4246SOL    HW113637   0.010   4.031   3.070
 4246SOL    HW213638   6.977   3.920   3.174
 4247SOL     OW13639   2.951   5.090   3.460
 4247SOL    HW113640   3.038   5.117   3.419
 4247SOL    HW213641   2.965   5.007   3.514
 4248SOL     OW13642   2.390   1.877   3.585
 4248SOL    HW113643   2.430   1.789   3.612
 4248SOL    HW213644   2.459   1.949   3.595
 4249SOL     OW13645   5.461   2.360   3.919
 4249SOL    HW113646   5.560   2.351   3.913
 4249SOL    HW213647   5.426   2.397   3.833
 4250SOL     OW13648   6.310   5.417   2.901
 4250SOL    HW113649   6.248   5.416   2.823
 4250SOL    HW213650   6.298   5.334   2.955
 4251SOL     OW13651   5.767   4.461   1.791
 4251SOL    HW113652   5.791   4.378   1.740
 4251SOL    HW213653   5.842   4.483   1.854
 4252SOL     OW13654   5.578   0.257   6.404
 4252SOL    HW113655   5.565   0.188   6.333
 4252SOL    HW213656   5.641   0.222   6.473
 4253SOL     OW13657   2.973   6.934   1.291
 4253SOL    HW113658   3.001   7.023   1.256
 4253SOL    HW213659   2.944   6.876   1.215
 4254SOL     OW13660   1.135   3.779   1.691
 4254SOL    HW113661   1.219   3.828   1.715
 4254SOL    HW213662   1.062   3.845   1.674
 4255SOL     OW13663   0.191   4.287   4.198
 4255SOL    HW113664   0.117   4.222   4.214
 4255SOL    HW213665   0.211   4.336   4.283
 4256SOL     OW13666   1.913   6.096   0.761
 4256SOL    HW113667   1.964   6.043   0.694
 4256SOL    HW213668   1.974   6.123   0.835
 4257SOL     OW13669   2.643   0.647   4.211
 4257SOL    HW113670   2.712   0.654   4.283
 4257SOL    HW213671   2.562   0.700   4.236
 4258SOL     OW13672   3.949   5.979   1.021
 4258SOL    HW113673   3.929   5.911   0.951
 4258SOL    HW213674   4.047   5.999   1.021
 4259SOL     OW13675   2.349   0.966   1.044
 4259SOL    HW113676   2.298   1.019   0.976
 4259SOL    HW213677   2.443   0.951   1.010
 4260SOL     OW13678   5.444   0.275   1.533
 4260SOL    HW113679   5.470   0.245   1.442
 4260SOL    HW213680   5.511   0.242   1.600
 4261SOL     OW13681   2.500   0.034   2.929
 4261SOL    HW113682   2.583   0.045   2.985
 4261SOL    HW213683   2.510   0.086   2.844
 4262SOL     OW13684   0.656   4.278   6.574
 4262SOL    HW113685   0.585   4.283   6.503
 4262SOL    HW213686   0.613   4.273   6.664
 4263SOL     OW13687   2.964   0.345   3.167
 4263SOL    HW113688   2.946   0.443   3.154
 4263SOL    HW213689   2.882   0.302   3.205
 4264SOL     OW13690   6.286   1.907   2.658
 4264SOL    HW113691   6.236   1.821   2.665
 4264SOL    HW213692   6.271   1.960   2.741
 4265SOL     OW13693   4.514   1.554   1.217
 4265SOL    HW113694   4.501   1.468   1.266
 4265SOL    HW213695   4.447   1.561   1.143
 4266SOL     OW13696   1.764   5.389   6.496
 4266SOL    HW113697   1.780   5.431   6.585
 4266SOL    HW213698   1.852   5.362   6.456
 4267SOL     OW13699   2.009   3.198   3.484
 4267SOL    HW113700   2.034   3.227   3.391
 4267SOL    HW213701   2.057   3.255   3.551
 4268SOL     OW13702   1.332   6.134   6.546
 4268SOL    HW113703   1.426   6.112   6.519
 4268SOL    HW213704   1.300   6.065   6.611
 4269SOL     OW13705   2.906   0.653   2.532
 4269SOL    HW113706   2.855   0.683   2.451
 4269SOL    HW213707   2.890   0.717   2.607
 4270SOL     OW13708   3.929   3.494   3.145
 4270SOL    HW113709   3.985   3.554   3.202
 4270SOL    HW213710   3.904   3.543   3.060
 4271SOL     OW13711   6.630   1.050   0.103
 4271SOL    HW113712   6.609   1.138   0.146
 4271SOL    HW213713   6.668   1.066   0.012
 4272SOL     OW13714   6.841   2.232   4.254
 4272SOL    HW113715   6.907   2.202   4.324
 4272SOL    HW213716   6.791   2.312   4.289
 4273SOL     OW13717   4.776   6.736   4.769
 4273SOL    HW113718   4.801   6.751   4.864
 4273SOL    HW213719   4.677   6.744   4.758
 4274SOL     OW13720   0.825   6.619   1.489
 4274SOL    HW113721   0.808   6.559   1.412
 4274SOL    HW213722   0.923   6.642   1.492
 4275SOL     OW13723   6.754   1.968   4.449
 4275SOL    HW113724   6.660   1.982   4.419
 4275SOL    HW213725   6.781   2.043   4.510
 4276SOL     OW13726   1.603   5.388   3.867
 4276SOL    HW113727   1.526   5.327   3.847
 4276SOL    HW213728   1.648   5.413   3.782
 4277SOL     OW13729   6.239   4.652   3.020
 4277SOL    HW113730   6.160   4.702   2.984
 4277SOL    HW213731   6.308   4.643   2.948
 4278SOL     OW13732   6.807   0.061   5.402
 4278SOL    HW113733   6.827   0.074   5.305
 4278SOL    HW213734   6.712   0.086   5.420
 4279SOL     OW13735   3.355   0.580   4.034
 4279SOL    HW113736   3.346   0.481   4.022
 4279SOL    HW213737   3.450   0.603   4.057
 4280SOL     OW13738   4.869   0.636   5.606
 4280SOL    HW113739   4.849   0.614   5.511
 4280SOL    HW213740   4.967   0.637   5.621
 4281SOL     OW13741   0.003   4.513   3.376
 4281SOL    HW113742   0.083   4.523   3.317
 4281SOL    HW213743   0.007   4.425   3.423
 4282SOL     OW13744   3.497   4.099   6.032
 4282SOL    HW113745   3.458   4.046   6.108
 4282SOL    HW213746   3.494   4.045   5.948
 4283SOL     OW13747   1.333   0.508   3.154
 4283SOL    HW113748   1.338   0.423   3.101
 4283SOL    HW213749   1.396   0.575   3.116
 4284SOL     OW13750   4.110   4.638   1.215
 4284SOL    HW113751   4.036   4.586   1.173
 4284SOL    HW213752   4.100   4.735   1.193
 4285SOL     OW13753   2.042   0.480   5.658
 4285SOL    HW113754   2.096   0.430   5.725
 4285SOL    HW213755   2.082   0.570   5.643
 4286SOL     OW13756   4.837   6.645   5.822
 4286SOL    HW113757   4.905   6.648   5.750
 4286SOL    HW213758   4.806   6.551   5.835
 4287SOL     OW13759   5.772   1.090   6.084
 4287SOL    HW113760   5.821   1.050   6.006
 4287SOL    HW213761   5.674   1.076   6.072
 4288SOL     OW13762   7.020   5.495   3.744
 4288SOL    HW113763   6.934   5.453   3.713
 4288SOL    HW213764   0.069   5.466   3.685
 4289SOL     OW13765   6.972   2.940   6.341
 4289SOL    HW113766   7.025   3.013   6.384
 4289SOL    HW213767   6.906   2.903   6.407
 4290SOL     OW13768   1.295   6.256   3.923
 4290SOL    HW113769   1.311   6.270   4.021
 4290SOL    HW213770   1.206   6.294   3.898
 4291SOL     OW13771   4.739   3.603   0.467
 4291SOL    HW113772   4.819   3.630   0.521
 4291SOL    HW213773   4.708   3.680   0.412
 4292SOL     OW13774   5.636   3.093   0.414
 4292SOL    HW113775   5.538   3.110   0.405
 4292SOL    HW213776   5.672   3.143   0.493
 4293SOL     OW13777   2.757   2.668   0.408
 4293SOL    HW113778   2.729   2.634   0.319
 4293SOL    HW213779   2.680   2.713   0.453
 4294SOL     OW13780   2.007   2.095   0.037
 4294SOL    HW113781   1.963   2.183   0.052
 4294SOL    HW213782   2.080   2.082   0.105
 4295SOL     OW13783   3.804   5.693   4.745
 4295SOL    HW113784   3.826   5.770   4.686
 4295SOL    HW213785   3.888   5.641   4.764
 4296SOL     OW13786   2.676   6.902   0.947
 4296SOL    HW113787   2.687   6.843   0.867
 4296SOL    HW213788   2.579   6.919   0.963
 4297SOL     OW13789   4.931   0.233   6.460
 4297SOL    HW113790   5.029   0.249   6.451
 4297SOL    HW213791   4.907   0.231   6.557
 4298SOL     OW13792   3.921   4.899   0.135
 4298SOL    HW113793   3.977   4.980   0.150
 4298SOL    HW213794   3.956   4.849   0.056
 4299SOL     OW13795   1.476   3.414   0.078
 4299SOL    HW113796   1.514   3.388   0.167
 4299SOL    HW213797   1.550   3.436   0.016
 4300SOL     OW13798   3.411   6.576   0.427
 4300SOL    HW113799   3.460   6.530   0.501
 4300SOL    HW213800   3.431   6.531   0.340
 4301SOL     OW13801   3.842   1.228   1.502
 4301SOL    HW113802   3.923   1.263   1.549
 4301SOL    HW213803   3.760   1.259   1.550
 4302SOL     OW13804   0.717   0.248   6.405
 4302SOL    HW113805   0.716   0.182   6.330
 4302SOL    HW213806   0.731   0.200   6.491
 4303SOL     OW13807   6.907   4.398   3.797
 4303SOL    HW113808   6.936   4.330   3.864
 4303SOL    HW213809   6.809   4.414   3.806
 4304SOL     OW13810   3.101   3.870   2.437
 4304SOL    HW113811   3.186   3.922   2.441
 4304SOL    HW213812   3.085   3.825   2.525
 4305SOL     OW13813   0.227   0.762   5.301
 4305SOL    HW113814   0.142   0.750   5.249
 4305SOL    HW213815   0.262   0.672   5.327
 4306SOL     OW13816   5.201   4.704   5.792
 4306SOL    HW113817   5.218   4.608   5.813
 4306SOL    HW213818   5.142   4.711   5.712
 4307SOL     OW13819   5.471   3.912   5.939
 4307SOL    HW113820   5.380   3.936   5.907
 4307SOL    HW213821   5.517   3.993   5.974
 4308SOL     OW13822   5.865   4.771   1.326
 4308SOL    HW113823   5.924   4.844   1.360
 4308SOL    HW213824   5.835   4.713   1.402
 4309SOL     OW13825   1.063   1.042   6.943
 4309SOL    HW113826   1.008   1.033   0.001
 4309SOL    HW213827   1.157   1.064   6.968
 4310SOL     OW13828   1.872   2.670   1.747
 4310SOL    HW113829   1.891   2.691   1.843
 4310SOL    HW213830   1.788   2.716   1.719
 4311SOL     OW13831   2.065   6.079   2.702
 4311SOL    HW113832   2.073   6.087   2.801
 4311SOL    HW213833   2.123   6.148   2.658
 4312SOL     OW13834   2.143   5.469   1.695
 4312SOL    HW113835   2.215   5.433   1.635
 4312SOL    HW213836   2.101   5.393   1.744
 4313SOL     OW13837   4.385   1.436   1.548
 4313SOL    HW113838   4.439   1.517   1.524
 4313SOL    HW213839   4.298   1.437   1.498
 4314SOL     OW13840   5.962   0.981   4.353
 4314SOL    HW113841   5.924   1.074   4.349
 4314SOL    HW213842   6.002   0.959   4.264
 4315SOL     OW13843   2.551   5.907   1.917
 4315SOL    HW113844   2.504   5.995   1.914
 4315SOL    HW213845   2.648   5.922   1.935
 4316SOL     OW13846   5.432   0.787   2.027
 4316SOL    HW113847   5.528   0.814   2.024
 4316SOL    HW213848   5.420   0.702   1.977
 4317SOL     OW13849   5.205   2.700   4.849
 4317SOL    HW113850   5.187   2.611   4.808
 4317SOL    HW213851   5.293   2.735   4.816
 4318SOL     OW13852   0.650   3.071   4.716
 4318SOL    HW113853   0.621   3.069   4.620
 4318SOL    HW213854   0.699   3.157   4.733
 4319SOL     OW13855   2.013   1.630   1.053
 4319SOL    HW113856   2.087   1.691   1.080
 4319SOL    HW213857   2.052   1.544   1.018
 4320SOL     OW13858   5.206   5.170   0.357
 4320SOL    HW113859   5.119   5.152   0.313
 4320SOL    HW213860   5.265   5.223   0.295
 4321SOL     OW13861   0.062   6.418   5.399
 4321SOL    HW113862   0.014   6.363   5.467
 4321SOL    HW213863   0.041   6.515   5.414
 4322SOL     OW13864   6.425   2.732   6.934
 4322SOL    HW113865   6.471   2.654   6.892
 4322SOL    HW213866   6.383   2.788   6.863
 4323SOL     OW13867   4.563   3.848   0.599
 4323SOL    HW113868   4.528   3.760   0.632
 4323SOL    HW213869   4.657   3.860   0.631
 4324SOL     OW13870   5.990   3.801   6.567
 4324SOL    HW113871   5.952   3.739   6.499
 4324SOL    HW213872   5.982   3.760   6.658
 4325SOL     OW13873   2.137   1.340   1.622
 4325SOL    HW113874   2.200   1.315   1.549
 4325SOL    HW213875   2.047   1.301   1.604
 4326SOL     OW13876   4.641   4.880   3.811
 4326SOL    HW113877   4.723   4.857   3.758
 4326SOL    HW213878   4.667   4.931   3.893
 4327SOL     OW13879   5.801   6.146   1.612
 4327SOL    HW113880   5.785   6.058   1.655
 4327SOL    HW213881   5.865   6.200   1.667
 4328SOL     OW13882   4.491   3.393   5.680
 4328SOL    HW113883   4.408   3.370   5.629
 4328SOL    HW213884   4.539   3.309   5.705
 4329SOL     OW13885   4.408   1.803   5.790
 4329SOL    HW113886   4.353   1.819   5.871
 4329SOL    HW213887   4.417   1.704   5.775
 4330SOL     OW13888   2.003   6.107   4.497
 4330SOL    HW113889   2.092   6.148   4.520
 4330SOL    HW213890   1.977   6.043   4.569
 4331SOL     OW13891   5.440   1.937   1.933
 4331SOL    HW113892   5.511   1.883   1.888
 4331SOL    HW213893   5.429   1.906   2.027
 4332SOL     OW13894   5.233   3.374   1.861
 4332SOL    HW113895   5.329   3.400   1.865
 4332SOL    HW213896   5.207   3.355   1.766
 4333SOL     OW13897   3.868   1.014   5.936
 4333SOL    HW113898   3.775   1.036   5.966
 4333SOL    HW213899   3.926   1.000   6.017
 4334SOL     OW13900   1.822   2.333   3.048
 4334SOL    HW113901   1.782   2.244   3.024
 4334SOL    HW213902   1.752   2.389   3.093
 4335SOL     OW13903   3.498   3.920   2.692
 4335SOL    HW113904   3.433   3.858   2.737
 4335SOL    HW213905   3.448   3.985   2.635
 4336SOL     OW13906   3.389   6.650   6.304
 4336SOL    HW113907   3.326   6.728   6.303
 4336SOL    HW213908   3.463   6.669   6.369
 4337SOL     OW13909   0.849   4.291   0.689
 4337SOL    HW113910   0.909   4.358   0.733
 4337SOL    HW213911   0.756   4.328   0.686
 4338SOL     OW13912   6.266   0.076   5.606
 4338SOL    HW113913   6.213   0.160   5.615
 4338SOL    HW213914   6.363   0.100   5.596
 4339SOL     OW13915   5.580   3.411   5.613
 4339SOL    HW113916   5.641   3.332   5.604
 4339SOL    HW213917   5.530   3.424   5.528
 4340SOL     OW13918   6.249   3.154   1.688
 4340SOL    HW113919   6.314   3.155   1.764
 4340SOL    HW213920   6.256   3.067   1.640
 4341SOL     OW13921   0.671   5.562   1.750
 4341SOL    HW113922   0.623   5.518   1.825
 4341SOL    HW213923   0.718   5.644   1.783
 4342SOL     OW13924   5.613   3.801   3.864
 4342SOL    HW113925   5.543   3.850   3.917
 4342SOL    HW213926   5.595   3.703   3.869
 4343SOL     OW13927   2.736   6.472   5.418
 4343SOL    HW113928   2.706   6.479   5.514
 4343SOL    HW213929   2.820   6.418   5.414
 4344SOL     OW13930   0.059   4.096   2.025
 4344SOL    HW113931   7.012   4.035   2.057
 4344SOL    HW213932   0.019   4.170   1.971
 4345SOL     OW13933   3.562   3.856   4.895
 4345SOL    HW113934   3.530   3.950   4.904
 4345SOL    HW213935   3.641   3.841   4.953
 4346SOL     OW13936   2.078   3.259   2.749
 4346SOL    HW113937   2.120   3.193   2.686
 4346SOL    HW213938   2.066   3.347   2.703
 4347SOL     OW13939   6.693   6.655   2.941
 4347SOL    HW113940   6.772   6.696   2.896
 4347SOL    HW213941   6.613   6.662   2.881
 4348SOL     OW13942   6.530   5.070   4.038
 4348SOL    HW113943   6.481   4.987   4.066
 4348SOL    HW213944   6.616   5.045   3.994
 4349SOL     OW13945   5.446   1.721   2.936
 4349SOL    HW113946   5.406   1.802   2.893
 4349SOL    HW213947   5.545   1.719   2.919
 4350SOL     OW13948   3.341   1.681   3.924
 4350SOL    HW113949   3.421   1.635   3.885
 4350SOL    HW213950   3.308   1.751   3.860
 4351SOL     OW13951   1.940   5.299   0.852
 4351SOL    HW113952   2.002   5.337   0.783
 4351SOL    HW213953   1.846   5.323   0.829
 4352SOL     OW13954   6.485   3.982   2.575
 4352SOL    HW113955   6.509   3.935   2.490
 4352SOL    HW213956   6.386   3.988   2.584
 4353SOL     OW13957   4.238   2.922   6.450
 4353SOL    HW113958   4.280   2.855   6.389
 4353SOL    HW213959   4.140   2.905   6.455
 4354SOL     OW13960   2.225   0.631   5.800
 4354SOL    HW113961   2.171   0.714   5.782
 4354SOL    HW213962   2.299   0.625   5.733
 4355SOL     OW13963   2.417   6.830   2.507
 4355SOL    HW113964   2.411   6.745   2.455
 4355SOL    HW213965   2.498   6.828   2.565
 4356SOL     OW13966   4.834   4.011   0.299
 4356SOL    HW113967   4.932   3.990   0.297
 4356SOL    HW213968   4.812   4.058   0.385
 4357SOL     OW13969   6.265   1.477   1.286
 4357SOL    HW113970   6.181   1.470   1.341
 4357SOL    HW213971   6.253   1.548   1.216
 4358SOL     OW13972   0.111   0.492   0.721
 4358SOL    HW113973   0.173   0.486   0.799
 4358SOL    HW213974   0.151   0.552   0.651
 4359SOL     OW13975   2.121   1.717   6.214
 4359SOL    HW113976   2.151   1.652   6.144
 4359SOL    HW213977   2.129   1.810   6.179
 4360SOL     OW13978   1.243   3.390   3.312
 4360SOL    HW113979   1.341   3.374   3.302
 4360SOL    HW213980   1.195   3.302   3.312
 4361SOL     OW13981   2.698   3.401   1.439
 4361SOL    HW113982   2.716   3.322   1.498
 4361SOL    HW213983   2.784   3.430   1.397
 4362SOL     OW13984   6.047   5.274   3.262
 4362SOL    HW113985   6.106   5.355   3.267
 4362SOL    HW213986   6.104   5.192   3.267
 4363SOL     OW13987   5.697   1.970   1.275
 4363SOL    HW113988   5.766   1.991   1.206
 4363SOL    HW213989   5.713   2.027   1.356
 4364SOL     OW13990   3.013   3.759   4.277
 4364SOL    HW113991   2.954   3.714   4.210
 4364SOL    HW213992   2.992   3.724   4.368
 4365SOL     OW13993   2.631   0.907   1.955
 4365SOL    HW113994   2.635   0.981   2.023
 4365SOL    HW213995   2.712   0.913   1.896
 4366SOL     OW13996   5.648   0.145   0.443
 4366SOL    HW113997   5.729   0.143   0.502
 4366SOL    HW213998   5.643   0.232   0.394
 4367SOL     OW13999   2.384   4.413   4.541
 4367SOL    HW114000   2.328   4.433   4.460
 4367SOL    HW214001   2.339   4.342   4.595
 4368SOL     OW14002   3.548   5.226   0.350
 4368SOL    HW114003   3.460   5.178   0.354
 4368SOL    HW214004   3.603   5.187   0.277
 4369SOL     OW14005   4.531   5.391   2.730
 4369SOL    HW114006   4.625   5.410   2.758
 4369SOL    HW214007   4.531   5.333   2.649
 4370SOL     OW14008   3.806   5.183   1.662
 4370SOL    HW114009   3.847   5.275   1.663
 4370SOL    HW214010   3.867   5.119   1.709
 4371SOL     OW14011   1.015   2.368   2.479
 4371SOL    HW114012   1.031   2.414   2.392
 4371SOL    HW214013   1.048   2.274   2.475
 4372SOL     OW14014   2.798   1.924   2.510
 4372SOL    HW114015   2.888   1.962   2.488
 4372SOL    HW214016   2.805   1.867   2.591
 4373SOL     OW14017   5.765   1.754   0.340
 4373SOL    HW114018   5.801   1.744   0.247
 4373SOL    HW214019   5.696   1.684   0.356
 4374SOL     OW14020   0.622   1.998   0.561
 4374SOL    HW114021   0.554   2.038   0.621
 4374SOL    HW214022   0.583   1.919   0.514
 4375SOL     OW14023   4.502   6.942   3.279
 4375SOL    HW114024   4.413   6.955   3.235
 4375SOL    HW214025   4.559   7.022   3.262
 4376SOL     OW14026   6.820   6.615   2.504
 4376SOL    HW114027   6.793   6.523   2.477
 4376SOL    HW214028   6.891   6.648   2.442
 4377SOL     OW14029   5.644   4.767   0.107
 4377SOL    HW114030   5.677   4.694   0.167
 4377SOL    HW214031   5.633   4.851   0.160
 4378SOL     OW14032   2.192   2.410   2.434
 4378SOL    HW114033   2.176   2.502   2.469
 4378SOL    HW214034   2.189   2.345   2.510
 4379SOL     OW14035   1.866   2.164   2.680
 4379SOL    HW114036   1.862   2.065   2.691
 4379SOL    HW214037   1.774   2.202   2.684
 4380SOL     OW14038   1.263   0.242   2.985
 4380SOL    HW114039   1.355   0.204   2.997
 4380SOL    HW214040   1.205   0.214   3.061
 4381SOL     OW14041   1.699   4.167   5.175
 4381SOL    HW114042   1.756   4.134   5.251
 4381SOL    HW214043   1.750   4.236   5.123
 4382SOL     OW14044   6.303   3.252   5.425
 4382SOL    HW114045   6.402   3.259   5.440
 4382SOL    HW214046   6.257   3.243   5.514
 4383SOL     OW14047   0.824   2.452   5.911
 4383SOL    HW114048   0.825   2.420   6.006
 4383SOL    HW214049   0.906   2.421   5.864
 4384SOL     OW14050   6.774   1.895   5.590
 4384SOL    HW114051   6.681   1.932   5.593
 4384SOL    HW214052   6.799   1.879   5.494
 4385SOL     OW14053   6.012   2.808   4.999
 4385SOL    HW114054   6.007   2.713   5.030
 4385SOL    HW214055   5.970   2.867   5.068
 4386SOL     OW14056   2.199   3.157   6.720
 4386SOL    HW114057   2.226   3.161   6.816
 4386SOL    HW214058   2.188   3.250   6.684
 4387SOL     OW14059   6.939   1.619   1.137
 4387SOL    HW114060   7.018   1.603   1.196
 4387SOL    HW214061   6.941   1.555   1.060
 4388SOL     OW14062   5.155   2.025   6.308
 4388SOL    HW114063   5.123   2.101   6.251
 4388SOL    HW214064   5.254   2.029   6.317
 4389SOL     OW14065   0.050   3.199   0.829
 4389SOL    HW114066   0.074   3.272   0.765
 4389SOL    HW214067   0.023   3.118   0.777
 4390SOL     OW14068   3.878   1.115   1.254
 4390SOL    HW114069   3.972   1.084   1.244
 4390SOL    HW214070   3.874   1.185   1.326
 4391SOL     OW14071   2.058   5.825   0.085
 4391SOL    HW114072   1.962   5.794   0.085
 4391SOL    HW214073   2.074   5.882   0.004
 4392SOL     OW14074   6.879   3.112   5.093
 4392SOL    HW114075   6.873   3.080   5.187
 4392SOL    HW214076   6.940   3.192   5.089
 4393SOL     OW14077   6.258   0.289   2.272
 4393SOL    HW114078   6.347   0.331   2.290
 4393SOL    HW214079   6.212   0.339   2.199
 4394SOL     OW14080   6.255   6.106   2.136
 4394SOL    HW114081   6.283   6.117   2.232
 4394SOL    HW214082   6.208   6.019   2.125
 4395SOL     OW14083   2.977   6.437   1.937
 4395SOL    HW114084   3.045   6.365   1.938
 4395SOL    HW214085   2.885   6.397   1.944
 4396SOL     OW14086   2.023   2.213   3.870
 4396SOL    HW114087   2.043   2.199   3.967
 4396SOL    HW214088   1.948   2.279   3.860
 4397SOL     OW14089   0.387   1.316   4.573
 4397SOL    HW114090   0.343   1.339   4.659
 4397SOL    HW214091   0.486   1.326   4.583
 4398SOL     OW14092   0.360   4.154   5.901
 4398SOL    HW114093   0.438   4.216   5.912
 4398SOL    HW214094   0.326   4.159   5.807
 4399SOL     OW14095   2.338   0.213   1.944
 4399SOL    HW114096   2.374   0.287   2.002
 4399SOL    HW214097   2.238   0.218   1.944
 4400SOL     OW14098   3.400   6.638   5.408
 4400SOL    HW114099   3.350   6.723   5.426
 4400SOL    HW214100   3.455   6.615   5.489
 4401SOL     OW14101   4.242   6.962   6.511
 4401SOL    HW114102   4.156   6.936   6.556
 4401SOL    HW214103   4.269   0.027   6.543
 4402SOL     OW14104   2.835   0.393   2.013
 4402SOL    HW114105   2.927   0.424   2.036
 4402SOL    HW214106   2.768   0.444   2.067
 4403SOL     OW14107   0.797   6.986   2.490
 4403SOL    HW114108   0.769   6.982   2.586
 4403SOL    HW214109   0.858   6.909   2.470
 4404SOL     OW14110   0.479   5.340   5.713
 4404SOL    HW114111   0.573   5.318   5.688
 4404SOL    HW214112   0.461   5.437   5.694
 4405SOL     OW14113   1.928   4.183   0.685
 4405SOL    HW114114   1.865   4.182   0.763
 4405SOL    HW214115   2.004   4.121   0.702
 4406SOL     OW14116   0.185   3.379   0.629
 4406SOL    HW114117   0.220   3.454   0.574
 4406SOL    HW214118   0.174   3.297   0.572
 4407SOL     OW14119   6.247   4.836   0.740
 4407SOL    HW114120   6.312   4.887   0.796
 4407SOL    HW214121   6.296   4.772   0.681
 4408SOL     OW14122   3.629   1.010   1.248
 4408SOL    HW114123   3.724   1.031   1.272
 4408SOL    HW214124   3.618   0.911   1.242
 4409SOL     OW14125   5.012   0.692   2.490
 4409SOL    HW114126   4.914   0.677   2.480
 4409SOL    HW214127   5.045   0.748   2.414
 4410SOL     OW14128   1.206   4.948   6.611
 4410SOL    HW114129   1.276   4.953   6.540
 4410SOL    HW214130   1.226   5.015   6.683
 4411SOL     OW14131   3.981   3.963   4.476
 4411SOL    HW114132   3.997   3.871   4.511
 4411SOL    HW214133   3.972   3.959   4.376
 4412SOL     OW14134   4.297   6.172   4.759
 4412SOL    HW114135   4.321   6.245   4.822
 4412SOL    HW214136   4.261   6.094   4.810
 4413SOL     OW14137   6.394   4.855   4.130
 4413SOL    HW114138   6.430   4.861   4.224
 4413SOL    HW214139   6.415   4.766   4.092
 4414SOL     OW14140   3.483   4.637   1.065
 4414SOL    HW114141   3.537   4.629   1.148
 4414SOL    HW214142   3.455   4.732   1.052
 4415SOL     OW14143   3.892   2.917   0.278
 4415SOL    HW114144   3.829   2.994   0.273
 4415SOL    HW214145   3.885   2.862   0.195
 4416SOL     OW14146   3.115   0.710   4.070
 4416SOL    HW114147   3.195   0.659   4.038
 4416SOL    HW214148   3.142   0.772   4.144
 4417SOL     OW14149   5.758   4.205   3.443
 4417SOL    HW114150   5.716   4.152   3.370
 4417SOL    HW214151   5.756   4.302   3.420
 4418SOL     OW14152   5.765   1.921   2.333
 4418SOL    HW114153   5.753   1.925   2.234
 4418SOL    HW214154   5.847   1.869   2.355
 4419SOL     OW14155   5.977   6.262   6.728
 4419SOL    HW114156   6.002   6.216   6.814
 4419SOL    HW214157   5.948   6.356   6.748
 4420SOL     OW14158   5.258   0.979   1.956
 4420SOL    HW114159   5.329   0.910   1.945
 4420SOL    HW214160   5.168   0.937   1.941
 4421SOL     OW14161   2.045   0.978   4.818
 4421SOL    HW114162   1.972   0.943   4.876
 4421SOL    HW214163   2.030   1.076   4.802
 4422SOL     OW14164   2.365   4.137   7.025
 4422SOL    HW114165   2.449   4.143   0.054
 4422SOL    HW214166   2.287   4.123   0.060
 4423SOL     OW14167   0.214   2.842   5.735
 4423SOL    HW114168   0.165   2.756   5.726
 4423SOL    HW214169   0.172   2.911   5.675
 4424SOL     OW14170   5.879   1.189   4.530
 4424SOL    HW114171   5.915   1.097   4.548
 4424SOL    HW214172   5.886   1.244   4.613
 4425SOL     OW14173   3.373   4.227   0.318
 4425SOL    HW114174   3.413   4.136   0.316
 4425SOL    HW214175   3.385   4.271   0.228
 4426SOL     OW14176   6.815   1.495   3.666
 4426SOL    HW114177   6.739   1.476   3.728
 4426SOL    HW214178   6.780   1.535   3.581
 4427SOL     OW14179   0.544   6.511   2.572
 4427SOL    HW114180   0.554   6.584   2.505
 4427SOL    HW214181   0.556   6.422   2.527
 4428SOL     OW14182   2.955   7.017   2.601
 4428SOL    HW114183   3.014   6.947   2.562
 4428SOL    HW214184   2.886   0.018   2.533
 4429SOL     OW14185   2.535   5.979   2.488
 4429SOL    HW114186   2.521   5.906   2.555
 4429SOL    HW214187   2.517   6.067   2.532
 4430SOL     OW14188   4.726   4.126   4.766
 4430SOL    HW114189   4.775   4.067   4.830
 4430SOL    HW214190   4.629   4.101   4.764
 4431SOL     OW14191   2.119   1.306   2.026
 4431SOL    HW114192   2.206   1.313   1.977
 4431SOL    HW214193   2.114   1.218   2.074
 4432SOL     OW14194   2.964   3.913   6.068
 4432SOL    HW114195   2.937   3.842   6.003
 4432SOL    HW214196   2.888   3.930   6.130
 4433SOL     OW14197   5.104   1.973   4.694
 4433SOL    HW114198   5.167   1.951   4.620
 4433SOL    HW214199   5.014   1.996   4.657
 4434SOL     OW14200   4.983   1.629   3.785
 4434SOL    HW114201   4.894   1.590   3.763
 4434SOL    HW214202   4.987   1.652   3.882
 4435SOL     OW14203   4.871   3.529   1.380
 4435SOL    HW114204   4.802   3.546   1.450
 4435SOL    HW214205   4.962   3.549   1.416
 4436SOL     OW14206   4.448   1.069   1.245
 4436SOL    HW114207   4.497   1.120   1.316
 4436SOL    HW214208   4.435   0.974   1.275
 4437SOL     OW14209   6.198   2.102   2.835
 4437SOL    HW114210   6.177   2.098   2.933
 4437SOL    HW214211   6.113   2.107   2.783
 4438SOL     OW14212   5.182   0.436   0.042
 4438SOL    HW114213   5.206   0.473   6.978
 4438SOL    HW214214   5.083   0.440   0.054
 4439SOL     OW14215   0.619   4.570   1.687
 4439SOL    HW114216   0.613   4.665   1.718
 4439SOL    HW214217   0.633   4.511   1.766
 4440SOL     OW14218   2.563   5.024   0.591
 4440SOL    HW114219   2.613   4.938   0.586
 4440SOL    HW214220   2.613   5.088   0.650
 4441SOL     OW14221   0.015   1.664   2.643
 4441SOL    HW114222   0.070   1.604   2.583
 4441SOL    HW214223   6.970   1.610   2.688
 4442SOL     OW14224   2.084   5.184   4.380
 4442SOL    HW114225   2.014   5.162   4.312
 4442SOL    HW214226   2.150   5.108   4.384
 4443SOL     OW14227   0.949   3.029   0.146
 4443SOL    HW114228   0.931   3.105   0.209
 4443SOL    HW214229   1.027   3.053   0.088
 4444SOL     OW14230   3.082   4.521   5.389
 4444SOL    HW114231   3.029   4.547   5.308
 4444SOL    HW214232   3.060   4.582   5.465
 4445SOL     OW14233   1.016   6.570   0.671
 4445SOL    HW114234   1.037   6.488   0.619
 4445SOL    HW214235   0.954   6.628   0.619
 4446SOL     OW14236   5.719   0.350   2.032
 4446SOL    HW114237   5.787   0.321   1.965
 4446SOL    HW214238   5.648   0.403   1.987
 4447SOL     OW14239   5.870   3.942   5.896
 4447SOL    HW114240   5.943   3.888   5.940
 4447SOL    HW214241   5.876   4.037   5.926
 4448SOL     OW14242   2.641   3.848   1.635
 4448SOL    HW114243   2.609   3.753   1.639
 4448SOL    HW214244   2.563   3.909   1.629
 4449SOL     OW14245   5.316   0.629   6.257
 4449SOL    HW114246   5.281   0.675   6.175
 4449SOL    HW214247   5.389   0.565   6.231
 4450SOL     OW14248   3.200   3.545   5.157
 4450SOL    HW114249   3.162   3.512   5.071
 4450SOL    HW214250   3.298   3.525   5.161
 4451SOL     OW14251   6.552   4.804   3.023
 4451SOL    HW114252   6.507   4.736   2.965
 4451SOL    HW214253   6.571   4.763   3.113
 4452SOL     OW14254   4.940   6.188   4.412
 4452SOL    HW114255   5.036   6.189   4.441
 4452SOL    HW214256   4.901   6.098   4.430
 4453SOL     OW14257   0.914   2.631   1.436
 4453SOL    HW114258   0.983   2.688   1.392
 4453SOL    HW214259   0.958   2.554   1.482
 4454SOL     OW14260   1.854   1.941   0.638
 4454SOL    HW114261   1.779   1.886   0.601
 4454SOL    HW214262   1.860   2.026   0.585
 4455SOL     OW14263   4.497   6.850   5.853
 4455SOL    HW114264   4.419   6.877   5.796
 4455SOL    HW214265   4.475   6.866   5.949
 4456SOL     OW14266   3.758   5.840   2.325
 4456SOL    HW114267   3.695   5.852   2.402
 4456SOL    HW214268   3.714   5.787   2.253
 4457SOL     OW14269   4.451   1.301   2.492
 4457SOL    HW114270   4.463   1.277   2.395
 4457SOL    HW214271   4.371   1.360   2.502
 4458SOL     OW14272   1.832   2.822   0.564
 4458SOL    HW114273   1.774   2.863   0.634
 4458SOL    HW214274   1.927   2.823   0.594
 4459SOL     OW14275   3.920   1.233   4.953
 4459SOL    HW114276   3.936   1.299   4.880
 4459SOL    HW214277   3.900   1.143   4.914
 4460SOL     OW14278   2.951   3.123   5.900
 4460SOL    HW114279   2.921   3.212   5.866
 4460SOL    HW214280   2.932   3.053   5.831
 4461SOL     OW14281   1.250   0.200   1.085
 4461SOL    HW114282   1.236   0.211   1.183
 4461SOL    HW214283   1.321   0.263   1.054
 4462SOL     OW14284   6.000   5.376   1.563
 4462SOL    HW114285   6.009   5.312   1.487
 4462SOL    HW214286   6.064   5.350   1.636
 4463SOL     OW14287   5.436   1.924   0.453
 4463SOL    HW114288   5.356   1.865   0.463
 4463SOL    HW214289   5.434   1.969   0.364
 4464SOL     OW14290   6.609   5.365   0.813
 4464SOL    HW114291   6.562   5.454   0.814
 4464SOL    HW214292   6.708   5.380   0.816
 4465SOL     OW14293   2.735   5.361   1.793
 4465SOL    HW114294   2.754   5.312   1.708
 4465SOL    HW214295   2.686   5.301   1.856
 4466SOL     OW14296   1.868   1.349   3.409
 4466SOL    HW114297   1.819   1.285   3.350
 4466SOL    HW214298   1.922   1.297   3.476
 4467SOL     OW14299   1.772   6.013   2.395
 4467SOL    HW114300   1.794   6.001   2.492
 4467SOL    HW214301   1.809   5.937   2.343
 4468SOL     OW14302   2.027   3.784   0.207
 4468SOL    HW114303   2.115   3.823   0.180
 4468SOL    HW214304   2.039   3.725   0.287
 4469SOL     OW14305   3.103   0.524   1.623
 4469SOL    HW114306   3.006   0.510   1.602
 4469SOL    HW214307   3.117   0.617   1.658
 4470SOL     OW14308   6.325   2.390   1.956
 4470SOL    HW114309   6.308   2.293   1.943
 4470SOL    HW214310   6.345   2.408   2.052
 4471SOL     OW14311   0.982   2.611   6.229
 4471SOL    HW114312   0.931   2.602   6.315
 4471SOL    HW214313   1.016   2.705   6.220
 4472SOL     OW14314   1.409   3.522   2.087
 4472SOL    HW114315   1.504   3.498   2.109
 4472SOL    HW214316   1.356   3.530   2.171
 4473SOL     OW14317   6.099   2.905   4.435
 4473SOL    HW114318   6.157   2.843   4.382
 4473SOL    HW214319   6.150   2.942   4.512
 4474SOL     OW14320   2.802   0.787   2.293
 4474SOL    HW114321   2.806   0.798   2.194
 4474SOL    HW214322   2.857   0.858   2.337
 4475SOL     OW14323   1.585   3.938   2.610
 4475SOL    HW114324   1.619   3.849   2.577
 4475SOL    HW214325   1.636   3.965   2.692
 4476SOL     OW14326   4.442   0.392   3.009
 4476SOL    HW114327   4.519   0.328   3.011
 4476SOL    HW214328   4.357   0.342   2.998
 4477SOL     OW14329   2.060   6.955   5.010
 4477SOL    HW114330   2.006   6.922   4.933
 4477SOL    HW214331   2.153   6.919   5.002
 4478SOL     OW14332   3.748   6.985   2.801
 4478SOL    HW114333   3.739   6.890   2.830
 4478SOL    HW214334   3.845   7.008   2.793
 4479SOL     OW14335   0.410   1.617   1.741
 4479SOL    HW114336   0.406   1.716   1.753
 4479SOL    HW214337   0.317   1.581   1.729
 4480SOL     OW14338   1.250   3.995   4.791
 4480SOL    HW114339   1.322   4.064   4.790
 4480SOL    HW214340   1.256   3.939   4.708
 4481SOL     OW14341   3.323   6.322   4.707
 4481SOL    HW114342   3.335   6.336   4.806
 4481SOL    HW214343   3.226   6.329   4.685
 4482SOL     OW14344   1.379   2.833   5.001
 4482SOL    HW114345   1.457   2.896   5.001
 4482SOL    HW214346   1.296   2.883   4.975
 4483SOL     OW14347   5.692   3.014   2.410
 4483SOL    HW114348   5.645   3.094   2.449
 4483SOL    HW214349   5.707   2.946   2.482
 4484SOL     OW14350   2.788   2.348   6.429
 4484SOL    HW114351   2.858   2.408   6.390
 4484SOL    HW214352   2.830   2.287   6.496
 4485SOL     OW14353   5.827   1.891   4.851
 4485SOL    HW114354   5.740   1.888   4.801
 4485SOL    HW214355   5.903   1.893   4.786
 4486SOL     OW14356   5.566   4.892   5.424
 4486SOL    HW114357   5.525   4.846   5.503
 4486SOL    HW214358   5.523   4.859   5.340
 4487SOL     OW14359   2.382   2.639   6.779
 4487SOL    HW114360   2.301   2.670   6.728
 4487SOL    HW214361   2.464   2.673   6.734
 4488SOL     OW14362   0.135   3.506   6.261
 4488SOL    HW114363   0.079   3.515   6.344
 4488SOL    HW214364   0.080   3.465   6.188
 4489SOL     OW14365   5.441   4.946   4.889
 4489SOL    HW114366   5.392   5.017   4.838
 4489SOL    HW214367   5.521   4.916   4.837
 4490SOL     OW14368   6.423   2.773   2.330
 4490SOL    HW114369   6.396   2.692   2.278
 4490SOL    HW214370   6.344   2.833   2.342
 4491SOL     OW14371   6.378   2.583   4.214
 4491SOL    HW114372   6.312   2.531   4.269
 4491SOL    HW214373   6.464   2.591   4.265
 4492SOL     OW14374   5.905   4.899   1.636
 4492SOL    HW114375   5.904   4.802   1.612
 4492SOL    HW214376   5.837   4.916   1.707
 4493SOL     OW14377   4.981   5.297   4.853
 4493SOL    HW114378   5.079   5.315   4.856
 4493SOL    HW214379   4.932   5.379   4.823
 4494SOL     OW14380   0.584   1.122   6.716
 4494SOL    HW114381   0.493   1.086   6.698
 4494SOL    HW214382   0.649   1.046   6.721
 4495SOL     OW14383   3.670   6.432   4.418
 4495SOL    HW114384   3.678   6.396   4.325
 4495SOL    HW214385   3.748   6.402   4.472
 4496SOL     OW14386   5.395   6.236   1.209
 4496SOL    HW114387   5.364   6.145   1.180
 4496SOL    HW214388   5.428   6.287   1.129
 4497SOL     OW14389   5.451   1.978   0.140
 4497SOL    HW114390   5.443   1.880   0.124
 4497SOL    HW214391   5.369   2.025   0.106
 4498SOL     OW14392   0.308   3.530   0.442
 4498SOL    HW114393   0.396   3.572   0.420
 4498SOL    HW214394   0.269   3.489   0.360
 4499SOL     OW14395   6.073   3.698   4.274
 4499SOL    HW114396   6.041   3.764   4.207
 4499SOL    HW214397   6.153   3.650   4.237
 4500SOL     OW14398   3.195   3.350   4.941
 4500SOL    HW114399   3.286   3.336   4.904
 4500SOL    HW214400   3.164   3.267   4.986
 4501SOL     OW14401   0.161   3.326   3.282
 4501SOL    HW114402   0.259   3.342   3.288
 4501SOL    HW214403   0.125   3.365   3.197
 4502SOL     OW14404   0.585   2.745   6.518
 4502SOL    HW114405   0.671   2.795   6.526
 4502SOL    HW214406   0.510   2.810   6.501
 4503SOL     OW14407   3.289   6.823   1.642
 4503SOL    HW114408   3.219   6.872   1.694
 4503SOL    HW214409   3.314   6.739   1.690
 4504SOL     OW14410   6.722   1.062   5.183
 4504SOL    HW114411   6.752   1.118   5.106
 4504SOL    HW214412   6.732   0.965   5.160
 4505SOL     OW14413   5.523   5.390   1.726
 4505SOL    HW114414   5.501   5.488   1.729
 4505SOL    HW214415   5.467   5.342   1.793
 4506SOL     OW14416   4.720   2.890   3.306
 4506SOL    HW114417   4.641   2.948   3.324
 4506SOL    HW214418   4.689   2.801   3.272
 4507SOL     OW14419   5.506   4.504   2.591
 4507SOL    HW114420   5.434   4.483   2.525
 4507SOL    HW214421   5.576   4.559   2.546
 4508SOL     OW14422   1.167   5.318   6.737
 4508SOL    HW114423   1.174   5.384   6.813
 4508SOL    HW214424   1.226   5.348   6.662
 4509SOL     OW14425   4.436   2.374   2.592
 4509SOL    HW114426   4.484   2.447   2.640
 4509SOL    HW214427   4.403   2.408   2.504
 4510SOL     OW14428   3.613   1.579   4.054
 4510SOL    HW114429   3.671   1.647   4.098
 4510SOL    HW214430   3.517   1.598   4.075
 4511SOL     OW14431   6.351   3.235   0.106
 4511SOL    HW114432   6.370   3.332   0.087
 4511SOL    HW214433   6.257   3.214   0.079
 4512SOL     OW14434   2.932   1.649   5.447
 4512SOL    HW114435   2.838   1.681   5.432
 4512SOL    HW214436   2.943   1.623   5.543
 4513SOL     OW14437   6.655   5.259   6.934
 4513SOL    HW114438   6.708   5.341   6.952
 4513SOL    HW214439   6.679   5.189   7.002
 4514SOL     OW14440   4.026   1.770   6.211
 4514SOL    HW114441   4.095   1.841   6.224
 4514SOL    HW214442   3.955   1.779   6.281
 4515SOL     OW14443   0.192   1.866   5.888
 4515SOL    HW114444   0.162   1.773   5.908
 4515SOL    HW214445   0.240   1.868   5.800
 4516SOL     OW14446   2.015   0.081   0.312
 4516SOL    HW114447   1.918   0.056   0.313
 4516SOL    HW214448   2.030   0.154   0.245
 4517SOL     OW14449   4.323   0.863   6.890
 4517SOL    HW114450   4.341   0.926   6.965
 4517SOL    HW214451   4.228   0.830   6.896
 4518SOL     OW14452   6.800   0.384   2.724
 4518SOL    HW114453   6.707   0.420   2.733
 4518SOL    HW214454   6.799   0.303   2.665
 4519SOL     OW14455   0.313   0.156   1.566
 4519SOL    HW114456   0.329   0.079   1.505
 4519SOL    HW214457   0.311   0.124   1.661
 4520SOL     OW14458   4.627   6.312   4.645
 4520SOL    HW114459   4.592   6.221   4.622
 4520SOL    HW214460   4.657   6.358   4.561
 4521SOL     OW14461   7.000   1.645   4.700
 4521SOL    HW114462   6.989   1.668   4.603
 4521SOL    HW214463   7.007   1.728   4.754
 4522SOL     OW14464   4.828   5.860   3.606
 4522SOL    HW114465   4.918   5.820   3.623
 4522SOL    HW214466   4.792   5.825   3.520
 4523SOL     OW14467   0.795   4.585   6.790
 4523SOL    HW114468   0.832   4.504   6.745
 4523SOL    HW214469   0.858   4.662   6.776
 4524SOL     OW14470   6.271   2.740   2.976
 4524SOL    HW114471   6.303   2.718   2.883
 4524SOL    HW214472   6.221   2.662   3.012
 4525SOL     OW14473   4.960   1.885   5.923
 4525SOL    HW114474   4.866   1.868   5.893
 4525SOL    HW214475   4.991   1.973   5.886
 4526SOL     OW14476   6.750   0.280   0.668
 4526SOL    HW114477   6.675   0.278   0.734
 4526SOL    HW214478   6.831   0.235   0.707
 4527SOL     OW14479   5.399   1.134   4.039
 4527SOL    HW114480   5.489   1.167   4.009
 4527SOL    HW214481   5.406   1.038   4.065
 4528SOL     OW14482   4.976   0.925   0.572
 4528SOL    HW114483   4.925   0.844   0.540
 4528SOL    HW214484   5.027   0.964   0.496
 4529SOL     OW14485   2.297   0.710   5.201
 4529SOL    HW114486   2.281   0.621   5.243
 4529SOL    HW214487   2.328   0.775   5.271
 4530SOL     OW14488   2.173   5.307   4.758
 4530SOL    HW114489   2.211   5.216   4.772
 4530SOL    HW214490   2.163   5.353   4.847
 4531SOL     OW14491   0.401   2.690   5.248
 4531SOL    HW114492   0.356   2.684   5.338
 4531SOL    HW214493   0.380   2.609   5.195
 4532SOL     OW14494   6.178   1.191   2.514
 4532SOL    HW114495   6.239   1.127   2.468
 4532SOL    HW214496   6.112   1.227   2.448
 4533SOL     OW14497   0.910   1.617   1.935
 4533SOL    HW114498   0.960   1.576   1.858
 4533SOL    HW214499   0.812   1.600   1.924
 4534SOL     OW14500   4.874   4.064   4.246
 4534SOL    HW114501   4.807   4.131   4.276
 4534SOL    HW214502   4.876   3.988   4.311
 4535SOL     OW14503   3.612   0.951   2.650
 4535SOL    HW114504   3.625   1.039   2.696
 4535SOL    HW214505   3.650   0.957   2.557
 4536SOL     OW14506   3.800   1.740   4.168
 4536SOL    HW114507   3.777   1.805   4.241
 4536SOL    HW214508   3.897   1.748   4.147
 4537SOL     OW14509   3.885   3.355   0.618
 4537SOL    HW114510   3.895   3.337   0.520
 4537SOL    HW214511   3.944   3.432   0.644
 4538SOL     OW14512   1.680   0.481   3.073
 4538SOL    HW114513   1.753   0.417   3.097
 4538SOL    HW214514   1.643   0.457   2.983
 4539SOL     OW14515   2.944   6.588   5.024
 4539SOL    HW114516   2.891   6.673   5.020
 4539SOL    HW214517   3.023   6.601   5.084
 4540SOL     OW14518   2.700   2.687   6.149
 4540SOL    HW114519   2.756   2.619   6.101
 4540SOL    HW214520   2.658   2.749   6.082
 4541SOL     OW14521   6.631   2.096   0.401
 4541SOL    HW114522   6.558   2.067   0.462
 4541SOL    HW214523   6.676   2.177   0.440
 4542SOL     OW14524   6.955   1.633   1.856
 4542SOL    HW114525   0.014   1.679   1.884
 4542SOL    HW214526   6.883   1.654   1.921
 4543SOL     OW14527   4.590   2.212   2.198
 4543SOL    HW114528   4.592   2.195   2.297
 4543SOL    HW214529   4.534   2.142   2.154
 4544SOL     OW14530   3.372   6.016   6.069
 4544SOL    HW114531   3.320   5.956   6.129
 4544SOL    HW214532   3.427   5.962   6.006
 4545SOL     OW14533   5.822   3.527   4.127
 4545SOL    HW114534   5.763   3.446   4.118
 4545SOL    HW214535   5.913   3.505   4.092
 4546SOL     OW14536   1.839   0.986   5.215
 4546SOL    HW114537   1.783   1.068   5.212
 4546SOL    HW214538   1.872   0.971   5.308
 4547SOL     OW14539   5.955   2.446   2.066
 4547SOL    HW114540   5.954   2.426   1.968
 4547SOL    HW214541   5.883   2.394   2.112
 4548SOL     OW14542   1.433   3.175   4.154
 4548SOL    HW114543   1.484   3.254   4.120
 4548SOL    HW214544   1.337   3.182   4.125
 4549SOL     OW14545   6.775   4.031   1.700
 4549SOL    HW114546   6.704   4.072   1.757
 4549SOL    HW214547   6.748   4.038   1.604
 4550SOL     OW14548   0.691   4.971   3.219
 4550SOL    HW114549   0.632   5.052   3.211
 4550SOL    HW214550   0.634   4.890   3.230
 4551SOL     OW14551   6.741   2.683   4.700
 4551SOL    HW114552   6.820   2.625   4.680
 4551SOL    HW214553   6.772   2.773   4.731
 4552SOL     OW14554   6.434   3.279   2.156
 4552SOL    HW114555   6.488   3.207   2.201
 4552SOL    HW214556   6.488   3.363   2.153
 4553SOL     OW14557   3.096   4.780   6.282
 4553SOL    HW114558   3.159   4.805   6.355
 4553SOL    HW214559   3.020   4.845   6.279
 4554SOL     OW14560   6.373   6.906   1.467
 4554SOL    HW114561   6.414   6.996   1.454
 4554SOL    HW214562   6.305   6.910   1.540
 4555SOL     OW14563   2.123   2.783   6.177
 4555SOL    HW114564   2.081   2.873   6.188
 4555SOL    HW214565   2.054   2.712   6.191
 4556SOL     OW14566   5.543   2.919   4.053
 4556SOL    HW114567   5.602   2.986   4.008
 4556SOL    HW214568   5.574   2.827   4.032
 4557SOL     OW14569   5.295   6.560   5.477
 4557SOL    HW114570   5.376   6.502   5.474
 4557SOL    HW214571   5.218   6.508   5.515
 4558SOL     OW14572   0.371   4.123   5.251
 4558SOL    HW114573   0.275   4.102   5.268
 4558SOL    HW214574   0.426   4.092   5.328
 4559SOL     OW14575   0.515   3.751   1.717
 4559SOL    HW114576   0.570   3.804   1.653
 4559SOL    HW214577   0.448   3.697   1.667
 4560SOL     OW14578   5.364   3.884   1.698
 4560SOL    HW114579   5.443   3.897   1.759
 4560SOL    HW214580   5.357   3.963   1.637
 4561SOL     OW14581   2.347   1.914   3.187
 4561SOL    HW114582   2.247   1.920   3.184
 4561SOL    HW214583   2.384   1.925   3.095
 4562SOL     OW14584   2.482   6.581   5.828
 4562SOL    HW114585   2.529   6.512   5.773
 4562SOL    HW214586   2.401   6.541   5.870
 4563SOL     OW14587   6.899   2.354   1.413
 4563SOL    HW114588   6.950   2.381   1.331
 4563SOL    HW214589   6.834   2.282   1.389
 4564SOL     OW14590   6.940   5.977   1.568
 4564SOL    HW114591   6.924   5.955   1.472
 4564SOL    HW214592   0.000   6.028   1.577
 4565SOL     OW14593   1.100   1.374   4.803
 4565SOL    HW114594   1.053   1.405   4.886
 4565SOL    HW214595   1.104   1.450   4.737
 4566SOL     OW14596   6.623   2.497   0.103
 4566SOL    HW114597   6.706   2.548   0.082
 4566SOL    HW214598   6.559   2.555   0.154
 4567SOL     OW14599   6.143   1.025   6.256
 4567SOL    HW114600   6.081   0.947   6.258
 4567SOL    HW214601   6.234   0.996   6.288
 4568SOL     OW14602   2.278   3.495   5.977
 4568SOL    HW114603   2.294   3.558   5.900
 4568SOL    HW214604   2.247   3.547   6.057
 4569SOL     OW14605   2.245   1.721   2.854
 4569SOL    HW114606   2.236   1.710   2.755
 4569SOL    HW214607   2.298   1.804   2.874
 4570SOL     OW14608   0.347   6.464   2.974
 4570SOL    HW114609   0.253   6.479   3.004
 4570SOL    HW214610   0.391   6.397   3.033
 4571SOL     OW14611   4.290   4.356   6.316
 4571SOL    HW114612   4.294   4.269   6.366
 4571SOL    HW214613   4.312   4.431   6.379
 4572SOL     OW14614   2.115   0.536   6.944
 4572SOL    HW114615   2.093   0.564   0.012
 4572SOL    HW214616   2.152   0.615   6.894
 4573SOL     OW14617   6.215   0.587   0.660
 4573SOL    HW114618   6.228   0.557   0.754
 4573SOL    HW214619   6.119   0.610   0.645
 4574SOL     OW14620   5.585   4.278   0.721
 4574SOL    HW114621   5.664   4.332   0.748
 4574SOL    HW214622   5.613   4.184   0.700
 4575SOL     OW14623   5.879   1.020   6.537
 4575SOL    HW114624   5.804   0.983   6.483
 4575SOL    HW214625   5.941   0.946   6.564
 4576SOL     OW14626   2.688   6.458   5.690
 4576SOL    HW114627   2.697   6.554   5.664
 4576SOL    HW214628   2.745   6.439   5.770
 4577SOL     OW14629   1.687   2.008   5.122
 4577SOL    HW114630   1.681   2.106   5.101
 4577SOL    HW214631   1.773   1.973   5.086
 4578SOL     OW14632   0.152   2.864   4.793
 4578SOL    HW114633   0.239   2.911   4.778
 4578SOL    HW214634   0.077   2.924   4.765
 4579SOL     OW14635   4.231   0.920   3.652
 4579SOL    HW114636   4.235   0.967   3.740
 4579SOL    HW214637   4.175   0.838   3.661
 4580SOL     OW14638   5.786   4.626   0.621
 4580SOL    HW114639   5.707   4.634   0.560
 4580SOL    HW214640   5.824   4.717   0.638
 4581SOL     OW14641   2.536   5.356   2.908
 4581SOL    HW114642   2.617   5.372   2.851
 4581SOL    HW214643   2.541   5.266   2.949
 4582SOL     OW14644   5.528   6.933   5.378
 4582SOL    HW114645   5.543   6.876   5.460
 4582SOL    HW214646   5.612   6.983   5.358
 4583SOL     OW14647   2.521   2.393   6.488
 4583SOL    HW114648   2.474   2.340   6.558
 4583SOL    HW214649   2.618   2.401   6.512
 4584SOL     OW14650   0.253   4.713   5.515
 4584SOL    HW114651   0.257   4.618   5.484
 4584SOL    HW214652   0.346   4.748   5.528
 4585SOL     OW14653   2.799   6.117   3.509
 4585SOL    HW114654   2.827   6.109   3.604
 4585SOL    HW214655   2.792   6.214   3.484
 4586SOL     OW14656   3.610   4.697   0.662
 4586SOL    HW114657   3.557   4.773   0.701
 4586SOL    HW214658   3.628   4.714   0.565
 4587SOL     OW14659   3.614   4.038   3.107
 4587SOL    HW114660   3.594   4.043   3.204
 4587SOL    HW214661   3.564   4.110   3.059
 4588SOL     OW14662   2.525   3.537   5.333
 4588SOL    HW114663   2.619   3.517   5.304
 4588SOL    HW214664   2.512   3.507   5.427
 4589SOL     OW14665   5.989   0.874   2.764
 4589SOL    HW114666   5.959   0.969   2.774
 4589SOL    HW214667   6.005   0.854   2.667
 4590SOL     OW14668   4.760   5.897   1.458
 4590SOL    HW114669   4.674   5.928   1.416
 4590SOL    HW214670   4.775   5.801   1.436
 4591SOL     OW14671   1.496   7.000   4.650
 4591SOL    HW114672   1.475   6.934   4.722
 4591SOL    HW214673   1.527   0.060   4.692
 4592SOL     OW14674   2.604   1.620   2.536
 4592SOL    HW114675   2.554   1.533   2.543
 4592SOL    HW214676   2.699   1.606   2.563
 4593SOL     OW14677   4.796   5.456   2.755
 4593SOL    HW114678   4.813   5.532   2.693
 4593SOL    HW214679   4.874   5.394   2.754
 4594SOL     OW14680   2.704   1.144   3.117
 4594SOL    HW114681   2.770   1.216   3.097
 4594SOL    HW214682   2.639   1.136   3.041
 4595SOL     OW14683   3.878   3.411   5.405
 4595SOL    HW114684   3.922   3.322   5.419
 4595SOL    HW214685   3.862   3.455   5.493
 4596SOL     OW14686   5.881   6.811   2.045
 4596SOL    HW114687   5.815   6.867   1.996
 4596SOL    HW214688   5.846   6.791   2.137
 4597SOL     OW14689   3.761   5.798   5.835
 4597SOL    HW114690   3.719   5.867   5.777
 4597SOL    HW214691   3.856   5.822   5.852
 4598SOL     OW14692   1.900   6.437   6.783
 4598SOL    HW114693   1.961   6.361   6.804
 4598SOL    HW214694   1.903   6.504   6.857
 4599SOL     OW14695   1.543   5.063   0.792
 4599SOL    HW114696   1.568   4.967   0.783
 4599SOL    HW214697   1.453   5.071   0.834
 4600SOL     OW14698   1.322   5.269   5.653
 4600SOL    HW114699   1.277   5.253   5.741
 4600SOL    HW214700   1.415   5.231   5.655
 4601SOL     OW14701   2.277   1.271   5.607
 4601SOL    HW114702   2.213   1.202   5.640
 4601SOL    HW214703   2.234   1.362   5.612
 4602SOL     OW14704   2.909   6.473   1.216
 4602SOL    HW114705   2.874   6.542   1.152
 4602SOL    HW214706   2.918   6.513   1.307
 4603SOL     OW14707   3.085   6.034   0.800
 4603SOL    HW114708   3.182   6.030   0.776
 4603SOL    HW214709   3.030   6.023   0.717
 4604SOL     OW14710   4.515   0.554   0.690
 4604SOL    HW114711   4.590   0.506   0.645
 4604SOL    HW214712   4.497   0.513   0.780
 4605SOL     OW14713   2.752   0.060   2.422
 4605SOL    HW114714   2.715   0.152   2.436
 4605SOL    HW214715   2.683   7.018   2.449
 4606SOL     OW14716   0.783   6.090   2.242
 4606SOL    HW114717   0.774   6.146   2.159
 4606SOL    HW214718   0.732   6.005   2.229
 4607SOL     OW14719   1.425   3.611   1.474
 4607SOL    HW114720   1.444   3.671   1.397
 4607SOL    HW214721   1.331   3.579   1.469
 4608SOL     OW14722   0.474   5.925   3.750
 4608SOL    HW114723   0.505   5.982   3.826
 4608SOL    HW214724   0.549   5.914   3.685
 4609SOL     OW14725   4.218   5.122   6.134
 4609SOL    HW114726   4.166   5.122   6.049
 4609SOL    HW214727   4.182   5.193   6.195
 4610SOL     OW14728   4.985   2.200   0.921
 4610SOL    HW114729   5.023   2.287   0.952
 4610SOL    HW214730   4.970   2.203   0.822
 4611SOL     OW14731   1.036   6.416   6.714
 4611SOL    HW114732   1.081   6.368   6.639
 4611SOL    HW214733   0.941   6.435   6.690
 4612SOL     OW14734   1.480   5.980   0.185
 4612SOL    HW114735   1.577   6.001   0.186
 4612SOL    HW214736   1.427   6.065   0.193
 4613SOL     OW14737   2.131   5.724   1.731
 4613SOL    HW114738   2.227   5.747   1.742
 4613SOL    HW214739   2.122   5.628   1.703
 4614SOL     OW14740   6.414   3.408   3.449
 4614SOL    HW114741   6.329   3.456   3.467
 4614SOL    HW214742   6.483   3.472   3.413
 4615SOL     OW14743   1.733   0.494   0.074
 4615SOL    HW114744   1.735   0.588   0.040
 4615SOL    HW214745   1.741   0.431   7.022
 4616SOL     OW14746   6.775   1.238   4.572
 4616SOL    HW114747   6.691   1.261   4.622
 4616SOL    HW214748   6.767   1.269   4.477
 4617SOL     OW14749   0.750   2.355   2.499
 4617SOL    HW114750   0.850   2.362   2.496
 4617SOL    HW214751   0.719   2.363   2.594
 4618SOL     OW14752   2.297   2.905   4.735
 4618SOL    HW114753   2.317   2.814   4.772
 4618SOL    HW214754   2.346   2.974   4.787
 4619SOL     OW14755   3.087   6.290   3.277
 4619SOL    HW114756   3.009   6.228   3.274
 4619SOL    HW214757   3.169   6.241   3.248
 4620SOL     OW14758   2.892   5.012   1.006
 4620SOL    HW114759   2.821   5.071   1.045
 4620SOL    HW214760   2.949   5.064   0.943
 4621SOL     OW14761   5.041   0.289   2.415
 4621SOL    HW114762   5.018   0.234   2.496
 4621SOL    HW214763   5.137   0.316   2.419
 4622SOL     OW14764   2.787   4.565   0.767
 4622SOL    HW114765   2.882   4.582   0.742
 4622SOL    HW214766   2.751   4.489   0.712
 4623SOL     OW14767   5.506   6.424   1.036
 4623SOL    HW114768   5.573   6.455   1.104
 4623SOL    HW214769   5.472   6.502   0.984
 4624SOL     OW14770   4.026   6.784   3.139
 4624SOL    HW114771   4.005   6.881   3.129
 4624SOL    HW214772   4.085   6.754   3.064
 4625SOL     OW14773   2.176   4.382   1.139
 4625SOL    HW114774   2.088   4.355   1.098
 4625SOL    HW214775   2.248   4.374   1.070
 4626SOL     OW14776   5.335   4.135   1.575
 4626SOL    HW114777   5.395   4.202   1.617
 4626SOL    HW214778   5.252   4.126   1.630
 4627SOL     OW14779   2.107   4.545   4.976
 4627SOL    HW114780   2.161   4.462   4.980
 4627SOL    HW214781   2.149   4.610   4.913
 4628SOL     OW14782   6.079   3.986   3.650
 4628SOL    HW114783   6.078   4.075   3.697
 4628SOL    HW214784   6.054   3.999   3.554
 4629SOL     OW14785   2.483   5.348   5.850
 4629SOL    HW114786   2.443   5.399   5.926
 4629SOL    HW214787   2.524   5.263   5.885
 4630SOL     OW14788   3.079   5.799   2.269
 4630SOL    HW114789   3.025   5.810   2.352
 4630SOL    HW214790   3.035   5.734   2.207
 4631SOL     OW14791   1.564   5.726   3.251
 4631SOL    HW114792   1.641   5.672   3.219
 4631SOL    HW214793   1.509   5.671   3.315
 4632SOL     OW14794   3.091   5.136   2.375
 4632SOL    HW114795   3.187   5.116   2.355
 4632SOL    HW214796   3.043   5.051   2.397
 4633SOL     OW14797   5.817   0.754   4.777
 4633SOL    HW114798   5.754   0.831   4.767
 4633SOL    HW214799   5.800   0.708   4.864
 4634SOL     OW14800   3.097   4.585   5.708
 4634SOL    HW114801   3.140   4.666   5.747
 4634SOL    HW214802   3.107   4.508   5.772
 4635SOL     OW14803   4.719   4.004   1.296
 4635SOL    HW114804   4.795   4.041   1.242
 4635SOL    HW214805   4.678   3.927   1.246
 4636SOL     OW14806   1.144   4.587   6.930
 4636SOL    HW114807   1.120   4.670   6.981
 4636SOL    HW214808   1.242   4.569   6.941
 4637SOL     OW14809   0.712   5.986   1.080
 4637SOL    HW114810   0.786   5.943   1.029
 4637SOL    HW214811   0.712   6.085   1.063
 4638SOL     OW14812   4.334   4.525   6.538
 4638SOL    HW114813   4.313   4.439   6.584
 4638SOL    HW214814   4.251   4.580   6.531
 4639SOL     OW14815   3.778   3.743   5.378
 4639SOL    HW114816   3.811   3.775   5.466
 4639SOL    HW214817   3.805   3.648   5.364
 4640SOL     OW14818   5.061   3.912   4.001
 4640SOL    HW114819   5.078   3.844   3.930
 4640SOL    HW214820   4.991   3.878   4.064
 4641SOL     OW14821   2.313   0.043   4.735
 4641SOL    HW114822   2.221   0.059   4.701
 4641SOL    HW214823   2.375   0.025   4.659
 4642SOL     OW14824   1.262   5.896   4.379
 4642SOL    HW114825   1.240   5.983   4.422
 4642SOL    HW214826   1.206   5.883   4.297
 4643SOL     OW14827   6.657   2.532   1.188
 4643SOL    HW114828   6.576   2.569   1.142
 4643SOL    HW214829   6.630   2.452   1.243
 4644SOL     OW14830   6.650   4.941   5.379
 4644SOL    HW114831   6.723   5.003   5.406
 4644SOL    HW214832   6.675   4.847   5.405
 4645SOL     OW14833   0.712   6.899   4.130
 4645SOL    HW114834   0.791   6.883   4.191
 4645SOL    HW214835   0.719   6.990   4.090
 4646SOL     OW14836   2.109   5.793   3.763
 4646SOL    HW114837   2.044   5.847   3.816
 4646SOL    HW214838   2.164   5.737   3.825
 4647SOL     OW14839   1.574   6.898   3.014
 4647SOL    HW114840   1.507   6.856   2.953
 4647SOL    HW214841   1.584   6.842   3.096
 4648SOL     OW14842   3.343   1.129   2.650
 4648SOL    HW114843   3.432   1.085   2.663
 4648SOL    HW214844   3.273   1.079   2.702
 4649SOL     OW14845   5.362   0.847   6.961
 4649SOL    HW114846   5.379   0.931   6.910
 4649SOL    HW214847   5.312   0.868   0.019
 4650SOL     OW14848   4.779   5.366   2.438
 4650SOL    HW114849   4.829   5.308   2.502
 4650SOL    HW214850   4.801   5.462   2.457
 4651SOL     OW14851   6.372   3.072   0.549
 4651SOL    HW114852   6.330   3.002   0.492
 4651SOL    HW214853   6.354   3.163   0.509
 4652SOL     OW14854   6.535   6.760   4.213
 4652SOL    HW114855   6.502   6.694   4.146
 4652SOL    HW214856   6.532   6.718   4.304
 4653SOL     OW14857   5.266   5.440   0.876
 4653SOL    HW114858   5.304   5.469   0.964
 4653SOL    HW214859   5.176   5.481   0.864
 4654SOL     OW14860   0.621   6.835   0.262
 4654SOL    HW114861   0.590   6.740   0.258
 4654SOL    HW214862   0.695   6.849   0.196
 4655SOL     OW14863   5.697   4.355   1.474
 4655SOL    HW114864   5.690   4.320   1.381
 4655SOL    HW214865   5.725   4.282   1.536
 4656SOL     OW14866   1.586   6.974   2.618
 4656SOL    HW114867   1.638   0.017   2.668
 4656SOL    HW214868   1.549   7.016   2.535
 4657SOL     OW14869   4.340   6.481   2.260
 4657SOL    HW114870   4.400   6.466   2.338
 4657SOL    HW214871   4.372   6.559   2.206
 4658SOL     OW14872   3.834   1.040   3.082
 4658SOL    HW114873   3.869   1.106   3.015
 4658SOL    HW214874   3.837   1.080   3.173
 4659SOL     OW14875   3.351   4.727   5.265
 4659SOL    HW114876   3.405   4.804   5.300
 4659SOL    HW214877   3.358   4.650   5.328
 4660SOL     OW14878   1.069   4.191   5.416
 4660SOL    HW114879   1.136   4.147   5.356
 4660SOL    HW214880   1.114   4.264   5.467
 4661SOL     OW14881   2.675   4.389   5.849
 4661SOL    HW114882   2.719   4.452   5.785
 4661SOL    HW214883   2.669   4.298   5.809
 4662SOL     OW14884   3.434   0.207   5.388
 4662SOL    HW114885   3.441   0.131   5.453
 4662SOL    HW214886   3.500   0.279   5.414
 4663SOL     OW14887   0.618   1.778   1.353
 4663SOL    HW114888   0.664   1.831   1.424
 4663SOL    HW214889   0.542   1.831   1.316
 4664SOL     OW14890   1.152   1.061   1.302
 4664SOL    HW114891   1.162   1.157   1.330
 4664SOL    HW214892   1.161   1.055   1.203
 4665SOL     OW14893   3.653   6.889   6.716
 4665SOL    HW114894   3.638   6.987   6.700
 4665SOL    HW214895   3.642   6.869   6.813
 4666SOL     OW14896   1.605   3.185   0.523
 4666SOL    HW114897   1.678   3.237   0.568
 4666SOL    HW214898   1.517   3.208   0.564
 4667SOL     OW14899   0.134   3.370   2.627
 4667SOL    HW114900   0.212   3.366   2.565
 4667SOL    HW214901   0.056   3.324   2.585
 4668SOL     OW14902   4.204   2.234   2.963
 4668SOL    HW114903   4.243   2.326   2.964
 4668SOL    HW214904   4.252   2.178   2.896
 4669SOL     OW14905   4.781   6.590   6.272
 4669SOL    HW114906   4.779   6.650   6.192
 4669SOL    HW214907   4.729   6.632   6.347
 4670SOL     OW14908   2.035   2.601   5.804
 4670SOL    HW114909   1.942   2.622   5.773
 4670SOL    HW214910   2.090   2.684   5.802
 4671SOL     OW14911   0.097   2.829   0.373
 4671SOL    HW114912   0.031   2.803   0.444
 4671SOL    HW214913   0.180   2.864   0.416
 4672SOL     OW14914   2.393   5.004   5.820
 4672SOL    HW114915   2.400   5.069   5.744
 4672SOL    HW214916   2.460   5.028   5.890
 4673SOL     OW14917   5.229   0.077   2.081
 4673SOL    HW114918   5.150   0.137   2.089
 4673SOL    HW214919   5.201   7.007   2.089
 4674SOL     OW14920   5.380   0.756   6.506
 4674SOL    HW114921   5.339   0.724   6.421
 4674SOL    HW214922   5.480   0.751   6.498
 4675SOL     OW14923   2.334   1.059   6.453
 4675SOL    HW114924   2.245   1.058   6.500
 4675SOL    HW214925   2.320   1.053   6.354
 4676SOL     OW14926   6.740   6.477   4.201
 4676SOL    HW114927   6.683   6.413   4.254
 4676SOL    HW214928   6.754   6.441   4.109
 4677SOL     OW14929   2.482   1.555   6.667
 4677SOL    HW114930   2.390   1.537   6.701
 4677SOL    HW214931   2.477   1.599   6.577
 4678SOL     OW14932   1.487   4.322   3.083
 4678SOL    HW114933   1.428   4.314   3.163
 4678SOL    HW214934   1.533   4.234   3.067
 4679SOL     OW14935   3.695   1.074   0.379
 4679SOL    HW114936   3.779   1.128   0.374
 4679SOL    HW214937   3.619   1.132   0.409
 4680SOL     OW14938   2.790   1.619   0.483
 4680SOL    HW114939   2.820   1.525   0.496
 4680SOL    HW214940   2.702   1.620   0.436
 4681SOL     OW14941   5.271   5.995   6.259
 4681SOL    HW114942   5.226   5.984   6.348
 4681SOL    HW214943   5.370   6.002   6.273
 4682SOL     OW14944   4.374   4.185   5.675
 4682SOL    HW114945   4.287   4.226   5.701
 4682SOL    HW214946   4.386   4.192   5.575
 4683SOL     OW14947   4.269   4.921   2.847
 4683SOL    HW114948   4.315   5.008   2.830
 4683SOL    HW214949   4.233   4.920   2.940
 4684SOL     OW14950   6.884   1.633   5.390
 4684SOL    HW114951   6.899   1.548   5.340
 4684SOL    HW214952   6.956   1.646   5.458
 4685SOL     OW14953   0.724   5.970   5.710
 4685SOL    HW114954   0.712   5.884   5.660
 4685SOL    HW214955   0.637   5.996   5.752
 4686SOL     OW14956   4.454   4.858   0.040
 4686SOL    HW114957   4.471   4.892   6.973
 4686SOL    HW214958   4.395   4.777   0.035
 4687SOL     OW14959   6.308   3.843   4.678
 4687SOL    HW114960   6.326   3.881   4.769
 4687SOL    HW214961   6.217   3.871   4.648
 4688SOL     OW14962   6.198   4.422   4.511
 4688SOL    HW114963   6.099   4.436   4.517
 4688SOL    HW214964   6.232   4.464   4.426
 4689SOL     OW14965   5.919   0.502   0.626
 4689SOL    HW114966   5.866   0.429   0.668
 4689SOL    HW214967   5.965   0.467   0.544
 4690SOL     OW14968   1.292   0.211   6.875
 4690SOL    HW114969   1.213   0.189   6.818
 4690SOL    HW214970   1.261   0.232   6.968
 4691SOL     OW14971   3.071   5.071   1.697
 4691SOL    HW114972   3.037   5.094   1.606
 4691SOL    HW214973   2.994   5.051   1.758
 4692SOL     OW14974   5.830   5.637   2.084
 4692SOL    HW114975   5.864   5.649   2.177
 4692SOL    HW214976   5.786   5.547   2.076
 4693SOL     OW14977   0.999   1.291   3.172
 4693SOL    HW114978   1.014   1.353   3.249
 4693SOL    HW214979   1.076   1.228   3.164
 4694SOL     OW14980   2.187   0.450   0.368
 4694SOL    HW114981   2.189   0.550   0.378
 4694SOL    HW214982   2.279   0.416   0.351
 4695SOL     OW14983   1.802   3.635   1.832
 4695SOL    HW114984   1.702   3.638   1.821
 4695SOL    HW214985   1.825   3.580   1.911
 4696SOL     OW14986   0.405   4.099   0.050
 4696SOL    HW114987   0.471   4.063   7.009
 4696SOL    HW214988   0.422   4.058   0.139
 4697SOL     OW14989   2.123   3.387   1.102
 4697SOL    HW114990   2.151   3.291   1.107
 4697SOL    HW214991   2.202   3.446   1.119
 4698SOL     OW14992   4.371   5.165   2.812
 4698SOL    HW114993   4.441   5.234   2.794
 4698SOL    HW214994   4.284   5.196   2.776
 4699SOL     OW14995   1.931   6.609   1.978
 4699SOL    HW114996   1.844   6.642   1.943
 4699SOL    HW214997   2.006   6.647   1.924
 4700SOL     OW14998   6.573   1.832   2.621
 4700SOL    HW114999   6.553   1.738   2.647
 4700SOL    HW215000   6.487   1.880   2.601
 4701SOL     OW15001   2.292   2.300   0.143
 4701SOL    HW115002   2.261   2.383   0.097
 4701SOL    HW215003   2.325   2.235   0.074
 4702SOL     OW15004   4.092   5.394   6.836
 4702SOL    HW115005   4.130   5.365   6.924
 4702SOL    HW215006   4.128   5.335   6.763
 4703SOL     OW15007   0.810   1.206   1.581
 4703SOL    HW115008   0.820   1.304   1.603
 4703SOL    HW215009   0.826   1.152   1.664
 4704SOL     OW15010   0.837   6.707   0.439
 4704SOL    HW115011   0.822   6.620   0.392
 4704SOL    HW215012   0.788   6.779   0.391
 4705SOL     OW15013   3.485   3.035   2.022
 4705SOL    HW115014   3.557   3.103   2.032
 4705SOL    HW215015   3.488   2.973   2.101
 4706SOL     OW15016   3.632   0.315   6.691
 4706SOL    HW115017   3.582   0.395   6.658
 4706SOL    HW215018   3.568   0.253   6.736
 4707SOL     OW15019   1.685   6.364   1.165
 4707SOL    HW115020   1.755   6.410   1.111
 4707SOL    HW215021   1.729   6.302   1.230
 4708SOL     OW15022   1.296   1.750   6.493
 4708SOL    HW115023   1.230   1.677   6.510
 4708SOL    HW215024   1.378   1.713   6.451
 4709SOL     OW15025   4.349   5.967   5.749
 4709SOL    HW115026   4.311   6.041   5.694
 4709SOL    HW215027   4.319   5.879   5.713
 4710SOL     OW15028   3.940   1.163   5.269
 4710SOL    HW115029   3.969   1.200   5.358
 4710SOL    HW215030   4.012   1.180   5.201
 4711SOL     OW15031   5.728   0.781   1.624
 4711SOL    HW115032   5.642   0.805   1.579
 4711SOL    HW215033   5.778   0.717   1.567
 4712SOL     OW15034   2.735   4.557   6.883
 4712SOL    HW115035   2.641   4.593   6.886
 4712SOL    HW215036   2.732   4.461   6.853
 4713SOL     OW15037   3.128   3.657   0.191
 4713SOL    HW115038   3.138   3.754   0.170
 4713SOL    HW215039   3.038   3.625   0.161
 4714SOL     OW15040   1.226   2.348   0.038
 4714SOL    HW115041   1.302   2.313   7.009
 4714SOL    HW215042   1.257   2.427   0.091
 4715SOL     OW15043   5.693   2.348   2.591
 4715SOL    HW115044   5.689   2.403   2.674
 4715SOL    HW215045   5.606   2.355   2.541
 4716SOL     OW15046   5.135   5.273   6.695
 4716SOL    HW115047   5.199   5.225   6.635
 4716SOL    HW215048   5.140   5.233   6.787
 4717SOL     OW15049   0.355   6.886   3.671
 4717SOL    HW115050   0.359   6.884   3.571
 4717SOL    HW215051   0.287   6.820   3.703
 4718SOL     OW15052   5.743   2.587   1.558
 4718SOL    HW115053   5.683   2.656   1.518
 4718SOL    HW215054   5.715   2.497   1.527
 4719SOL     OW15055   5.300   3.216   2.081
 4719SOL    HW115056   5.237   3.271   2.136
 4719SOL    HW215057   5.255   3.190   1.995
 4720SOL     OW15058   2.343   5.491   6.025
 4720SOL    HW115059   2.260   5.474   5.972
 4720SOL    HW215060   2.343   5.586   6.058
 4721SOL     OW15061   7.002   2.139   1.710
 4721SOL    HW115062   6.987   2.090   1.796
 4721SOL    HW215063   6.961   2.230   1.716
 4722SOL     OW15064   1.143   6.305   6.486
 4722SOL    HW115065   1.215   6.241   6.512
 4722SOL    HW215066   1.184   6.393   6.463
 4723SOL     OW15067   1.986   3.878   5.718
 4723SOL    HW115068   2.059   3.810   5.710
 4723SOL    HW215069   1.978   3.907   5.814
 4724SOL     OW15070   6.030   5.984   2.981
 4724SOL    HW115071   6.028   6.081   3.007
 4724SOL    HW215072   6.057   5.976   2.886
 4725SOL     OW15073   6.194   5.716   2.691
 4725SOL    HW115074   6.231   5.701   2.783
 4725SOL    HW215075   6.110   5.663   2.679
 4726SOL     OW15076   1.790   2.733   5.737
 4726SOL    HW115077   1.775   2.733   5.638
 4726SOL    HW215078   1.716   2.683   5.782
 4727SOL     OW15079   0.951   5.820   0.696
 4727SOL    HW115080   1.025   5.754   0.692
 4727SOL    HW215081   0.940   5.865   0.607
 4728SOL     OW15082   5.943   0.858   2.093
 4728SOL    HW115083   5.996   0.851   2.177
 4728SOL    HW215084   5.995   0.816   2.018
 4729SOL     OW15085   2.681   1.493   1.076
 4729SOL    HW115086   2.670   1.394   1.068
 4729SOL    HW215087   2.779   1.515   1.077
 4730SOL     OW15088   3.287   5.728   4.993
 4730SOL    HW115089   3.267   5.707   4.898
 4730SOL    HW215090   3.307   5.825   5.003
 4731SOL     OW15091   4.522   0.241   0.190
 4731SOL    HW115092   4.484   0.320   0.142
 4731SOL    HW215093   4.621   0.250   0.197
 4732SOL     OW15094   0.887   3.440   6.195
 4732SOL    HW115095   0.865   3.350   6.233
 4732SOL    HW215096   0.829   3.509   6.237
 4733SOL     OW15097   1.246   3.826   3.566
 4733SOL    HW115098   1.234   3.923   3.585
 4733SOL    HW215099   1.164   3.789   3.523
 4734SOL     OW15100   4.645   2.540   0.627
 4734SOL    HW115101   4.638   2.444   0.601
 4734SOL    HW215102   4.553   2.579   0.633
 4735SOL     OW15103   6.966   5.917   4.930
 4735SOL    HW115104   7.024   5.862   4.990
 4735SOL    HW215105   7.021   5.961   4.860
 4736SOL     OW15106   0.104   2.384   6.251
 4736SOL    HW115107   0.053   2.469   6.261
 4736SOL    HW215108   0.199   2.405   6.228
 4737SOL     OW15109   2.371   4.422   2.280
 4737SOL    HW115110   2.390   4.420   2.182
 4737SOL    HW215111   2.451   4.391   2.330
 4738SOL     OW15112   0.408   6.446   3.378
 4738SOL    HW115113   0.315   6.480   3.388
 4738SOL    HW215114   0.433   6.392   3.458
 4739SOL     OW15115   3.926   6.490   3.369
 4739SOL    HW115116   3.957   6.549   3.443
 4739SOL    HW215117   4.000   6.429   3.341
 4740SOL     OW15118   0.796   1.302   1.317
 4740SOL    HW115119   0.810   1.274   1.412
 4740SOL    HW215120   0.766   1.222   1.264
 4741SOL     OW15121   3.892   3.338   1.215
 4741SOL    HW115122   3.882   3.438   1.211
 4741SOL    HW215123   3.989   3.314   1.209
 4742SOL     OW15124   3.491   6.886   5.821
 4742SOL    HW115125   3.504   6.896   5.920
 4742SOL    HW215126   3.397   6.911   5.798
 4743SOL     OW15127   1.722   3.247   2.986
 4743SOL    HW115128   1.662   3.183   2.938
 4743SOL    HW215129   1.682   3.272   3.074
 4744SOL     OW15130   1.672   4.493   0.650
 4744SOL    HW115131   1.710   4.551   0.578
 4744SOL    HW215132   1.660   4.547   0.733
 4745SOL     OW15133   3.072   3.930   5.608
 4745SOL    HW115134   3.042   3.953   5.515
 4745SOL    HW215135   3.124   3.844   5.606
 4746SOL     OW15136   5.670   6.153   2.674
 4746SOL    HW115137   5.672   6.083   2.603
 4746SOL    HW215138   5.690   6.111   2.763
 4747SOL     OW15139   1.482   3.896   6.901
 4747SOL    HW115140   1.576   3.917   6.930
 4747SOL    HW215141   1.483   3.819   6.837
 4748SOL     OW15142   2.625   5.140   1.251
 4748SOL    HW115143   2.664   5.085   1.324
 4748SOL    HW215144   2.585   5.223   1.289
 4749SOL     OW15145   1.947   6.318   5.647
 4749SOL    HW115146   1.979   6.303   5.554
 4749SOL    HW215147   2.011   6.278   5.712
 4750SOL     OW15148   0.303   3.653   4.762
 4750SOL    HW115149   0.373   3.582   4.778
 4750SOL    HW215150   0.290   3.707   4.845
 4751SOL     OW15151   3.978   2.162   2.310
 4751SOL    HW115152   4.006   2.160   2.406
 4751SOL    HW215153   3.914   2.237   2.295
 4752SOL     OW15154   4.117   1.355   6.688
 4752SOL    HW115155   4.207   1.383   6.653
 4752SOL    HW215156   4.047   1.416   6.651
 4753SOL     OW15157   6.506   0.495   3.895
 4753SOL    HW115158   6.586   0.542   3.858
 4753SOL    HW215159   6.486   0.414   3.841
 4754SOL     OW15160   5.672   4.872   4.772
 4754SOL    HW115161   5.749   4.894   4.831
 4754SOL    HW215162   5.672   4.774   4.752
 4755SOL     OW15163   3.198   0.703   0.457
 4755SOL    HW115164   3.294   0.703   0.429
 4755SOL    HW215165   3.140   0.688   0.377
 4756SOL     OW15166   5.996   2.577   6.886
 4756SOL    HW115167   5.960   2.623   6.806
 4756SOL    HW215168   6.040   2.491   6.858
 4757SOL     OW15169   2.287   1.593   1.248
 4757SOL    HW115170   2.287   1.495   1.227
 4757SOL    HW215171   2.293   1.605   1.348
 4758SOL     OW15172   1.502   6.397   3.789
 4758SOL    HW115173   1.447   6.315   3.777
 4758SOL    HW215174   1.449   6.467   3.836
 4759SOL     OW15175   6.408   4.577   5.273
 4759SOL    HW115176   6.453   4.497   5.233
 4759SOL    HW215177   6.398   4.649   5.204
 4760SOL     OW15178   2.244   1.825   0.424
 4760SOL    HW115179   2.212   1.910   0.381
 4760SOL    HW215180   2.200   1.747   0.380
 4761SOL     OW15181   0.832   6.078   0.453
 4761SOL    HW115182   0.737   6.060   0.424
 4761SOL    HW215183   0.883   6.116   0.376
 4762SOL     OW15184   1.462   5.737   1.843
 4762SOL    HW115185   1.530   5.672   1.879
 4762SOL    HW215186   1.508   5.822   1.817
 4763SOL     OW15187   6.443   0.260   2.594
 4763SOL    HW115188   6.467   0.324   2.521
 4763SOL    HW215189   6.465   0.300   2.683
 4764SOL     OW15190   4.867   3.923   4.902
 4764SOL    HW115191   4.940   3.900   4.837
 4764SOL    HW215192   4.840   3.840   4.951
 4765SOL     OW15193   4.630   0.829   4.843
 4765SOL    HW115194   4.714   0.774   4.847
 4765SOL    HW215195   4.653   0.926   4.851
 4766SOL     OW15196   5.637   5.874   4.027
 4766SOL    HW115197   5.724   5.848   4.069
 4766SOL    HW215198   5.655   5.925   3.943
 4767SOL     OW15199   2.796   5.630   5.163
 4767SOL    HW115200   2.806   5.531   5.158
 4767SOL    HW215201   2.774   5.666   5.072
 4768SOL     OW15202   4.586   2.167   6.135
 4768SOL    HW115203   4.676   2.123   6.127
 4768SOL    HW215204   4.515   2.102   6.108
 4769SOL     OW15205   4.776   4.940   0.083
 4769SOL    HW115206   4.795   4.891   0.168
 4769SOL    HW215207   4.718   4.883   0.024
 4770SOL     OW15208   7.013   1.836   4.180
 4770SOL    HW115209   0.010   1.901   4.107
 4770SOL    HW215210   6.983   1.749   4.139
 4771SOL     OW15211   2.795   5.839   5.483
 4771SOL    HW115212   2.817   5.746   5.454
 4771SOL    HW215213   2.698   5.846   5.504
 4772SOL     OW15214   4.208   4.894   0.854
 4772SOL    HW115215   4.202   4.860   0.760
 4772SOL    HW215216   4.185   4.991   0.856
 4773SOL     OW15217   6.765   5.254   4.582
 4773SOL    HW115218   6.758   5.217   4.674
 4773SOL    HW215219   6.723   5.345   4.580
 4774SOL     OW15220   1.864   3.402   1.608
 4774SOL    HW115221   1.886   3.306   1.594
 4774SOL    HW215222   1.868   3.424   1.706
 4775SOL     OW15223   5.978   6.852   3.230
 4775SOL    HW115224   5.891   6.863   3.183
 4775SOL    HW215225   6.023   6.941   3.238
 4776SOL     OW15226   1.081   6.376   5.515
 4776SOL    HW115227   1.033   6.301   5.471
 4776SOL    HW215228   1.094   6.355   5.612
 4777SOL     OW15229   1.608   5.298   1.094
 4777SOL    HW115230   1.543   5.283   1.169
 4777SOL    HW215231   1.685   5.352   1.128
 4778SOL     OW15232   6.560   2.946   3.713
 4778SOL    HW115233   6.528   2.867   3.660
 4778SOL    HW215234   6.541   3.030   3.663
 4779SOL     OW15235   5.790   6.033   2.326
 4779SOL    HW115236   5.838   6.121   2.318
 4779SOL    HW215237   5.810   5.993   2.416
 4780SOL     OW15238   5.893   1.923   6.870
 4780SOL    HW115239   5.837   1.855   6.823
 4780SOL    HW215240   5.835   1.979   6.929
 4781SOL     OW15241   2.540   5.775   2.664
 4781SOL    HW115242   2.574   5.838   2.735
 4781SOL    HW215243   2.443   5.756   2.681
 4782SOL     OW15244   5.910   5.222   6.958
 4782SOL    HW115245   5.905   5.265   6.868
 4782SOL    HW215246   5.912   5.122   6.947
 4783SOL     OW15247   4.833   3.831   6.861
 4783SOL    HW115248   4.795   3.919   6.890
 4783SOL    HW215249   4.761   3.762   6.860
 4784SOL     OW15250   6.547   3.193   6.250
 4784SOL    HW115251   6.515   3.164   6.340
 4784SOL    HW215252   6.597   3.119   6.206
 4785SOL     OW15253   1.225   6.069   2.863
 4785SOL    HW115254   1.217   6.004   2.787
 4785SOL    HW215255   1.209   6.022   2.949
 4786SOL     OW15256   2.728   0.207   0.434
 4786SOL    HW115257   2.788   0.285   0.451
 4786SOL    HW215258   2.637   0.240   0.409
 4787SOL     OW15259   4.212   1.252   2.906
 4787SOL    HW115260   4.269   1.334   2.903
 4787SOL    HW215261   4.232   1.195   2.826
 4788SOL     OW15262   6.560   6.074   0.003
 4788SOL    HW115263   6.622   6.058   6.952
 4788SOL    HW215264   6.477   6.119   6.995
 4789SOL     OW15265   4.896   1.477   1.807
 4789SOL    HW115266   4.994   1.475   1.823
 4789SOL    HW215267   4.853   1.546   1.865
 4790SOL     OW15268   5.824   1.494   5.483
 4790SOL    HW115269   5.877   1.508   5.399
 4790SOL    HW215270   5.735   1.456   5.460
 4791SOL     OW15271   0.168   3.085   1.301
 4791SOL    HW115272   0.190   3.145   1.379
 4791SOL    HW215273   0.141   2.995   1.335
 4792SOL     OW15274   2.592   4.912   3.909
 4792SOL    HW115275   2.520   4.978   3.928
 4792SOL    HW215276   2.594   4.843   3.982
 4793SOL     OW15277   2.271   2.753   5.110
 4793SOL    HW115278   2.319   2.841   5.107
 4793SOL    HW215279   2.307   2.698   5.186
 4794SOL     OW15280   5.572   7.022   4.980
 4794SOL    HW115281   5.505   0.029   4.914
 4794SOL    HW215282   5.603   6.930   4.953
 4795SOL     OW15283   6.301   2.140   4.209
 4795SOL    HW115284   6.209   2.161   4.175
 4795SOL    HW215285   6.361   2.119   4.132
 4796SOL     OW15286   4.759   1.335   4.965
 4796SOL    HW115287   4.714   1.339   5.054
 4796SOL    HW215288   4.807   1.421   4.947
 4797SOL     OW15289   0.603   6.757   5.661
 4797SOL    HW115290   0.591   6.658   5.665
 4797SOL    HW215291   0.557   6.793   5.580
 4798SOL     OW15292   0.319   4.181   5.618
 4798SOL    HW115293   0.408   4.142   5.597
 4798SOL    HW215294   0.249   4.137   5.561
 4799SOL     OW15295   4.039   1.786   0.720
 4799SOL    HW115296   3.950   1.768   0.679
 4799SOL    HW215297   4.111   1.771   0.653
 4800SOL     OW15298   2.975   2.747   6.975
 4800SOL    HW115299   2.951   2.761   6.879
 4800SOL    HW215300   3.031   2.665   6.984
 4801SOL     OW15301   3.190   2.279   6.668
 4801SOL    HW115302   3.275   2.260   6.717
 4801SOL    HW215303   3.203   2.359   6.609
 4802SOL     OW15304   0.488   6.398   1.924
 4802SOL    HW115305   0.573   6.409   1.975
 4802SOL    HW215306   0.432   6.480   1.935
 4803SOL     OW15307   6.865   4.745   6.865
 4803SOL    HW115308   6.964   4.731   6.872
 4803SOL    HW215309   6.847   4.833   6.821
 4804SOL     OW15310   6.899   6.760   1.769
 4804SOL    HW115311   6.989   6.804   1.760
 4804SOL    HW215312   6.902   6.691   1.840
 4805SOL     OW15313   5.600   1.451   1.910
 4805SOL    HW115314   5.622   1.353   1.904
 4805SOL    HW215315   5.507   1.461   1.946
 4806SOL     OW15316   0.735   4.581   2.215
 4806SOL    HW115317   0.776   4.505   2.266
 4806SOL    HW215318   0.794   4.605   2.138
 4807SOL     OW15319   0.473   4.993   6.995
 4807SOL    HW115320   0.541   5.060   6.965
 4807SOL    HW215321   0.462   4.998   0.068
 4808SOL     OW15322   4.462   5.371   1.107
 4808SOL    HW115323   4.484   5.452   1.052
 4808SOL    HW215324   4.486   5.389   1.203
 4809SOL     OW15325   3.672   5.025   0.181
 4809SOL    HW115326   3.761   4.982   0.167
 4809SOL    HW215327   3.620   4.973   0.249
 4810SOL     OW15328   1.681   4.357   2.488
 4810SOL    HW115329   1.720   4.328   2.575
 4810SOL    HW215330   1.687   4.282   2.422
 4811SOL     OW15331   2.590   4.148   1.678
 4811SOL    HW115332   2.670   4.104   1.719
 4811SOL    HW215333   2.611   4.243   1.655
 4812SOL     OW15334   0.672   5.798   2.268
 4812SOL    HW115335   0.621   5.877   2.233
 4812SOL    HW215336   0.649   5.718   2.214
 4813SOL     OW15337   5.703   1.780   6.764
 4813SOL    HW115338   5.686   1.767   6.667
 4813SOL    HW215339   5.622   1.750   6.816
 4814SOL     OW15340   0.019   3.242   1.106
 4814SOL    HW115341   0.046   3.230   1.010
 4814SOL    HW215342   0.066   3.174   1.163
 4815SOL     OW15343   5.204   3.826   2.809
 4815SOL    HW115344   5.238   3.787   2.724
 4815SOL    HW215345   5.277   3.826   2.877
 4816SOL     OW15346   2.425   4.689   1.123
 4816SOL    HW115347   2.497   4.758   1.111
 4816SOL    HW215348   2.467   4.601   1.144
 4817SOL     OW15349   2.123   1.622   0.315
 4817SOL    HW115350   2.211   1.579   0.296
 4817SOL    HW215351   2.051   1.552   0.315
 4818SOL     OW15352   0.570   0.200   4.594
 4818SOL    HW115353   0.600   0.156   4.510
 4818SOL    HW215354   0.472   0.219   4.589
 4819SOL     OW15355   2.511   1.965   1.165
 4819SOL    HW115356   2.526   1.867   1.148
 4819SOL    HW215357   2.415   1.980   1.190
 4820SOL     OW15358   6.332   2.543   2.202
 4820SOL    HW115359   6.278   2.581   2.126
 4820SOL    HW215360   6.275   2.481   2.255
 4821SOL     OW15361   0.601   6.680   2.336
 4821SOL    HW115362   0.672   6.639   2.278
 4821SOL    HW215363   0.610   6.779   2.335
 4822SOL     OW15364   2.169   3.349   4.551
 4822SOL    HW115365   2.261   3.314   4.533
 4822SOL    HW215366   2.139   3.318   4.642
 4823SOL     OW15367   1.106   0.551   4.267
 4823SOL    HW115368   1.143   0.643   4.260
 4823SOL    HW215369   1.022   0.545   4.212
 4824SOL     OW15370   5.142   2.028   4.395
 4824SOL    HW115371   5.158   2.103   4.458
 4824SOL    HW215372   5.215   2.026   4.326
 4825SOL     OW15373   1.787   2.263   4.873
 4825SOL    HW115374   1.852   2.202   4.918
 4825SOL    HW215375   1.743   2.321   4.942
 4826SOL     OW15376   0.179   1.538   6.330
 4826SOL    HW115377   0.173   1.636   6.309
 4826SOL    HW215378   0.110   1.515   6.398
 4827SOL     OW15379   6.345   1.180   1.678
 4827SOL    HW115380   6.254   1.144   1.698
 4827SOL    HW215381   6.337   1.261   1.620
 4828SOL     OW15382   5.465   3.028   1.062
 4828SOL    HW115383   5.439   3.038   1.158
 4828SOL    HW215384   5.555   3.070   1.047
 4829SOL     OW15385   4.551   0.016   6.819
 4829SOL    HW115386   4.593   0.105   6.834
 4829SOL    HW215387   4.451   0.025   6.821
 4830SOL     OW15388   4.530   6.717   3.864
 4830SOL    HW115389   4.609   6.721   3.925
 4830SOL    HW215390   4.520   6.625   3.828
 4831SOL     OW15391   0.372   4.565   6.302
 4831SOL    HW115392   0.445   4.583   6.235
 4831SOL    HW215393   0.285   4.593   6.262
 4832SOL     OW15394   2.986   3.329   4.716
 4832SOL    HW115395   3.029   3.316   4.806
 4832SOL    HW215396   2.961   3.425   4.706
 4833SOL     OW15397   4.878   2.026   3.216
 4833SOL    HW115398   4.926   2.102   3.173
 4833SOL    HW215399   4.779   2.044   3.216
 4834SOL     OW15400   4.268   6.457   1.211
 4834SOL    HW115401   4.186   6.433   1.160
 4834SOL    HW215402   4.243   6.505   1.295
 4835SOL     OW15403   6.979   1.396   6.500
 4835SOL    HW115404   7.025   1.398   6.589
 4835SOL    HW215405   6.982   1.303   6.463
 4836SOL     OW15406   5.044   2.665   4.380
 4836SOL    HW115407   5.049   2.738   4.449
 4836SOL    HW215408   5.081   2.700   4.293
 4837SOL     OW15409   5.839   3.673   2.396
 4837SOL    HW115410   5.842   3.632   2.488
 4837SOL    HW215411   5.759   3.639   2.348
 4838SOL     OW15412   0.946   5.299   0.616
 4838SOL    HW115413   0.970   5.269   0.524
 4838SOL    HW215414   1.021   5.280   0.678
 4839SOL     OW15415   1.892   2.878   6.651
 4839SOL    HW115416   1.933   2.924   6.572
 4839SOL    HW215417   1.919   2.781   6.650
 4840SOL     OW15418   6.685   5.261   6.161
 4840SOL    HW115419   6.701   5.163   6.147
 4840SOL    HW215420   6.715   5.286   6.253
 4841SOL     OW15421   3.302   5.615   2.089
 4841SOL    HW115422   3.239   5.564   2.148
 4841SOL    HW215423   3.275   5.602   1.994
 4842SOL     OW15424   3.501   4.925   2.647
 4842SOL    HW115425   3.431   4.935   2.717
 4842SOL    HW215426   3.582   4.882   2.686
 4843SOL     OW15427   6.391   2.762   0.850
 4843SOL    HW115428   6.410   2.742   0.947
 4843SOL    HW215429   6.369   2.859   0.840
 4844SOL     OW15430   0.084   3.033   5.624
 4844SOL    HW115431   0.122   3.107   5.567
 4844SOL    HW215432   7.010   3.031   5.614
 4845SOL     OW15433   5.242   5.396   5.927
 4845SOL    HW115434   5.196   5.312   5.958
 4845SOL    HW215435   5.215   5.417   5.833
 4846SOL     OW15436   6.937   3.185   3.643
 4846SOL    HW115437   6.854   3.161   3.593
 4846SOL    HW215438   6.937   3.283   3.665
 4847SOL     OW15439   2.677   1.176   6.051
 4847SOL    HW115440   2.635   1.232   6.123
 4847SOL    HW215441   2.651   1.080   6.064
 4848SOL     OW15442   1.748   0.527   3.855
 4848SOL    HW115443   1.681   0.545   3.926
 4848SOL    HW215444   1.763   0.609   3.800
 4849SOL     OW15445   1.283   6.649   6.488
 4849SOL    HW115446   1.330   6.658   6.576
 4849SOL    HW215447   1.281   6.737   6.442
 4850SOL     OW15448   3.940   1.852   2.334
 4850SOL    HW115449   3.897   1.942   2.326
 4850SOL    HW215450   3.870   1.782   2.338
 4851SOL     OW15451   4.715   6.387   5.845
 4851SOL    HW115452   4.631   6.437   5.868
 4851SOL    HW215453   4.735   6.321   5.917
 4852SOL     OW15454   1.510   6.166   4.939
 4852SOL    HW115455   1.555   6.250   4.969
 4852SOL    HW215456   1.568   6.087   4.962
 4853SOL     OW15457   3.092   1.244   3.132
 4853SOL    HW115458   3.137   1.155   3.117
 4853SOL    HW215459   3.160   1.311   3.162
 4854SOL     OW15460   4.548   6.995   1.540
 4854SOL    HW115461   4.548   6.978   1.442
 4854SOL    HW215462   4.462   0.014   1.566
 4855SOL     OW15463   6.166   2.505   3.063
 4855SOL    HW115464   6.193   2.460   3.148
 4855SOL    HW215465   6.178   2.442   2.986
 4856SOL     OW15466   1.733   3.500   2.651
 4856SOL    HW115467   1.697   3.413   2.620
 4856SOL    HW215468   1.680   3.532   2.729
 4857SOL     OW15469   1.960   2.062   4.972
 4857SOL    HW115470   1.979   2.051   5.070
 4857SOL    HW215471   1.978   1.976   4.925
 4858SOL     OW15472   0.626   0.645   4.306
 4858SOL    HW115473   0.618   0.579   4.381
 4858SOL    HW215474   0.707   0.702   4.322
 4859SOL     OW15475   0.466   0.477   4.918
 4859SOL    HW115476   0.495   0.525   4.835
 4859SOL    HW215477   0.457   0.542   4.993
 4860SOL     OW15478   4.236   4.428   1.769
 4860SOL    HW115479   4.289   4.511   1.753
 4860SOL    HW215480   4.297   4.349   1.772
 4861SOL     OW15481   5.752   4.584   0.269
 4861SOL    HW115482   5.719   4.505   0.321
 4861SOL    HW215483   5.850   4.596   0.286
 4862SOL     OW15484   2.490   4.857   4.677
 4862SOL    HW115485   2.493   4.780   4.742
 4862SOL    HW215486   2.506   4.823   4.585
 4863SOL     OW15487   5.756   3.718   1.897
 4863SOL    HW115488   5.715   3.667   1.821
 4863SOL    HW215489   5.810   3.655   1.954
 4864SOL     OW15490   4.068   1.511   2.747
 4864SOL    HW115491   4.024   1.507   2.836
 4864SOL    HW215492   4.076   1.607   2.717
 4865SOL     OW15493   2.239   6.731   4.454
 4865SOL    HW115494   2.326   6.761   4.494
 4865SOL    HW215495   2.250   6.639   4.416
 4866SOL     OW15496   6.410   3.104   1.915
 4866SOL    HW115497   6.456   3.018   1.936
 4866SOL    HW215498   6.427   3.170   1.988
 4867SOL     OW15499   3.543   5.230   1.997
 4867SOL    HW115500   3.525   5.315   1.949
 4867SOL    HW215501   3.546   5.154   1.932
 4868SOL     OW15502   6.683   4.778   2.599
 4868SOL    HW115503   6.621   4.708   2.563
 4868SOL    HW215504   6.662   4.795   2.695
 4869SOL     OW15505   1.162   1.144   1.883
 4869SOL    HW115506   1.115   1.108   1.802
 4869SOL    HW215507   1.211   1.070   1.929
 4870SOL     OW15508   0.079   5.622   2.414
 4870SOL    HW115509   0.021   5.589   2.340
 4870SOL    HW215510   0.148   5.553   2.435
 4871SOL     OW15511   1.690   1.127   3.749
 4871SOL    HW115512   1.674   1.219   3.713
 4871SOL    HW215513   1.679   1.060   3.675
 4872SOL     OW15514   5.916   6.394   3.775
 4872SOL    HW115515   5.991   6.337   3.742
 4872SOL    HW215516   5.830   6.362   3.737
 4873SOL     OW15517   0.089   5.048   3.474
 4873SOL    HW115518   0.117   4.952   3.469
 4873SOL    HW215519   0.156   5.099   3.527
 4874SOL     OW15520   6.210   3.336   3.063
 4874SOL    HW115521   6.154   3.306   2.986
 4874SOL    HW215522   6.300   3.292   3.058
 4875SOL     OW15523   6.056   2.564   1.550
 4875SOL    HW115524   6.067   2.634   1.621
 4875SOL    HW215525   5.960   2.563   1.519
 4876SOL     OW15526   5.749   1.437   4.141
 4876SOL    HW115527   5.655   1.410   4.164
 4876SOL    HW215528   5.756   1.536   4.140
 4877SOL     OW15529   1.632   2.007   6.744
 4877SOL    HW115530   1.563   1.985   6.813
 4877SOL    HW215531   1.592   2.068   6.675
 4878SOL     OW15532   6.652   0.478   3.029
 4878SOL    HW115533   6.705   0.399   3.059
 4878SOL    HW215534   6.713   0.556   3.015
 4879SOL     OW15535   4.449   6.486   2.587
 4879SOL    HW115536   4.497   6.525   2.665
 4879SOL    HW215537   4.380   6.421   2.619
 4880SOL     OW15538   5.510   3.291   0.080
 4880SOL    HW115539   5.439   3.254   0.021
 4880SOL    HW215540   5.596   3.244   0.062
 4881SOL     OW15541   1.559   1.098   6.703
 4881SOL    HW115542   1.617   1.100   6.621
 4881SOL    HW215543   1.476   1.151   6.686
 4882SOL     OW15544   5.323   1.560   5.105
 4882SOL    HW115545   5.321   1.647   5.153
 4882SOL    HW215546   5.247   1.503   5.136
 4883SOL     OW15547   5.264   4.640   1.978
 4883SOL    HW115548   5.347   4.668   1.929
 4883SOL    HW215549   5.188   4.700   1.952
 4884SOL     OW15550   2.983   6.815   1.555
 4884SOL    HW115551   3.056   6.753   1.525
 4884SOL    HW215552   2.913   6.820   1.484
 4885SOL     OW15553   2.281   4.945   1.932
 4885SOL    HW115554   2.295   5.020   1.867
 4885SOL    HW215555   2.263   4.983   2.022
 4886SOL     OW15556   1.209   5.471   1.090
 4886SOL    HW115557   1.265   5.504   1.166
 4886SOL    HW215558   1.247   5.386   1.055
 4887SOL     OW15559   0.794   0.243   2.737
 4887SOL    HW115560   0.846   0.233   2.822
 4887SOL    HW215561   0.710   0.189   2.742
 4888SOL     OW15562   2.286   6.677   4.132
 4888SOL    HW115563   2.329   6.617   4.063
 4888SOL    HW215564   2.289   6.631   4.221
 4889SOL     OW15565   6.891   1.421   6.068
 4889SOL    HW115566   6.886   1.321   6.073
 4889SOL    HW215567   6.799   1.459   6.062
 4890SOL     OW15568   0.916   1.401   6.828
 4890SOL    HW115569   0.980   1.441   6.893
 4890SOL    HW215570   0.831   1.378   6.875
 4891SOL     OW15571   1.513   4.691   6.612
 4891SOL    HW115572   1.416   4.710   6.629
 4891SOL    HW215573   1.522   4.647   6.522
 4892SOL     OW15574   3.027   5.976   2.052
 4892SOL    HW115575   3.048   5.930   2.138
 4892SOL    HW215576   3.092   5.947   1.982
 4893SOL     OW15577   6.388   3.448   1.717
 4893SOL    HW115578   6.452   3.503   1.772
 4893SOL    HW215579   6.316   3.507   1.680
 4894SOL     OW15580   2.278   1.281   2.910
 4894SOL    HW115581   2.276   1.340   2.828
 4894SOL    HW215582   2.267   1.338   2.991
 4895SOL     OW15583   0.634   4.955   3.861
 4895SOL    HW115584   0.661   4.962   3.957
 4895SOL    HW215585   0.536   4.935   3.856
 4896SOL     OW15586   1.661   5.061   2.004
 4896SOL    HW115587   1.643   4.972   2.044
 4896SOL    HW215588   1.748   5.097   2.039
 4897SOL     OW15589   2.491   4.176   6.049
 4897SOL    HW115590   2.545   4.138   5.974
 4897SOL    HW215591   2.465   4.270   6.027
 4898SOL     OW15592   4.000   0.920   4.427
 4898SOL    HW115593   3.934   0.846   4.416
 4898SOL    HW215594   4.093   0.882   4.428
 4899SOL     OW15595   5.552   5.305   3.077
 4899SOL    HW115596   5.629   5.358   3.112
 4899SOL    HW215597   5.528   5.233   3.142
 4900SOL     OW15598   2.324   6.101   4.521
 4900SOL    HW115599   2.284   6.088   4.430
 4900SOL    HW215600   2.410   6.152   4.513
 4901SOL     OW15601   3.416   0.148   5.683
 4901SOL    HW115602   3.369   0.192   5.606
 4901SOL    HW215603   3.401   0.202   5.765
 4902SOL     OW15604   2.406   2.012   4.487
 4902SOL    HW115605   2.425   2.073   4.410
 4902SOL    HW215606   2.309   2.013   4.507
 4903SOL     OW15607   3.778   6.280   6.306
 4903SOL    HW115608   3.803   6.368   6.347
 4903SOL    HW215609   3.781   6.289   6.206
 4904SOL     OW15610   2.061   6.393   4.204
 4904SOL    HW115611   2.023   6.301   4.207
 4904SOL    HW215612   2.031   6.439   4.120
 4905SOL     OW15613   4.532   6.901   2.700
 4905SOL    HW115614   4.579   6.866   2.619
 4905SOL    HW215615   4.576   6.866   2.782
 4906SOL     OW15616   4.984   2.303   6.323
 4906SOL    HW115617   4.950   2.282   6.415
 4906SOL    HW215618   4.908   2.334   6.266
 4907SOL     OW15619   4.361   6.032   1.709
 4907SOL    HW115620   4.402   6.120   1.683
 4907SOL    HW215621   4.423   5.984   1.772
 4908SOL     OW15622   5.426   4.780   6.544
 4908SOL    HW115623   5.515   4.824   6.539
 4908SOL    HW215624   5.371   4.806   6.464
 4909SOL     OW15625   6.885   0.246   3.938
 4909SOL    HW115626   6.932   0.162   3.911
 4909SOL    HW215627   6.801   0.223   3.987
 4910SOL     OW15628   5.818   0.615   5.026
 4910SOL    HW115629   5.814   0.546   4.954
 4910SOL    HW215630   5.905   0.608   5.075
 4911SOL     OW15631   1.560   3.433   4.360
 4911SOL    HW115632   1.477   3.419   4.414
 4911SOL    HW215633   1.537   3.426   4.263
 4912SOL     OW15634   5.136   1.629   6.831
 4912SOL    HW115635   5.106   1.566   6.902
 4912SOL    HW215636   5.185   1.706   6.873
 4913SOL     OW15637   3.639   2.706   5.320
 4913SOL    HW115638   3.628   2.751   5.232
 4913SOL    HW215639   3.736   2.687   5.336
 4914SOL     OW15640   4.044   0.618   5.112
 4914SOL    HW115641   4.033   0.519   5.112
 4914SOL    HW215642   3.994   0.658   5.035
 4915SOL     OW15643   4.782   6.829   5.016
 4915SOL    HW115644   4.829   6.907   5.058
 4915SOL    HW215645   4.700   6.807   5.069
 4916SOL     OW15646   1.325   6.947   4.043
 4916SOL    HW115647   1.393   6.930   3.972
 4916SOL    HW215648   1.366   7.003   4.115
 4917SOL     OW15649   2.766   4.680   1.287
 4917SOL    HW115650   2.849   4.714   1.331
 4917SOL    HW215651   2.790   4.633   1.202
 4918SOL     OW15652   4.763   5.703   2.271
 4918SOL    HW115653   4.763   5.774   2.200
 4918SOL    HW215654   4.696   5.632   2.247
 4919SOL     OW15655   2.971   2.383   0.195
 4919SOL    HW115656   2.917   2.377   0.110
 4919SOL    HW215657   3.053   2.436   0.178
 4920SOL     OW15658   6.348   0.962   3.978
 4920SOL    HW115659   6.359   0.951   4.076
 4920SOL    HW215660   6.436   0.946   3.933
 4921SOL     OW15661   1.130   4.813   0.608
 4921SOL    HW115662   1.173   4.892   0.565
 4921SOL    HW215663   1.178   4.729   0.581
 4922SOL     OW15664   1.842   2.262   5.181
 4922SOL    HW115665   1.876   2.290   5.271
 4922SOL    HW215666   1.743   2.276   5.176
 4923SOL     OW15667   4.209   1.850   2.335
 4923SOL    HW115668   4.110   1.847   2.327
 4923SOL    HW215669   4.248   1.900   2.257
 4924SOL     OW15670   2.945   1.930   5.231
 4924SOL    HW115671   2.945   2.018   5.278
 4924SOL    HW215672   3.004   1.865   5.281
 4925SOL     OW15673   6.734   6.326   2.501
 4925SOL    HW115674   6.729   6.230   2.472
 4925SOL    HW215675   6.734   6.330   2.601
 4926SOL     OW15676   5.668   1.296   0.409
 4926SOL    HW115677   5.748   1.255   0.451
 4926SOL    HW215678   5.645   1.246   0.325
 4927SOL     OW15679   3.640   3.824   4.282
 4927SOL    HW115680   3.650   3.920   4.309
 4927SOL    HW215681   3.730   3.785   4.264
 4928SOL     OW15682   1.788   0.309   0.258
 4928SOL    HW115683   1.762   0.379   0.193
 4928SOL    HW215684   1.777   0.219   0.216
 4929SOL     OW15685   0.449   5.544   5.119
 4929SOL    HW115686   0.441   5.639   5.149
 4929SOL    HW215687   0.371   5.520   5.061
 4930SOL     OW15688   4.769   1.048   3.326
 4930SOL    HW115689   4.820   1.133   3.340
 4930SOL    HW215690   4.820   0.988   3.264
 4931SOL     OW15691   6.942   6.997   0.653
 4931SOL    HW115692   6.964   0.062   0.690
 4931SOL    HW215693   7.025   6.954   0.619
 4932SOL     OW15694   2.706   3.235   1.685
 4932SOL    HW115695   2.659   3.154   1.722
 4932SOL    HW215696   2.797   3.242   1.726
 4933SOL     OW15697   2.431   0.193   3.427
 4933SOL    HW115698   2.440   0.183   3.328
 4933SOL    HW215699   2.492   0.129   3.472
 4934SOL     OW15700   2.594   5.626   2.448
 4934SOL    HW115701   2.591   5.673   2.536
 4934SOL    HW215702   2.650   5.679   2.384
 4935SOL     OW15703   1.723   1.168   6.345
 4935SOL    HW115704   1.742   1.254   6.393
 4935SOL    HW215705   1.760   1.173   6.253
 4936SOL     OW15706   2.599   4.554   1.825
 4936SOL    HW115707   2.686   4.559   1.874
 4936SOL    HW215708   2.527   4.525   1.888
 4937SOL     OW15709   6.541   2.935   5.842
 4937SOL    HW115710   6.468   3.003   5.851
 4937SOL    HW215711   6.508   2.856   5.792
 4938SOL     OW15712   2.083   5.659   5.762
 4938SOL    HW115713   2.111   5.589   5.696
 4938SOL    HW215714   2.159   5.721   5.779
 4939SOL     OW15715   6.469   1.982   4.335
 4939SOL    HW115716   6.391   2.033   4.300
 4939SOL    HW215717   6.522   1.946   4.258
 4940SOL     OW15718   0.300   1.018   5.263
 4940SOL    HW115719   0.223   1.052   5.209
 4940SOL    HW215720   0.283   0.923   5.289
 4941SOL     OW15721   5.364   2.547   5.317
 4941SOL    HW115722   5.366   2.456   5.276
 4941SOL    HW215723   5.380   2.616   5.247
 4942SOL     OW15724   5.169   3.140   6.263
 4942SOL    HW115725   5.075   3.111   6.243
 4942SOL    HW215726   5.191   3.119   6.358
 4943SOL     OW15727   4.535   3.640   6.381
 4943SOL    HW115728   4.572   3.729   6.354
 4943SOL    HW215729   4.538   3.578   6.303
 4944SOL     OW15730   2.162   4.344   1.832
 4944SOL    HW115731   2.063   4.327   1.830
 4944SOL    HW215732   2.190   4.384   1.744
 4945SOL     OW15733   1.123   0.149   4.525
 4945SOL    HW115734   1.123   0.248   4.515
 4945SOL    HW215735   1.031   0.117   4.547
 4946SOL     OW15736   1.418   5.005   0.060
 4946SOL    HW115737   1.412   4.916   0.014
 4946SOL    HW215738   1.434   4.991   0.157
 4947SOL     OW15739   2.112   0.867   1.194
 4947SOL    HW115740   2.200   0.915   1.184
 4947SOL    HW215741   2.122   0.793   1.261
 4948SOL     OW15742   1.526   2.722   2.592
 4948SOL    HW115743   1.451   2.775   2.630
 4948SOL    HW215744   1.493   2.666   2.515
 4949SOL     OW15745   5.541   6.042   6.202
 4949SOL    HW115746   5.578   5.961   6.247
 4949SOL    HW215747   5.613   6.111   6.192
 4950SOL     OW15748   2.417   5.421   4.637
 4950SOL    HW115749   2.505   5.385   4.668
 4950SOL    HW215750   2.343   5.381   4.693
 4951SOL     OW15751   6.287   1.569   5.177
 4951SOL    HW115752   6.317   1.518   5.258
 4951SOL    HW215753   6.217   1.635   5.203
 4952SOL     OW15754   0.850   1.086   5.977
 4952SOL    HW115755   0.891   1.099   6.067
 4952SOL    HW215756   0.818   0.992   5.968
 4953SOL     OW15757   2.092   5.836   2.539
 4953SOL    HW115758   2.080   5.858   2.442
 4953SOL    HW215759   2.083   5.919   2.593
 4954SOL     OW15760   3.658   3.068   0.225
 4954SOL    HW115761   3.626   3.044   0.134
 4954SOL    HW215762   3.684   3.165   0.227
 4955SOL     OW15763   2.975   6.515   6.533
 4955SOL    HW115764   2.941   6.609   6.533
 4955SOL    HW215765   2.972   6.479   6.440
 4956SOL     OW15766   2.201   0.091   5.299
 4956SOL    HW115767   2.232   0.178   5.260
 4956SOL    HW215768   2.260   0.017   5.268
 4957SOL     OW15769   6.034   2.087   2.120
 4957SOL    HW115770   6.005   2.132   2.204
 4957SOL    HW215771   6.099   2.014   2.143
 4958SOL     OW15772   7.001   5.051   5.308
 4958SOL    HW115773   0.066   5.085   5.285
 4958SOL    HW215774   6.976   5.080   5.400
 4959SOL     OW15775   6.609   1.768   0.097
 4959SOL    HW115776   6.688   1.730   0.143
 4959SOL    HW215777   6.594   1.862   0.128
 4960SOL     OW15778   3.266   5.018   3.473
 4960SOL    HW115779   3.280   4.930   3.520
 4960SOL    HW215780   3.256   5.091   3.541
 4961SOL     OW15781   4.188   1.217   5.983
 4961SOL    HW115782   4.144   1.159   6.052
 4961SOL    HW215783   4.129   1.224   5.903
 4962SOL     OW15784   6.374   2.320   0.326
 4962SOL    HW115785   6.304   2.324   0.255
 4962SOL    HW215786   6.372   2.230   0.369
 4963SOL     OW15787   6.084   5.513   0.436
 4963SOL    HW115788   6.144   5.585   0.400
 4963SOL    HW215789   6.079   5.438   0.371
 4964SOL     OW15790   3.180   0.020   3.694
 4964SOL    HW115791   3.088   7.006   3.682
 4964SOL    HW215792   3.182   0.112   3.656
 4965SOL     OW15793   0.475   0.775   2.493
 4965SOL    HW115794   0.503   0.868   2.518
 4965SOL    HW215795   0.427   0.733   2.570
 4966SOL     OW15796   2.390   6.913   5.200
 4966SOL    HW115797   2.355   6.895   5.108
 4966SOL    HW215798   2.392   6.827   5.252
 4967SOL     OW15799   3.723   5.450   5.701
 4967SOL    HW115800   3.675   5.365   5.724
 4967SOL    HW215801   3.798   5.465   5.765
 4968SOL     OW15802   6.487   1.814   3.726
 4968SOL    HW115803   6.460   1.718   3.725
 4968SOL    HW215804   6.572   1.824   3.673
 4969SOL     OW15805   2.635   6.461   2.880
 4969SOL    HW115806   2.677   6.424   2.797
 4969SOL    HW215807   2.569   6.531   2.856
 4970SOL     OW15808   1.769   2.797   2.760
 4970SOL    HW115809   1.716   2.736   2.701
 4970SOL    HW215810   1.822   2.860   2.703
 4971SOL     OW15811   6.153   5.612   3.821
 4971SOL    HW115812   6.214   5.539   3.791
 4971SOL    HW215813   6.149   5.613   3.921
 4972SOL     OW15814   1.583   3.604   0.602
 4972SOL    HW115815   1.611   3.606   0.698
 4972SOL    HW215816   1.484   3.595   0.597
 4973SOL     OW15817   1.682   6.842   2.150
 4973SOL    HW115818   1.606   6.780   2.169
 4973SOL    HW215819   1.654   6.936   2.167
 4974SOL     OW15820   5.878   4.444   1.121
 4974SOL    HW115821   5.896   4.348   1.098
 4974SOL    HW215822   5.964   4.488   1.147
 4975SOL     OW15823   5.641   4.187   5.537
 4975SOL    HW115824   5.734   4.155   5.557
 4975SOL    HW215825   5.643   4.285   5.519
 4976SOL     OW15826   2.238   0.558   3.216
 4976SOL    HW115827   2.159   0.613   3.241
 4976SOL    HW215828   2.311   0.617   3.182
 4977SOL     OW15829   3.980   4.722   6.929
 4977SOL    HW115830   3.895   4.706   6.880
 4977SOL    HW215831   4.023   4.634   6.951
 4978SOL     OW15832   6.992   3.771   4.741
 4978SOL    HW115833   0.046   3.720   4.773
 4978SOL    HW215834   7.020   3.831   4.665
 4979SOL     OW15835   0.366   0.204   6.263
 4979SOL    HW115836   0.279   0.164   6.232
 4979SOL    HW215837   0.429   0.130   6.287
 4980SOL     OW15838   4.989   6.671   3.146
 4980SOL    HW115839   5.030   6.579   3.144
 4980SOL    HW215840   4.955   6.694   3.055
 4981SOL     OW15841   4.831   6.147   6.881
 4981SOL    HW115842   4.880   6.067   6.847
 4981SOL    HW215843   4.733   6.127   6.885
 4982SOL     OW15844   2.548   1.320   6.255
 4982SOL    HW115845   2.564   1.358   6.346
 4982SOL    HW215846   2.451   1.330   6.232
 4983SOL     OW15847   6.032   2.995   4.816
 4983SOL    HW115848   6.013   2.909   4.864
 4983SOL    HW215849   5.956   3.016   4.755
 4984SOL     OW15850   5.539   4.265   3.640
 4984SOL    HW115851   5.605   4.322   3.690
 4984SOL    HW215852   5.583   4.228   3.558
 4985SOL     OW15853   6.324   6.510   3.697
 4985SOL    HW115854   6.250   6.531   3.761
 4985SOL    HW215855   6.384   6.441   3.736
 4986SOL     OW15856   6.017   4.152   2.026
 4986SOL    HW115857   5.977   4.063   2.047
 4986SOL    HW215858   6.084   4.176   2.096
 4987SOL     OW15859   1.182   0.237   1.383
 4987SOL    HW115860   1.124   0.156   1.387
 4987SOL    HW215861   1.137   0.309   1.330
 4988SOL     OW15862   5.229   0.598   3.396
 4988SOL    HW115863   5.242   0.512   3.445
 4988SOL    HW215864   5.141   0.597   3.348
 4989SOL     OW15865   4.947   0.126   1.896
 4989SOL    HW115866   4.923   0.167   1.984
 4989SOL    HW215867   4.875   0.061   1.869
 4990SOL     OW15868   1.965   2.329   5.439
 4990SOL    HW115869   1.928   2.421   5.440
 4990SOL    HW215870   2.009   2.309   5.527
 4991SOL     OW15871   6.263   4.783   4.428
 4991SOL    HW115872   6.360   4.802   4.447
 4991SOL    HW215873   6.210   4.794   4.511
 4992SOL     OW15874   5.122   1.041   4.348
 4992SOL    HW115875   5.214   1.017   4.380
 4992SOL    HW215876   5.095   0.979   4.275
 4993SOL     OW15877   2.889   5.741   4.056
 4993SOL    HW115878   2.989   5.742   4.062
 4993SOL    HW215879   2.853   5.667   4.114
 4994SOL     OW15880   2.077   0.056   3.130
 4994SOL    HW115881   2.002   0.076   3.193
 4994SOL    HW215882   2.061   6.994   3.085
 4995SOL     OW15883   0.059   2.612   5.655
 4995SOL    HW115884   6.997   2.579   5.690
 4995SOL    HW215885   0.126   2.538   5.657
 4996SOL     OW15886   1.361   1.454   2.672
 4996SOL    HW115887   1.339   1.441   2.769
 4996SOL    HW215888   1.292   1.513   2.630
 4997SOL     OW15889   5.318   2.152   3.120
 4997SOL    HW115890   5.391   2.089   3.093
 4997SOL    HW215891   5.357   2.241   3.144
 4998SOL     OW15892   2.052   4.061   5.117
 4998SOL    HW115893   2.006   4.081   5.203
 4998SOL    HW215894   2.148   4.038   5.135
 4999SOL     OW15895   6.360   4.470   0.391
 4999SOL    HW115896   6.330   4.514   0.306
 4999SOL    HW215897   6.309   4.385   0.405
 5000SOL     OW15898   2.665   6.672   3.446
 5000SOL    HW115899   2.631   6.623   3.366
 5000SOL    HW215900   2.749   6.722   3.421
 5001SOL     OW15901   0.384   4.206   0.731
 5001SOL    HW115902   0.297   4.169   0.700
 5001SOL    HW215903   0.418   4.152   0.808
 5002SOL     OW15904   0.756   3.246   3.605
 5002SOL    HW115905   0.852   3.227   3.622
 5002SOL    HW215906   0.738   3.344   3.618
 5003SOL     OW15907   2.484   6.386   2.495
 5003SOL    HW115908   2.583   6.379   2.501
 5003SOL    HW215909   2.442   6.317   2.554
 5004SOL     OW15910   3.634   4.960   5.952
 5004SOL    HW115911   3.570   4.977   6.027
 5004SOL    HW215912   3.681   4.873   5.966
 5005SOL     OW15913   3.244   2.470   0.610
 5005SOL    HW115914   3.268   2.533   0.536
 5005SOL    HW215915   3.169   2.411   0.580
 5006SOL     OW15916   5.631   0.757   0.562
 5006SOL    HW115917   5.584   0.845   0.556
 5006SOL    HW215918   5.659   0.728   0.470
 5007SOL     OW15919   1.509   0.074   6.895
 5007SOL    HW115920   1.507   0.010   6.972
 5007SOL    HW215921   1.421   0.121   6.889
 5008SOL     OW15922   6.994   6.382   3.392
 5008SOL    HW115923   6.902   6.373   3.353
 5008SOL    HW215924   0.023   6.301   3.369
 5009SOL     OW15925   1.360   6.398   0.969
 5009SOL    HW115926   1.447   6.395   0.921
 5009SOL    HW215927   1.300   6.464   0.926
 5010SOL     OW15928   3.278   3.531   2.644
 5010SOL    HW115929   3.209   3.480   2.592
 5010SOL    HW215930   3.337   3.581   2.581
 5011SOL     OW15931   1.587   3.532   2.912
 5011SOL    HW115932   1.647   3.606   2.942
 5011SOL    HW215933   1.614   3.447   2.956
 5012SOL     OW15934   5.120   4.242   6.434
 5012SOL    HW115935   5.166   4.163   6.394
 5012SOL    HW215936   5.035   4.212   6.478
 5013SOL     OW15937   4.910   1.730   6.720
 5013SOL    HW115938   5.001   1.716   6.758
 5013SOL    HW215939   4.846   1.665   6.762
 5014SOL     OW15940   5.254   4.689   0.789
 5014SOL    HW115941   5.301   4.761   0.840
 5014SOL    HW215942   5.315   4.610   0.777
 5015SOL     OW15943   4.630   1.921   4.602
 5015SOL    HW115944   4.691   1.845   4.578
 5015SOL    HW215945   4.540   1.905   4.560
 5016SOL     OW15946   2.352   2.240   0.943
 5016SOL    HW115947   2.340   2.335   0.970
 5016SOL    HW215948   2.308   2.225   0.854
 5017SOL     OW15949   2.174   2.084   0.254
 5017SOL    HW115950   2.209   2.177   0.242
 5017SOL    HW215951   2.098   2.085   0.319
 5018SOL     OW15952   6.912   4.423   2.165
 5018SOL    HW115953   6.885   4.392   2.074
 5018SOL    HW215954   7.007   4.397   2.182
 5019SOL     OW15955   1.224   4.682   6.655
 5019SOL    HW115956   1.187   4.649   6.742
 5019SOL    HW215957   1.217   4.782   6.651
 5020SOL     OW15958   5.055   0.028   6.154
 5020SOL    HW115959   4.979   0.006   6.215
 5020SOL    HW215960   5.070   6.978   6.090
 5021SOL     OW15961   1.535   1.869   6.071
 5021SOL    HW115962   1.469   1.944   6.065
 5021SOL    HW215963   1.613   1.899   6.126
 5022SOL     OW15964   1.286   1.092   0.091
 5022SOL    HW115965   1.256   1.172   0.143
 5022SOL    HW215966   1.313   1.020   0.155
 5023SOL     OW15967   6.364   2.957   1.116
 5023SOL    HW115968   6.274   2.933   1.152
 5023SOL    HW215969   6.354   2.990   1.022
 5024SOL     OW15970   5.463   5.876   2.392
 5024SOL    HW115971   5.469   5.947   2.461
 5024SOL    HW215972   5.430   5.915   2.306
 5025SOL     OW15973   3.785   2.067   1.760
 5025SOL    HW115974   3.753   2.154   1.799
 5025SOL    HW215975   3.817   2.007   1.834
 5026SOL     OW15976   6.072   6.465   6.353
 5026SOL    HW115977   6.026   6.544   6.315
 5026SOL    HW215978   6.159   6.450   6.305
 5027SOL     OW15979   1.067   6.122   2.356
 5027SOL    HW115980   1.100   6.028   2.363
 5027SOL    HW215981   0.986   6.125   2.298
 5028SOL     OW15982   0.751   0.107   3.463
 5028SOL    HW115983   0.844   0.104   3.500
 5028SOL    HW215984   0.700   0.180   3.507
 5029SOL     OW15985   0.358   2.511   3.084
 5029SOL    HW115986   0.298   2.431   3.081
 5029SOL    HW215987   0.419   2.504   3.162
 5030SOL     OW15988   6.607   6.979   6.792
 5030SOL    HW115989   6.599   6.969   6.693
 5030SOL    HW215990   6.628   6.889   6.832
 5031SOL     OW15991   6.068   0.798   4.741
 5031SOL    HW115992   6.090   0.852   4.660
 5031SOL    HW215993   5.971   0.775   4.741
 5032SOL     OW15994   1.169   3.789   0.946
 5032SOL    HW115995   1.174   3.886   0.966
 5032SOL    HW215996   1.259   3.756   0.918
 5033SOL     OW15997   3.238   6.264   6.460
 5033SOL    HW115998   3.230   6.324   6.539
 5033SOL    HW215999   3.332   6.231   6.452
 5034SOL     OW16000   5.512   1.053   2.848
 5034SOL    HW116001   5.600   1.077   2.807
 5034SOL    HW216002   5.521   0.969   2.901
 5035SOL     OW16003   0.340   4.313   0.424
 5035SOL    HW116004   0.413   4.250   0.448
 5035SOL    HW216005   0.266   4.262   0.378
 5036SOL     OW16006   0.059   5.216   6.909
 5036SOL    HW116007   6.989   5.200   6.936
 5036SOL    HW216008   0.108   5.259   6.985
 5037SOL     OW16009   5.201   2.761   2.986
 5037SOL    HW116010   5.177   2.853   3.018
 5037SOL    HW216011   5.121   2.718   2.943
 5038SOL     OW16012   1.935   4.147   6.900
 5038SOL    HW116013   1.957   4.171   6.806
 5038SOL    HW216014   2.012   4.170   6.960
 5039SOL     OW16015   3.126   4.227   5.391
 5039SOL    HW116016   3.170   4.205   5.478
 5039SOL    HW216017   3.089   4.319   5.395
 5040SOL     OW16018   2.149   4.919   5.905
 5040SOL    HW116019   2.225   4.983   5.895
 5040SOL    HW216020   2.064   4.962   5.876
 5041SOL     OW16021   1.626   1.972   1.563
 5041SOL    HW116022   1.609   2.049   1.625
 5041SOL    HW216023   1.669   2.006   1.480
 5042SOL     OW16024   6.042   3.136   0.776
 5042SOL    HW116025   6.037   3.230   0.742
 5042SOL    HW216026   5.983   3.077   0.721
 5043SOL     OW16027   2.847   1.129   5.851
 5043SOL    HW116028   2.849   1.035   5.819
 5043SOL    HW216029   2.778   1.139   5.922
 5044SOL     OW16030   6.966   6.324   2.089
 5044SOL    HW116031   6.991   6.366   2.176
 5044SOL    HW216032   7.007   6.233   2.082
 5045SOL     OW16033   5.823   2.330   0.476
 5045SOL    HW116034   5.775   2.341   0.564
 5045SOL    HW216035   5.842   2.420   0.437
 5046SOL     OW16036   3.528   4.176   3.627
 5046SOL    HW116037   3.450   4.182   3.689
 5046SOL    HW216038   3.612   4.194   3.677
 5047SOL     OW16039   0.504   3.208   2.694
 5047SOL    HW116040   0.580   3.266   2.723
 5047SOL    HW216041   0.469   3.157   2.773
 5048SOL     OW16042   0.773   0.982   1.823
 5048SOL    HW116043   0.693   0.947   1.872
 5048SOL    HW216044   0.830   0.906   1.793
 5049SOL     OW16045   6.541   1.797   5.255
 5049SOL    HW116046   6.600   1.773   5.178
 5049SOL    HW216047   6.473   1.863   5.225
 5050SOL     OW16048   1.251   0.245   1.915
 5050SOL    HW116049   1.219   0.240   1.821
 5050SOL    HW216050   1.201   0.179   1.971
 5051SOL     OW16051   4.223   3.614   1.072
 5051SOL    HW116052   4.279   3.595   1.153
 5051SOL    HW216053   4.212   3.530   1.019
 5052SOL     OW16054   2.177   6.126   5.787
 5052SOL    HW116055   2.173   6.135   5.886
 5052SOL    HW216056   2.271   6.106   5.759
 5053SOL     OW16057   2.203   3.933   3.344
 5053SOL    HW116058   2.279   3.887   3.298
 5053SOL    HW216059   2.224   4.031   3.351
 5054SOL     OW16060   3.927   6.299   5.178
 5054SOL    HW116061   4.010   6.354   5.185
 5054SOL    HW216062   3.866   6.339   5.109
 5055SOL     OW16063   2.091   0.141   5.615
 5055SOL    HW116064   2.134   0.210   5.557
 5055SOL    HW216065   2.023   0.090   5.562
 5056SOL     OW16066   6.295   4.198   0.449
 5056SOL    HW116067   6.217   4.137   0.440
 5056SOL    HW216068   6.373   4.161   0.399
 5057SOL     OW16069   6.694   5.896   5.394
 5057SOL    HW116070   6.658   5.908   5.487
 5057SOL    HW216071   6.618   5.894   5.329
 5058SOL     OW16072   2.621   3.184   5.388
 5058SOL    HW116073   2.575   3.134   5.315
 5058SOL    HW216074   2.669   3.120   5.448
 5059SOL     OW16075   5.389   2.800   3.352
 5059SOL    HW116076   5.413   2.747   3.271
 5059SOL    HW216077   5.323   2.748   3.407
 5060SOL     OW16078   0.290   2.446   5.665
 5060SOL    HW116079   0.274   2.347   5.668
 5060SOL    HW216080   0.326   2.476   5.753
 5061SOL     OW16081   3.659   3.242   2.849
 5061SOL    HW116082   3.675   3.254   2.947
 5061SOL    HW216083   3.725   3.297   2.798
 5062SOL     OW16084   5.606   0.103   3.293
 5062SOL    HW116085   5.584   0.157   3.212
 5062SOL    HW216086   5.624   0.163   3.370
 5063SOL     OW16087   1.282   6.850   2.329
 5063SOL    HW116088   1.355   6.819   2.269
 5063SOL    HW216089   1.194   6.813   2.297
 5064SOL     OW16090   4.331   3.874   1.684
 5064SOL    HW116091   4.397   3.949   1.674
 5064SOL    HW216092   4.264   3.898   1.755
 5065SOL     OW16093   1.482   1.657   3.650
 5065SOL    HW116094   1.561   1.630   3.706
 5065SOL    HW216095   1.494   1.751   3.619
 5066SOL     OW16096   3.469   4.511   0.786
 5066SOL    HW116097   3.519   4.549   0.864
 5066SOL    HW216098   3.502   4.555   0.702
 5067SOL     OW16099   3.333   1.150   2.370
 5067SOL    HW116100   3.417   1.100   2.350
 5067SOL    HW216101   3.319   1.155   2.469
 5068SOL     OW16102   2.949   5.003   6.888
 5068SOL    HW116103   3.012   5.058   6.943
 5068SOL    HW216104   2.957   4.907   6.915
 5069SOL     OW16105   2.050   3.026   6.139
 5069SOL    HW116106   2.059   3.122   6.167
 5069SOL    HW216107   2.029   3.022   6.041
 5070SOL     OW16108   5.305   4.667   3.950
 5070SOL    HW116109   5.324   4.642   4.045
 5070SOL    HW216110   5.367   4.617   3.890
 5071SOL     OW16111   3.963   0.916   3.968
 5071SOL    HW116112   3.980   0.982   4.041
 5071SOL    HW216113   3.946   0.964   3.882
 5072SOL     OW16114   1.150   0.788   1.780
 5072SOL    HW116115   1.222   0.857   1.781
 5072SOL    HW216116   1.180   0.709   1.727
 5073SOL     OW16117   1.717   4.259   0.853
 5073SOL    HW116118   1.642   4.193   0.855
 5073SOL    HW216119   1.692   4.335   0.793
 5074SOL     OW16120   3.251   2.017   1.605
 5074SOL    HW116121   3.318   1.943   1.604
 5074SOL    HW216122   3.286   2.094   1.658
 5075SOL     OW16123   1.750   2.260   5.978
 5075SOL    HW116124   1.672   2.225   6.030
 5075SOL    HW216125   1.786   2.343   6.021
 5076SOL     OW16126   5.072   0.472   1.009
 5076SOL    HW116127   5.128   0.551   0.986
 5076SOL    HW216128   5.104   0.392   0.958
 5077SOL     OW16129   1.789   4.461   5.669
 5077SOL    HW116130   1.874   4.495   5.708
 5077SOL    HW216131   1.712   4.512   5.706
 5078SOL     OW16132   0.754   0.678   3.899
 5078SOL    HW116133   0.663   0.708   3.928
 5078SOL    HW216134   0.746   0.598   3.840
 5079SOL     OW16135   2.102   3.230   4.779
 5079SOL    HW116136   2.020   3.175   4.764
 5079SOL    HW216137   2.124   3.231   4.877
 5080SOL     OW16138   6.115   6.361   6.008
 5080SOL    HW116139   6.057   6.442   6.011
 5080SOL    HW216140   6.187   6.369   6.077
 5081SOL     OW16141   2.816   3.805   5.432
 5081SOL    HW116142   2.741   3.864   5.460
 5081SOL    HW216143   2.886   3.860   5.386
 5082SOL     OW16144   5.213   5.817   1.366
 5082SOL    HW116145   5.114   5.827   1.361
 5082SOL    HW216146   5.237   5.720   1.370
 5083SOL     OW16147   2.469   0.668   2.914
 5083SOL    HW116148   2.534   0.721   2.859
 5083SOL    HW216149   2.376   0.691   2.887
 5084SOL     OW16150   0.759   4.121   3.982
 5084SOL    HW116151   0.790   4.026   3.983
 5084SOL    HW216152   0.803   4.171   4.057
 5085SOL     OW16153   6.586   2.438   6.040
 5085SOL    HW116154   6.654   2.460   5.970
 5085SOL    HW216155   6.632   2.406   6.123
 5086SOL     OW16156   1.479   5.002   2.751
 5086SOL    HW116157   1.475   4.908   2.787
 5086SOL    HW216158   1.572   5.037   2.759
 5087SOL     OW16159   1.186   5.194   2.244
 5087SOL    HW116160   1.171   5.279   2.195
 5087SOL    HW216161   1.123   5.124   2.210
 5088SOL     OW16162   6.077   0.265   3.695
 5088SOL    HW116163   6.115   0.353   3.668
 5088SOL    HW216164   6.069   0.206   3.614
 5089SOL     OW16165   6.147   3.949   4.380
 5089SOL    HW116166   6.120   3.860   4.344
 5089SOL    HW216167   6.123   4.020   4.313
 5090SOL     OW16168   1.994   3.477   2.606
 5090SOL    HW116169   2.040   3.557   2.645
 5090SOL    HW216170   1.897   3.480   2.630
 5091SOL     OW16171   6.716   1.445   1.644
 5091SOL    HW116172   6.684   1.357   1.681
 5091SOL    HW216173   6.676   1.520   1.697
 5092SOL     OW16174   3.725   3.727   3.185
 5092SOL    HW116175   3.634   3.768   3.194
 5092SOL    HW216176   3.716   3.634   3.150
 5093SOL     OW16177   3.188   0.895   0.660
 5093SOL    HW116178   3.094   0.926   0.656
 5093SOL    HW216179   3.207   0.836   0.581
 5094SOL     OW16180   2.299   5.823   5.837
 5094SOL    HW116181   2.375   5.792   5.893
 5094SOL    HW216182   2.324   5.907   5.789
 5095SOL     OW16183   6.530   1.922   3.308
 5095SOL    HW116184   6.529   1.981   3.228
 5095SOL    HW216185   6.624   1.917   3.344
 5096SOL     OW16186   3.904   5.365   6.364
 5096SOL    HW116187   4.000   5.339   6.370
 5096SOL    HW216188   3.886   5.406   6.275
 5097SOL     OW16189   0.755   0.110   6.147
 5097SOL    HW116190   0.662   0.078   6.167
 5097SOL    HW216191   0.751   0.180   6.076
 5098SOL     OW16192   3.293   0.889   2.112
 5098SOL    HW116193   3.343   0.960   2.161
 5098SOL    HW216194   3.227   0.932   2.051
 5099SOL     OW16195   0.491   0.274   0.911
 5099SOL    HW116196   0.510   0.221   0.993
 5099SOL    HW216197   0.575   0.318   0.879
 5100SOL     OW16198   3.125   5.751   4.468
 5100SOL    HW116199   3.064   5.816   4.423
 5100SOL    HW216200   3.204   5.800   4.506
 5101SOL     OW16201   4.423   0.429   0.026
 5101SOL    HW116202   4.347   0.492   0.010
 5101SOL    HW216203   4.461   0.400   6.964
 5102SOL     OW16204   5.611   6.726   4.218
 5102SOL    HW116205   5.512   6.732   4.202
 5102SOL    HW216206   5.656   6.804   4.177
 5103SOL     OW16207   0.513   0.647   4.061
 5103SOL    HW116208   0.486   0.551   4.056
 5103SOL    HW216209   0.557   0.665   4.149
 5104SOL     OW16210   1.837   5.957   2.012
 5104SOL    HW116211   1.932   5.926   2.003
 5104SOL    HW216212   1.835   6.054   2.032
 5105SOL     OW16213   2.371   2.278   0.415
 5105SOL    HW116214   2.356   2.304   0.319
 5105SOL    HW216215   2.433   2.200   0.418
 5106SOL     OW16216   4.239   2.477   0.275
 5106SOL    HW116217   4.278   2.535   0.347
 5106SOL    HW216218   4.308   2.459   0.206
 5107SOL     OW16219   4.005   1.751   1.367
 5107SOL    HW116220   3.982   1.822   1.302
 5107SOL    HW216221   3.966   1.772   1.456
 5108SOL     OW16222   3.969   3.813   4.918
 5108SOL    HW116223   4.043   3.751   4.891
 5108SOL    HW216224   3.984   3.844   5.012
 5109SOL     OW16225   0.830   1.871   6.677
 5109SOL    HW116226   0.892   1.949   6.672
 5109SOL    HW216227   0.805   1.842   6.584
 5110SOL     OW16228   0.434   0.568   6.005
 5110SOL    HW116229   0.454   0.549   6.101
 5110SOL    HW216230   0.446   0.485   5.951
 5111SOL     OW16231   1.386   0.389   4.680
 5111SOL    HW116232   1.316   0.425   4.618
 5111SOL    HW216233   1.475   0.429   4.657
 5112SOL     OW16234   1.510   0.132   3.000
 5112SOL    HW116235   1.576   0.057   2.987
 5112SOL    HW216236   1.509   0.159   3.096
 5113SOL     OW16237   1.812   6.605   0.801
 5113SOL    HW116238   1.758   6.668   0.858
 5113SOL    HW216239   1.845   6.654   0.720
 5114SOL     OW16240   3.810   0.658   6.982
 5114SOL    HW116241   3.834   0.561   6.991
 5114SOL    HW216242   3.711   0.667   6.976
 5115SOL     OW16243   1.440   4.583   3.966
 5115SOL    HW116244   1.375   4.507   3.977
 5115SOL    HW216245   1.518   4.568   4.027
 5116SOL     OW16246   0.583   6.880   6.579
 5116SOL    HW116247   0.588   6.792   6.532
 5116SOL    HW216248   0.675   6.917   6.590
 5117SOL     OW16249   2.123   3.958   4.860
 5117SOL    HW116250   2.196   3.966   4.927
 5117SOL    HW216251   2.104   3.861   4.843
 5118SOL     OW16252   5.218   1.226   6.973
 5118SOL    HW116253   5.276   1.154   6.936
 5118SOL    HW216254   5.166   1.269   6.899
 5119SOL     OW16255   5.320   0.509   2.131
 5119SOL    HW116256   5.233   0.554   2.110
 5119SOL    HW216257   5.342   0.443   2.059
 5120SOL     OW16258   3.605   0.648   4.149
 5120SOL    HW116259   3.595   0.604   4.238
 5120SOL    HW216260   3.620   0.578   4.079
 5121SOL     OW16261   3.070   2.077   0.079
 5121SOL    HW116262   3.074   1.978   0.066
 5121SOL    HW216263   3.073   2.098   0.177
 5122SOL     OW16264   3.294   6.472   3.426
 5122SOL    HW116265   3.377   6.506   3.471
 5122SOL    HW216266   3.249   6.547   3.378
 5123SOL     OW16267   4.187   2.188   4.031
 5123SOL    HW116268   4.247   2.234   4.097
 5123SOL    HW216269   4.094   2.187   4.066
 5124SOL     OW16270   2.543   5.832   4.711
 5124SOL    HW116271   2.456   5.833   4.662
 5124SOL    HW216272   2.528   5.855   4.807
 5125SOL     OW16273   6.177   3.082   3.640
 5125SOL    HW116274   6.258   3.089   3.582
 5125SOL    HW216275   6.182   2.998   3.694
 5126SOL     OW16276   5.821   5.470   5.820
 5126SOL    HW116277   5.891   5.535   5.792
 5126SOL    HW216278   5.748   5.518   5.869
 5127SOL     OW16279   0.987   4.379   7.017
 5127SOL    HW116280   0.926   4.428   0.054
 5127SOL    HW216281   1.040   4.445   6.963
 5128SOL     OW16282   6.902   0.442   6.209
 5128SOL    HW116283   6.913   0.366   6.272
 5128SOL    HW216284   6.992   0.479   6.186
 5129SOL     OW16285   6.326   0.024   2.572
 5129SOL    HW116286   6.261   0.026   2.495
 5129SOL    HW216287   6.375   0.110   2.577
 5130SOL     OW16288   0.089   5.698   3.921
 5130SOL    HW116289   0.081   5.607   3.882
 5130SOL    HW216290   0.147   5.694   4.002
 5131SOL     OW16291   1.955   5.179   4.150
 5131SOL    HW116292   1.945   5.095   4.096
 5131SOL    HW216293   1.990   5.252   4.092
 5132SOL     OW16294   3.471   2.566   6.534
 5132SOL    HW116295   3.507   2.658   6.552
 5132SOL    HW216296   3.467   2.551   6.435
 5133SOL     OW16297   1.662   5.703   6.446
 5133SOL    HW116298   1.667   5.757   6.529
 5133SOL    HW216299   1.746   5.650   6.434
 5134SOL     OW16300   0.500   2.969   2.575
 5134SOL    HW116301   0.506   3.068   2.593
 5134SOL    HW216302   0.573   2.922   2.624
 5135SOL     OW16303   5.666   3.266   4.587
 5135SOL    HW116304   5.692   3.358   4.616
 5135SOL    HW216305   5.585   3.237   4.636
 5136SOL     OW16306   4.679   0.752   6.165
 5136SOL    HW116307   4.586   0.760   6.129
 5136SOL    HW216308   4.691   0.818   6.239
 5137SOL     OW16309   5.312   3.660   5.510
 5137SOL    HW116310   5.259   3.649   5.594
 5137SOL    HW216311   5.352   3.572   5.484
 5138SOL     OW16312   3.761   3.220   5.086
 5138SOL    HW116313   3.859   3.219   5.068
 5138SOL    HW216314   3.729   3.315   5.090
 5139SOL     OW16315   1.494   1.166   2.738
 5139SOL    HW116316   1.452   1.208   2.657
 5139SOL    HW216317   1.587   1.200   2.749
 5140SOL     OW16318   3.976   2.889   6.508
 5140SOL    HW116319   3.978   2.974   6.562
 5140SOL    HW216320   3.892   2.886   6.455
 5141SOL     OW16321   6.455   3.816   0.819
 5141SOL    HW116322   6.498   3.731   0.788
 5141SOL    HW216323   6.388   3.847   0.751
 5142SOL     OW16324   6.541   6.832   3.369
 5142SOL    HW116325   6.455   6.783   3.384
 5142SOL    HW216326   6.611   6.796   3.430
 5143SOL     OW16327   6.361   4.371   3.952
 5143SOL    HW116328   6.268   4.393   3.982
 5143SOL    HW216329   6.373   4.272   3.951
 5144SOL     OW16330   0.533   4.561   5.581
 5144SOL    HW116331   0.587   4.624   5.636
 5144SOL    HW216332   0.548   4.580   5.484
 5145SOL     OW16333   2.995   5.625   5.653
 5145SOL    HW116334   2.979   5.527   5.641
 5145SOL    HW216335   2.908   5.670   5.677
 5146SOL     OW16336   3.652   3.982   5.320
 5146SOL    HW116337   3.719   3.908   5.331
 5146SOL    HW216338   3.565   3.955   5.360
 5147SOL     OW16339   6.977   5.383   2.627
 5147SOL    HW116340   6.950   5.455   2.690
 5147SOL    HW216341   0.046   5.355   2.647
 5148SOL     OW16342   6.656   6.638   1.676
 5148SOL    HW116343   6.742   6.683   1.700
 5148SOL    HW216344   6.595   6.637   1.756
 5149SOL     OW16345   6.415   5.045   3.040
 5149SOL    HW116346   6.482   5.098   2.988
 5149SOL    HW216347   6.446   4.950   3.047
 5150SOL     OW16348   2.333   5.479   3.032
 5150SOL    HW116349   2.420   5.446   2.995
 5150SOL    HW216350   2.318   5.439   3.123
 5151SOL     OW16351   6.250   2.843   1.697
 5151SOL    HW116352   6.313   2.891   1.637
 5151SOL    HW216353   6.290   2.755   1.723
 5152SOL     OW16354   1.837   4.489   0.070
 5152SOL    HW116355   1.793   4.519   7.010
 5152SOL    HW216356   1.771   4.441   0.126
 5153SOL     OW16357   2.048   0.879   0.015
 5153SOL    HW116358   2.002   0.790   0.012
 5153SOL    HW216359   2.136   0.872   6.993
 5154SOL     OW16360   0.857   2.740   5.926
 5154SOL    HW116361   0.852   2.643   5.900
 5154SOL    HW216362   0.883   2.794   5.846
 5155SOL     OW16363   4.570   0.084   2.097
 5155SOL    HW116364   4.614   0.047   2.014
 5155SOL    HW216365   4.619   0.052   2.178
 5156SOL     OW16366   5.555   3.692   6.083
 5156SOL    HW116367   5.478   3.672   6.144
 5156SOL    HW216368   5.526   3.760   6.015
 5157SOL     OW16369   3.856   1.951   3.301
 5157SOL    HW116370   3.912   1.950   3.219
 5157SOL    HW216371   3.842   2.046   3.331
 5158SOL     OW16372   3.737   1.503   1.882
 5158SOL    HW116373   3.700   1.461   1.965
 5158SOL    HW216374   3.719   1.601   1.883
 5159SOL     OW16375   6.892   3.534   4.510
 5159SOL    HW116376   6.824   3.605   4.528
 5159SOL    HW216377   6.867   3.484   4.427
 5160SOL     OW16378   6.842   5.192   2.836
 5160SOL    HW116379   6.939   5.166   2.837
 5160SOL    HW216380   6.826   5.262   2.905
 5161SOL     OW16381   1.790   3.818   5.521
 5161SOL    HW116382   1.861   3.815   5.592
 5161SOL    HW216383   1.719   3.751   5.541
 5162SOL     OW16384   1.148   4.783   2.976
 5162SOL    HW116385   1.110   4.874   2.960
 5162SOL    HW216386   1.226   4.790   3.039
 5163SOL     OW16387   3.759   6.443   0.133
 5163SOL    HW116388   3.661   6.449   0.153
 5163SOL    HW216389   3.800   6.535   0.135
 5164SOL     OW16390   4.070   2.632   6.832
 5164SOL    HW116391   4.150   2.620   6.773
 5164SOL    HW216392   3.991   2.657   6.776
 5165SOL     OW16393   6.423   4.329   5.671
 5165SOL    HW116394   6.404   4.403   5.736
 5165SOL    HW216395   6.355   4.332   5.598
 5166SOL     OW16396   0.584   5.201   2.520
 5166SOL    HW116397   0.555   5.161   2.607
 5166SOL    HW216398   0.684   5.197   2.513
 5167SOL     OW16399   6.664   6.323   6.367
 5167SOL    HW116400   6.644   6.388   6.294
 5167SOL    HW216401   6.695   6.237   6.327
 5168SOL     OW16402   5.412   3.636   1.921
 5168SOL    HW116403   5.448   3.729   1.929
 5168SOL    HW216404   5.338   3.624   1.986
 5169SOL     OW16405   4.203   2.244   4.552
 5169SOL    HW116406   4.169   2.263   4.644
 5169SOL    HW216407   4.302   2.256   4.550
 5170SOL     OW16408   0.513   4.047   5.468
 5170SOL    HW116409   0.527   3.967   5.526
 5170SOL    HW216410   0.599   4.098   5.461
 5171SOL     OW16411   0.699   5.308   4.575
 5171SOL    HW116412   0.663   5.374   4.641
 5171SOL    HW216413   0.694   5.216   4.613
 5172SOL     OW16414   1.307   2.544   2.496
 5172SOL    HW116415   1.255   2.518   2.578
 5172SOL    HW216416   1.315   2.466   2.435
 5173SOL     OW16417   5.077   4.774   6.049
 5173SOL    HW116418   5.109   4.742   5.960
 5173SOL    HW216419   4.980   4.753   6.060
 5174SOL     OW16420   2.255   4.803   3.363
 5174SOL    HW116421   2.208   4.881   3.405
 5174SOL    HW216422   2.353   4.822   3.358
 5175SOL     OW16423   2.707   3.279   6.881
 5175SOL    HW116424   2.773   3.250   6.950
 5175SOL    HW216425   2.746   3.268   6.790
 5176SOL     OW16426   4.640   3.077   6.817
 5176SOL    HW116427   4.722   3.048   6.866
 5176SOL    HW216428   4.562   3.079   6.880
 5177SOL     OW16429   5.049   0.695   0.277
 5177SOL    HW116430   5.101   0.620   0.318
 5177SOL    HW216431   4.972   0.718   0.337
 5178SOL     OW16432   1.157   4.380   2.229
 5178SOL    HW116433   1.078   4.381   2.290
 5178SOL    HW216434   1.159   4.294   2.178
 5179SOL     OW16435   4.020   5.815   3.549
 5179SOL    HW116436   4.037   5.888   3.482
 5179SOL    HW216437   4.019   5.727   3.502
 5180SOL     OW16438   2.584   2.211   1.245
 5180SOL    HW116439   2.557   2.118   1.220
 5180SOL    HW216440   2.684   2.218   1.244
 5181SOL     OW16441   5.729   1.194   2.635
 5181SOL    HW116442   5.719   1.292   2.619
 5181SOL    HW216443   5.693   1.143   2.557
 5182SOL     OW16444   3.987   4.398   1.415
 5182SOL    HW116445   4.038   4.357   1.491
 5182SOL    HW216446   3.897   4.355   1.408
 5183SOL     OW16447   4.412   1.511   3.168
 5183SOL    HW116448   4.503   1.528   3.205
 5183SOL    HW216449   4.420   1.457   3.084
 5184SOL     OW16450   0.860   1.930   4.400
 5184SOL    HW116451   0.921   1.853   4.418
 5184SOL    HW216452   0.798   1.907   4.325
 5185SOL     OW16453   5.730   0.686   2.282
 5185SOL    HW116454   5.775   0.597   2.289
 5185SOL    HW216455   5.794   0.757   2.309
 5186SOL     OW16456   6.660   2.784   0.734
 5186SOL    HW116457   6.704   2.846   0.800
 5186SOL    HW216458   6.564   2.771   0.760
 5187SOL     OW16459   0.893   6.914   4.344
 5187SOL    HW116460   0.892   6.855   4.425
 5187SOL    HW216461   0.970   6.888   4.285
 5188SOL     OW16462   0.719   5.627   0.790
 5188SOL    HW116463   0.743   5.631   0.693
 5188SOL    HW216464   0.786   5.678   0.843
 5189SOL     OW16465   3.723   4.279   0.675
 5189SOL    HW116466   3.804   4.318   0.633
 5189SOL    HW216467   3.743   4.187   0.707
 5190SOL     OW16468   0.670   1.878   4.201
 5190SOL    HW116469   0.666   1.978   4.200
 5190SOL    HW216470   0.601   1.841   4.138
 5191SOL     OW16471   3.998   0.269   1.643
 5191SOL    HW116472   3.971   0.365   1.646
 5191SOL    HW216473   4.030   0.246   1.551
 5192SOL     OW16474   2.809   5.799   2.989
 5192SOL    HW116475   2.780   5.861   3.063
 5192SOL    HW216476   2.829   5.709   3.027
 5193SOL     OW16477   5.037   4.617   4.679
 5193SOL    HW116478   5.051   4.518   4.677
 5193SOL    HW216479   5.125   4.663   4.695
 5194SOL     OW16480   4.596   2.281   0.529
 5194SOL    HW116481   4.650   2.197   0.523
 5194SOL    HW216482   4.499   2.259   0.541
 5195SOL     OW16483   6.054   6.327   4.038
 5195SOL    HW116484   6.148   6.357   4.023
 5195SOL    HW216485   5.994   6.374   3.973
 5196SOL     OW16486   3.380   4.848   0.491
 5196SOL    HW116487   3.340   4.931   0.453
 5196SOL    HW216488   3.405   4.863   0.587
 5197SOL     OW16489   1.783   5.547   5.189
 5197SOL    HW116490   1.700   5.596   5.216
 5197SOL    HW216491   1.857   5.613   5.177
 5198SOL     OW16492   4.325   6.718   3.386
 5198SOL    HW116493   4.305   6.812   3.415
 5198SOL    HW216494   4.325   6.658   3.466
 5199SOL     OW16495   1.581   5.836   0.449
 5199SOL    HW116496   1.621   5.847   0.541
 5199SOL    HW216497   1.605   5.914   0.392
 5200SOL     OW16498   1.165   2.589   5.014
 5200SOL    HW116499   1.105   2.595   4.934
 5200SOL    HW216500   1.240   2.654   5.005
 5201SOL     OW16501   0.249   6.578   4.106
 5201SOL    HW116502   0.278   6.581   4.010
 5201SOL    HW216503   0.236   6.671   4.140
 5202SOL     OW16504   6.031   3.865   5.566
 5202SOL    HW116505   5.956   3.805   5.593
 5202SOL    HW216506   6.109   3.809   5.538
 5203SOL     OW16507   2.527   1.123   6.718
 5203SOL    HW116508   2.556   1.189   6.648
 5203SOL    HW216509   2.440   1.153   6.757
 5204SOL     OW16510   4.746   5.841   6.852
 5204SOL    HW116511   4.704   5.756   6.823
 5204SOL    HW216512   4.676   5.910   6.869
 5205SOL     OW16513   0.396   6.096   0.853
 5205SOL    HW116514   0.397   6.173   0.916
 5205SOL    HW216515   0.302   6.071   0.832
 5206SOL     OW16516   0.632   5.085   6.619
 5206SOL    HW116517   0.635   5.123   6.712
 5206SOL    HW216518   0.543   5.043   6.603
 5207SOL     OW16519   1.211   6.264   4.217
 5207SOL    HW116520   1.128   6.217   4.188
 5207SOL    HW216521   1.232   6.239   4.312
 5208SOL     OW16522   5.257   2.412   6.747
 5208SOL    HW116523   5.167   2.386   6.781
 5208SOL    HW216524   5.327   2.362   6.798
 5209SOL     OW16525   5.782   6.789   2.315
 5209SOL    HW116526   5.705   6.749   2.366
 5209SOL    HW216527   5.851   6.821   2.380
 5210SOL     OW16528   4.725   2.821   0.203
 5210SOL    HW116529   4.763   2.832   0.295
 5210SOL    HW216530   4.759   2.736   0.163
 5211SOL     OW16531   3.935   2.312   5.731
 5211SOL    HW116532   3.916   2.283   5.638
 5211SOL    HW216533   3.851   2.314   5.784
 5212SOL     OW16534   0.361   2.588   0.500
 5212SOL    HW116535   0.263   2.582   0.483
 5212SOL    HW216536   0.408   2.512   0.455
 5213SOL     OW16537   4.772   4.045   7.020
 5213SOL    HW116538   4.802   4.024   0.088
 5213SOL    HW216539   4.733   4.137   7.018
 5214SOL     OW16540   5.261   2.237   6.035
 5214SOL    HW116541   5.249   2.335   6.049
 5214SOL    HW216542   5.350   2.220   5.992
 5215SOL     OW16543   0.972   4.300   3.800
 5215SOL    HW116544   0.901   4.308   3.731
 5215SOL    HW216545   1.001   4.204   3.808
 5216SOL     OW16546   4.647   4.910   1.629
 5216SOL    HW116547   4.690   4.848   1.563
 5216SOL    HW216548   4.662   5.005   1.601
 5217SOL     OW16549   3.869   5.425   4.122
 5217SOL    HW116550   3.809   5.364   4.174
 5217SOL    HW216551   3.921   5.372   4.056
 5218SOL     OW16552   0.965   0.711   2.002
 5218SOL    HW116553   1.004   0.724   1.910
 5218SOL    HW216554   1.030   0.662   2.059
 5219SOL     OW16555   4.319   1.364   5.066
 5219SOL    HW116556   4.272   1.396   5.149
 5219SOL    HW216557   4.303   1.430   4.992
 5220SOL     OW16558   1.150   6.398   2.244
 5220SOL    HW116559   1.223   6.341   2.206
 5220SOL    HW216560   1.107   6.351   2.321
 5221SOL     OW16561   6.058   1.571   3.826
 5221SOL    HW116562   5.979   1.630   3.814
 5221SOL    HW216563   6.029   1.475   3.824
 5222SOL     OW16564   4.421   6.644   3.143
 5222SOL    HW116565   4.375   6.684   3.223
 5222SOL    HW216566   4.518   6.632   3.163
 5223SOL     OW16567   6.143   2.579   0.859
 5223SOL    HW116568   6.215   2.646   0.880
 5223SOL    HW216569   6.059   2.605   0.907
 5224SOL     OW16570   6.272   2.771   4.838
 5224SOL    HW116571   6.313   2.702   4.898
 5224SOL    HW216572   6.192   2.811   4.883
 5225SOL     OW16573   0.407   0.710   3.789
 5225SOL    HW116574   0.456   0.773   3.729
 5225SOL    HW216575   0.465   0.684   3.866
 5226SOL     OW16576   7.010   0.130   4.964
 5226SOL    HW116577   0.022   0.107   5.054
 5226SOL    HW216578   6.948   0.208   4.973
 5227SOL     OW16579   0.346   3.392   5.261
 5227SOL    HW116580   0.328   3.365   5.166
 5227SOL    HW216581   0.268   3.365   5.318
 5228SOL     OW16582   6.273   2.288   1.078
 5228SOL    HW116583   6.214   2.355   1.124
 5228SOL    HW216584   6.353   2.335   1.040
 5229SOL     OW16585   2.296   6.330   0.304
 5229SOL    HW116586   2.263   6.332   0.398
 5229SOL    HW216587   2.293   6.422   0.265
 5230SOL     OW16588   0.803   5.791   1.847
 5230SOL    HW116589   0.786   5.864   1.914
 5230SOL    HW216590   0.847   5.829   1.766
 5231SOL     OW16591   4.818   2.391   4.624
 5231SOL    HW116592   4.771   2.407   4.537
 5231SOL    HW216593   4.756   2.413   4.699
 5232SOL     OW16594   1.912   3.758   6.057
 5232SOL    HW116595   1.938   3.662   6.069
 5232SOL    HW216596   1.829   3.763   6.001
 5233SOL     OW16597   4.429   1.189   2.244
 5233SOL    HW116598   4.505   1.125   2.233
 5233SOL    HW216599   4.408   1.232   2.157
 5234SOL     OW16600   2.820   1.875   5.990
 5234SOL    HW116601   2.918   1.894   5.978
 5234SOL    HW216602   2.795   1.887   6.086
 5235SOL     OW16603   1.933   2.405   0.781
 5235SOL    HW116604   1.855   2.407   0.719
 5235SOL    HW216605   2.004   2.346   0.744
 5236SOL     OW16606   4.718   5.286   1.625
 5236SOL    HW116607   4.782   5.264   1.552
 5236SOL    HW216608   4.762   5.274   1.713
 5237SOL     OW16609   1.677   1.205   5.093
 5237SOL    HW116610   1.709   1.249   5.009
 5237SOL    HW216611   1.577   1.209   5.098
 5238SOL     OW16612   0.383   4.389   0.110
 5238SOL    HW116613   0.409   4.300   0.073
 5238SOL    HW216614   0.295   4.417   0.072
 5239SOL     OW16615   3.265   2.983   4.362
 5239SOL    HW116616   3.338   3.044   4.331
 5239SOL    HW216617   3.180   3.006   4.316
 5240SOL     OW16618   2.936   2.553   5.664
 5240SOL    HW116619   2.849   2.602   5.654
 5240SOL    HW216620   3.011   2.614   5.639
 5241SOL     OW16621   0.204   5.021   4.570
 5241SOL    HW116622   0.194   4.995   4.666
 5241SOL    HW216623   0.138   5.093   4.548
 5242SOL     OW16624   6.715   6.677   6.850
 5242SOL    HW116625   6.669   6.590   6.831
 5242SOL    HW216626   6.812   6.669   6.825
 5243SOL     OW16627   1.378   5.511   1.674
 5243SOL    HW116628   1.282   5.492   1.695
 5243SOL    HW216629   1.414   5.579   1.738
 5244SOL     OW16630   3.176   5.487   6.896
 5244SOL    HW116631   3.127   5.437   6.825
 5244SOL    HW216632   3.239   5.425   6.944
 5245SOL     OW16633   4.205   4.727   6.770
 5245SOL    HW116634   4.137   4.781   6.819
 5245SOL    HW216635   4.168   4.698   6.681
 5246SOL     OW16636   5.482   3.443   1.720
 5246SOL    HW116637   5.506   3.346   1.717
 5246SOL    HW216638   5.493   3.477   1.814
 5247SOL     OW16639   1.736   0.744   6.989
 5247SOL    HW116640   1.711   0.840   6.984
 5247SOL    HW216641   1.802   0.722   6.917
 5248SOL     OW16642   5.573   1.550   3.824
 5248SOL    HW116643   5.633   1.472   3.806
 5248SOL    HW216644   5.479   1.524   3.803
 5249SOL     OW16645   0.250   5.245   6.221
 5249SOL    HW116646   0.327   5.187   6.246
 5249SOL    HW216647   0.172   5.187   6.197
 5250SOL     OW16648   2.098   5.892   6.388
 5250SOL    HW116649   2.117   5.870   6.292
 5250SOL    HW216650   2.045   5.976   6.393
 5251SOL     OW16651   0.393   3.763   0.114
 5251SOL    HW116652   0.403   3.811   0.201
 5251SOL    HW216653   0.479   3.717   0.091
 5252SOL     OW16654   1.682   6.460   0.458
 5252SOL    HW116655   1.643   6.456   0.366
 5252SOL    HW216656   1.608   6.464   0.525
 5253SOL     OW16657   6.269   4.902   4.693
 5253SOL    HW116658   6.269   5.002   4.686
 5253SOL    HW216659   6.219   4.875   4.775
 5254SOL     OW16660   4.501   0.952   2.896
 5254SOL    HW116661   4.473   0.859   2.920
 5254SOL    HW216662   4.499   0.963   2.797
 5255SOL     OW16663   5.859   1.588   5.218
 5255SOL    HW116664   5.778   1.642   5.241
 5255SOL    HW216665   5.886   1.607   5.124
 5256SOL     OW16666   4.091   1.302   3.826
 5256SOL    HW116667   4.021   1.231   3.816
 5256SOL    HW216668   4.182   1.260   3.821
 5257SOL     OW16669   5.429   6.716   2.075
 5257SOL    HW116670   5.433   6.814   2.090
 5257SOL    HW216671   5.519   6.683   2.046
 5258SOL     OW16672   5.803   3.323   1.605
 5258SOL    HW116673   5.768   3.417   1.605
 5258SOL    HW216674   5.875   3.315   1.675
 5259SOL     OW16675   5.186   6.329   2.101
 5259SOL    HW116676   5.257   6.283   2.154
 5259SOL    HW216677   5.229   6.391   2.035
 5260SOL     OW16678   5.153   3.621   0.633
 5260SOL    HW116679   5.207   3.628   0.716
 5260SOL    HW216680   5.213   3.621   0.553
 5261SOL     OW16681   0.257   3.887   6.918
 5261SOL    HW116682   0.332   3.900   6.852
 5261SOL    HW216683   0.294   3.852   7.004
 5262SOL     OW16684   2.827   0.828   3.579
 5262SOL    HW116685   2.832   0.841   3.678
 5262SOL    HW216686   2.856   0.911   3.533
 5263SOL     OW16687   1.941   1.716   3.982
 5263SOL    HW116688   1.985   1.690   3.896
 5263SOL    HW216689   1.892   1.638   4.020
 5264SOL     OW16690   6.652   2.249   2.645
 5264SOL    HW116691   6.644   2.345   2.671
 5264SOL    HW216692   6.563   2.217   2.611
 5265SOL     OW16693   6.741   3.974   4.129
 5265SOL    HW116694   6.697   4.023   4.204
 5265SOL    HW216695   6.682   3.979   4.048
 5266SOL     OW16696   3.086   5.379   0.679
 5266SOL    HW116697   3.185   5.397   0.677
 5266SOL    HW216698   3.037   5.463   0.703
 5267SOL     OW16699   5.550   3.713   5.024
 5267SOL    HW116700   5.600   3.688   5.107
 5267SOL    HW216701   5.615   3.726   4.949
 5268SOL     OW16702   5.623   0.649   6.394
 5268SOL    HW116703   5.567   0.591   6.335
 5268SOL    HW216704   5.632   0.606   6.484
 5269SOL     OW16705   1.519   6.683   3.463
 5269SOL    HW116706   1.448   6.612   3.469
 5269SOL    HW216707   1.599   6.654   3.514
 5270SOL     OW16708   6.213   0.756   1.089
 5270SOL    HW116709   6.269   0.780   1.010
 5270SOL    HW216710   6.120   0.735   1.059
 5271SOL     OW16711   6.018   5.683   5.089
 5271SOL    HW116712   5.996   5.680   5.187
 5271SOL    HW216713   6.018   5.778   5.058
 5272SOL     OW16714   3.197   5.388   2.218
 5272SOL    HW116715   3.269   5.318   2.211
 5272SOL    HW216716   3.195   5.425   2.311
 5273SOL     OW16717   6.723   3.124   3.485
 5273SOL    HW116718   6.681   3.193   3.544
 5273SOL    HW216719   6.653   3.081   3.428
 5274SOL     OW16720   6.921   6.721   2.806
 5274SOL    HW116721   7.013   6.758   2.816
 5274SOL    HW216722   6.911   6.682   2.714
 5275SOL     OW16723   3.585   2.310   1.290
 5275SOL    HW116724   3.589   2.303   1.190
 5275SOL    HW216725   3.561   2.221   1.328
 5276SOL     OW16726   2.247   0.470   1.118
 5276SOL    HW116727   2.195   0.477   1.033
 5276SOL    HW216728   2.282   0.561   1.144
 5277SOL     OW16729   1.651   1.592   2.564
 5277SOL    HW116730   1.581   1.529   2.597
 5277SOL    HW216731   1.614   1.685   2.563
 5278SOL     OW16732   6.352   0.181   3.425
 5278SOL    HW116733   6.325   0.118   3.497
 5278SOL    HW216734   6.334   0.140   3.335
 5279SOL     OW16735   2.006   4.848   6.250
 5279SOL    HW116736   2.081   4.861   6.315
 5279SOL    HW216737   2.028   4.773   6.189
 5280SOL     OW16738   2.458   6.252   5.247
 5280SOL    HW116739   2.558   6.260   5.258
 5280SOL    HW216740   2.432   6.290   5.158
 5281SOL     OW16741   0.254   2.047   2.966
 5281SOL    HW116742   0.352   2.053   2.985
 5281SOL    HW216743   0.239   1.998   2.880
 5282SOL     OW16744   2.676   1.624   3.253
 5282SOL    HW116745   2.694   1.661   3.344
 5282SOL    HW216746   2.645   1.529   3.260
 5283SOL     OW16747   4.062   6.671   0.734
 5283SOL    HW116748   4.150   6.712   0.713
 5283SOL    HW216749   4.044   6.595   0.671
 5284SOL     OW16750   4.947   3.922   3.713
 5284SOL    HW116751   5.044   3.915   3.686
 5284SOL    HW216752   4.902   3.834   3.700
 5285SOL     OW16753   2.766   5.208   3.631
 5285SOL    HW116754   2.694   5.238   3.569
 5285SOL    HW216755   2.855   5.215   3.585
 5286SOL     OW16756   1.103   4.689   0.198
 5286SOL    HW116757   1.132   4.774   0.242
 5286SOL    HW216758   1.145   4.611   0.243
 5287SOL     OW16759   2.658   6.726   0.742
 5287SOL    HW116760   2.700   6.644   0.781
 5287SOL    HW216761   2.569   6.701   0.703
 5288SOL     OW16762   3.367   0.105   1.397
 5288SOL    HW116763   3.348   0.203   1.403
 5288SOL    HW216764   3.308   0.056   1.462
 5289SOL     OW16765   1.148   4.543   5.829
 5289SOL    HW116766   1.179   4.532   5.923
 5289SOL    HW216767   1.174   4.633   5.795
 5290SOL     OW16768   1.463   4.970   5.088
 5290SOL    HW116769   1.439   4.961   4.991
 5290SOL    HW216770   1.562   4.966   5.098
 5291SOL     OW16771   2.538   5.166   6.276
 5291SOL    HW116772   2.560   5.077   6.316
 5291SOL    HW216773   2.439   5.174   6.265
 5292SOL     OW16774   6.329   2.905   6.731
 5292SOL    HW116775   6.272   2.973   6.685
 5292SOL    HW216776   6.341   2.931   6.827
 5293SOL     OW16777   0.846   0.658   4.884
 5293SOL    HW116778   0.939   0.634   4.913
 5293SOL    HW216779   0.781   0.592   4.922
 5294SOL     OW16780   4.817   3.453   5.657
 5294SOL    HW116781   4.845   3.357   5.664
 5294SOL    HW216782   4.783   3.471   5.565
 5295SOL     OW16783   5.562   0.553   2.894
 5295SOL    HW116784   5.648   0.510   2.865
 5295SOL    HW216785   5.549   0.639   2.844
 5296SOL     OW16786   2.491   5.282   0.197
 5296SOL    HW116787   2.523   5.334   0.276
 5296SOL    HW216788   2.488   5.185   0.220
 5297SOL     OW16789   2.410   2.013   1.569
 5297SOL    HW116790   2.389   1.966   1.655
 5297SOL    HW216791   2.468   1.954   1.512
 5298SOL     OW16792   1.020   5.677   0.366
 5298SOL    HW116793   1.097   5.658   0.426
 5298SOL    HW216794   0.935   5.644   0.409
 5299SOL     OW16795   2.874   2.507   0.617
 5299SOL    HW116796   2.848   2.581   0.555
 5299SOL    HW216797   2.794   2.474   0.666
 5300SOL     OW16798   0.544   6.001   2.472
 5300SOL    HW116799   0.571   6.017   2.567
 5300SOL    HW216800   0.599   5.927   2.433
 5301SOL     OW16801   4.432   2.021   0.488
 5301SOL    HW116802   4.340   2.051   0.461
 5301SOL    HW216803   4.466   1.955   0.421
 5302SOL     OW16804   5.834   4.098   3.057
 5302SOL    HW116805   5.838   4.111   2.958
 5302SOL    HW216806   5.859   4.184   3.102
 5303SOL     OW16807   6.627   5.912   3.396
 5303SOL    HW116808   6.583   5.980   3.337
 5303SOL    HW216809   6.609   5.933   3.492
 5304SOL     OW16810   0.029   1.644   5.891
 5304SOL    HW116811   0.063   1.565   5.943
 5304SOL    HW216812   6.998   1.701   5.950
 5305SOL     OW16813   1.558   6.778   4.868
 5305SOL    HW116814   1.587   6.691   4.828
 5305SOL    HW216815   1.521   6.762   4.960
 5306SOL     OW16816   0.115   5.772   5.386
 5306SOL    HW116817   0.147   5.865   5.399
 5306SOL    HW216818   0.038   5.754   5.448
 5307SOL     OW16819   4.364   6.989   0.104
 5307SOL    HW116820   4.426   6.912   0.118
 5307SOL    HW216821   4.384   0.035   0.172
 5308SOL     OW16822   0.644   6.617   5.096
 5308SOL    HW116823   0.724   6.557   5.085
 5308SOL    HW216824   0.584   6.580   5.167
 5309SOL     OW16825   3.204   3.563   2.195
 5309SOL    HW116826   3.139   3.639   2.193
 5309SOL    HW216827   3.154   3.476   2.195
 5310SOL     OW16828   5.131   2.952   2.156
 5310SOL    HW116829   5.120   2.992   2.065
 5310SOL    HW216830   5.192   3.009   2.211
 5311SOL     OW16831   0.457   5.598   0.930
 5311SOL    HW116832   0.443   5.633   1.023
 5311SOL    HW216833   0.548   5.624   0.898
 5312SOL     OW16834   0.205   4.146   2.439
 5312SOL    HW116835   0.136   4.218   2.441
 5312SOL    HW216836   0.279   4.173   2.377
 5313SOL     OW16837   0.885   5.391   0.201
 5313SOL    HW116838   0.795   5.417   0.236
 5313SOL    HW216839   0.886   5.402   0.102
 5314SOL     OW16840   3.324   5.065   0.352
 5314SOL    HW116841   3.278   5.007   0.285
 5314SOL    HW216842   3.256   5.118   0.402
 5315SOL     OW16843   3.590   4.040   1.135
 5315SOL    HW116844   3.592   4.074   1.041
 5315SOL    HW216845   3.684   4.037   1.170
 5316SOL     OW16846   6.668   5.113   5.165
 5316SOL    HW116847   6.754   5.103   5.116
 5316SOL    HW216848   6.655   5.035   5.226
 5317SOL     OW16849   6.951   1.048   4.507
 5317SOL    HW116850   0.018   1.087   4.501
 5317SOL    HW216851   6.889   1.116   4.545
 5318SOL     OW16852   0.730   2.065   6.035
 5318SOL    HW116853   0.670   2.020   6.102
 5318SOL    HW216854   0.686   2.065   5.945
 5319SOL     OW16855   4.802   6.797   0.121
 5319SOL    HW116856   4.824   6.700   0.105
 5319SOL    HW216857   4.703   6.810   0.116
 5320SOL     OW16858   5.629   4.991   6.811
 5320SOL    HW116859   5.615   5.080   6.854
 5320SOL    HW216860   5.555   4.929   6.837
 5321SOL     OW16861   0.831   4.410   2.767
 5321SOL    HW116862   0.867   4.317   2.766
 5321SOL    HW216863   0.897   4.472   2.810
 5322SOL     OW16864   3.980   6.454   5.943
 5322SOL    HW116865   4.077   6.448   5.921
 5322SOL    HW216866   3.965   6.523   6.013
 5323SOL     OW16867   3.706   3.197   0.777
 5323SOL    HW116868   3.776   3.248   0.726
 5323SOL    HW216869   3.744   3.169   0.866
 5324SOL     OW16870   3.541   2.598   1.754
 5324SOL    HW116871   3.603   2.661   1.800
 5324SOL    HW216872   3.560   2.505   1.786
 5325SOL     OW16873   5.846   6.447   3.348
 5325SOL    HW116874   5.807   6.388   3.277
 5325SOL    HW216875   5.915   6.396   3.400
 5326SOL     OW16876   6.641   5.169   2.669
 5326SOL    HW116877   6.680   5.159   2.578
 5326SOL    HW216878   6.713   5.164   2.738
 5327SOL     OW16879   0.137   5.203   5.618
 5327SOL    HW116880   0.232   5.177   5.630
 5327SOL    HW216881   0.131   5.281   5.556
 5328SOL     OW16882   4.326   2.928   5.760
 5328SOL    HW116883   4.280   2.980   5.688
 5328SOL    HW216884   4.264   2.915   5.837
 5329SOL     OW16885   0.110   4.000   6.680
 5329SOL    HW116886   0.158   3.934   6.622
 5329SOL    HW216887   0.114   3.970   6.775
 5330SOL     OW16888   3.153   4.839   6.538
 5330SOL    HW116889   3.222   4.911   6.539
 5330SOL    HW216890   3.151   4.794   6.627
 5331SOL     OW16891   5.455   1.554   1.432
 5331SOL    HW116892   5.527   1.562   1.502
 5331SOL    HW216893   5.366   1.565   1.476
 5332SOL     OW16894   6.625   4.416   0.453
 5332SOL    HW116895   6.694   4.414   0.381
 5332SOL    HW216896   6.534   4.428   0.413
 5333SOL     OW16897   0.994   0.453   3.386
 5333SOL    HW116898   1.079   0.427   3.432
 5333SOL    HW216899   0.920   0.460   3.453
 5334SOL     OW16900   3.705   5.087   5.522
 5334SOL    HW116901   3.652   5.030   5.459
 5334SOL    HW216902   3.802   5.085   5.495
 5335SOL     OW16903   0.513   5.182   2.242
 5335SOL    HW116904   0.502   5.196   2.340
 5335SOL    HW216905   0.606   5.151   2.223
 5336SOL     OW16906   1.926   2.028   3.639
 5336SOL    HW116907   1.969   2.076   3.715
 5336SOL    HW216908   1.891   2.095   3.573
 5337SOL     OW16909   5.788   4.660   1.574
 5337SOL    HW116910   5.778   4.587   1.642
 5337SOL    HW216911   5.707   4.661   1.515
 5338SOL     OW16912   5.270   1.052   6.282
 5338SOL    HW116913   5.200   0.999   6.235
 5338SOL    HW216914   5.357   1.002   6.280
 5339SOL     OW16915   5.576   1.236   3.117
 5339SOL    HW116916   5.571   1.155   3.059
 5339SOL    HW216917   5.581   1.208   3.213
 5340SOL     OW16918   5.831   3.814   1.109
 5340SOL    HW116919   5.757   3.803   1.042
 5340SOL    HW216920   5.859   3.724   1.142
 5341SOL     OW16921   2.913   5.103   5.199
 5341SOL    HW116922   2.924   5.021   5.142
 5341SOL    HW216923   2.986   5.106   5.267
 5342SOL     OW16924   5.480   6.388   4.698
 5342SOL    HW116925   5.397   6.336   4.719
 5342SOL    HW216926   5.501   6.450   4.774
 5343SOL     OW16927   3.756   3.562   4.394
 5343SOL    HW116928   3.675   3.555   4.335
 5343SOL    HW216929   3.760   3.483   4.454
 5344SOL     OW16930   0.599   1.728   0.452
 5344SOL    HW116931   0.541   1.706   0.374
 5344SOL    HW216932   0.686   1.681   0.443
 5345SOL     OW16933   4.877   0.890   0.113
 5345SOL    HW116934   4.976   0.875   0.123
 5345SOL    HW216935   4.848   0.963   0.175
 5346SOL     OW16936   3.041   5.515   4.364
 5346SOL    HW116937   3.112   5.453   4.329
 5346SOL    HW216938   3.082   5.585   4.421
 5347SOL     OW16939   6.618   3.868   3.287
 5347SOL    HW116940   6.662   3.947   3.245
 5347SOL    HW216941   6.530   3.895   3.326
 5348SOL     OW16942   0.581   1.206   6.391
 5348SOL    HW116943   0.511   1.210   6.319
 5348SOL    HW216944   0.539   1.230   6.478
 5349SOL     OW16945   2.549   3.175   1.056
 5349SOL    HW116946   2.625   3.120   1.091
 5349SOL    HW216947   2.583   3.265   1.028
 5350SOL     OW16948   2.685   6.838   5.436
 5350SOL    HW116949   2.629   6.766   5.393
 5350SOL    HW216950   2.628   6.918   5.454
 5351SOL     OW16951   0.541   5.525   2.199
 5351SOL    HW116952   0.606   5.490   2.267
 5351SOL    HW216953   0.540   5.464   2.120
 5352SOL     OW16954   2.401   4.836   3.056
 5352SOL    HW116955   2.480   4.816   3.114
 5352SOL    HW216956   2.374   4.932   3.069
 5353SOL     OW16957   3.738   5.794   3.980
 5353SOL    HW116958   3.656   5.743   4.007
 5353SOL    HW216959   3.796   5.737   3.923
 5354SOL     OW16960   1.970   5.063   0.622
 5354SOL    HW116961   2.047   5.001   0.635
 5354SOL    HW216962   1.949   5.109   0.709
 5355SOL     OW16963   6.194   5.084   4.338
 5355SOL    HW116964   6.183   4.994   4.296
 5355SOL    HW216965   6.123   5.099   4.406
 5356SOL     OW16966   6.535   3.851   2.331
 5356SOL    HW116967   6.630   3.821   2.319
 5356SOL    HW216968   6.513   3.920   2.262
 5357SOL     OW16969   4.061   4.466   0.803
 5357SOL    HW116970   4.083   4.507   0.715
 5357SOL    HW216971   4.145   4.434   0.848
 5358SOL     OW16972   4.780   2.358   1.055
 5358SOL    HW116973   4.815   2.294   0.987
 5358SOL    HW216974   4.842   2.360   1.134
 5359SOL     OW16975   2.671   1.945   6.227
 5359SOL    HW116976   2.657   2.010   6.301
 5359SOL    HW216977   2.603   1.872   6.233
 5360SOL     OW16978   5.091   6.235   3.743
 5360SOL    HW116979   5.128   6.251   3.834
 5360SOL    HW216980   5.154   6.272   3.674
 5361SOL     OW16981   2.265   6.484   4.368
 5361SOL    HW116982   2.191   6.453   4.309
 5361SOL    HW216983   2.335   6.413   4.374
 5362SOL     OW16984   6.571   5.737   2.561
 5362SOL    HW116985   6.578   5.748   2.660
 5362SOL    HW216986   6.541   5.644   2.540
 5363SOL     OW16987   5.425   6.425   5.771
 5363SOL    HW116988   5.424   6.325   5.782
 5363SOL    HW216989   5.345   6.463   5.816
 5364SOL     OW16990   6.078   6.734   1.678
 5364SOL    HW116991   6.105   6.823   1.713
 5364SOL    HW216992   6.110   6.662   1.740
 5365SOL     OW16993   3.163   2.898   2.173
 5365SOL    HW116994   3.133   2.807   2.146
 5365SOL    HW216995   3.130   2.965   2.106
 5366SOL     OW16996   0.057   6.649   2.348
 5366SOL    HW116997   0.046   6.630   2.250
 5366SOL    HW216998   0.118   6.727   2.360
 5367SOL     OW16999   0.038   6.864   1.293
 5367SOL    HW117000   0.039   6.952   1.246
 5367SOL    HW217001   6.975   6.851   1.339
 5368SOL     OW17002   6.484   6.835   2.667
 5368SOL    HW117003   6.474   6.752   2.612
 5368SOL    HW217004   6.429   6.908   2.627
 5369SOL     OW17005   3.179   6.377   1.095
 5369SOL    HW117006   3.277   6.384   1.108
 5369SOL    HW217007   3.148   6.285   1.120
 5370SOL     OW17008   3.980   3.781   1.107
 5370SOL    HW117009   4.078   3.758   1.108
 5370SOL    HW217010   3.939   3.746   1.024
 5371SOL     OW17011   6.900   4.816   5.211
 5371SOL    HW117012   6.859   4.798   5.300
 5371SOL    HW217013   6.916   4.914   5.201
 5372SOL     OW17014   0.902   6.094   2.774
 5372SOL    HW117015   0.885   6.043   2.858
 5372SOL    HW217016   0.950   6.179   2.795
 5373SOL     OW17017   4.358   6.947   5.434
 5373SOL    HW117018   4.457   6.943   5.452
 5373SOL    HW217019   4.334   0.013   5.400
 5374SOL     OW17020   2.098   4.390   0.521
 5374SOL    HW117021   2.028   4.418   0.587
 5374SOL    HW217022   2.126   4.296   0.540
 5375SOL     OW17023   0.366   5.792   5.824
 5375SOL    HW117024   0.331   5.743   5.745
 5375SOL    HW217025   0.424   5.731   5.878
 5376SOL     OW17026   1.252   2.176   1.415
 5376SOL    HW117027   1.348   2.190   1.391
 5376SOL    HW217028   1.194   2.223   1.348
 5377SOL     OW17029   1.159   0.406   2.808
 5377SOL    HW117030   1.180   0.330   2.869
 5377SOL    HW217031   1.214   0.486   2.833
 5378SOL     OW17032   6.846   0.163   2.270
 5378SOL    HW117033   6.805   0.145   2.360
 5378SOL    HW217034   6.790   0.230   2.221
 5379SOL     OW17035   1.288   3.432   5.021
 5379SOL    HW117036   1.195   3.399   5.006
 5379SOL    HW217037   1.284   3.517   5.074
 5380SOL     OW17038   2.430   6.952   1.315
 5380SOL    HW117039   2.367   7.003   1.373
 5380SOL    HW217040   2.392   6.861   1.295
 5381SOL     OW17041   6.705   6.009   2.142
 5381SOL    HW117042   6.774   5.938   2.155
 5381SOL    HW217043   6.688   6.023   2.045
 5382SOL     OW17044   2.846   2.283   2.626
 5382SOL    HW117045   2.771   2.305   2.564
 5382SOL    HW217046   2.816   2.295   2.721
 5383SOL     OW17047   1.223   2.471   4.737
 5383SOL    HW117048   1.139   2.478   4.684
 5383SOL    HW217049   1.275   2.556   4.730
 5384SOL     OW17050   4.508   5.783   4.759
 5384SOL    HW117051   4.454   5.827   4.830
 5384SOL    HW217052   4.450   5.719   4.708
 5385SOL     OW17053   5.016   3.097   5.435
 5385SOL    HW117054   5.078   3.145   5.373
 5385SOL    HW217055   5.034   2.999   5.432
 5386SOL     OW17056   5.970   1.249   4.262
 5386SOL    HW117057   5.906   1.308   4.213
 5386SOL    HW217058   5.957   1.261   4.361
 5387SOL     OW17059   2.405   6.344   3.245
 5387SOL    HW117060   2.409   6.288   3.328
 5387SOL    HW217061   2.343   6.421   3.260
 5388SOL     OW17062   1.382   6.891   2.815
 5388SOL    HW117063   1.455   6.917   2.752
 5388SOL    HW217064   1.302   6.950   2.800
 5389SOL     OW17065   3.898   1.892   4.670
 5389SOL    HW117066   3.832   1.821   4.695
 5389SOL    HW217067   3.850   1.972   4.636
 5390SOL     OW17068   5.404   4.456   3.502
 5390SOL    HW117069   5.398   4.440   3.600
 5390SOL    HW217070   5.482   4.516   3.482
 5391SOL     OW17071   2.694   1.698   6.835
 5391SOL    HW117072   2.615   1.663   6.886
 5391SOL    HW217073   2.664   1.732   6.746
 5392SOL     OW17074   5.658   4.228   1.230
 5392SOL    HW117075   5.755   4.206   1.237
 5392SOL    HW217076   5.618   4.178   1.153
 5393SOL     OW17077   4.938   0.857   5.032
 5393SOL    HW117078   4.962   0.950   5.004
 5393SOL    HW217079   5.016   0.796   5.017
 5394SOL     OW17080   0.892   5.689   1.013
 5394SOL    HW117081   0.901   5.650   1.105
 5394SOL    HW217082   0.937   5.778   1.010
 5395SOL     OW17083   5.092   0.702   1.517
 5395SOL    HW117084   5.180   0.739   1.549
 5395SOL    HW217085   5.108   0.643   1.438
 5396SOL     OW17086   5.389   5.221   1.910
 5396SOL    HW117087   5.466   5.158   1.918
 5396SOL    HW217088   5.307   5.171   1.882
 5397SOL     OW17089   0.251   1.991   2.123
 5397SOL    HW117090   0.222   1.938   2.203
 5397SOL    HW217091   0.308   2.067   2.152
 5398SOL     OW17092   2.630   2.023   3.594
 5398SOL    HW117093   2.709   1.984   3.641
 5398SOL    HW217094   2.634   2.122   3.599
 5399SOL     OW17095   2.972   7.008   6.599
 5399SOL    HW117096   2.928   6.923   6.625
 5399SOL    HW217097   3.060   6.989   6.557
 5400SOL     OW17098   2.989   3.357   0.363
 5400SOL    HW117099   2.991   3.354   0.263
 5400SOL    HW217100   3.028   3.273   0.400
 5401SOL     OW17101   5.362   4.038   2.295
 5401SOL    HW117102   5.454   4.044   2.255
 5401SOL    HW217103   5.296   4.072   2.228
 5402SOL     OW17104   2.455   0.012   1.055
 5402SOL    HW117105   2.384   0.083   1.054
 5402SOL    HW217106   2.471   7.007   1.148
 5403SOL     OW17107   5.306   3.616   6.222
 5403SOL    HW117108   5.259   3.578   6.142
 5403SOL    HW217109   5.241   3.624   6.298
 5404SOL     OW17110   0.736   6.959   1.370
 5404SOL    HW117111   0.790   6.894   1.317
 5404SOL    HW217112   0.702   6.913   1.453
 5405SOL     OW17113   6.317   4.723   0.119
 5405SOL    HW117114   6.299   4.741   0.216
 5405SOL    HW217115   6.269   4.790   0.063
 5406SOL     OW17116   2.206   1.035   5.076
 5406SOL    HW117117   2.168   1.090   5.151
 5406SOL    HW217118   2.283   1.085   5.035
 5407SOL     OW17119   3.425   1.666   1.105
 5407SOL    HW117120   3.348   1.708   1.058
 5407SOL    HW217121   3.394   1.627   1.192
 5408SOL     OW17122   4.154   1.162   5.077
 5408SOL    HW117123   4.231   1.224   5.057
 5408SOL    HW217124   4.072   1.195   5.031
 5409SOL     OW17125   6.270   0.983   2.682
 5409SOL    HW117126   6.318   1.071   2.673
 5409SOL    HW217127   6.230   0.977   2.774
 5410SOL     OW17128   1.145   2.330   6.791
 5410SOL    HW117129   1.074   2.364   6.730
 5410SOL    HW217130   1.131   2.368   6.883
 5411SOL     OW17131   4.749   4.968   6.423
 5411SOL    HW117132   4.846   4.988   6.414
 5411SOL    HW217133   4.702   4.998   6.340
 5412SOL     OW17134   2.619   1.073   6.361
 5412SOL    HW117135   2.533   1.053   6.408
 5412SOL    HW217136   2.611   1.160   6.312
 5413SOL     OW17137   0.312   6.989   6.920
 5413SOL    HW117138   0.270   6.909   6.962
 5413SOL    HW217139   0.315   6.976   6.821
 5414SOL     OW17140   6.182   4.807   4.950
 5414SOL    HW117141   6.128   4.870   5.006
 5414SOL    HW217142   6.270   4.789   4.994
 5415SOL     OW17143   2.904   6.243   0.897
 5415SOL    HW117144   2.987   6.255   0.950
 5415SOL    HW217145   2.927   6.211   0.805
 5416SOL     OW17146   2.583   4.814   5.067
 5416SOL    HW117147   2.496   4.770   5.090
 5416SOL    HW217148   2.654   4.745   5.056
 5417SOL     OW17149   3.829   0.047   5.144
 5417SOL    HW117150   3.818   0.035   5.046
 5417SOL    HW217151   3.771   0.122   5.176
 5418SOL     OW17152   5.400   5.705   5.388
 5418SOL    HW117153   5.449   5.773   5.333
 5418SOL    HW217154   5.422   5.718   5.484
 5419SOL     OW17155   4.002   5.989   0.646
 5419SOL    HW117156   3.928   5.931   0.678
 5419SOL    HW217157   4.042   5.950   0.564
 5420SOL     OW17158   1.936   2.200   0.971
 5420SOL    HW117159   1.921   2.284   0.919
 5420SOL    HW217160   2.029   2.167   0.954
 5421SOL     OW17161   3.364   5.244   1.177
 5421SOL    HW117162   3.395   5.203   1.263
 5421SOL    HW217163   3.269   5.216   1.159
 5422SOL     OW17164   1.389   4.937   4.837
 5422SOL    HW117165   1.392   5.019   4.780
 5422SOL    HW217166   1.344   4.864   4.787
 5423SOL     OW17167   5.389   4.985   0.495
 5423SOL    HW117168   5.332   5.054   0.451
 5423SOL    HW217169   5.436   5.025   0.574
 5424SOL     OW17170   5.442   3.835   4.454
 5424SOL    HW117171   5.409   3.849   4.361
 5424SOL    HW217172   5.531   3.790   4.452
 5425SOL     OW17173   6.371   2.448   4.567
 5425SOL    HW117174   6.330   2.468   4.478
 5425SOL    HW217175   6.420   2.529   4.600
 5426SOL     OW17176   5.078   5.494   2.067
 5426SOL    HW117177   5.071   5.589   2.037
 5426SOL    HW217178   5.162   5.481   2.119
 5427SOL     OW17179   5.392   3.147   0.296
 5427SOL    HW117180   5.370   3.093   0.215
 5427SOL    HW217181   5.434   3.234   0.268
 5428SOL     OW17182   5.281   6.506   1.936
 5428SOL    HW117183   5.337   6.575   1.982
 5428SOL    HW217184   5.242   6.546   1.853
 5429SOL     OW17185   1.815   0.140   5.125
 5429SOL    HW117186   1.770   0.124   5.213
 5429SOL    HW217187   1.874   0.063   5.104
 5430SOL     OW17188   1.681   2.898   4.746
 5430SOL    HW117189   1.690   2.805   4.781
 5430SOL    HW217190   1.759   2.953   4.776
 5431SOL     OW17191   3.329   3.835   6.486
 5431SOL    HW117192   3.396   3.767   6.515
 5431SOL    HW217193   3.289   3.879   6.567
 5432SOL     OW17194   4.168   5.270   6.389
 5432SOL    HW117195   4.246   5.333   6.397
 5432SOL    HW217196   4.163   5.214   6.471
 5433SOL     OW17197   0.834   0.187   1.120
 5433SOL    HW117198   0.863   0.102   1.075
 5433SOL    HW217199   0.836   0.262   1.054
 5434SOL     OW17200   4.249   1.306   4.722
 5434SOL    HW117201   4.152   1.292   4.739
 5434SOL    HW217202   4.299   1.222   4.746
 5435SOL     OW17203   6.249   3.873   0.654
 5435SOL    HW117204   6.248   3.958   0.705
 5435SOL    HW217205   6.229   3.891   0.558
 5436SOL     OW17206   6.307   4.049   4.035
 5436SOL    HW117207   6.324   3.950   4.043
 5436SOL    HW217208   6.259   4.068   3.950
 5437SOL     OW17209   3.088   5.176   5.412
 5437SOL    HW117210   3.145   5.107   5.456
 5437SOL    HW217211   3.143   5.229   5.347
 5438SOL     OW17212   5.222   4.391   1.787
 5438SOL    HW117213   5.218   4.483   1.826
 5438SOL    HW217214   5.315   4.374   1.752
 5439SOL     OW17215   0.267   3.535   6.777
 5439SOL    HW117216   0.232   3.532   6.871
 5439SOL    HW217217   0.253   3.626   6.739
 5440SOL     OW17218   6.602   6.612   3.754
 5440SOL    HW117219   6.588   6.540   3.822
 5440SOL    HW217220   6.608   6.572   3.663
 5441SOL     OW17221   5.149   3.530   3.388
 5441SOL    HW117222   5.245   3.527   3.416
 5441SOL    HW217223   5.093   3.484   3.457
 5442SOL     OW17224   4.082   7.013   3.889
 5442SOL    HW117225   4.051   0.080   3.864
 5442SOL    HW217226   4.126   7.017   3.979
 5443SOL     OW17227   4.827   5.711   3.864
 5443SOL    HW117228   4.762   5.752   3.929
 5443SOL    HW217229   4.873   5.783   3.813
 5444SOL     OW17230   0.124   0.967   3.903
 5444SOL    HW117231   0.078   1.008   3.825
 5444SOL    HW217232   0.124   0.868   3.895
 5445SOL     OW17233   6.197   4.352   3.507
 5445SOL    HW117234   6.127   4.292   3.469
 5445SOL    HW217235   6.205   4.434   3.449
 5446SOL     OW17236   5.934   5.277   4.398
 5446SOL    HW117237   5.891   5.220   4.328
 5446SOL    HW217238   5.865   5.338   4.438
 5447SOL     OW17239   1.697   1.412   0.807
 5447SOL    HW117240   1.632   1.337   0.818
 5447SOL    HW217241   1.749   1.398   0.723
 5448SOL     OW17242   4.319   4.838   4.161
 5448SOL    HW117243   4.386   4.765   4.143
 5448SOL    HW217244   4.250   4.805   4.224
 5449SOL     OW17245   1.858   1.131   0.933
 5449SOL    HW117246   1.850   1.209   0.996
 5449SOL    HW217247   1.907   1.159   0.851
 5450SOL     OW17248   3.341   0.111   0.971
 5450SOL    HW117249   3.251   0.094   0.931
 5450SOL    HW217250   3.380   0.194   0.930
 5451SOL     OW17251   1.939   5.714   3.566
 5451SOL    HW117252   1.970   5.735   3.659
 5451SOL    HW217253   1.880   5.788   3.533
 5452SOL     OW17254   2.601   4.414   0.992
 5452SOL    HW117255   2.688   4.433   1.038
 5452SOL    HW217256   2.615   4.415   0.893
 5453SOL     OW17257   5.305   3.565   2.193
 5453SOL    HW117258   5.265   3.656   2.192
 5453SOL    HW217259   5.233   3.496   2.201
 5454SOL     OW17260   5.630   5.851   1.153
 5454SOL    HW117261   5.579   5.815   1.075
 5454SOL    HW217262   5.629   5.784   1.227
 5455SOL     OW17263   0.313   2.361   3.739
 5455SOL    HW117264   0.378   2.434   3.720
 5455SOL    HW217265   0.265   2.379   3.825
 5456SOL     OW17266   3.366   1.678   6.674
 5456SOL    HW117267   3.275   1.691   6.714
 5456SOL    HW217268   3.372   1.728   6.588
 5457SOL     OW17269   6.755   2.160   1.286
 5457SOL    HW117270   6.716   2.103   1.214
 5457SOL    HW217271   6.787   2.102   1.361
 5458SOL     OW17272   6.767   4.933   1.002
 5458SOL    HW117273   6.854   4.982   1.005
 5458SOL    HW217274   6.779   4.846   0.956
 5459SOL     OW17275   1.949   4.980   5.326
 5459SOL    HW117276   1.996   4.906   5.374
 5459SOL    HW217277   2.007   5.014   5.252
 5460SOL     OW17278   2.956   7.002   2.150
 5460SOL    HW117279   2.888   0.018   2.210
 5460SOL    HW217280   3.016   0.047   2.113
 5461SOL     OW17281   0.861   0.752   4.446
 5461SOL    HW117282   0.879   0.662   4.485
 5461SOL    HW217283   0.948   0.798   4.427
 5462SOL     OW17284   5.498   6.124   6.557
 5462SOL    HW117285   5.401   6.102   6.545
 5462SOL    HW217286   5.553   6.061   6.502
 5463SOL     OW17287   0.174   2.055   0.263
 5463SOL    HW117288   0.210   2.014   0.346
 5463SOL    HW217289   0.214   2.010   0.183
 5464SOL     OW17290   6.061   5.955   4.743
 5464SOL    HW117291   6.040   5.859   4.760
 5464SOL    HW217292   6.034   5.979   4.650
 5465SOL     OW17293   6.529   0.597   3.253
 5465SOL    HW117294   6.578   0.551   3.179
 5465SOL    HW217295   6.431   0.598   3.232
 5466SOL     OW17296   5.491   2.870   5.909
 5466SOL    HW117297   5.467   2.961   5.941
 5466SOL    HW217298   5.452   2.802   5.971
 5467SOL     OW17299   5.861   3.682   3.206
 5467SOL    HW117300   5.922   3.757   3.234
 5467SOL    HW217301   5.914   3.611   3.161
 5468SOL     OW17302   0.076   2.221   4.419
 5468SOL    HW117303   0.006   2.232   4.490
 5468SOL    HW217304   0.071   2.298   4.356
 5469SOL     OW17305   3.068   6.008   5.364
 5469SOL    HW117306   3.146   5.946   5.358
 5469SOL    HW217307   2.991   5.969   5.313
 5470SOL     OW17308   4.003   5.239   4.003
 5470SOL    HW117309   4.014   5.204   3.910
 5470SOL    HW217310   4.092   5.267   4.039
 5471SOL     OW17311   6.035   0.388   2.656
 5471SOL    HW117312   6.077   0.414   2.743
 5471SOL    HW217313   6.086   0.429   2.580
 5472SOL     OW17314   2.990   3.646   6.783
 5472SOL    HW117315   2.936   3.605   6.856
 5472SOL    HW217316   3.069   3.694   6.822
 5473SOL     OW17317   1.194   3.602   0.323
 5473SOL    HW117318   1.222   3.564   0.411
 5473SOL    HW217319   1.204   3.701   0.324
 5474SOL     OW17320   0.629   4.912   4.754
 5474SOL    HW117321   0.654   4.915   4.851
 5474SOL    HW217322   0.580   4.827   4.736
 5475SOL     OW17323   1.950   2.142   0.402
 5475SOL    HW117324   1.888   2.098   0.338
 5475SOL    HW217325   1.925   2.239   0.412
 5476SOL     OW17326   2.252   4.322   4.949
 5476SOL    HW117327   2.295   4.274   4.872
 5476SOL    HW217328   2.259   4.266   5.031
 5477SOL     OW17329   2.170   3.970   3.017
 5477SOL    HW117330   2.122   3.895   3.063
 5477SOL    HW217331   2.156   4.055   3.068
 5478SOL     OW17332   4.683   6.653   5.452
 5478SOL    HW117333   4.776   6.684   5.472
 5478SOL    HW217334   4.668   6.562   5.490
 5479SOL     OW17335   5.198   2.045   4.937
 5479SOL    HW117336   5.147   2.030   4.852
 5479SOL    HW217337   5.252   2.128   4.929
 5480SOL     OW17338   5.246   5.307   4.880
 5480SOL    HW117339   5.292   5.261   4.804
 5480SOL    HW217340   5.290   5.395   4.897
 5481SOL     OW17341   4.546   1.667   4.762
 5481SOL    HW117342   4.605   1.596   4.724
 5481SOL    HW217343   4.523   1.733   4.690
 5482SOL     OW17344   3.564   3.635   1.989
 5482SOL    HW117345   3.468   3.609   1.980
 5482SOL    HW217346   3.609   3.575   2.055
 5483SOL     OW17347   0.449   2.130   5.176
 5483SOL    HW117348   0.526   2.070   5.156
 5483SOL    HW217349   0.367   2.074   5.192
 5484SOL     OW17350   5.298   0.482   4.372
 5484SOL    HW117351   5.228   0.449   4.435
 5484SOL    HW217352   5.341   0.564   4.411
 5485SOL     OW17353   3.245   6.839   5.158
 5485SOL    HW117354   3.208   6.918   5.208
 5485SOL    HW217355   3.320   6.870   5.100
 5486SOL     OW17356   1.570   5.453   4.578
 5486SOL    HW117357   1.623   5.484   4.499
 5486SOL    HW217358   1.517   5.529   4.615
 5487SOL     OW17359   5.020   2.926   6.755
 5487SOL    HW117360   4.986   2.967   6.671
 5487SOL    HW217361   5.063   2.838   6.735
 5488SOL     OW17362   5.165   1.108   0.841
 5488SOL    HW117363   5.246   1.089   0.897
 5488SOL    HW217364   5.181   1.191   0.788
 5489SOL     OW17365   1.303   5.434   0.800
 5489SOL    HW117366   1.325   5.363   0.867
 5489SOL    HW217367   1.205   5.450   0.799
 5490SOL     OW17368   3.501   0.166   0.400
 5490SOL    HW117369   3.514   0.185   0.498
 5490SOL    HW217370   3.411   0.197   0.372
 5491SOL     OW17371   1.614   4.345   0.153
 5491SOL    HW117372   1.555   4.325   0.074
 5491SOL    HW217373   1.572   4.307   0.235
 5492SOL     OW17374   0.856   2.114   6.424
 5492SOL    HW117375   0.858   2.156   6.333
 5492SOL    HW217376   0.814   2.176   6.489
 5493SOL     OW17377   4.096   3.660   3.817
 5493SOL    HW117378   4.140   3.688   3.732
 5493SOL    HW217379   4.023   3.594   3.796
 5494SOL     OW17380   6.928   2.672   6.549
 5494SOL    HW117381   6.950   2.766   6.575
 5494SOL    HW217382   6.871   2.630   6.620
 5495SOL     OW17383   3.734   2.430   1.537
 5495SOL    HW117384   3.672   2.361   1.498
 5495SOL    HW217385   3.755   2.405   1.632
 5496SOL     OW17386   2.493   0.428   3.559
 5496SOL    HW117387   2.571   0.419   3.620
 5496SOL    HW217388   2.488   0.348   3.499
 5497SOL     OW17389   0.328   2.062   4.024
 5497SOL    HW117390   0.400   2.126   3.996
 5497SOL    HW217391   0.363   1.969   4.021
 5498SOL     OW17392   5.237   6.624   1.462
 5498SOL    HW117393   5.297   6.545   1.449
 5498SOL    HW217394   5.173   6.606   1.536
 5499SOL     OW17395   7.023   1.360   3.756
 5499SOL    HW117396   6.932   1.388   3.727
 5499SOL    HW217397   0.013   1.388   3.851
 5500SOL     OW17398   1.604   0.012   0.644
 5500SOL    HW117399   1.681   6.974   0.643
 5500SOL    HW217400   1.626   0.092   0.588
 5501SOL     OW17401   4.098   6.983   0.481
 5501SOL    HW117402   4.072   6.981   0.384
 5501SOL    HW217403   4.024   6.944   0.536
 5502SOL     OW17404   5.965   3.591   6.821
 5502SOL    HW117405   5.902   3.514   6.806
 5502SOL    HW217406   5.956   3.623   6.916
 5503SOL     OW17407   6.723   5.415   3.007
 5503SOL    HW117408   6.679   5.429   2.918
 5503SOL    HW217409   6.766   5.500   3.037
 5504SOL     OW17410   4.315   1.524   4.862
 5504SOL    HW117411   4.276   1.446   4.813
 5504SOL    HW217412   4.414   1.528   4.845
 5505SOL     OW17413   1.814   5.684   4.460
 5505SOL    HW117414   1.791   5.781   4.454
 5505SOL    HW217415   1.913   5.673   4.457
 5506SOL     OW17416   1.241   1.490   6.209
 5506SOL    HW117417   1.254   1.520   6.303
 5506SOL    HW217418   1.235   1.569   6.149
 5507SOL     OW17419   2.536   0.167   3.865
 5507SOL    HW117420   2.613   0.164   3.929
 5507SOL    HW217421   2.494   0.258   3.868
 5508SOL     OW17422   2.263   0.685   6.562
 5508SOL    HW117423   2.176   0.733   6.576
 5508SOL    HW217424   2.285   0.685   6.465
 5509SOL     OW17425   0.541   6.327   0.646
 5509SOL    HW117426   0.587   6.328   0.558
 5509SOL    HW217427   0.489   6.412   0.658
 5510SOL     OW17428   4.661   6.047   0.894
 5510SOL    HW117429   4.725   6.082   0.826
 5510SOL    HW217430   4.707   6.037   0.982
 5511SOL     OW17431   2.520   0.601   4.570
 5511SOL    HW117432   2.466   0.518   4.555
 5511SOL    HW217433   2.602   0.599   4.512
 5512SOL     OW17434   5.873   2.073   1.897
 5512SOL    HW117435   5.942   2.073   1.969
 5512SOL    HW217436   5.864   2.165   1.858
 5513SOL     OW17437   4.223   4.729   6.122
 5513SOL    HW117438   4.276   4.798   6.072
 5513SOL    HW217439   4.145   4.774   6.166
 5514SOL     OW17440   4.703   6.609   3.181
 5514SOL    HW117441   4.659   6.586   3.268
 5514SOL    HW217442   4.791   6.654   3.198
 5515SOL     OW17443   0.157   4.631   1.614
 5515SOL    HW117444   0.197   4.560   1.556
 5515SOL    HW217445   0.151   4.598   1.709
 5516SOL     OW17446   1.151   3.535   6.169
 5516SOL    HW117447   1.150   3.626   6.212
 5516SOL    HW217448   1.058   3.502   6.158
 5517SOL     OW17449   2.121   3.228   2.166
 5517SOL    HW117450   2.165   3.294   2.104
 5517SOL    HW217451   2.108   3.271   2.255
 5518SOL     OW17452   6.116   6.817   6.787
 5518SOL    HW117453   6.127   6.868   6.702
 5518SOL    HW217454   6.018   6.807   6.807
 5519SOL     OW17455   5.212   3.228   3.273
 5519SOL    HW117456   5.153   3.147   3.264
 5519SOL    HW217457   5.188   3.294   3.201
 5520SOL     OW17458   6.788   5.970   1.801
 5520SOL    HW117459   6.830   5.983   1.711
 5520SOL    HW217460   6.689   5.975   1.793
 5521SOL     OW17461   4.800   6.908   1.615
 5521SOL    HW117462   4.862   6.931   1.539
 5521SOL    HW217463   4.716   6.960   1.605
 5522SOL     OW17464   6.635   5.180   1.028
 5522SOL    HW117465   6.698   5.102   1.025
 5522SOL    HW217466   6.634   5.226   0.939
 5523SOL     OW17467   4.121   0.163   2.196
 5523SOL    HW117468   4.079   0.139   2.283
 5523SOL    HW217469   4.143   0.261   2.196
 5524SOL     OW17470   5.286   5.123   5.078
 5524SOL    HW117471   5.286   5.199   5.013
 5524SOL    HW217472   5.273   5.037   5.029
 5525SOL     OW17473   0.168   2.842   0.113
 5525SOL    HW117474   0.239   2.784   0.072
 5525SOL    HW217475   0.143   2.805   0.202
 5526SOL     OW17476   5.005   4.780   4.466
 5526SOL    HW117477   4.959   4.869   4.477
 5526SOL    HW217478   5.009   4.734   4.554
 5527SOL     OW17479   6.394   3.807   4.427
 5527SOL    HW117480   6.391   3.822   4.526
 5527SOL    HW217481   6.311   3.843   4.385
 5528SOL     OW17482   1.276   1.675   6.930
 5528SOL    HW117483   1.344   1.703   6.862
 5528SOL    HW217484   1.185   1.677   6.888
 5529SOL     OW17485   2.179   0.328   3.697
 5529SOL    HW117486   2.183   0.284   3.607
 5529SOL    HW217487   2.130   0.268   3.761
 5530SOL     OW17488   6.409   2.097   2.464
 5530SOL    HW117489   6.338   2.052   2.518
 5530SOL    HW217490   6.406   2.196   2.480
 5531SOL     OW17491   3.993   3.035   2.297
 5531SOL    HW117492   4.079   2.987   2.313
 5531SOL    HW217493   3.940   3.037   2.382
 5532SOL     OW17494   1.549   2.574   0.640
 5532SOL    HW117495   1.514   2.646   0.581
 5532SOL    HW217496   1.551   2.607   0.735
 5533SOL     OW17497   3.361   0.976   3.086
 5533SOL    HW117498   3.273   0.940   3.118
 5533SOL    HW217499   3.415   0.902   3.047
 5534SOL     OW17500   1.148   1.899   5.889
 5534SOL    HW117501   1.195   1.950   5.817
 5534SOL    HW217502   1.050   1.897   5.869
 5535SOL     OW17503   0.508   3.482   3.609
 5535SOL    HW117504   0.607   3.489   3.610
 5535SOL    HW217505   0.480   3.391   3.641
 5536SOL     OW17506   2.721   0.939   4.290
 5536SOL    HW117507   2.708   0.930   4.191
 5536SOL    HW217508   2.804   0.890   4.317
 5537SOL     OW17509   2.915   0.618   3.082
 5537SOL    HW117510   2.976   0.657   3.013
 5537SOL    HW217511   2.911   0.677   3.162
 5538SOL     OW17512   3.147   0.034   5.293
 5538SOL    HW117513   3.111   0.093   5.220
 5538SOL    HW217514   3.141   0.083   5.380
 5539SOL     OW17515   1.279   3.498   0.559
 5539SOL    HW117516   1.314   3.405   0.560
 5539SOL    HW217517   1.208   3.508   0.629
 5540SOL     OW17518   5.695   3.532   3.604
 5540SOL    HW117519   5.794   3.530   3.621
 5540SOL    HW217520   5.675   3.489   3.517
 5541SOL     OW17521   5.934   0.857   6.214
 5541SOL    HW117522   5.846   0.900   6.236
 5541SOL    HW217523   5.950   0.860   6.116
 5542SOL     OW17524   6.188   5.162   6.249
 5542SOL    HW117525   6.151   5.243   6.294
 5542SOL    HW217526   6.112   5.107   6.213
 5543SOL     OW17527   3.439   5.579   5.855
 5543SOL    HW117528   3.372   5.622   5.795
 5543SOL    HW217529   3.512   5.537   5.799
 5544SOL     OW17530   5.661   6.818   6.327
 5544SOL    HW117531   5.573   6.777   6.353
 5544SOL    HW217532   5.669   6.821   6.228
 5545SOL     OW17533   4.035   1.749   2.650
 5545SOL    HW117534   4.026   1.744   2.551
 5545SOL    HW217535   4.007   1.839   2.682
 5546SOL     OW17536   0.614   6.405   4.654
 5546SOL    HW117537   0.650   6.494   4.627
 5546SOL    HW217538   0.522   6.415   4.691
 5547SOL     OW17539   3.629   0.338   4.771
 5547SOL    HW117540   3.604   0.390   4.852
 5547SOL    HW217541   3.698   0.387   4.719
 5548SOL     OW17542   5.885   3.225   5.797
 5548SOL    HW117543   5.811   3.192   5.738
 5548SOL    HW217544   5.850   3.296   5.858
 5549SOL     OW17545   5.044   4.049   0.927
 5549SOL    HW117546   5.040   3.950   0.916
 5549SOL    HW217547   5.002   4.075   1.014
 5550SOL     OW17548   2.041   4.472   2.131
 5550SOL    HW117549   1.980   4.551   2.131
 5550SOL    HW217550   2.020   4.413   2.054
 5551SOL     OW17551   1.831   6.356   2.939
 5551SOL    HW117552   1.732   6.364   2.928
 5551SOL    HW217553   1.877   6.403   2.863
 5552SOL     OW17554   6.516   0.334   0.043
 5552SOL    HW117555   6.574   0.254   0.054
 5552SOL    HW217556   6.482   0.364   0.132
 5553SOL     OW17557   5.197   6.294   0.052
 5553SOL    HW117558   5.180   6.206   0.095
 5553SOL    HW217559   5.113   6.327   0.009
 5554SOL     OW17560   4.820   1.475   5.664
 5554SOL    HW117561   4.735   1.434   5.631
 5554SOL    HW217562   4.894   1.408   5.657
 5555SOL     OW17563   2.117   3.912   3.666
 5555SOL    HW117564   2.120   3.822   3.623
 5555SOL    HW217565   2.086   3.980   3.599
 5556SOL     OW17566   6.935   1.375   3.280
 5556SOL    HW117567   6.932   1.281   3.313
 5556SOL    HW217568   6.953   1.437   3.357
 5557SOL     OW17569   3.423   6.882   3.081
 5557SOL    HW117570   3.448   6.957   3.019
 5557SOL    HW217571   3.475   6.800   3.057
 5558SOL     OW17572   4.736   3.673   5.916
 5558SOL    HW117573   4.800   3.680   5.840
 5558SOL    HW217574   4.645   3.651   5.881
 5559SOL     OW17575   1.854   0.299   2.118
 5559SOL    HW117576   1.890   0.251   2.197
 5559SOL    HW217577   1.902   0.386   2.106
 5560SOL     OW17578   1.460   6.246   2.611
 5560SOL    HW117579   1.405   6.204   2.682
 5560SOL    HW217580   1.557   6.235   2.633
 5561SOL     OW17581   1.418   1.901   4.132
 5561SOL    HW117582   1.342   1.876   4.073
 5561SOL    HW217583   1.406   1.859   4.222
 5562SOL     OW17584   3.383   2.082   6.809
 5562SOL    HW117585   3.362   1.993   6.851
 5562SOL    HW217586   3.480   2.085   6.785
 5563SOL     OW17587   4.456   5.660   2.719
 5563SOL    HW117588   4.506   5.574   2.708
 5563SOL    HW217589   4.383   5.647   2.786
 5564SOL     OW17590   4.301   0.634   1.728
 5564SOL    HW117591   4.400   0.645   1.743
 5564SOL    HW217592   4.264   0.574   1.799
 5565SOL     OW17593   4.777   1.964   6.107
 5565SOL    HW117594   4.782   1.941   6.205
 5565SOL    HW217595   4.869   1.980   6.072
 5566SOL     OW17596   1.726   5.299   6.907
 5566SOL    HW117597   1.756   5.206   6.928
 5566SOL    HW217598   1.784   5.365   6.954
 5567SOL     OW17599   7.005   3.339   1.776
 5567SOL    HW117600   6.928   3.384   1.821
 5567SOL    HW217601   0.020   3.272   1.838
 5568SOL     OW17602   4.373   1.763   4.084
 5568SOL    HW117603   4.339   1.676   4.049
 5568SOL    HW217604   4.414   1.749   4.173
 5569SOL     OW17605   1.478   1.738   2.262
 5569SOL    HW117606   1.537   1.659   2.244
 5569SOL    HW217607   1.477   1.757   2.360
 5570SOL     OW17608   6.300   4.577   4.716
 5570SOL    HW117609   6.245   4.543   4.640
 5570SOL    HW217610   6.317   4.675   4.705
 5571SOL     OW17611   6.868   5.453   0.805
 5571SOL    HW117612   6.849   5.549   0.782
 5571SOL    HW217613   6.902   5.447   0.898
 5572SOL     OW17614   1.074   2.305   5.077
 5572SOL    HW117615   1.124   2.220   5.061
 5572SOL    HW217616   1.137   2.382   5.074
 5573SOL     OW17617   2.260   4.537   6.201
 5573SOL    HW117618   2.206   4.586   6.132
 5573SOL    HW217619   2.201   4.508   6.275
 5574SOL     OW17620   6.272   1.572   2.875
 5574SOL    HW117621   6.295   1.658   2.921
 5574SOL    HW217622   6.182   1.579   2.833
 5575SOL     OW17623   6.692   1.231   1.383
 5575SOL    HW117624   6.642   1.197   1.462
 5575SOL    HW217625   6.770   1.286   1.413
 5576SOL     OW17626   1.363   5.504   2.310
 5576SOL    HW117627   1.438   5.530   2.370
 5576SOL    HW217628   1.355   5.404   2.308
 5577SOL     OW17629   2.678   2.653   5.350
 5577SOL    HW117630   2.729   2.739   5.344
 5577SOL    HW217631   2.719   2.586   5.289
 5578SOL     OW17632   4.036   3.920   6.862
 5578SOL    HW117633   3.960   3.944   6.922
 5578SOL    HW217634   4.073   3.831   6.888
 5579SOL     OW17635   0.673   3.513   5.971
 5579SOL    HW117636   0.609   3.443   6.004
 5579SOL    HW217637   0.725   3.549   6.048
 5580SOL     OW17638   5.239   2.808   6.116
 5580SOL    HW117639   5.160   2.785   6.174
 5580SOL    HW217640   5.254   2.907   6.121
 5581SOL     OW17641   2.455   0.675   1.981
 5581SOL    HW117642   2.488   0.586   1.949
 5581SOL    HW217643   2.525   0.745   1.963
 5582SOL     OW17644   3.540   3.500   4.544
 5582SOL    HW117645   3.528   3.539   4.453
 5582SOL    HW217646   3.507   3.565   4.613
 5583SOL     OW17647   4.164   0.841   2.704
 5583SOL    HW117648   4.073   0.878   2.684
 5583SOL    HW217649   4.170   0.819   2.802
 5584SOL     OW17650   5.687   4.376   3.843
 5584SOL    HW117651   5.692   4.475   3.829
 5584SOL    HW217652   5.777   4.342   3.870
 5585SOL     OW17653   4.746   6.367   4.393
 5585SOL    HW117654   4.816   6.297   4.403
 5585SOL    HW217655   4.784   6.444   4.341
 5586SOL     OW17656   0.129   2.484   0.017
 5586SOL    HW117657   0.040   2.454   7.006
 5586SOL    HW217658   0.148   2.435   0.102
 5587SOL     OW17659   3.915   6.086   2.517
 5587SOL    HW117660   3.848   6.145   2.472
 5587SOL    HW217661   3.971   6.041   2.447
 5588SOL     OW17662   1.992   6.740   2.840
 5588SOL    HW117663   1.945   6.818   2.881
 5588SOL    HW217664   2.090   6.745   2.862
 5589SOL     OW17665   6.001   3.863   5.217
 5589SOL    HW117666   5.931   3.794   5.235
 5589SOL    HW217667   5.986   3.943   5.275
 5590SOL     OW17668   6.592   5.004   3.731
 5590SOL    HW117669   6.619   4.975   3.639
 5590SOL    HW217670   6.619   4.934   3.797
 5591SOL     OW17671   5.625   1.239   6.817
 5591SOL    HW117672   5.681   1.314   6.783
 5591SOL    HW217673   5.683   1.160   6.835
 5592SOL     OW17674   7.014   4.749   3.048
 5592SOL    HW117675   6.939   4.790   2.997
 5592SOL    HW217676   0.021   4.667   2.999
 5593SOL     OW17677   0.114   2.618   6.033
 5593SOL    HW117678   0.039   2.641   6.095
 5593SOL    HW217679   0.093   2.534   5.984
 5594SOL     OW17680   3.612   1.210   6.447
 5594SOL    HW117681   3.681   1.172   6.386
 5594SOL    HW217682   3.570   1.137   6.500
 5595SOL     OW17683   6.577   0.359   5.375
 5595SOL    HW117684   6.672   0.384   5.356
 5595SOL    HW217685   6.526   0.357   5.289
 5596SOL     OW17686   4.862   0.399   2.893
 5596SOL    HW117687   4.876   0.300   2.882
 5596SOL    HW217688   4.936   0.448   2.848
 5597SOL     OW17689   6.410   1.814   5.497
 5597SOL    HW117690   6.316   1.849   5.490
 5597SOL    HW217691   6.448   1.804   5.405
 5598SOL     OW17692   6.147   3.068   3.999
 5598SOL    HW117693   6.147   3.013   4.083
 5598SOL    HW217694   6.053   3.089   3.973
 5599SOL     OW17695   0.525   2.435   2.080
 5599SOL    HW117696   0.532   2.380   1.997
 5599SOL    HW217697   0.451   2.502   2.070
 5600SOL     OW17698   2.536   0.194   2.712
 5600SOL    HW117699   2.558   0.290   2.728
 5600SOL    HW217700   2.468   0.187   2.639
 5601SOL     OW17701   2.887   0.979   6.413
 5601SOL    HW117702   2.807   1.036   6.391
 5601SOL    HW217703   2.900   0.977   6.512
 5602SOL     OW17704   0.832   0.068   1.924
 5602SOL    HW117705   0.902   0.138   1.939
 5602SOL    HW217706   0.769   0.098   1.852
 5603SOL     OW17707   5.444   2.268   6.954
 5603SOL    HW117708   5.488   2.292   0.014
 5603SOL    HW217709   5.368   2.205   6.972
 5604SOL     OW17710   6.817   2.417   5.140
 5604SOL    HW117711   6.772   2.480   5.203
 5604SOL    HW217712   6.916   2.420   5.155
 5605SOL     OW17713   1.195   0.486   4.527
 5605SOL    HW117714   1.252   0.566   4.546
 5605SOL    HW217715   1.135   0.506   4.450
 5606SOL     OW17716   5.948   0.664   1.013
 5606SOL    HW117717   5.913   0.707   0.930
 5606SOL    HW217718   5.968   0.568   0.995
 5607SOL     OW17719   5.649   1.233   3.973
 5607SOL    HW117720   5.687   1.305   4.030
 5607SOL    HW217721   5.717   1.161   3.960
 5608SOL     OW17722   6.178   0.835   3.419
 5608SOL    HW117723   6.086   0.862   3.450
 5608SOL    HW217724   6.242   0.844   3.495
 5609SOL     OW17725   4.602   6.006   2.259
 5609SOL    HW117726   4.606   5.926   2.198
 5609SOL    HW217727   4.512   6.048   2.253
 5610SOL     OW17728   5.035   4.236   1.433
 5610SOL    HW117729   5.019   4.201   1.526
 5610SOL    HW217730   5.105   4.307   1.436
 5611SOL     OW17731   0.901   4.924   3.400
 5611SOL    HW117732   0.842   4.933   3.320
 5611SOL    HW217733   0.994   4.902   3.370
 5612SOL     OW17734   4.501   3.202   0.044
 5612SOL    HW117735   4.467   3.111   0.024
 5612SOL    HW217736   4.473   3.229   0.137
 5613SOL     OW17737   5.155   5.405   5.248
 5613SOL    HW117738   5.062   5.386   5.214
 5613SOL    HW217739   5.184   5.329   5.307
 5614SOL     OW17740   5.254   3.366   5.144
 5614SOL    HW117741   5.178   3.318   5.187
 5614SOL    HW217742   5.227   3.461   5.123
 5615SOL     OW17743   6.894   1.664   3.979
 5615SOL    HW117744   6.917   1.716   3.897
 5615SOL    HW217745   6.797   1.675   4.000
 5616SOL     OW17746   1.894   2.587   4.819
 5616SOL    HW117747   1.915   2.519   4.748
 5616SOL    HW217748   1.933   2.558   4.906
 5617SOL     OW17749   1.829   4.700   5.356
 5617SOL    HW117750   1.835   4.779   5.295
 5617SOL    HW217751   1.795   4.621   5.305
 5618SOL     OW17752   6.801   4.990   3.998
 5618SOL    HW117753   6.869   5.013   4.068
 5618SOL    HW217754   6.842   4.926   3.933
 5619SOL     OW17755   3.401   3.601   3.952
 5619SOL    HW117756   3.421   3.697   3.973
 5619SOL    HW217757   3.458   3.542   4.008
 5620SOL     OW17758   4.159   3.676   6.948
 5620SOL    HW117759   4.122   3.584   6.960
 5620SOL    HW217760   4.161   3.723   0.011
 5621SOL     OW17761   1.794   3.037   0.342
 5621SOL    HW117762   1.859   2.996   0.406
 5621SOL    HW217763   1.722   3.085   0.392
 5622SOL     OW17764   4.730   0.216   5.670
 5622SOL    HW117765   4.766   0.216   5.764
 5622SOL    HW217766   4.679   0.132   5.654
 5623SOL     OW17767   4.619   6.458   4.882
 5623SOL    HW117768   4.716   6.472   4.903
 5623SOL    HW217769   4.610   6.383   4.817
 5624SOL     OW17770   0.423   4.523   3.982
 5624SOL    HW117771   0.455   4.598   4.041
 5624SOL    HW217772   0.476   4.441   4.002
 5625SOL     OW17773   0.238   6.918   5.543
 5625SOL    HW117774   0.232   6.818   5.535
 5625SOL    HW217775   0.146   6.957   5.543
 5626SOL     OW17776   2.496   5.738   3.803
 5626SOL    HW117777   2.450   5.677   3.739
 5626SOL    HW217778   2.572   5.690   3.847
 5627SOL     OW17779   0.179   4.994   6.527
 5627SOL    HW117780   0.121   5.066   6.489
 5627SOL    HW217781   0.224   5.027   6.610
 5628SOL     OW17782   1.614   3.118   1.570
 5628SOL    HW117783   1.701   3.142   1.526
 5628SOL    HW217784   1.538   3.161   1.521
 5629SOL     OW17785   4.631   3.219   1.636
 5629SOL    HW117786   4.676   3.177   1.557
 5629SOL    HW217787   4.574   3.151   1.683
 5630SOL     OW17788   1.660   4.514   6.850
 5630SOL    HW117789   1.707   4.458   6.782
 5630SOL    HW217790   1.630   4.599   6.808
 5631SOL     OW17791   4.514   1.947   2.087
 5631SOL    HW117792   4.491   1.850   2.075
 5631SOL    HW217793   4.596   1.955   2.143
 5632SOL     OW17794   3.228   2.226   5.363
 5632SOL    HW117795   3.241   2.293   5.436
 5632SOL    HW217796   3.229   2.273   5.274
 5633SOL     OW17797   5.920   4.975   4.426
 5633SOL    HW117798   5.908   5.016   4.335
 5633SOL    HW217799   5.952   4.881   4.416
 5634SOL     OW17800   1.960   4.933   4.574
 5634SOL    HW117801   1.898   4.909   4.498
 5634SOL    HW217802   1.996   5.025   4.559
 5635SOL     OW17803   1.560   6.671   6.797
 5635SOL    HW117804   1.515   6.753   6.761
 5635SOL    HW217805   1.586   6.612   6.721
 5636SOL     OW17806   6.345   6.907   5.074
 5636SOL    HW117807   6.274   6.940   5.012
 5636SOL    HW217808   6.369   6.813   5.049
 5637SOL     OW17809   4.230   6.560   3.699
 5637SOL    HW117810   4.238   6.487   3.767
 5637SOL    HW217811   4.245   6.523   3.608
 5638SOL     OW17812   6.558   3.940   1.030
 5638SOL    HW117813   6.548   3.909   0.935
 5638SOL    HW217814   6.619   3.878   1.079
 5639SOL     OW17815   2.717   0.322   2.488
 5639SOL    HW117816   2.729   0.407   2.437
 5639SOL    HW217817   2.673   0.341   2.576
 5640SOL     OW17818   3.848   0.980   2.194
 5640SOL    HW117819   3.859   1.055   2.258
 5640SOL    HW217820   3.912   0.991   2.118
 5641SOL     OW17821   0.845   4.479   5.457
 5641SOL    HW117822   0.815   4.569   5.424
 5641SOL    HW217823   0.936   4.458   5.420
 5642SOL     OW17824   0.258   6.039   5.116
 5642SOL    HW117825   0.173   6.092   5.117
 5642SOL    HW217826   0.336   6.101   5.106
 5643SOL     OW17827   3.668   1.101   4.624
 5643SOL    HW117828   3.752   1.125   4.673
 5643SOL    HW217829   3.638   1.179   4.568
 5644SOL     OW17830   3.676   6.881   4.643
 5644SOL    HW117831   3.643   6.976   4.644
 5644SOL    HW217832   3.731   6.863   4.724
 5645SOL     OW17833   5.414   4.700   2.906
 5645SOL    HW117834   5.444   4.607   2.926
 5645SOL    HW217835   5.493   4.761   2.909
 5646SOL     OW17836   0.564   5.503   3.378
 5646SOL    HW117837   0.494   5.454   3.429
 5646SOL    HW217838   0.548   5.492   3.280
 5647SOL     OW17839   5.073   0.146   0.640
 5647SOL    HW117840   5.167   0.136   0.607
 5647SOL    HW217841   5.016   0.182   0.566
 5648SOL     OW17842   1.614   0.171   3.557
 5648SOL    HW117843   1.616   0.074   3.584
 5648SOL    HW217844   1.527   0.211   3.586
 5649SOL     OW17845   0.725   0.292   4.857
 5649SOL    HW117846   0.718   0.250   4.767
 5649SOL    HW217847   0.644   0.349   4.874
 5650SOL     OW17848   1.443   5.407   0.559
 5650SOL    HW117849   1.446   5.482   0.492
 5650SOL    HW217850   1.384   5.433   0.635
 5651SOL     OW17851   0.881   0.939   1.443
 5651SOL    HW117852   0.856   0.923   1.348
 5651SOL    HW217853   0.833   1.019   1.478
 5652SOL     OW17854   6.742   6.909   2.348
 5652SOL    HW117855   6.711   6.815   2.363
 5652SOL    HW217856   6.841   6.909   2.332
 5653SOL     OW17857   0.187   6.343   6.525
 5653SOL    HW117858   0.115   6.382   6.582
 5653SOL    HW217859   0.240   6.277   6.578
 5654SOL     OW17860   6.720   0.294   5.656
 5654SOL    HW117861   6.789   0.223   5.669
 5654SOL    HW217862   6.733   0.366   5.725
 5655SOL     OW17863   1.452   3.670   4.755
 5655SOL    HW117864   1.472   3.688   4.851
 5655SOL    HW217865   1.410   3.750   4.713
 5656SOL     OW17866   0.023   3.778   7.009
 5656SOL    HW117867   0.100   3.831   6.973
 5656SOL    HW217868   6.966   3.798   6.955
 5657SOL     OW17869   5.905   1.438   0.505
 5657SOL    HW117870   5.991   1.479   0.474
 5657SOL    HW217871   5.917   1.339   0.512
 5658SOL     OW17872   3.709   4.515   6.105
 5658SOL    HW117873   3.735   4.418   6.106
 5658SOL    HW217874   3.722   4.554   6.196
 5659SOL     OW17875   3.753   3.267   4.295
 5659SOL    HW117876   3.830   3.209   4.320
 5659SOL    HW217877   3.734   3.331   4.369
 5660SOL     OW17878   5.843   0.735   0.769
 5660SOL    HW117879   5.891   0.657   0.729
 5660SOL    HW217880   5.762   0.757   0.715
 5661SOL     OW17881   1.462   4.985   5.382
 5661SOL    HW117882   1.504   5.052   5.320
 5661SOL    HW217883   1.534   4.932   5.427
 5662SOL     OW17884   2.726   5.771   3.299
 5662SOL    HW117885   2.665   5.840   3.258
 5662SOL    HW217886   2.682   5.732   3.380
 5663SOL     OW17887   2.452   3.283   0.570
 5663SOL    HW117888   2.516   3.239   0.634
 5663SOL    HW217889   2.404   3.213   0.518
 5664SOL     OW17890   6.579   4.125   4.797
 5664SOL    HW117891   6.514   4.072   4.850
 5664SOL    HW217892   6.530   4.191   4.740
 5665SOL     OW17893   1.747   1.343   0.213
 5665SOL    HW117894   1.716   1.253   0.245
 5665SOL    HW217895   1.668   1.405   0.207
 5666SOL     OW17896   6.143   6.289   1.946
 5666SOL    HW117897   6.092   6.219   1.897
 5666SOL    HW217898   6.175   6.252   2.033
 5667SOL     OW17899   0.843   5.060   4.661
 5667SOL    HW117900   0.776   4.989   4.680
 5667SOL    HW217901   0.893   5.082   4.744
 5668SOL     OW17902   5.571   1.942   4.444
 5668SOL    HW117903   5.540   1.961   4.351
 5668SOL    HW217904   5.652   1.997   4.464
 5669SOL     OW17905   0.085   3.128   6.485
 5669SOL    HW117906   0.135   3.158   6.404
 5669SOL    HW217907   0.116   3.178   6.565
 5670SOL     OW17908   6.789   2.802   3.539
 5670SOL    HW117909   6.779   2.782   3.637
 5670SOL    HW217910   6.702   2.833   3.502
 5671SOL     OW17911   6.892   6.341   0.147
 5671SOL    HW117912   6.904   6.396   0.064
 5671SOL    HW217913   6.980   6.328   0.192
 5672SOL     OW17914   3.450   4.584   6.428
 5672SOL    HW117915   3.491   4.493   6.424
 5672SOL    HW217916   3.430   4.616   6.336
 5673SOL     OW17917   0.595   6.954   2.309
 5673SOL    HW117918   0.619   6.984   2.217
 5673SOL    HW217919   0.670   6.974   2.371
 5674SOL     OW17920   0.171   4.922   4.814
 5674SOL    HW117921   0.233   4.846   4.831
 5674SOL    HW217922   0.085   4.906   4.862
 5675SOL     OW17923   3.681   2.314   6.192
 5675SOL    HW117924   3.585   2.321   6.218
 5675SOL    HW217925   3.731   2.263   6.262
 5676SOL     OW17926   1.717   2.698   2.130
 5676SOL    HW117927   1.785   2.722   2.060
 5676SOL    HW217928   1.634   2.752   2.115
 5677SOL     OW17929   0.704   1.078   1.191
 5677SOL    HW117930   0.668   1.105   1.102
 5677SOL    HW217931   0.758   0.994   1.181
 5678SOL     OW17932   3.904   6.230   2.908
 5678SOL    HW117933   3.954   6.312   2.880
 5678SOL    HW217934   3.807   6.243   2.893
 5679SOL     OW17935   0.780   1.243   3.648
 5679SOL    HW117936   0.750   1.338   3.653
 5679SOL    HW217937   0.712   1.188   3.599
 5680SOL     OW17938   1.088   5.217   6.098
 5680SOL    HW117939   1.056   5.160   6.174
 5680SOL    HW217940   1.014   5.275   6.066
 5681SOL     OW17941   7.018   4.386   0.843
 5681SOL    HW117942   6.986   4.376   0.749
 5681SOL    HW217943   6.939   4.401   0.903
 5682SOL     OW17944   2.200   4.809   5.644
 5682SOL    HW117945   2.183   4.828   5.740
 5682SOL    HW217946   2.293   4.774   5.633
 5683SOL     OW17947   3.918   0.752   6.105
 5683SOL    HW117948   3.826   0.769   6.070
 5683SOL    HW217949   3.941   0.655   6.094
 5684SOL     OW17950   2.531   3.078   5.777
 5684SOL    HW117951   2.470   3.157   5.791
 5684SOL    HW217952   2.479   3.004   5.735
 5685SOL     OW17953   1.750   2.822   2.432
 5685SOL    HW117954   1.729   2.885   2.358
 5685SOL    HW217955   1.670   2.814   2.492
 5686SOL     OW17956   3.501   1.416   5.800
 5686SOL    HW117957   3.564   1.340   5.789
 5686SOL    HW217958   3.481   1.457   5.711
 5687SOL     OW17959   0.771   4.904   6.497
 5687SOL    HW117960   0.729   4.983   6.541
 5687SOL    HW217961   0.722   4.883   6.412
 5688SOL     OW17962   0.524   2.524   0.934
 5688SOL    HW117963   0.580   2.582   0.993
 5688SOL    HW217964   0.577   2.443   0.907
 5689SOL     OW17965   3.973   1.260   0.581
 5689SOL    HW117966   4.039   1.297   0.646
 5689SOL    HW217967   3.911   1.196   0.628
 5690SOL     OW17968   2.181   6.287   0.581
 5690SOL    HW117969   2.082   6.279   0.571
 5690SOL    HW217970   2.206   6.383   0.592
 5691SOL     OW17971   3.105   0.477   2.037
 5691SOL    HW117972   3.169   0.462   1.962
 5691SOL    HW217973   3.148   0.453   2.124
 5692SOL     OW17974   6.002   3.377   0.635
 5692SOL    HW117975   5.913   3.418   0.618
 5692SOL    HW217976   6.070   3.448   0.649
 5693SOL     OW17977   5.769   2.293   2.211
 5693SOL    HW117978   5.694   2.252   2.158
 5693SOL    HW217979   5.759   2.268   2.307
 5694SOL     OW17980   1.012   1.608   3.240
 5694SOL    HW117981   1.027   1.693   3.291
 5694SOL    HW217982   1.048   1.531   3.292
 5695SOL     OW17983   1.177   2.725   3.118
 5695SOL    HW117984   1.250   2.713   3.051
 5695SOL    HW217985   1.125   2.639   3.125
 5696SOL     OW17986   1.211   1.220   2.940
 5696SOL    HW117987   1.224   1.178   3.030
 5696SOL    HW217988   1.192   1.149   2.873
 5697SOL     OW17989   6.068   2.269   1.662
 5697SOL    HW117990   5.983   2.275   1.714
 5697SOL    HW217991   6.103   2.361   1.645
 5698SOL     OW17992   0.909   3.661   3.803
 5698SOL    HW117993   0.983   3.704   3.751
 5698SOL    HW217994   0.939   3.571   3.835
 5699SOL     OW17995   0.523   2.221   3.260
 5699SOL    HW117996   0.562   2.313   3.264
 5699SOL    HW217997   0.465   2.206   3.340
 5700SOL     OW17998   0.151   6.682   3.697
 5700SOL    HW117999   0.083   6.714   3.763
 5700SOL    HW218000   0.207   6.610   3.739
 5701SOL     OW18001   1.470   0.777   2.035
 5701SOL    HW118002   1.462   0.748   1.939
 5701SOL    HW218003   1.395   0.736   2.088
 5702SOL     OW18004   2.801   6.200   5.004
 5702SOL    HW118005   2.763   6.288   5.033
 5702SOL    HW218006   2.785   6.132   5.076
 5703SOL     OW18007   6.879   4.626   1.578
 5703SOL    HW118008   6.898   4.698   1.644
 5703SOL    HW218009   6.965   4.584   1.550
 5704SOL     OW18010   4.824   4.478   2.086
 5704SOL    HW118011   4.876   4.540   2.145
 5704SOL    HW218012   4.736   4.457   2.129
 5705SOL     OW18013   5.238   0.919   0.659
 5705SOL    HW118014   5.145   0.886   0.667
 5705SOL    HW218015   5.253   0.993   0.724
 5706SOL     OW18016   6.739   4.043   0.717
 5706SOL    HW118017   6.822   4.088   0.683
 5706SOL    HW218018   6.765   3.969   0.779
 5707SOL     OW18019   0.086   6.544   0.522
 5707SOL    HW118020   0.126   6.486   0.451
 5707SOL    HW218021   0.115   6.639   0.507
 5708SOL     OW18022   5.276   6.082   1.788
 5708SOL    HW118023   5.258   6.048   1.696
 5708SOL    HW218024   5.333   6.165   1.783
 5709SOL     OW18025   1.579   0.339   2.423
 5709SOL    HW118026   1.585   0.434   2.453
 5709SOL    HW218027   1.648   0.285   2.471
 5710SOL     OW18028   3.081   3.096   0.521
 5710SOL    HW118029   3.057   3.092   0.618
 5710SOL    HW218030   3.171   3.056   0.508
 5711SOL     OW18031   5.199   1.222   2.386
 5711SOL    HW118032   5.167   1.270   2.467
 5711SOL    HW218033   5.226   1.129   2.410
 5712SOL     OW18034   6.971   6.443   6.622
 5712SOL    HW118035   6.905   6.399   6.682
 5712SOL    HW218036   6.924   6.506   6.560
 5713SOL     OW18037   3.093   2.666   1.505
 5713SOL    HW118038   3.036   2.675   1.587
 5713SOL    HW218039   3.188   2.652   1.532
 5714SOL     OW18040   0.286   5.713   0.209
 5714SOL    HW118041   0.365   5.760   0.170
 5714SOL    HW218042   0.317   5.647   0.277
 5715SOL     OW18043   1.016   6.930   3.295
 5715SOL    HW118044   1.036   7.019   3.254
 5715SOL    HW218045   1.102   6.880   3.307
 5716SOL     OW18046   1.352   3.989   0.093
 5716SOL    HW118047   1.252   3.993   0.090
 5716SOL    HW218048   1.385   3.947   0.008
 5717SOL     OW18049   2.435   5.497   0.873
 5717SOL    HW118050   2.347   5.467   0.911
 5717SOL    HW218051   2.420   5.566   0.803
 5718SOL     OW18052   0.291   2.663   5.477
 5718SOL    HW118053   0.347   2.736   5.518
 5718SOL    HW218054   0.290   2.584   5.537
 5719SOL     OW18055   2.598   1.837   6.608
 5719SOL    HW118056   2.551   1.770   6.550
 5719SOL    HW218057   2.595   1.926   6.564
 5720SOL     OW18058   1.696   5.249   4.696
 5720SOL    HW118059   1.643   5.326   4.661
 5720SOL    HW218060   1.794   5.268   4.686
 5721SOL     OW18061   0.097   3.730   1.151
 5721SOL    HW118062   0.083   3.652   1.090
 5721SOL    HW218063   0.061   3.709   1.242
 5722SOL     OW18064   6.688   1.530   5.194
 5722SOL    HW118065   6.770   1.538   5.137
 5722SOL    HW218066   6.684   1.607   5.257
 5723SOL     OW18067   4.444   3.447   0.773
 5723SOL    HW118068   4.378   3.499   0.720
 5723SOL    HW218069   4.527   3.433   0.719
 5724SOL     OW18070   5.699   3.100   4.955
 5724SOL    HW118071   5.788   3.125   4.995
 5724SOL    HW218072   5.632   3.170   4.978
 5725SOL     OW18073   4.976   5.149   4.115
 5725SOL    HW118074   4.889   5.112   4.082
 5725SOL    HW218075   5.040   5.073   4.130
 5726SOL     OW18076   0.362   4.717   4.633
 5726SOL    HW118077   0.422   4.653   4.679
 5726SOL    HW218078   0.416   4.783   4.581
 5727SOL     OW18079   6.641   1.289   3.881
 5727SOL    HW118080   6.616   1.364   3.943
 5727SOL    HW218081   6.560   1.257   3.832
 5728SOL     OW18082   3.924   0.504   6.656
 5728SOL    HW118083   3.905   0.488   6.559
 5728SOL    HW218084   3.912   0.418   6.707
 5729SOL     OW18085   1.267   1.362   0.439
 5729SOL    HW118086   1.206   1.379   0.517
 5729SOL    HW218087   1.326   1.441   0.424
 5730SOL     OW18088   4.601   5.062   6.179
 5730SOL    HW118089   4.526   4.996   6.170
 5730SOL    HW218090   4.663   5.052   6.101
 5731SOL     OW18091   0.623   6.651   3.852
 5731SOL    HW118092   0.629   6.650   3.952
 5731SOL    HW218093   0.643   6.743   3.819
 5732SOL     OW18094   6.487   5.465   4.187
 5732SOL    HW118095   6.495   5.428   4.095
 5732SOL    HW218096   6.451   5.395   4.249
 5733SOL     OW18097   3.967   6.933   5.329
 5733SOL    HW118098   3.934   6.987   5.252
 5733SOL    HW218099   4.008   6.993   5.397
 5734SOL     OW18100   1.234   6.777   5.735
 5734SOL    HW118101   1.330   6.766   5.708
 5734SOL    HW218102   1.206   6.872   5.720
 5735SOL     OW18103   4.045   2.160   2.042
 5735SOL    HW118104   3.990   2.077   2.038
 5735SOL    HW218105   4.054   2.190   2.137
 5736SOL     OW18106   6.173   4.500   0.128
 5736SOL    HW118107   6.074   4.510   0.140
 5736SOL    HW218108   6.215   4.591   0.124
 5737SOL     OW18109   5.022   6.554   0.728
 5737SOL    HW118110   5.102   6.596   0.769
 5737SOL    HW218111   5.016   6.580   0.632
 5738SOL     OW18112   2.767   3.348   5.978
 5738SOL    HW118113   2.763   3.409   5.899
 5738SOL    HW218114   2.832   3.384   6.044
 5739SOL     OW18115   1.341   0.675   5.229
 5739SOL    HW118116   1.384   0.754   5.185
 5739SOL    HW218117   1.406   0.600   5.235
 5740SOL     OW18118   4.141   3.789   1.504
 5740SOL    HW118119   4.081   3.869   1.494
 5740SOL    HW218120   4.224   3.816   1.554
 5741SOL     OW18121   0.418   3.592   4.366
 5741SOL    HW118122   0.379   3.567   4.278
 5741SOL    HW218123   0.364   3.666   4.407
 5742SOL     OW18124   5.404   6.603   2.519
 5742SOL    HW118125   5.323   6.640   2.564
 5742SOL    HW218126   5.382   6.514   2.480
 5743SOL     OW18127   2.527   5.349   5.587
 5743SOL    HW118128   2.546   5.251   5.596
 5743SOL    HW218129   2.513   5.389   5.678
 5744SOL     OW18130   5.013   0.873   1.926
 5744SOL    HW118131   5.033   0.876   1.828
 5744SOL    HW218132   4.936   0.933   1.946
 5745SOL     OW18133   1.863   0.483   4.153
 5745SOL    HW118134   1.765   0.488   4.133
 5745SOL    HW218135   1.888   0.553   4.219
 5746SOL     OW18136   5.529   6.924   1.580
 5746SOL    HW118137   5.620   6.881   1.579
 5746SOL    HW218138   5.485   6.911   1.491
 5747SOL     OW18139   6.987   4.251   3.079
 5747SOL    HW118140   6.902   4.212   3.116
 5747SOL    HW218141   0.035   4.239   3.146
 5748SOL     OW18142   1.428   5.598   0.373
 5748SOL    HW118143   1.452   5.592   0.276
 5748SOL    HW218144   1.457   5.687   0.409
 5749SOL     OW18145   1.557   6.518   4.732
 5749SOL    HW118146   1.564   6.481   4.825
 5749SOL    HW218147   1.627   6.475   4.674
 5750SOL     OW18148   6.270   6.285   4.462
 5750SOL    HW118149   6.189   6.262   4.408
 5750SOL    HW218150   6.246   6.350   4.533
 5751SOL     OW18151   2.942   2.212   4.299
 5751SOL    HW118152   2.865   2.275   4.295
 5751SOL    HW218153   2.965   2.182   4.206
 5752SOL     OW18154   6.407   0.811   0.589
 5752SOL    HW118155   6.322   0.767   0.616
 5752SOL    HW218156   6.478   0.742   0.574
 5753SOL     OW18157   4.092   3.362   4.782
 5753SOL    HW118158   4.003   3.409   4.784
 5753SOL    HW218159   4.127   3.362   4.689
 5754SOL     OW18160   6.803   4.392   1.022
 5754SOL    HW118161   6.727   4.329   1.010
 5754SOL    HW218162   6.819   4.409   1.120
 5755SOL     OW18163   2.075   3.274   6.226
 5755SOL    HW118164   2.040   3.351   6.173
 5755SOL    HW218165   2.171   3.290   6.249
 5756SOL     OW18166   6.256   7.017   3.624
 5756SOL    HW118167   6.157   7.021   3.606
 5756SOL    HW218168   6.274   6.948   3.694
 5757SOL     OW18169   6.720   6.168   2.900
 5757SOL    HW118170   6.621   6.164   2.913
 5757SOL    HW218171   6.745   6.253   2.856
 5758SOL     OW18172   2.564   0.984   5.077
 5758SOL    HW118173   2.508   0.903   5.060
 5758SOL    HW218174   2.660   0.957   5.084
 5759SOL     OW18175   4.721   1.249   6.629
 5759SOL    HW118176   4.780   1.266   6.550
 5759SOL    HW218177   4.703   1.151   6.636
 5760SOL     OW18178   0.224   4.160   1.085
 5760SOL    HW118179   0.231   4.260   1.086
 5760SOL    HW218180   0.298   4.122   1.029
 5761SOL     OW18181   5.371   6.559   6.834
 5761SOL    HW118182   5.431   6.575   6.912
 5761SOL    HW218183   5.404   6.481   6.781
 5762SOL     OW18184   4.829   5.966   0.174
 5762SOL    HW118185   4.872   5.994   0.260
 5762SOL    HW218186   4.753   6.028   0.154
 5763SOL     OW18187   6.946   0.085   0.057
 5763SOL    HW118188   6.917   0.084   0.153
 5763SOL    HW218189   0.002   0.142   0.047
 5764SOL     OW18190   4.874   4.969   5.676
 5764SOL    HW118191   4.938   5.035   5.637
 5764SOL    HW218192   4.828   5.010   5.755
 5765SOL     OW18193   6.302   3.509   0.022
 5765SOL    HW118194   6.263   3.583   0.076
 5765SOL    HW218195   6.257   3.505   6.958
 5766SOL     OW18196   2.232   2.528   6.993
 5766SOL    HW118197   2.251   2.591   0.043
 5766SOL    HW218198   2.260   2.570   6.906
 5767SOL     OW18199   1.767   0.425   0.660
 5767SOL    HW118200   1.707   0.501   0.686
 5767SOL    HW218201   1.860   0.459   0.649
 5768SOL     OW18202   0.428   6.301   3.158
 5768SOL    HW118203   0.422   6.346   3.247
 5768SOL    HW218204   0.394   6.207   3.166
 5769SOL     OW18205   2.261   5.802   4.606
 5769SOL    HW118206   2.288   5.890   4.568
 5769SOL    HW218207   2.220   5.746   4.534
 5770SOL     OW18208   5.541   6.894   0.520
 5770SOL    HW118209   5.565   6.988   0.496
 5770SOL    HW218210   5.625   6.840   0.530
 5771SOL     OW18211   1.674   6.118   3.569
 5771SOL    HW118212   1.722   6.035   3.541
 5771SOL    HW218213   1.701   6.193   3.509
 5772SOL     OW18214   6.163   2.081   0.846
 5772SOL    HW118215   6.066   2.100   0.864
 5772SOL    HW218216   6.220   2.141   0.902
 5773SOL     OW18217   4.341   1.185   3.822
 5773SOL    HW118218   4.359   1.114   3.890
 5773SOL    HW218219   4.426   1.211   3.777
 5774SOL     OW18220   2.783   5.561   3.561
 5774SOL    HW118221   2.862   5.599   3.608
 5774SOL    HW218222   2.705   5.560   3.624
 5775SOL     OW18223   1.793   0.904   1.943
 5775SOL    HW118224   1.858   0.831   1.966
 5775SOL    HW218225   1.726   0.869   1.877
 5776SOL     OW18226   6.646   0.664   5.986
 5776SOL    HW118227   6.632   0.646   6.083
 5776SOL    HW218228   6.740   0.639   5.961
 5777SOL     OW18229   6.626   0.556   5.000
 5777SOL    HW118230   6.714   0.517   4.971
 5777SOL    HW218231   6.641   0.648   5.037
 5778SOL     OW18232   1.633   0.403   1.577
 5778SOL    HW118233   1.558   0.356   1.530
 5778SOL    HW218234   1.639   0.372   1.671
 5779SOL     OW18235   4.262   1.815   0.555
 5779SOL    HW118236   4.243   1.780   0.463
 5779SOL    HW218237   4.329   1.889   0.550
 5780SOL     OW18238   6.169   5.145   2.906
 5780SOL    HW118239   6.262   5.118   2.933
 5780SOL    HW218240   6.104   5.115   2.975
 5781SOL     OW18241   0.317   4.084   4.689
 5781SOL    HW118242   0.371   4.137   4.625
 5781SOL    HW218243   0.359   4.088   4.780
 5782SOL     OW18244   1.172   0.700   0.492
 5782SOL    HW118245   1.215   0.717   0.580
 5782SOL    HW218246   1.170   0.601   0.475
 5783SOL     OW18247   1.847   0.525   1.727
 5783SOL    HW118248   1.901   0.601   1.691
 5783SOL    HW218249   1.776   0.501   1.661
 5784SOL     OW18250   6.672   6.756   0.274
 5784SOL    HW118251   6.644   6.797   0.187
 5784SOL    HW218252   6.609   6.785   0.346
 5785SOL     OW18253   1.731   1.706   0.895
 5785SOL    HW118254   1.708   1.614   0.864
 5785SOL    HW218255   1.829   1.712   0.913
 5786SOL     OW18256   0.389   3.802   0.681
 5786SOL    HW118257   0.473   3.854   0.694
 5786SOL    HW218258   0.411   3.704   0.672
 5787SOL     OW18259   4.536   2.745   5.182
 5787SOL    HW118260   4.456   2.768   5.238
 5787SOL    HW218261   4.619   2.752   5.237
 5788SOL     OW18262   3.140   1.194   1.478
 5788SOL    HW118263   3.116   1.100   1.456
 5788SOL    HW218264   3.230   1.216   1.441
 5789SOL     OW18265   3.409   3.996   6.295
 5789SOL    HW118266   3.352   4.075   6.273
 5789SOL    HW218267   3.355   3.929   6.345
 5790SOL     OW18268   0.349   4.690   4.958
 5790SOL    HW118269   0.285   4.621   4.993
 5790SOL    HW218270   0.438   4.648   4.942
 5791SOL     OW18271   3.016   2.113   2.486
 5791SOL    HW118272   2.966   2.165   2.555
 5791SOL    HW218273   3.012   2.160   2.398
 5792SOL     OW18274   5.500   2.701   2.101
 5792SOL    HW118275   5.550   2.633   2.154
 5792SOL    HW218276   5.492   2.670   2.006
 5793SOL     OW18277   6.015   0.900   4.086
 5793SOL    HW118278   6.089   0.866   4.029
 5793SOL    HW218279   5.942   0.937   4.029
 5794SOL     OW18280   2.935   0.241   6.604
 5794SOL    HW118281   2.942   0.143   6.621
 5794SOL    HW218282   2.845   0.262   6.566
 5795SOL     OW18283   7.014   0.067   1.604
 5795SOL    HW118284   0.015   0.143   1.664
 5795SOL    HW218285   6.939   0.016   1.647
 5796SOL     OW18286   4.353   0.929   6.621
 5796SOL    HW118287   4.346   0.890   6.713
 5796SOL    HW218288   4.375   1.026   6.627
 5797SOL     OW18289   5.167   1.951   0.352
 5797SOL    HW118290   5.099   1.980   0.285
 5797SOL    HW218291   5.211   2.031   0.393
 5798SOL     OW18292   6.882   5.098   5.017
 5798SOL    HW118293   6.956   5.156   5.049
 5798SOL    HW218294   6.920   5.012   4.982
 5799SOL     OW18295   0.244   0.759   4.432
 5799SOL    HW118296   0.162   0.789   4.382
 5799SOL    HW218297   0.318   0.744   4.367
 5800SOL     OW18298   0.818   6.680   2.052
 5800SOL    HW118299   0.909   6.683   2.092
 5800SOL    HW218300   0.823   6.646   1.958
 5801SOL     OW18301   1.890   2.264   3.478
 5801SOL    HW118302   1.857   2.356   3.498
 5801SOL    HW218303   1.969   2.270   3.417
 5802SOL     OW18304   6.638   2.926   2.458
 5802SOL    HW118305   6.570   2.873   2.407
 5802SOL    HW218306   6.724   2.876   2.462
 5803SOL     OW18307   1.808   6.015   2.666
 5803SOL    HW118308   1.900   6.042   2.691
 5803SOL    HW218309   1.791   5.921   2.698
 5804SOL     OW18310   0.120   5.796   3.336
 5804SOL    HW118311   0.027   5.820   3.307
 5804SOL    HW218312   0.186   5.842   3.277
 5805SOL     OW18313   1.350   3.241   0.672
 5805SOL    HW118314   1.398   3.251   0.759
 5805SOL    HW218315   1.272   3.180   0.684
 5806SOL     OW18316   6.949   4.862   4.914
 5806SOL    HW118317   6.931   4.810   4.830
 5806SOL    HW218318   6.940   4.801   4.993
 5807SOL     OW18319   1.149   5.885   0.267
 5807SOL    HW118320   1.095   5.811   0.304
 5807SOL    HW218321   1.213   5.849   0.199
 5808SOL     OW18322   6.967   6.457   4.389
 5808SOL    HW118323   7.025   6.417   4.319
 5808SOL    HW218324   6.882   6.489   4.348
 5809SOL     OW18325   6.676   1.498   5.540
 5809SOL    HW118326   6.737   1.557   5.488
 5809SOL    HW218327   6.661   1.413   5.489
 5810SOL     OW18328   5.001   1.037   5.404
 5810SOL    HW118329   4.976   1.109   5.340
 5810SOL    HW218330   4.925   0.973   5.414
 5811SOL     OW18331   3.658   1.442   4.789
 5811SOL    HW118332   3.572   1.426   4.837
 5811SOL    HW218333   3.726   1.479   4.852
 5812SOL     OW18334   4.971   3.282   6.107
 5812SOL    HW118335   4.927   3.219   6.042
 5812SOL    HW218336   4.901   3.326   6.163
 5813SOL     OW18337   2.927   0.706   0.846
 5813SOL    HW118338   2.929   0.685   0.748
 5813SOL    HW218339   2.913   0.621   0.898
 5814SOL     OW18340   6.820   3.046   2.257
 5814SOL    HW118341   6.848   3.136   2.290
 5814SOL    HW218342   6.783   3.055   2.165
 5815SOL     OW18343   4.026   1.459   4.142
 5815SOL    HW118344   4.097   1.451   4.072
 5815SOL    HW218345   4.069   1.455   4.232
 5816SOL     OW18346   5.293   4.441   0.037
 5816SOL    HW118347   5.279   4.540   0.042
 5816SOL    HW218348   5.206   4.395   0.054
 5817SOL     OW18349   6.064   4.882   5.423
 5817SOL    HW118350   5.966   4.877   5.444
 5817SOL    HW218351   6.114   4.907   5.505
 5818SOL     OW18352   6.773   5.474   5.918
 5818SOL    HW118353   6.743   5.422   5.838
 5818SOL    HW218354   6.743   5.569   5.910
 5819SOL     OW18355   3.655   6.563   6.810
 5819SOL    HW118356   3.686   6.468   6.809
 5819SOL    HW218357   3.555   6.565   6.799
 5820SOL     OW18358   4.390   4.661   2.883
 5820SOL    HW118359   4.353   4.601   2.955
 5820SOL    HW218360   4.336   4.745   2.879
 5821SOL     OW18361   6.653   0.900   1.963
 5821SOL    HW118362   6.661   0.880   2.061
 5821SOL    HW218363   6.727   0.962   1.936
 5822SOL     OW18364   1.923   2.875   1.435
 5822SOL    HW118365   1.858   2.836   1.501
 5822SOL    HW218366   1.974   2.802   1.391
 5823SOL     OW18367   2.842   6.837   4.774
 5823SOL    HW118368   2.779   6.839   4.852
 5823SOL    HW218369   2.916   6.903   4.789
 5824SOL     OW18370   0.068   5.954   3.115
 5824SOL    HW118371   0.043   5.930   3.022
 5824SOL    HW218372   7.014   5.995   3.162
 5825SOL     OW18373   0.086   6.833   4.662
 5825SOL    HW118374   0.074   6.932   4.668
 5825SOL    HW218375   0.079   6.804   4.567
 5826SOL     OW18376   0.388   5.973   6.378
 5826SOL    HW118377   0.457   5.973   6.306
 5826SOL    HW218378   0.334   5.890   6.373
 5827SOL     OW18379   1.891   3.645   4.389
 5827SOL    HW118380   1.814   3.612   4.443
 5827SOL    HW218381   1.862   3.724   4.335
 5828SOL     OW18382   5.170   1.338   2.628
 5828SOL    HW118383   5.099   1.293   2.682
 5828SOL    HW218384   5.257   1.334   2.677
 5829SOL     OW18385   1.802   0.569   4.561
 5829SOL    HW118386   1.742   0.606   4.632
 5829SOL    HW218387   1.747   0.533   4.486
 5830SOL     OW18388   5.640   0.238   5.801
 5830SOL    HW118389   5.571   0.258   5.732
 5830SOL    HW218390   5.605   0.168   5.864
 5831SOL     OW18391   1.455   1.072   6.110
 5831SOL    HW118392   1.424   1.017   6.032
 5831SOL    HW218393   1.424   1.029   6.195
 5832SOL     OW18394   3.158   4.682   6.753
 5832SOL    HW118395   3.085   4.682   6.820
 5832SOL    HW218396   3.139   4.613   6.683
 5833SOL     OW18397   4.202   3.595   5.135
 5833SOL    HW118398   4.112   3.575   5.173
 5833SOL    HW218399   4.272   3.553   5.191
 5834SOL     OW18400   6.914   4.138   6.622
 5834SOL    HW118401   7.011   4.118   6.632
 5834SOL    HW218402   6.869   4.061   6.576
 5835SOL     OW18403   5.548   2.071   2.975
 5835SOL    HW118404   5.590   2.084   2.885
 5835SOL    HW218405   5.588   2.135   3.040
 5836SOL     OW18406   2.869   0.485   1.507
 5836SOL    HW118407   2.914   0.413   1.455
 5836SOL    HW218408   2.815   0.444   1.581
 5837SOL     OW18409   3.445   2.995   0.032
 5837SOL    HW118410   3.356   2.980   0.076
 5837SOL    HW218411   3.464   2.920   6.995
 5838SOL     OW18412   2.948   1.608   1.042
 5838SOL    HW118413   2.924   1.655   0.957
 5838SOL    HW218414   2.951   1.673   1.117
 5839SOL     OW18415   0.636   2.257   0.938
 5839SOL    HW118416   0.610   2.174   0.989
 5839SOL    HW218417   0.736   2.258   0.927
 5840SOL     OW18418   1.144   3.655   6.624
 5840SOL    HW118419   1.096   3.591   6.684
 5840SOL    HW218420   1.110   3.747   6.640
 5841SOL     OW18421   5.219   1.224   1.808
 5841SOL    HW118422   5.205   1.145   1.868
 5841SOL    HW218423   5.316   1.229   1.783
 5842SOL     OW18424   4.821   3.075   1.437
 5842SOL    HW118425   4.810   3.037   1.528
 5842SOL    HW218426   4.764   3.025   1.372
 5843SOL     OW18427   1.255   4.665   1.701
 5843SOL    HW118428   1.262   4.716   1.615
 5843SOL    HW218429   1.347   4.636   1.730
 5844SOL     OW18430   1.892   5.979   6.065
 5844SOL    HW118431   1.811   6.020   6.023
 5844SOL    HW218432   1.880   5.977   6.164
 5845SOL     OW18433   0.657   0.083   1.714
 5845SOL    HW118434   0.653   7.021   1.665
 5845SOL    HW218435   0.711   0.148   1.661
 5846SOL     OW18436   6.362   3.303   5.770
 5846SOL    HW118437   6.271   3.264   5.754
 5846SOL    HW218438   6.363   3.348   5.860
 5847SOL     OW18439   2.577   2.472   2.223
 5847SOL    HW118440   2.623   2.537   2.284
 5847SOL    HW218441   2.626   2.385   2.225
 5848SOL     OW18442   1.531   5.444   3.057
 5848SOL    HW118443   1.547   5.428   2.960
 5848SOL    HW218444   1.612   5.488   3.097
 5849SOL     OW18445   1.983   0.500   5.136
 5849SOL    HW118446   1.982   0.590   5.093
 5849SOL    HW218447   2.065   0.491   5.193
 5850SOL     OW18448   0.144   3.692   2.033
 5850SOL    HW118449   0.160   3.751   1.954
 5850SOL    HW218450   0.047   3.666   2.036
 5851SOL     OW18451   5.282   3.650   3.748
 5851SOL    HW118452   5.277   3.728   3.685
 5851SOL    HW218453   5.378   3.625   3.761
 5852SOL     OW18454   5.695   6.395   2.893
 5852SOL    HW118455   5.646   6.462   2.838
 5852SOL    HW218456   5.758   6.343   2.835
 5853SOL     OW18457   4.063   5.269   5.367
 5853SOL    HW118458   4.027   5.181   5.399
 5853SOL    HW218459   3.991   5.338   5.372
 5854SOL     OW18460   4.450   3.931   5.688
 5854SOL    HW118461   4.379   3.893   5.747
 5854SOL    HW218462   4.428   4.027   5.668
 5855SOL     OW18463   1.648   0.829   4.375
 5855SOL    HW118464   1.727   0.871   4.420
 5855SOL    HW218465   1.566   0.847   4.428
 5856SOL     OW18466   1.504   5.706   3.754
 5856SOL    HW118467   1.563   5.653   3.815
 5856SOL    HW218468   1.462   5.780   3.805
 5857SOL     OW18469   6.080   3.492   5.295
 5857SOL    HW118470   6.165   3.442   5.310
 5857SOL    HW218471   6.039   3.515   5.383
 5858SOL     OW18472   2.529   2.331   2.731
 5858SOL    HW118473   2.522   2.363   2.637
 5858SOL    HW218474   2.440   2.340   2.777
 5859SOL     OW18475   6.353   6.248   1.710
 5859SOL    HW118476   6.417   6.304   1.657
 5859SOL    HW218477   6.295   6.307   1.767
 5860SOL     OW18478   0.222   4.754   3.425
 5860SOL    HW118479   0.303   4.723   3.475
 5860SOL    HW218480   0.193   4.683   3.361
 5861SOL     OW18481   5.734   0.804   4.122
 5861SOL    HW118482   5.798   0.865   4.075
 5861SOL    HW218483   5.746   0.711   4.088
 5862SOL     OW18484   5.850   5.571   1.068
 5862SOL    HW118485   5.782   5.556   0.996
 5862SOL    HW218486   5.888   5.484   1.097
 5863SOL     OW18487   2.626   2.234   5.098
 5863SOL    HW118488   2.573   2.265   5.018
 5863SOL    HW218489   2.721   2.222   5.072
 5864SOL     OW18490   3.632   4.120   2.391
 5864SOL    HW118491   3.670   4.210   2.369
 5864SOL    HW218492   3.703   4.063   2.432
 5865SOL     OW18493   5.726   0.313   5.209
 5865SOL    HW118494   5.798   0.360   5.260
 5865SOL    HW218495   5.663   0.380   5.170
 5866SOL     OW18496   3.858   3.133   0.993
 5866SOL    HW118497   3.954   3.132   0.964
 5866SOL    HW218498   3.851   3.179   1.081
 5867SOL     OW18499   2.407   3.360   1.369
 5867SOL    HW118500   2.335   3.345   1.437
 5867SOL    HW218501   2.494   3.377   1.416
 5868SOL     OW18502   2.181   1.592   5.957
 5868SOL    HW118503   2.266   1.561   6.000
 5868SOL    HW218504   2.199   1.674   5.903
 5869SOL     OW18505   1.822   6.071   3.266
 5869SOL    HW118506   1.905   6.125   3.252
 5869SOL    HW218507   1.754   6.098   3.198
 5870SOL     OW18508   5.521   6.193   5.105
 5870SOL    HW118509   5.583   6.133   5.055
 5870SOL    HW218510   5.511   6.279   5.056
 5871SOL     OW18511   3.624   3.251   1.777
 5871SOL    HW118512   3.620   3.155   1.751
 5871SOL    HW218513   3.547   3.300   1.736
 5872SOL     OW18514   4.534   6.597   1.550
 5872SOL    HW118515   4.481   6.544   1.616
 5872SOL    HW218516   4.629   6.564   1.550
 5873SOL     OW18517   3.640   0.617   2.012
 5873SOL    HW118518   3.554   0.627   2.062
 5873SOL    HW218519   3.623   0.578   1.921
 5874SOL     OW18520   2.106   4.653   5.348
 5874SOL    HW118521   2.023   4.598   5.343
 5874SOL    HW218522   2.166   4.617   5.419
 5875SOL     OW18523   4.290   1.572   0.072
 5875SOL    HW118524   4.377   1.536   0.037
 5875SOL    HW218525   4.215   1.519   0.033
 5876SOL     OW18526   3.931   3.367   1.644
 5876SOL    HW118527   4.010   3.427   1.630
 5876SOL    HW218528   3.847   3.421   1.646
 5877SOL     OW18529   6.808   6.604   0.938
 5877SOL    HW118530   6.734   6.542   0.913
 5877SOL    HW218531   6.798   6.690   0.890
 5878SOL     OW18532   6.887   5.643   4.366
 5878SOL    HW118533   6.933   5.727   4.395
 5878SOL    HW218534   6.854   5.594   4.446
 5879SOL     OW18535   1.297   4.279   0.024
 5879SOL    HW118536   1.197   4.275   0.021
 5879SOL    HW218537   1.334   4.190   0.049
 5880SOL     OW18538   4.335   4.300   6.697
 5880SOL    HW118539   4.277   4.349   6.762
 5880SOL    HW218540   4.280   4.229   6.651
 5881SOL     OW18541   0.636   6.693   2.788
 5881SOL    HW118542   0.644   6.650   2.878
 5881SOL    HW218543   0.612   6.624   2.720
 5882SOL     OW18544   0.353   6.158   1.609
 5882SOL    HW118545   0.410   6.120   1.537
 5882SOL    HW218546   0.317   6.083   1.666
 5883SOL     OW18547   0.980   1.080   6.214
 5883SOL    HW118548   0.947   1.092   6.307
 5883SOL    HW218549   1.060   1.137   6.199
 5884SOL     OW18550   2.811   1.495   4.694
 5884SOL    HW118551   2.905   1.528   4.681
 5884SOL    HW218552   2.749   1.573   4.698
 5885SOL     OW18553   0.433   0.409   3.305
 5885SOL    HW118554   0.439   0.351   3.387
 5885SOL    HW218555   0.443   0.352   3.224
 5886SOL     OW18556   0.931   1.953   4.956
 5886SOL    HW118557   0.885   2.039   4.978
 5886SOL    HW218558   1.023   1.973   4.921
 5887SOL     OW18559   2.771   1.760   3.023
 5887SOL    HW118560   2.709   1.726   3.093
 5887SOL    HW218561   2.807   1.849   3.051
 5888SOL     OW18562   2.901   0.897   1.537
 5888SOL    HW118563   2.966   0.911   1.463
 5888SOL    HW218564   2.856   0.984   1.560
 5889SOL     OW18565   1.300   6.703   0.521
 5889SOL    HW118566   1.356   6.756   0.584
 5889SOL    HW218567   1.210   6.744   0.513
 5890SOL     OW18568   2.384   1.001   3.904
 5890SOL    HW118569   2.476   0.966   3.885
 5890SOL    HW218570   2.322   0.972   3.831
 5891SOL     OW18571   3.773   2.997   6.002
 5891SOL    HW118572   3.782   3.096   5.992
 5891SOL    HW218573   3.690   2.966   5.955
 5892SOL     OW18574   0.727   5.244   1.413
 5892SOL    HW118575   0.684   5.223   1.325
 5892SOL    HW218576   0.701   5.174   1.479
 5893SOL     OW18577   2.149   3.774   4.271
 5893SOL    HW118578   2.078   3.726   4.323
 5893SOL    HW218579   2.234   3.723   4.277
 5894SOL     OW18580   6.834   4.799   4.341
 5894SOL    HW118581   6.924   4.759   4.357
 5894SOL    HW218582   6.840   4.899   4.342
 5895SOL     OW18583   5.874   4.174   3.955
 5895SOL    HW118584   5.797   4.178   4.019
 5895SOL    HW218585   5.851   4.113   3.879
 5896SOL     OW18586   4.028   0.880   0.277
 5896SOL    HW118587   4.019   0.976   0.302
 5896SOL    HW218588   3.938   0.837   0.275
 5897SOL     OW18589   4.076   0.547   1.354
 5897SOL    HW118590   4.166   0.528   1.394
 5897SOL    HW218591   4.078   0.635   1.307
 5898SOL     OW18592   1.935   6.505   3.167
 5898SOL    HW118593   1.889   6.480   3.081
 5898SOL    HW218594   1.870   6.501   3.242
 5899SOL     OW18595   5.198   5.866   6.033
 5899SOL    HW118596   5.216   5.928   5.956
 5899SOL    HW218597   5.228   5.909   6.118
 5900SOL     OW18598   5.842   5.316   3.433
 5900SOL    HW118599   5.784   5.341   3.355
 5900SOL    HW218600   5.921   5.264   3.400
 5901SOL     OW18601   2.522   0.850   0.607
 5901SOL    HW118602   2.516   0.755   0.636
 5901SOL    HW218603   2.492   0.859   0.512
 5902SOL     OW18604   6.744   2.700   5.589
 5902SOL    HW118605   6.647   2.716   5.608
 5902SOL    HW218606   6.790   2.788   5.574
 5903SOL     OW18607   4.708   4.741   6.935
 5903SOL    HW118608   4.671   4.689   6.858
 5903SOL    HW218609   4.766   4.680   6.990
 5904SOL     OW18610   1.090   4.606   1.356
 5904SOL    HW118611   0.993   4.581   1.357
 5904SOL    HW218612   1.139   4.547   1.420
 5905SOL     OW18613   6.163   5.771   3.444
 5905SOL    HW118614   6.222   5.775   3.525
 5905SOL    HW218615   6.127   5.679   3.433
 5906SOL     OW18616   3.876   2.114   3.529
 5906SOL    HW118617   3.837   2.123   3.620
 5906SOL    HW218618   3.908   2.021   3.516
 5907SOL     OW18619   0.330   5.372   0.844
 5907SOL    HW118620   0.386   5.309   0.790
 5907SOL    HW218621   0.388   5.444   0.882
 5908SOL     OW18622   0.372   2.594   6.533
 5908SOL    HW118623   0.305   2.667   6.540
 5908SOL    HW218624   0.464   2.633   6.528
 5909SOL     OW18625   6.596   5.459   0.540
 5909SOL    HW118626   6.574   5.523   0.614
 5909SOL    HW218627   6.606   5.510   0.454
 5910SOL     OW18628   6.730   3.556   3.745
 5910SOL    HW118629   6.727   3.488   3.819
 5910SOL    HW218630   6.734   3.510   3.657
 5911SOL     OW18631   6.761   6.380   6.759
 5911SOL    HW118632   6.718   6.309   6.703
 5911SOL    HW218633   6.713   6.386   6.847
 5912SOL     OW18634   6.521   1.141   6.130
 5912SOL    HW118635   6.527   1.115   6.034
 5912SOL    HW218636   6.453   1.214   6.141
 5913SOL     OW18637   4.873   3.016   6.229
 5913SOL    HW118638   4.778   2.990   6.248
 5913SOL    HW218639   4.882   3.042   6.133
 5914SOL     OW18640   1.379   4.936   6.407
 5914SOL    HW118641   1.315   4.949   6.331
 5914SOL    HW218642   1.463   4.988   6.390
 5915SOL     OW18643   4.453   5.781   1.144
 5915SOL    HW118644   4.520   5.839   1.190
 5915SOL    HW218645   4.403   5.727   1.212
 5916SOL     OW18646   5.754   6.441   4.135
 5916SOL    HW118647   5.746   6.342   4.132
 5916SOL    HW218648   5.665   6.483   4.121
 5917SOL     OW18649   2.927   3.441   4.420
 5917SOL    HW118650   2.857   3.380   4.458
 5917SOL    HW218651   3.017   3.400   4.434
 5918SOL     OW18652   1.843   4.021   5.353
 5918SOL    HW118653   1.928   4.064   5.385
 5918SOL    HW218654   1.811   3.957   5.422
 5919SOL     OW18655   3.906   3.020   3.011
 5919SOL    HW118656   3.991   3.031   3.062
 5919SOL    HW218657   3.828   3.037   3.072
 5920SOL     OW18658   4.454   1.197   6.680
 5920SOL    HW118659   4.543   1.243   6.684
 5920SOL    HW218660   4.393   1.246   6.617
 5921SOL     OW18661   3.372   5.543   6.349
 5921SOL    HW118662   3.425   5.473   6.396
 5921SOL    HW218663   3.275   5.530   6.368
 5922SOL     OW18664   5.055   4.062   2.738
 5922SOL    HW118665   5.078   4.155   2.765
 5922SOL    HW218666   5.114   3.997   2.786
 5923SOL     OW18667   6.730   1.763   1.989
 5923SOL    HW118668   6.741   1.759   2.088
 5923SOL    HW218669   6.751   1.855   1.956
 5924SOL     OW18670   6.798   6.974   2.943
 5924SOL    HW118671   6.716   6.961   2.999
 5924SOL    HW218672   6.773   6.969   2.846
 5925SOL     OW18673   4.035   6.815   2.162
 5925SOL    HW118674   4.130   6.793   2.138
 5925SOL    HW218675   4.024   6.815   2.261
 5926SOL     OW18676   3.788   5.534   2.128
 5926SOL    HW118677   3.854   5.472   2.170
 5926SOL    HW218678   3.793   5.526   2.029
 5927SOL     OW18679   1.482   4.536   2.704
 5927SOL    HW118680   1.562   4.480   2.684
 5927SOL    HW218681   1.427   4.546   2.621
 5928SOL     OW18682   3.788   7.014   1.094
 5928SOL    HW118683   3.693   0.002   1.122
 5928SOL    HW218684   3.810   6.917   1.092
 5929SOL     OW18685   6.760   0.143   6.323
 5929SOL    HW118686   6.777   0.154   6.225
 5929SOL    HW218687   6.728   0.229   6.361
 5930SOL     OW18688   6.441   4.272   3.096
 5930SOL    HW118689   6.510   4.341   3.074
 5930SOL    HW218690   6.424   4.215   3.016
 5931SOL     OW18691   0.379   5.842   3.117
 5931SOL    HW118692   0.322   5.841   3.035
 5931SOL    HW218693   0.369   5.930   3.164
 5932SOL     OW18694   3.387   0.316   0.826
 5932SOL    HW118695   3.413   0.379   0.753
 5932SOL    HW218696   3.304   0.350   0.870
 5933SOL     OW18697   6.726   5.028   3.478
 5933SOL    HW118698   6.801   5.049   3.416
 5933SOL    HW218699   6.641   5.066   3.443
 5934SOL     OW18700   3.626   3.010   4.959
 5934SOL    HW118701   3.583   2.933   5.006
 5934SOL    HW218702   3.682   3.062   5.024
 5935SOL     OW18703   5.928   4.951   6.528
 5935SOL    HW118704   5.898   4.945   6.433
 5935SOL    HW218705   5.876   4.887   6.584
 5936SOL     OW18706   2.981   2.333   1.670
 5936SOL    HW118707   3.081   2.333   1.675
 5936SOL    HW218708   2.944   2.379   1.751
 5937SOL     OW18709   6.342   3.688   2.211
 5937SOL    HW118710   6.247   3.695   2.240
 5937SOL    HW218711   6.395   3.763   2.251
 5938SOL     OW18712   6.561   5.430   2.770
 5938SOL    HW118713   6.467   5.425   2.804
 5938SOL    HW218714   6.586   5.342   2.729
 5939SOL     OW18715   2.303   6.539   2.832
 5939SOL    HW118716   2.313   6.618   2.892
 5939SOL    HW218717   2.274   6.459   2.885
 5940SOL     OW18718   4.764   5.345   2.131
 5940SOL    HW118719   4.757   5.361   2.230
 5940SOL    HW218720   4.847   5.387   2.096
 5941SOL     OW18721   5.855   3.327   2.157
 5941SOL    HW118722   5.918   3.302   2.229
 5941SOL    HW218723   5.762   3.300   2.183
 5942SOL     OW18724   5.991   3.598   0.396
 5942SOL    HW118725   5.950   3.669   0.339
 5942SOL    HW218726   5.920   3.554   0.451
 5943SOL     OW18727   3.070   4.372   5.876
 5943SOL    HW118728   3.033   4.283   5.849
 5943SOL    HW218729   3.013   4.412   5.947
 5944SOL     OW18730   0.042   2.446   1.210
 5944SOL    HW118731   0.128   2.454   1.159
 5944SOL    HW218732   7.012   2.528   1.195
 5945SOL     OW18733   6.629   4.739   5.095
 5945SOL    HW118734   6.619   4.731   4.996
 5945SOL    HW218735   6.722   4.769   5.117
 5946SOL     OW18736   4.060   3.578   5.919
 5946SOL    HW118737   4.055   3.478   5.916
 5946SOL    HW218738   3.970   3.615   5.942
 5947SOL     OW18739   3.111   3.316   2.093
 5947SOL    HW118740   3.151   3.233   2.053
 5947SOL    HW218741   3.015   3.300   2.115
 5948SOL     OW18742   4.353   4.600   2.580
 5948SOL    HW118743   4.339   4.564   2.672
 5948SOL    HW218744   4.346   4.700   2.582
 5949SOL     OW18745   5.208   4.056   1.356
 5949SOL    HW118746   5.130   4.119   1.346
 5949SOL    HW218747   5.269   4.090   1.427
 5950SOL     OW18748   5.254   0.929   5.273
 5950SOL    HW118749   5.167   0.920   5.320
 5950SOL    HW218750   5.239   0.960   5.179
 5951SOL     OW18751   1.278   5.553   3.808
 5951SOL    HW118752   1.284   5.458   3.780
 5951SOL    HW218753   1.351   5.606   3.764
 5952SOL     OW18754   5.612   4.622   3.367
 5952SOL    HW118755   5.651   4.687   3.433
 5952SOL    HW218756   5.565   4.672   3.295
 5953SOL     OW18757   6.265   2.965   5.624
 5953SOL    HW118758   6.223   3.056   5.627
 5953SOL    HW218759   6.247   2.918   5.711
 5954SOL     OW18760   5.947   5.185   5.268
 5954SOL    HW118761   5.858   5.140   5.264
 5954SOL    HW218762   5.977   5.210   5.176
 5955SOL     OW18763   4.792   5.649   2.541
 5955SOL    HW118764   4.757   5.665   2.449
 5955SOL    HW218765   4.780   5.732   2.596
 5956SOL     OW18766   4.628   1.919   4.867
 5956SOL    HW118767   4.568   1.840   4.880
 5956SOL    HW218768   4.658   1.922   4.771
 5957SOL     OW18769   3.584   1.289   5.160
 5957SOL    HW118770   3.597   1.331   5.070
 5957SOL    HW218771   3.532   1.351   5.218
 5958SOL     OW18772   5.195   5.934   3.234
 5958SOL    HW118773   5.111   5.924   3.287
 5958SOL    HW218774   5.172   5.955   3.139
 5959SOL     OW18775   4.332   3.009   5.294
 5959SOL    HW118776   4.246   3.018   5.244
 5959SOL    HW218777   4.341   2.914   5.326
 5960SOL     OW18778   3.825   5.306   5.125
 5960SOL    HW118779   3.741   5.257   5.150
 5960SOL    HW218780   3.899   5.240   5.112
 5961SOL     OW18781   4.728   1.828   2.666
 5961SOL    HW118782   4.824   1.829   2.638
 5961SOL    HW218783   4.670   1.842   2.586
 5962SOL     OW18784   5.880   6.348   0.456
 5962SOL    HW118785   5.879   6.401   0.371
 5962SOL    HW218786   5.857   6.252   0.435
 5963SOL     OW18787   3.834   3.591   6.962
 5963SOL    HW118788   3.839   3.619   0.033
 5963SOL    HW218789   3.865   3.496   6.954
 5964SOL     OW18790   0.694   6.275   5.462
 5964SOL    HW118791   0.719   6.247   5.555
 5964SOL    HW218792   0.692   6.375   5.456
 5965SOL     OW18793   1.821   1.605   0.123
 5965SOL    HW118794   1.819   1.533   0.192
 5965SOL    HW218795   1.912   1.609   0.082
 5966SOL     OW18796   2.110   6.256   5.418
 5966SOL    HW118797   2.098   6.184   5.350
 5966SOL    HW218798   2.137   6.341   5.373
 5967SOL     OW18799   3.365   0.247   6.276
 5967SOL    HW118800   3.277   0.215   6.310
 5967SOL    HW218801   3.373   0.346   6.293
 5968SOL     OW18802   5.298   2.276   0.361
 5968SOL    HW118803   5.391   2.294   0.393
 5968SOL    HW218804   5.249   2.223   0.430
 5969SOL     OW18805   6.222   0.114   6.503
 5969SOL    HW118806   6.175   0.028   6.525
 5969SOL    HW218807   6.162   0.191   6.522
 5970SOL     OW18808   0.199   4.332   2.807
 5970SOL    HW118809   0.147   4.257   2.848
 5970SOL    HW218810   0.274   4.294   2.752
 5971SOL     OW18811   0.347   1.402   2.397
 5971SOL    HW118812   0.255   1.440   2.409
 5971SOL    HW218813   0.413   1.477   2.393
 5972SOL     OW18814   5.611   5.884   6.426
 5972SOL    HW118815   5.697   5.873   6.476
 5972SOL    HW218816   5.566   5.795   6.418
 5973SOL     OW18817   1.486   3.356   2.369
 5973SOL    HW118818   1.503   3.271   2.419
 5973SOL    HW218819   1.413   3.407   2.414
 5974SOL     OW18820   5.558   5.765   6.848
 5974SOL    HW118821   5.527   5.855   6.879
 5974SOL    HW218822   5.485   5.722   6.795
 5975SOL     OW18823   4.466   0.203   0.844
 5975SOL    HW118824   4.367   0.211   0.835
 5975SOL    HW218825   4.503   0.157   0.763
 5976SOL     OW18826   3.910   2.813   6.158
 5976SOL    HW118827   3.874   2.720   6.152
 5976SOL    HW218828   3.850   2.875   6.108
 5977SOL     OW18829   1.636   5.728   6.908
 5977SOL    HW118830   1.628   5.815   6.859
 5977SOL    HW218831   1.682   5.661   6.849
 5978SOL     OW18832   4.056   5.685   1.719
 5978SOL    HW118833   4.142   5.654   1.678
 5978SOL    HW218834   4.014   5.753   1.660
 5979SOL     OW18835   5.436   0.489   3.131
 5979SOL    HW118836   5.350   0.539   3.141
 5979SOL    HW218837   5.477   0.511   3.042
 5980SOL     OW18838   3.440   3.797   0.925
 5980SOL    HW118839   3.485   3.710   0.944
 5980SOL    HW218840   3.507   3.871   0.933
 5981SOL     OW18841   5.721   2.097   1.516
 5981SOL    HW118842   5.795   2.046   1.560
 5981SOL    HW218843   5.653   2.123   1.585
 5982SOL     OW18844   6.186   2.695   2.020
 5982SOL    HW118845   6.238   2.691   1.935
 5982SOL    HW218846   6.149   2.787   2.032
 5983SOL     OW18847   1.222   1.516   3.871
 5983SOL    HW118848   1.312   1.478   3.849
 5983SOL    HW218849   1.156   1.490   3.800
 5984SOL     OW18850   6.169   5.530   3.181
 5984SOL    HW118851   6.129   5.548   3.091
 5984SOL    HW218852   6.194   5.617   3.224
 5985SOL     OW18853   6.714   3.353   3.929
 5985SOL    HW118854   6.808   3.346   3.961
 5985SOL    HW218855   6.658   3.285   3.977
 5986SOL     OW18856   3.492   4.137   4.155
 5986SOL    HW118857   3.583   4.128   4.194
 5986SOL    HW218858   3.423   4.125   4.226
 5987SOL     OW18859   5.716   6.945   4.096
 5987SOL    HW118860   5.800   6.891   4.107
 5987SOL    HW218861   5.734   7.020   4.033
 5988SOL     OW18862   4.477   0.398   6.260
 5988SOL    HW118863   4.536   0.398   6.341
 5988SOL    HW218864   4.530   0.368   6.180
 5989SOL     OW18865   2.570   5.796   6.577
 5989SOL    HW118866   2.562   5.698   6.559
 5989SOL    HW218867   2.615   5.810   6.666
 5990SOL     OW18868   3.114   3.519   0.564
 5990SOL    HW118869   3.051   3.481   0.496
 5990SOL    HW218870   3.064   3.543   0.646
 5991SOL     OW18871   3.564   5.378   6.884
 5991SOL    HW118872   3.559   5.363   6.786
 5991SOL    HW218873   3.585   5.474   6.902
 5992SOL     OW18874   3.827   0.286   2.044
 5992SOL    HW118875   3.817   0.250   1.952
 5992SOL    HW218876   3.841   0.385   2.040
 5993SOL     OW18877   3.793   4.716   5.956
 5993SOL    HW118878   3.770   4.636   6.012
 5993SOL    HW218879   3.891   4.735   5.965
 5994SOL     OW18880   6.388   2.618   1.798
 5994SOL    HW118881   6.343   2.535   1.832
 5994SOL    HW218882   6.469   2.637   1.854
 5995SOL     OW18883   4.893   3.655   2.454
 5995SOL    HW118884   4.848   3.651   2.366
 5995SOL    HW218885   4.933   3.566   2.476
 5996SOL     OW18886   1.075   6.245   1.234
 5996SOL    HW118887   1.029   6.210   1.152
 5996SOL    HW218888   1.025   6.324   1.269
 5997SOL     OW18889   0.237   5.317   2.614
 5997SOL    HW118890   0.233   5.334   2.712
 5997SOL    HW218891   0.241   5.218   2.598
 5998SOL     OW18892   5.937   1.275   3.471
 5998SOL    HW118893   5.902   1.336   3.541
 5998SOL    HW218894   5.932   1.319   3.382
 5999SOL     OW18895   2.491   2.618   1.615
 5999SOL    HW118896   2.454   2.553   1.681
 5999SOL    HW218897   2.505   2.571   1.528
 6000SOL     OW18898   2.425   6.892   0.609
 6000SOL    HW118899   2.513   6.915   0.649
 6000SOL    HW218900   2.434   6.886   0.509
 6001SOL     OW18901   0.274   4.304   6.739
 6001SOL    HW118902   0.373   4.291   6.744
 6001SOL    HW218903   0.254   4.380   6.678
 6002SOL     OW18904   6.077   0.785   0.484
 6002SOL    HW118905   5.978   0.792   0.481
 6002SOL    HW218906   6.113   0.787   0.390
 6003SOL     OW18907   6.044   1.925   4.675
 6003SOL    HW118908   5.994   1.924   4.588
 6003SOL    HW218909   6.100   1.842   4.682
 6004SOL     OW18910   6.736   3.452   2.746
 6004SOL    HW118911   6.644   3.453   2.787
 6004SOL    HW218912   6.798   3.400   2.804
 6005SOL     OW18913   4.748   5.030   4.021
 6005SOL    HW118914   4.676   5.100   4.025
 6005SOL    HW218915   4.743   4.973   4.104
 6006SOL     OW18916   2.513   1.344   5.403
 6006SOL    HW118917   2.600   1.319   5.361
 6006SOL    HW218918   2.438   1.319   5.342
 6007SOL     OW18919   5.398   4.076   5.595
 6007SOL    HW118920   5.493   4.105   5.603
 6007SOL    HW218921   5.361   4.108   5.507
 6008SOL     OW18922   2.361   4.673   5.159
 6008SOL    HW118923   2.429   4.605   5.186
 6008SOL    HW218924   2.281   4.665   5.219
 6009SOL     OW18925   2.304   0.991   3.131
 6009SOL    HW118926   2.250   1.054   3.187
 6009SOL    HW218927   2.299   1.019   3.035
 6010SOL     OW18928   1.386   4.716   4.314
 6010SOL    HW118929   1.463   4.755   4.263
 6010SOL    HW218930   1.319   4.787   4.333
 6011SOL     OW18931   5.115   3.020   3.037
 6011SOL    HW118932   5.060   3.004   3.119
 6011SOL    HW218933   5.056   3.020   2.956
 6012SOL     OW18934   5.829   0.939   0.155
 6012SOL    HW118935   5.911   0.988   0.185
 6012SOL    HW218936   5.824   0.851   0.203
 6013SOL     OW18937   5.190   2.167   2.611
 6013SOL    HW118938   5.190   2.120   2.523
 6013SOL    HW218939   5.105   2.146   2.660
 6014SOL     OW18940   4.015   3.691   2.719
 6014SOL    HW118941   3.978   3.693   2.626
 6014SOL    HW218942   4.064   3.605   2.733
 6015SOL     OW18943   6.415   3.794   4.032
 6015SOL    HW118944   6.475   3.746   4.096
 6015SOL    HW218945   6.337   3.736   4.009
 6016SOL     OW18946   6.447   1.583   5.627
 6016SOL    HW118947   6.536   1.553   5.595
 6016SOL    HW218948   6.426   1.674   5.590
 6017SOL     OW18949   6.551   4.630   3.548
 6017SOL    HW118950   6.643   4.596   3.568
 6017SOL    HW218951   6.487   4.596   3.617
 6018SOL     OW18952   4.180   0.377   6.416
 6018SOL    HW118953   4.273   0.399   6.385
 6018SOL    HW218954   4.117   0.386   6.339
 6019SOL     OW18955   0.291   2.772   4.081
 6019SOL    HW118956   0.299   2.868   4.054
 6019SOL    HW218957   0.345   2.756   4.164
 6020SOL     OW18958   1.022   5.144   0.863
 6020SOL    HW118959   0.941   5.100   0.901
 6020SOL    HW218960   1.101   5.083   0.874
 6021SOL     OW18961   4.459   0.633   2.667
 6021SOL    HW118962   4.424   0.586   2.586
 6021SOL    HW218963   4.558   0.621   2.673
 6022SOL     OW18964   5.464   1.394   4.170
 6022SOL    HW118965   5.429   1.302   4.154
 6022SOL    HW218966   5.423   1.431   4.254
 6023SOL     OW18967   5.883   1.264   1.579
 6023SOL    HW118968   5.799   1.220   1.548
 6023SOL    HW218969   5.955   1.195   1.590
 6024SOL     OW18970   1.739   4.824   2.785
 6024SOL    HW118971   1.647   4.807   2.821
 6024SOL    HW218972   1.745   4.919   2.753
 6025SOL     OW18973   3.773   1.731   3.428
 6025SOL    HW118974   3.750   1.745   3.524
 6025SOL    HW218975   3.802   1.819   3.388
 6026SOL     OW18976   6.993   4.455   5.439
 6026SOL    HW118977   6.984   4.524   5.367
 6026SOL    HW218978   0.065   4.435   5.453
 6027SOL     OW18979   0.390   3.119   5.815
 6027SOL    HW118980   0.318   3.100   5.747
 6027SOL    HW218981   0.360   3.087   5.905
 6028SOL     OW18982   6.754   5.095   0.350
 6028SOL    HW118983   6.689   5.036   0.396
 6028SOL    HW218984   6.831   5.115   0.412
 6029SOL     OW18985   2.292   6.852   4.933
 6029SOL    HW118986   2.282   6.757   4.902
 6029SOL    HW218987   2.280   6.914   4.855
 6030SOL     OW18988   4.148   5.263   2.440
 6030SOL    HW118989   4.185   5.327   2.373
 6030SOL    HW218990   4.056   5.234   2.412
 6031SOL     OW18991   2.800   5.521   4.216
 6031SOL    HW118992   2.862   5.494   4.289
 6031SOL    HW218993   2.727   5.579   4.253
 6032SOL     OW18994   2.380   4.477   2.613
 6032SOL    HW118995   2.447   4.523   2.554
 6032SOL    HW218996   2.361   4.534   2.693
 6033SOL     OW18997   2.601   2.046   2.733
 6033SOL    HW118998   2.620   2.019   2.639
 6033SOL    HW218999   2.600   2.146   2.740
 6034SOL     OW19000   1.472   6.842   5.126
 6034SOL    HW119001   1.457   6.905   5.050
 6034SOL    HW219002   1.440   6.884   5.211
 6035SOL     OW19003   0.232   1.186   2.045
 6035SOL    HW119004   0.139   1.160   2.019
 6035SOL    HW219005   0.242   1.285   2.035
 6036SOL     OW19006   5.134   4.338   3.194
 6036SOL    HW119007   5.136   4.409   3.124
 6036SOL    HW219008   5.054   4.350   3.252
 6037SOL     OW19009   4.566   6.063   6.890
 6037SOL    HW119010   4.487   6.058   6.950
 6037SOL    HW219011   4.540   6.105   6.803
 6038SOL     OW19012   1.785   2.944   5.902
 6038SOL    HW119013   1.782   2.853   5.860
 6038SOL    HW219014   1.735   2.943   5.989
 6039SOL     OW19015   3.087   3.084   2.944
 6039SOL    HW119016   3.029   3.122   3.016
 6039SOL    HW219017   3.173   3.051   2.984
 6040SOL     OW19018   1.035   1.470   0.593
 6040SOL    HW119019   1.053   1.455   0.690
 6040SOL    HW219020   1.099   1.538   0.557
 6041SOL     OW19021   2.740   0.257   4.704
 6041SOL    HW119022   2.658   0.289   4.657
 6041SOL    HW219023   2.714   0.191   4.775
 6042SOL     OW19024   4.607   6.404   2.380
 6042SOL    HW119025   4.685   6.349   2.411
 6042SOL    HW219026   4.562   6.445   2.459
 6043SOL     OW19027   1.094   5.177   5.822
 6043SOL    HW119028   1.130   5.198   5.913
 6043SOL    HW219029   1.007   5.128   5.831
 6044SOL     OW19030   1.493   2.759   1.363
 6044SOL    HW119031   1.425   2.821   1.402
 6044SOL    HW219032   1.536   2.802   1.284
 6045SOL     OW19033   5.788   3.930   2.311
 6045SOL    HW119034   5.863   3.967   2.255
 6045SOL    HW219035   5.809   3.835   2.335
 6046SOL     OW19036   3.646   2.130   6.957
 6046SOL    HW119037   3.566   2.125   7.017
 6046SOL    HW219038   3.669   2.039   6.925
 6047SOL     OW19039   5.181   1.681   2.077
 6047SOL    HW119040   5.099   1.627   2.096
 6047SOL    HW219041   5.159   1.778   2.083
 6048SOL     OW19042   4.844   5.308   5.571
 6048SOL    HW119043   4.840   5.296   5.670
 6048SOL    HW219044   4.817   5.402   5.548
 6049SOL     OW19045   5.155   3.389   0.053
 6049SOL    HW119046   5.124   3.354   6.990
 6049SOL    HW219047   5.078   3.390   0.117
 6050SOL     OW19048   3.678   5.719   5.538
 6050SOL    HW119049   3.749   5.699   5.469
 6050SOL    HW219050   3.689   5.657   5.616
 6051SOL     OW19051   1.953   6.269   3.711
 6051SOL    HW119052   1.878   6.271   3.777
 6051SOL    HW219053   1.923   6.310   3.625
 6052SOL     OW19054   6.028   1.130   0.222
 6052SOL    HW119055   5.941   1.177   0.226
 6052SOL    HW219056   6.097   1.189   0.181
 6053SOL     OW19057   4.145   1.245   6.972
 6053SOL    HW119058   4.116   1.300   6.895
 6053SOL    HW219059   4.244   1.236   6.972
 6054SOL     OW19060   2.265   3.459   7.011
 6054SOL    HW119061   2.238   3.481   0.079
 6054SOL    HW219062   2.364   3.449   7.006
 6055SOL     OW19063   5.173   6.798   5.420
 6055SOL    HW119064   5.186   6.884   5.371
 6055SOL    HW219065   5.256   6.743   5.416
 6056SOL     OW19066   5.233   3.338   4.431
 6056SOL    HW119067   5.327   3.367   4.412
 6056SOL    HW219068   5.223   3.241   4.408
 6057SOL     OW19069   6.083   2.102   3.083
 6057SOL    HW119070   6.059   2.200   3.080
 6057SOL    HW219071   6.150   2.087   3.155
 6058SOL     OW19072   4.454   3.656   1.517
 6058SOL    HW119073   4.544   3.663   1.560
 6058SOL    HW219074   4.397   3.732   1.547
 6059SOL     OW19075   4.976   4.726   5.608
 6059SOL    HW119076   4.906   4.655   5.597
 6059SOL    HW219077   4.932   4.812   5.633
 6060SOL     OW19078   2.634   3.561   6.602
 6060SOL    HW119079   2.609   3.466   6.587
 6060SOL    HW219080   2.605   3.590   6.693
 6061SOL     OW19081   3.634   2.974   0.659
 6061SOL    HW119082   3.668   3.058   0.702
 6061SOL    HW219083   3.709   2.925   0.616
 6062SOL     OW19084   2.384   0.909   5.382
 6062SOL    HW119085   2.324   0.982   5.349
 6062SOL    HW219086   2.466   0.950   5.423
 6063SOL     OW19087   4.196   2.723   6.051
 6063SOL    HW119088   4.187   2.811   6.004
 6063SOL    HW219089   4.108   2.677   6.054
 6064SOL     OW19090   1.448   6.098   1.029
 6064SOL    HW119091   1.499   6.111   0.945
 6064SOL    HW219092   1.435   6.186   1.075
 6065SOL     OW19093   0.368   6.583   2.219
 6065SOL    HW119094   0.373   6.602   2.121
 6065SOL    HW219095   0.447   6.623   2.264
 6066SOL     OW19096   4.956   1.353   6.015
 6066SOL    HW119097   4.994   1.384   6.102
 6066SOL    HW219098   5.000   1.402   5.940
 6067SOL     OW19099   5.656   0.908   5.403
 6067SOL    HW119100   5.597   0.935   5.480
 6067SOL    HW219101   5.680   0.988   5.349
 6068SOL     OW19102   5.167   3.337   4.699
 6068SOL    HW119103   5.074   3.305   4.719
 6068SOL    HW219104   5.184   3.328   4.601
 6069SOL     OW19105   5.943   3.147   5.033
 6069SOL    HW119106   5.999   3.175   5.110
 6069SOL    HW219107   6.002   3.113   4.960
 6070SOL     OW19108   2.833   2.315   0.963
 6070SOL    HW119109   2.813   2.231   0.912
 6070SOL    HW219110   2.833   2.295   1.061
 6071SOL     OW19111   5.331   5.736   4.678
 6071SOL    HW119112   5.356   5.647   4.639
 6071SOL    HW219113   5.265   5.781   4.618
 6072SOL     OW19114   6.570   0.373   1.488
 6072SOL    HW119115   6.570   0.384   1.588
 6072SOL    HW219116   6.665   0.368   1.456
 6073SOL     OW19117   5.752   3.196   0.015
 6073SOL    HW119118   5.827   3.183   0.080
 6073SOL    HW219119   5.751   3.119   6.976
 6074SOL     OW19120   0.824   6.290   2.473
 6074SOL    HW119121   0.883   6.213   2.448
 6074SOL    HW219122   0.729   6.270   2.448
 6075SOL     OW19123   5.920   0.843   5.947
 6075SOL    HW119124   5.894   0.755   5.908
 6075SOL    HW219125   6.018   0.858   5.933
 6076SOL     OW19126   3.319   5.522   4.144
 6076SOL    HW119127   3.323   5.545   4.241
 6076SOL    HW219128   3.335   5.424   4.131
 6077SOL     OW19129   6.125   5.767   1.028
 6077SOL    HW119130   6.220   5.759   1.059
 6077SOL    HW219131   6.115   5.716   0.942
 6078SOL     OW19132   4.666   4.947   0.727
 6078SOL    HW119133   4.629   5.034   0.759
 6078SOL    HW219134   4.763   4.959   0.704
 6079SOL     OW19135   4.293   3.915   6.107
 6079SOL    HW119136   4.384   3.957   6.101
 6079SOL    HW219137   4.232   3.976   6.158
 6080SOL     OW19138   0.216   6.666   1.410
 6080SOL    HW119139   0.131   6.663   1.357
 6080SOL    HW219140   0.209   6.603   1.487
 6081SOL     OW19141   6.595   2.916   5.226
 6081SOL    HW119142   6.676   2.949   5.275
 6081SOL    HW219143   6.576   2.977   5.149
 6082SOL     OW19144   2.108   1.403   4.005
 6082SOL    HW119145   2.146   1.317   4.039
 6082SOL    HW219146   2.034   1.433   4.066
 6083SOL     OW19147   6.208   5.895   0.042
 6083SOL    HW119148   6.267   5.912   0.120
 6083SOL    HW219149   6.125   5.847   0.071
 6084SOL     OW19150   0.663   6.532   3.576
 6084SOL    HW119151   0.646   6.552   3.673
 6084SOL    HW219152   0.619   6.602   3.520
 6085SOL     OW19153   6.936   5.802   0.546
 6085SOL    HW119154   6.946   5.722   0.486
 6085SOL    HW219155   6.928   5.885   0.491
 6086SOL     OW19156   3.433   0.911   5.886
 6086SOL    HW119157   3.366   0.933   5.815
 6086SOL    HW219158   3.519   0.958   5.865
 6087SOL     OW19159   3.607   5.473   0.975
 6087SOL    HW119160   3.616   5.455   1.073
 6087SOL    HW219161   3.518   5.516   0.957
 6088SOL     OW19162   5.227   5.924   4.238
 6088SOL    HW119163   5.198   5.847   4.181
 6088SOL    HW219164   5.318   5.954   4.209
 6089SOL     OW19165   5.109   3.074   1.892
 6089SOL    HW119166   5.017   3.112   1.882
 6089SOL    HW219167   5.163   3.096   1.810
 6090SOL     OW19168   2.018   5.658   5.162
 6090SOL    HW119169   2.031   5.740   5.218
 6090SOL    HW219170   2.060   5.672   5.072
 6091SOL     OW19171   1.972   1.073   0.194
 6091SOL    HW119172   1.879   1.039   0.202
 6091SOL    HW219173   2.022   1.017   0.127
 6092SOL     OW19174   3.896   0.208   2.538
 6092SOL    HW119175   3.962   0.174   2.605
 6092SOL    HW219176   3.884   0.141   2.465
 6093SOL     OW19177   1.975   3.441   1.902
 6093SOL    HW119178   1.935   3.351   1.886
 6093SOL    HW219179   2.070   3.431   1.932
 6094SOL     OW19180   2.489   6.691   2.079
 6094SOL    HW119181   2.484   6.653   1.987
 6094SOL    HW219182   2.430   6.771   2.086
 6095SOL     OW19183   5.199   4.264   0.653
 6095SOL    HW119184   5.234   4.251   0.746
 6095SOL    HW219185   5.234   4.351   0.617
 6096SOL     OW19186   6.336   6.531   4.154
 6096SOL    HW119187   6.272   6.571   4.219
 6096SOL    HW219188   6.376   6.448   4.193
 6097SOL     OW19189   2.250   6.080   2.030
 6097SOL    HW119190   2.215   6.106   2.120
 6097SOL    HW219191   2.339   6.123   2.015
 6098SOL     OW19192   1.682   1.815   5.363
 6098SOL    HW119193   1.681   1.896   5.305
 6098SOL    HW219194   1.703   1.734   5.308
 6099SOL     OW19195   5.884   6.588   0.218
 6099SOL    HW119196   5.946   6.544   0.152
 6099SOL    HW219197   5.882   6.687   0.201
 6100SOL     OW19198   5.418   6.004   0.800
 6100SOL    HW119199   5.362   6.087   0.808
 6100SOL    HW219200   5.393   5.955   0.717
 6101SOL     OW19201   6.600   3.264   3.679
 6101SOL    HW119202   6.519   3.315   3.652
 6101SOL    HW219203   6.629   3.292   3.770
 6102SOL     OW19204   3.311   6.261   2.862
 6102SOL    HW119205   3.333   6.244   2.766
 6102SOL    HW219206   3.287   6.357   2.874
 6103SOL     OW19207   6.470   1.873   1.670
 6103SOL    HW119208   6.462   1.802   1.600
 6103SOL    HW219209   6.380   1.908   1.693
 6104SOL     OW19210   6.257   0.720   5.647
 6104SOL    HW119211   6.265   0.810   5.688
 6104SOL    HW219212   6.317   0.714   5.567
 6105SOL     OW19213   3.470   6.290   6.743
 6105SOL    HW119214   3.453   6.192   6.742
 6105SOL    HW219215   3.516   6.317   6.658
 6106SOL     OW19216   1.761   3.942   6.949
 6106SOL    HW119217   1.743   3.919   6.854
 6106SOL    HW219218   1.834   4.011   6.953
 6107SOL     OW19219   3.888   5.487   4.458
 6107SOL    HW119220   3.971   5.543   4.450
 6107SOL    HW219221   3.810   5.537   4.422
 6108SOL     OW19222   1.901   3.181   1.828
 6108SOL    HW119223   1.946   3.124   1.897
 6108SOL    HW219224   1.928   3.149   1.737
 6109SOL     OW19225   6.059   1.940   5.149
 6109SOL    HW119226   5.973   1.991   5.146
 6109SOL    HW219227   6.069   1.898   5.240
 6110SOL     OW19228   3.795   3.804   0.427
 6110SOL    HW119229   3.713   3.753   0.456
 6110SOL    HW219230   3.780   3.902   0.441
 6111SOL     OW19231   2.001   4.202   2.478
 6111SOL    HW119232   1.990   4.103   2.491
 6111SOL    HW219233   2.042   4.242   2.560
 6112SOL     OW19234   3.737   0.316   2.336
 6112SOL    HW119235   3.814   0.312   2.399
 6112SOL    HW219236   3.765   0.281   2.246
 6113SOL     OW19237   2.720   1.072   6.885
 6113SOL    HW119238   2.800   1.053   6.829
 6113SOL    HW219239   2.643   1.096   6.826
 6114SOL     OW19240   5.159   5.131   1.463
 6114SOL    HW119241   5.246   5.176   1.483
 6114SOL    HW219242   5.095   5.150   1.538
 6115SOL     OW19243   5.345   6.869   4.150
 6115SOL    HW119244   5.387   6.959   4.154
 6115SOL    HW219245   5.352   6.832   4.058
 6116SOL     OW19246   3.886   1.455   6.284
 6116SOL    HW119247   3.841   1.543   6.303
 6116SOL    HW219248   3.985   1.468   6.284
 6117SOL     OW19249   1.667   1.376   3.608
 6117SOL    HW119250   1.686   1.470   3.639
 6117SOL    HW219251   1.728   1.353   3.533
 6118SOL     OW19252   0.151   0.892   2.394
 6118SOL    HW119253   0.090   0.871   2.470
 6118SOL    HW219254   0.240   0.847   2.409
 6119SOL     OW19255   0.669   3.930   6.586
 6119SOL    HW119256   0.591   3.950   6.527
 6119SOL    HW219257   0.741   3.997   6.570
 6120SOL     OW19258   3.381   6.346   4.995
 6120SOL    HW119259   3.346   6.282   5.064
 6120SOL    HW219260   3.382   6.439   5.033
 6121SOL     OW19261   0.724   3.461   5.558
 6121SOL    HW119262   0.794   3.390   5.570
 6121SOL    HW219263   0.763   3.538   5.506
 6122SOL     OW19264   4.286   5.255   0.580
 6122SOL    HW119265   4.233   5.174   0.555
 6122SOL    HW219266   4.383   5.240   0.559
 6123SOL     OW19267   5.188   0.110   6.950
 6123SOL    HW119268   5.141   0.145   6.870
 6123SOL    HW219269   5.122   0.070   7.013
 6124SOL     OW19270   2.038   6.955   5.972
 6124SOL    HW119271   2.137   6.962   5.963
 6124SOL    HW219272   1.996   0.018   5.950
 6125SOL     OW19273   2.231   5.195   0.459
 6125SOL    HW119274   2.223   5.099   0.432
 6125SOL    HW219275   2.238   5.252   0.378
 6126SOL     OW19276   1.148   0.080   4.260
 6126SOL    HW119277   1.155   0.112   4.354
 6126SOL    HW219278   1.126   7.008   4.259
 6127SOL     OW19279   3.351   0.482   0.602
 6127SOL    HW119280   3.436   0.532   0.615
 6127SOL    HW219281   3.289   0.536   0.545
 6128SOL     OW19282   6.011   4.106   0.211
 6128SOL    HW119283   6.017   4.184   0.272
 6128SOL    HW219284   5.968   4.029   0.260
 6129SOL     OW19285   6.914   3.243   3.291
 6129SOL    HW119286   7.010   3.263   3.271
 6129SOL    HW219287   6.910   3.181   3.370
 6130SOL     OW19288   5.832   2.311   2.979
 6130SOL    HW119289   5.779   2.347   2.902
 6130SOL    HW219290   5.888   2.384   3.018
 6131SOL     OW19291   0.692   1.353   5.282
 6131SOL    HW119292   0.614   1.339   5.342
 6131SOL    HW219293   0.742   1.267   5.270
 6132SOL     OW19294   4.867   2.331   0.163
 6132SOL    HW119295   4.914   2.324   0.251
 6132SOL    HW219296   4.909   2.267   0.098
 6133SOL     OW19297   1.661   3.251   1.966
 6133SOL    HW119298   1.744   3.231   1.915
 6133SOL    HW219299   1.582   3.248   1.904
 6134SOL     OW19300   3.988   4.920   6.109
 6134SOL    HW119301   4.045   4.932   6.191
 6134SOL    HW219302   3.932   5.002   6.095
 6135SOL     OW19303   0.446   1.024   1.420
 6135SOL    HW119304   0.419   1.102   1.477
 6135SOL    HW219305   0.513   1.054   1.352
 6136SOL     OW19306   1.006   2.799   2.308
 6136SOL    HW119307   1.064   2.798   2.390
 6136SOL    HW219308   0.992   2.894   2.279
 6137SOL     OW19309   6.525   2.950   2.719
 6137SOL    HW119310   6.607   2.931   2.773
 6137SOL    HW219311   6.547   2.948   2.622
 6138SOL     OW19312   3.651   6.354   2.895
 6138SOL    HW119313   3.662   6.311   2.984
 6138SOL    HW219314   3.614   6.446   2.907
 6139SOL     OW19315   1.307   0.339   5.851
 6139SOL    HW119316   1.240   0.321   5.924
 6139SOL    HW219317   1.396   0.303   5.879
 6140SOL     OW19318   0.631   6.084   1.856
 6140SOL    HW119319   0.618   6.140   1.773
 6140SOL    HW219320   0.674   6.139   1.927
 6141SOL     OW19321   0.423   6.533   6.532
 6141SOL    HW119322   0.446   6.558   6.438
 6141SOL    HW219323   0.338   6.481   6.533
 6142SOL     OW19324   1.250   6.560   0.086
 6142SOL    HW119325   1.189   6.629   0.127
 6142SOL    HW219326   1.311   6.523   0.156
 6143SOL     OW19327   6.829   3.558   1.687
 6143SOL    HW119328   6.749   3.587   1.740
 6143SOL    HW219329   6.801   3.536   1.594
 6144SOL     OW19330   5.539   4.516   3.048
 6144SOL    HW119331   5.583   4.475   3.127
 6144SOL    HW219332   5.523   4.445   2.978
 6145SOL     OW19333   4.711   5.040   3.028
 6145SOL    HW119334   4.612   5.055   3.034
 6145SOL    HW219335   4.730   4.960   2.973
 6146SOL     OW19336   3.160   6.038   3.955
 6146SOL    HW119337   3.192   6.128   3.985
 6146SOL    HW219338   3.136   5.983   4.035
 6147SOL     OW19339   2.146   2.227   4.792
 6147SOL    HW119340   2.154   2.316   4.837
 6147SOL    HW219341   2.074   2.173   4.837
 6148SOL     OW19342   5.459   6.691   4.792
 6148SOL    HW119343   5.549   6.730   4.810
 6148SOL    HW219344   5.438   6.700   4.694
 6149SOL     OW19345   2.655   5.799   1.052
 6149SOL    HW119346   2.656   5.718   0.993
 6149SOL    HW219347   2.616   5.775   1.141
 6150SOL     OW19348   4.445   5.505   6.811
 6150SOL    HW119349   4.449   5.432   6.879
 6150SOL    HW219350   4.462   5.468   6.720
 6151SOL     OW19351   5.989   4.166   6.239
 6151SOL    HW119352   6.064   4.231   6.226
 6151SOL    HW219353   6.025   4.081   6.276
 6152SOL     OW19354   6.355   5.333   4.581
 6152SOL    HW119355   6.445   5.372   4.602
 6152SOL    HW219356   6.345   5.322   4.482
 6153SOL     OW19357   5.033   4.639   1.698
 6153SOL    HW119358   4.943   4.636   1.740
 6153SOL    HW219359   5.049   4.553   1.648
 6154SOL     OW19360   5.854   1.816   2.708
 6154SOL    HW119361   5.808   1.778   2.789
 6154SOL    HW219362   5.786   1.845   2.641
 6155SOL     OW19363   1.589   1.758   3.977
 6155SOL    HW119364   1.532   1.825   4.024
 6155SOL    HW219365   1.604   1.679   4.037
 6156SOL     OW19366   4.116   4.309   1.196
 6156SOL    HW119367   4.032   4.312   1.142
 6156SOL    HW219368   4.098   4.340   1.289
 6157SOL     OW19369   0.335   0.851   4.940
 6157SOL    HW119370   0.377   0.783   5.001
 6157SOL    HW219371   0.353   0.827   4.845
 6158SOL     OW19372   3.516   2.294   5.691
 6158SOL    HW119373   3.598   2.316   5.744
 6158SOL    HW219374   3.542   2.270   5.598
 6159SOL     OW19375   5.257   2.702   2.241
 6159SOL    HW119376   5.205   2.776   2.199
 6159SOL    HW219377   5.341   2.686   2.190
 6160SOL     OW19378   4.907   1.678   6.337
 6160SOL    HW119379   5.005   1.698   6.338
 6160SOL    HW219380   4.856   1.762   6.358
 6161SOL     OW19381   4.661   1.418   5.224
 6161SOL    HW119382   4.596   1.469   5.169
 6161SOL    HW219383   4.714   1.481   5.281
 6162SOL     OW19384   0.649   6.130   3.092
 6162SOL    HW119385   0.572   6.097   3.037
 6162SOL    HW219386   0.673   6.223   3.063
 6163SOL     OW19387   6.303   6.922   0.788
 6163SOL    HW119388   6.399   6.950   0.795
 6163SOL    HW219389   6.246   7.003   0.774
 6164SOL     OW19390   4.017   3.690   2.171
 6164SOL    HW119391   4.037   3.660   2.077
 6164SOL    HW219392   4.039   3.615   2.234
 6165SOL     OW19393   4.790   1.375   6.984
 6165SOL    HW119394   4.794   1.414   6.892
 6165SOL    HW219395   4.735   1.291   6.983
 6166SOL     OW19396   5.383   1.352   6.625
 6166SOL    HW119397   5.324   1.432   6.620
 6166SOL    HW219398   5.434   1.353   6.710
 6167SOL     OW19399   1.237   5.484   3.439
 6167SOL    HW119400   1.220   5.386   3.438
 6167SOL    HW219401   1.151   5.533   3.454
 6168SOL     OW19402   1.647   4.155   1.782
 6168SOL    HW119403   1.571   4.163   1.717
 6168SOL    HW219404   1.733   4.145   1.732
 6169SOL     OW19405   1.092   2.544   0.766
 6169SOL    HW119406   1.170   2.495   0.805
 6169SOL    HW219407   1.087   2.525   0.668
 6170SOL     OW19408   1.282   3.738   5.435
 6170SOL    HW119409   1.346   3.815   5.429
 6170SOL    HW219410   1.218   3.754   5.510
 6171SOL     OW19411   0.603   2.940   0.438
 6171SOL    HW119412   0.627   2.852   0.479
 6171SOL    HW219413   0.566   2.925   0.346
 6172SOL     OW19414   1.947   2.650   2.464
 6172SOL    HW119415   1.917   2.556   2.481
 6172SOL    HW219416   1.868   2.708   2.446
 6173SOL     OW19417   6.834   5.647   1.596
 6173SOL    HW119418   6.819   5.586   1.518
 6173SOL    HW219419   6.760   5.713   1.601
 6174SOL     OW19420   5.733   4.811   3.519
 6174SOL    HW119421   5.660   4.877   3.538
 6174SOL    HW219422   5.820   4.859   3.512
 6175SOL     OW19423   4.527   0.453   3.529
 6175SOL    HW119424   4.493   0.473   3.438
 6175SOL    HW219425   4.456   0.406   3.582
 6176SOL     OW19426   4.994   3.989   6.267
 6176SOL    HW119427   4.943   4.035   6.339
 6176SOL    HW219428   4.930   3.947   6.203
 6177SOL     OW19429   5.854   1.038   1.129
 6177SOL    HW119430   5.814   1.114   1.180
 6177SOL    HW219431   5.893   0.972   1.194
 6178SOL     OW19432   4.609   4.921   2.600
 6178SOL    HW119433   4.513   4.937   2.625
 6178SOL    HW219434   4.615   4.897   2.503
 6179SOL     OW19435   6.707   4.173   3.173
 6179SOL    HW119436   6.745   4.197   3.262
 6179SOL    HW219437   6.608   4.187   3.175
 6180SOL     OW19438   3.395   4.390   0.082
 6180SOL    HW119439   3.401   4.347   7.017
 6180SOL    HW219440   3.299   4.414   0.101
 6181SOL     OW19441   4.178   6.680   1.020
 6181SOL    HW119442   4.180   6.702   0.922
 6181SOL    HW219443   4.251   6.614   1.041
 6182SOL     OW19444   5.434   3.431   5.373
 6182SOL    HW119445   5.370   3.428   5.295
 6182SOL    HW219446   5.527   3.438   5.338
 6183SOL     OW19447   1.225   2.311   3.126
 6183SOL    HW119448   1.142   2.362   3.147
 6183SOL    HW219449   1.295   2.332   3.195
 6184SOL     OW19450   2.146   6.981   6.635
 6184SOL    HW119451   2.156   0.033   6.572
 6184SOL    HW219452   2.051   6.974   6.664
 6185SOL     OW19453   0.857   3.869   5.703
 6185SOL    HW119454   0.860   3.777   5.742
 6185SOL    HW219455   0.946   3.913   5.714
 6186SOL     OW19456   0.135   0.236   0.036
 6186SOL    HW119457   0.213   0.178   0.012
 6186SOL    HW219458   0.154   0.330   0.008
 6187SOL     OW19459   5.096   4.718   3.562
 6187SOL    HW119460   5.054   4.677   3.481
 6187SOL    HW219461   5.187   4.752   3.539
 6188SOL     OW19462   2.100   0.834   0.587
 6188SOL    HW119463   2.150   0.919   0.573
 6188SOL    HW219464   2.008   0.842   0.548
 6189SOL     OW19465   4.674   4.260   3.169
 6189SOL    HW119466   4.740   4.324   3.208
 6189SOL    HW219467   4.592   4.257   3.226
 6190SOL     OW19468   0.781   3.855   5.440
 6190SOL    HW119469   0.766   3.920   5.366
 6190SOL    HW219470   0.829   3.901   5.515
 6191SOL     OW19471   3.037   1.668   0.139
 6191SOL    HW119472   3.046   1.693   0.235
 6191SOL    HW219473   2.941   1.675   0.111
 6192SOL     OW19474   3.523   2.664   5.583
 6192SOL    HW119475   3.568   2.684   5.496
 6192SOL    HW219476   3.589   2.626   5.647
 6193SOL     OW19477   4.828   0.461   2.105
 6193SOL    HW119478   4.819   0.444   2.007
 6193SOL    HW219479   4.833   0.374   2.154
 6194SOL     OW19480   1.515   0.011   1.688
 6194SOL    HW119481   1.606   0.048   1.671
 6194SOL    HW219482   1.518   6.936   1.683
 6195SOL     OW19483   3.911   6.202   5.693
 6195SOL    HW119484   3.846   6.130   5.669
 6195SOL    HW219485   3.908   6.273   5.623
 6196SOL     OW19486   5.453   3.047   1.600
 6196SOL    HW119487   5.472   3.085   1.690
 6196SOL    HW219488   5.526   3.073   1.536
 6197SOL     OW19489   3.807   4.602   0.867
 6197SOL    HW119490   3.732   4.592   0.802
 6197SOL    HW219491   3.887   4.552   0.834
 6198SOL     OW19492   4.136   6.551   1.842
 6198SOL    HW119493   4.056   6.569   1.900
 6198SOL    HW219494   4.121   6.594   1.752
 6199SOL     OW19495   0.703   1.432   0.241
 6199SOL    HW119496   0.618   1.462   0.285
 6199SOL    HW219497   0.683   1.404   0.147
 6200SOL     OW19498   1.494   1.324   5.847
 6200SOL    HW119499   1.593   1.335   5.843
 6200SOL    HW219500   1.457   1.384   5.918
 6201SOL     OW19501   0.699   4.111   4.613
 6201SOL    HW119502   0.644   4.111   4.530
 6201SOL    HW219503   0.757   4.029   4.615
 6202SOL     OW19504   4.013   1.450   2.341
 6202SOL    HW119505   3.923   1.485   2.364
 6202SOL    HW219506   4.023   1.444   2.242
 6203SOL     OW19507   6.794   5.658   2.420
 6203SOL    HW119508   6.712   5.674   2.475
 6203SOL    HW219509   6.875   5.687   2.471
 6204SOL     OW19510   0.280   4.846   4.357
 6204SOL    HW119511   0.234   4.902   4.426
 6204SOL    HW219512   0.294   4.900   4.274
 6205SOL     OW19513   6.206   5.573   0.063
 6205SOL    HW119514   6.162   5.484   0.049
 6205SOL    HW219515   6.273   5.588   7.016
 6206SOL     OW19516   5.806   1.580   3.439
 6206SOL    HW119517   5.768   1.566   3.347
 6206SOL    HW219518   5.905   1.588   3.433
 6207SOL     OW19519   0.257   4.894   5.140
 6207SOL    HW119520   0.220   4.839   5.216
 6207SOL    HW219521   0.300   4.833   5.074
 6208SOL     OW19522   5.366   2.506   5.724
 6208SOL    HW119523   5.348   2.566   5.646
 6208SOL    HW219524   5.356   2.411   5.696
 6209SOL     OW19525   4.013   5.672   6.566
 6209SOL    HW119526   3.984   5.597   6.626
 6209SOL    HW219527   3.932   5.719   6.531
 6210SOL     OW19528   5.550   3.538   3.860
 6210SOL    HW119529   5.600   3.544   3.774
 6210SOL    HW219530   5.594   3.472   3.920
 6211SOL     OW19531   3.155   6.441   5.641
 6211SOL    HW119532   3.212   6.523   5.639
 6211SOL    HW219533   3.164   6.393   5.554
 6212SOL     OW19534   2.212   4.925   4.382
 6212SOL    HW119535   2.299   4.877   4.398
 6212SOL    HW219536   2.138   4.858   4.379
 6213SOL     OW19537   6.711   0.821   0.422
 6213SOL    HW119538   6.725   0.897   0.485
 6213SOL    HW219539   6.771   0.833   0.343
 6214SOL     OW19540   4.538   5.267   3.999
 6214SOL    HW119541   4.537   5.211   4.082
 6214SOL    HW219542   4.469   5.233   3.935
 6215SOL     OW19543   4.094   2.286   0.159
 6215SOL    HW119544   4.159   2.324   0.225
 6215SOL    HW219545   4.061   2.358   0.099
 6216SOL     OW19546   6.402   1.350   2.207
 6216SOL    HW119547   6.334   1.280   2.226
 6216SOL    HW219548   6.366   1.413   2.139
 6217SOL     OW19549   0.483   3.633   2.662
 6217SOL    HW119550   0.405   3.688   2.693
 6217SOL    HW219551   0.451   3.561   2.601
 6218SOL     OW19552   4.175   6.096   6.683
 6218SOL    HW119553   4.220   6.007   6.674
 6218SOL    HW219554   4.136   6.122   6.595
 6219SOL     OW19555   1.657   2.197   4.632
 6219SOL    HW119556   1.680   2.243   4.718
 6219SOL    HW219557   1.741   2.172   4.584
 6220SOL     OW19558   2.579   1.641   4.587
 6220SOL    HW119559   2.499   1.581   4.585
 6220SOL    HW219560   2.635   1.626   4.506
 6221SOL     OW19561   5.574   6.034   0.060
 6221SOL    HW119562   5.521   6.093   0.122
 6221SOL    HW219563   5.672   6.052   0.073
 6222SOL     OW19564   1.138   6.260   1.622
 6222SOL    HW119565   1.050   6.248   1.576
 6222SOL    HW219566   1.211   6.262   1.554
 6223SOL     OW19567   1.367   4.834   3.931
 6223SOL    HW119568   1.405   4.751   3.972
 6223SOL    HW219569   1.272   4.820   3.907
 6224SOL     OW19570   3.112   1.566   6.012
 6224SOL    HW119571   3.208   1.537   6.016
 6224SOL    HW219572   3.053   1.486   6.018
 6225SOL     OW19573   4.122   3.447   6.644
 6225SOL    HW119574   4.141   3.391   6.724
 6225SOL    HW219575   4.207   3.466   6.595
 6226SOL     OW19576   0.333   1.976   5.653
 6226SOL    HW119577   0.312   2.046   5.586
 6226SOL    HW219578   0.415   1.926   5.626
 6227SOL     OW19579   3.145   5.523   5.146
 6227SOL    HW119580   3.166   5.597   5.082
 6227SOL    HW219581   3.064   5.474   5.116
 6228SOL     OW19582   1.273   3.419   2.516
 6228SOL    HW119583   1.214   3.372   2.582
 6228SOL    HW219584   1.242   3.513   2.504
 6229SOL     OW19585   0.789   1.849   3.708
 6229SOL    HW119586   0.848   1.913   3.659
 6229SOL    HW219587   0.805   1.756   3.675
 6230SOL     OW19588   0.546   1.835   3.299
 6230SOL    HW119589   0.534   1.875   3.390
 6230SOL    HW219590   0.465   1.855   3.243
 6231SOL     OW19591   6.149   6.465   0.525
 6231SOL    HW119592   6.167   6.550   0.573
 6231SOL    HW219593   6.054   6.438   0.538
 6232SOL     OW19594   6.747   1.229   0.888
 6232SOL    HW119595   6.727   1.197   0.981
 6232SOL    HW219596   6.680   1.298   0.862
 6233SOL     OW19597   6.668   2.029   1.035
 6233SOL    HW119598   6.642   2.104   0.975
 6233SOL    HW219599   6.665   1.943   0.984
 6234SOL     OW19600   6.706   0.984   5.582
 6234SOL    HW119601   6.677   0.905   5.638
 6234SOL    HW219602   6.721   1.063   5.641
 6235SOL     OW19603   0.129   0.195   1.036
 6235SOL    HW119604   0.135   0.100   1.007
 6235SOL    HW219605   0.164   0.203   1.130
 6236SOL     OW19606   0.699   3.969   0.958
 6236SOL    HW119607   0.707   3.892   1.022
 6236SOL    HW219608   0.782   4.025   0.963
 6237SOL     OW19609   3.999   0.477   6.142
 6237SOL    HW119610   3.937   0.422   6.086
 6237SOL    HW219611   3.958   0.492   6.232
 6238SOL     OW19612   4.135   5.272   2.728
 6238SOL    HW119613   4.117   5.252   2.632
 6238SOL    HW219614   4.089   5.357   2.754
 6239SOL     OW19615   3.062   0.976   1.305
 6239SOL    HW119616   3.120   0.898   1.279
 6239SOL    HW219617   3.078   1.052   1.242
 6240SOL     OW19618   2.232   3.780   5.611
 6240SOL    HW119619   2.210   3.686   5.586
 6240SOL    HW219620   2.313   3.810   5.559
 6241SOL     OW19621   3.075   0.048   1.548
 6241SOL    HW119622   3.045   6.978   1.542
 6241SOL    HW219623   3.054   0.083   1.639
 6242SOL     OW19624   3.961   0.412   4.062
 6242SOL    HW119625   3.930   0.505   4.041
 6242SOL    HW219626   3.882   0.351   4.065
 6243SOL     OW19627   6.539   6.984   5.257
 6243SOL    HW119628   6.465   6.964   5.193
 6243SOL    HW219629   6.627   6.984   5.209
 6244SOL     OW19630   6.029   2.570   2.753
 6244SOL    HW119631   5.986   2.537   2.669
 6244SOL    HW219632   6.111   2.517   2.772
 6245SOL     OW19633   1.518   3.692   0.214
 6245SOL    HW119634   1.474   3.781   0.202
 6245SOL    HW219635   1.467   3.622   0.164
 6246SOL     OW19636   1.420   2.304   5.890
 6246SOL    HW119637   1.393   2.379   5.830
 6246SOL    HW219638   1.509   2.323   5.930
 6247SOL     OW19639   0.384   5.444   4.320
 6247SOL    HW119640   0.466   5.415   4.369
 6247SOL    HW219641   0.360   5.374   4.252
 6248SOL     OW19642   3.459   3.267   6.962
 6248SOL    HW119643   3.415   3.320   0.009
 6248SOL    HW219644   3.465   3.171   6.991
 6249SOL     OW19645   6.967   4.151   0.623
 6249SOL    HW119646   0.018   4.138   0.685
 6249SOL    HW219647   6.991   4.118   0.532
 6250SOL     OW19648   6.542   0.643   0.290
 6250SOL    HW119649   6.583   0.710   0.352
 6250SOL    HW219650   6.613   0.582   0.255
 6251SOL     OW19651   3.999   6.003   5.986
 6251SOL    HW119652   3.922   6.067   5.984
 6251SOL    HW219653   4.069   6.038   6.049
 6252SOL     OW19654   2.266   5.994   5.385
 6252SOL    HW119655   2.328   6.062   5.425
 6252SOL    HW219656   2.225   5.940   5.457
 6253SOL     OW19657   2.393   5.096   3.974
 6253SOL    HW119658   2.375   5.126   4.068
 6253SOL    HW219659   2.438   5.169   3.923
 6254SOL     OW19660   5.449   1.229   1.664
 6254SOL    HW119661   5.502   1.293   1.608
 6254SOL    HW219662   5.393   1.171   1.605
 6255SOL     OW19663   2.925   0.669   0.549
 6255SOL    HW119664   3.021   0.663   0.522
 6255SOL    HW219665   2.895   0.764   0.544
 6256SOL     OW19666   3.713   5.227   1.412
 6256SOL    HW119667   3.744   5.195   1.502
 6256SOL    HW219668   3.696   5.149   1.352
 6257SOL     OW19669   5.067   1.980   1.091
 6257SOL    HW119670   5.057   2.046   1.017
 6257SOL    HW219671   5.003   2.002   1.165
 6258SOL     OW19672   3.312   0.803   3.606
 6258SOL    HW119673   3.251   0.870   3.563
 6258SOL    HW219674   3.357   0.749   3.535
 6259SOL     OW19675   1.668   2.668   6.822
 6259SOL    HW119676   1.767   2.655   6.831
 6259SOL    HW219677   1.631   2.703   6.908
 6260SOL     OW19678   3.671   5.846   0.371
 6260SOL    HW119679   3.738   5.920   0.360
 6260SOL    HW219680   3.585   5.883   0.404
 6261SOL     OW19681   3.712   1.392   0.076
 6261SOL    HW119682   3.663   1.402   0.163
 6261SOL    HW219683   3.676   1.314   0.026
 6262SOL     OW19684   2.493   6.201   1.971
 6262SOL    HW119685   2.562   6.252   1.918
 6262SOL    HW219686   2.492   6.235   2.065
 6263SOL     OW19687   6.967   0.401   4.366
 6263SOL    HW119688   7.017   0.441   4.443
 6263SOL    HW219689   0.006   0.361   4.301
 6264SOL     OW19690   1.683   0.139   1.982
 6264SOL    HW119691   1.743   0.079   1.928
 6264SOL    HW219692   1.739   0.198   2.041
 6265SOL     OW19693   3.620   3.490   0.602
 6265SOL    HW119694   3.525   3.470   0.625
 6265SOL    HW219695   3.678   3.413   0.630
 6266SOL     OW19696   3.870   0.664   4.008
 6266SOL    HW119697   3.789   0.643   3.953
 6266SOL    HW219698   3.912   0.749   3.974
 6267SOL     OW19699   2.336   0.118   5.770
 6267SOL    HW119700   2.325   0.053   5.845
 6267SOL    HW219701   2.250   0.124   5.719
 6268SOL     OW19702   2.743   0.288   3.361
 6268SOL    HW119703   2.790   0.347   3.427
 6268SOL    HW219704   2.679   0.342   3.307
 6269SOL     OW19705   0.361   6.634   1.946
 6269SOL    HW119706   0.264   6.613   1.944
 6269SOL    HW219707   0.376   6.729   1.918
 6270SOL     OW19708   1.368   0.392   6.177
 6270SOL    HW119709   1.448   0.340   6.148
 6270SOL    HW219710   1.365   0.398   6.276
 6271SOL     OW19711   6.196   2.450   6.249
 6271SOL    HW119712   6.153   2.457   6.159
 6271SOL    HW219713   6.247   2.534   6.268
 6272SOL     OW19714   0.733   2.889   0.105
 6272SOL    HW119715   0.758   2.817   0.039
 6272SOL    HW219716   0.811   2.950   0.119
 6273SOL     OW19717   0.864   6.470   2.676
 6273SOL    HW119718   0.853   6.393   2.613
 6273SOL    HW219719   0.779   6.524   2.677
 6274SOL     OW19720   3.582   6.361   5.736
 6274SOL    HW119721   3.629   6.318   5.658
 6274SOL    HW219722   3.503   6.305   5.762
 6275SOL     OW19723   2.264   6.654   6.235
 6275SOL    HW119724   2.293   6.746   6.262
 6275SOL    HW219725   2.304   6.587   6.297
 6276SOL     OW19726   1.995   4.444   3.777
 6276SOL    HW119727   1.917   4.386   3.801
 6276SOL    HW219728   1.963   4.521   3.722
 6277SOL     OW19729   4.873   3.044   0.984
 6277SOL    HW119730   4.873   3.109   0.908
 6277SOL    HW219731   4.945   3.069   1.049
 6278SOL     OW19732   5.399   6.582   4.537
 6278SOL    HW119733   5.343   6.587   4.454
 6278SOL    HW219734   5.418   6.487   4.559
 6279SOL     OW19735   3.919   6.661   6.867
 6279SOL    HW119736   3.982   6.666   6.789
 6279SOL    HW219737   3.829   6.633   6.835
 6280SOL     OW19738   1.160   1.652   5.501
 6280SOL    HW119739   1.237   1.625   5.558
 6280SOL    HW219740   1.192   1.669   5.407
 6281SOL     OW19741   0.311   4.973   4.117
 6281SOL    HW119742   0.289   5.069   4.104
 6281SOL    HW219743   0.241   4.916   4.074
 6282SOL     OW19744   7.014   5.364   6.049
 6282SOL    HW119745   6.919   5.381   6.023
 6282SOL    HW219746   0.000   5.269   6.075
 6283SOL     OW19747   6.953   3.398   5.089
 6283SOL    HW119748   6.995   3.421   5.001
 6283SOL    HW219749   6.854   3.398   5.080
 6284SOL     OW19750   1.042   5.255   4.799
 6284SOL    HW119751   1.125   5.300   4.767
 6284SOL    HW219752   0.989   5.319   4.856
 6285SOL     OW19753   0.149   3.416   4.424
 6285SOL    HW119754   0.182   3.330   4.466
 6285SOL    HW219755   0.126   3.481   4.496
 6286SOL     OW19756   6.065   1.896   4.314
 6286SOL    HW119757   6.039   1.992   4.323
 6286SOL    HW219758   6.089   1.878   4.218
 6287SOL     OW19759   3.309   4.928   5.012
 6287SOL    HW119760   3.223   4.905   5.058
 6287SOL    HW219761   3.370   4.849   5.017
 6288SOL     OW19762   5.365   4.469   2.152
 6288SOL    HW119763   5.355   4.378   2.111
 6288SOL    HW219764   5.317   4.536   2.096
 6289SOL     OW19765   2.259   4.922   0.428
 6289SOL    HW119766   2.240   4.824   0.418
 6289SOL    HW219767   2.342   4.945   0.377
 6290SOL     OW19768   6.452   5.270   5.873
 6290SOL    HW119769   6.544   5.275   5.835
 6290SOL    HW219770   6.442   5.340   5.944
 6291SOL     OW19771   4.149   3.522   4.073
 6291SOL    HW119772   4.059   3.550   4.040
 6291SOL    HW219773   4.220   3.573   4.024
 6292SOL     OW19774   1.559   1.990   4.454
 6292SOL    HW119775   1.565   2.085   4.485
 6292SOL    HW219776   1.630   1.974   4.385
 6293SOL     OW19777   4.618   1.238   0.953
 6293SOL    HW119778   4.630   1.139   0.952
 6293SOL    HW219779   4.550   1.263   1.023
 6294SOL     OW19780   3.624   6.439   4.084
 6294SOL    HW119781   3.619   6.520   4.026
 6294SOL    HW219782   3.561   6.370   4.050
 6295SOL     OW19783   5.839   4.669   5.291
 6295SOL    HW119784   5.917   4.615   5.324
 6295SOL    HW219785   5.811   4.733   5.363
 6296SOL     OW19786   0.504   6.153   6.072
 6296SOL    HW119787   0.430   6.163   6.138
 6296SOL    HW219788   0.550   6.241   6.058
 6297SOL     OW19789   5.477   0.826   4.910
 6297SOL    HW119790   5.560   0.866   4.871
 6297SOL    HW219791   5.484   0.823   5.010
 6298SOL     OW19792   1.648   3.556   6.946
 6298SOL    HW119793   1.709   3.611   7.004
 6298SOL    HW219794   1.629   3.606   6.862
 6299SOL     OW19795   6.180   1.773   1.257
 6299SOL    HW119796   6.093   1.728   1.238
 6299SOL    HW219797   6.167   1.872   1.261
 6300SOL     OW19798   6.570   1.318   0.041
 6300SOL    HW119799   6.511   1.303   6.986
 6300SOL    HW219800   6.538   1.399   0.090
 6301SOL     OW19801   4.111   0.191   0.249
 6301SOL    HW119802   4.116   0.217   0.152
 6301SOL    HW219803   4.202   0.191   0.289
 6302SOL     OW19804   1.266   0.391   3.411
 6302SOL    HW119805   1.285   0.445   3.330
 6302SOL    HW219806   1.337   0.407   3.480
 6303SOL     OW19807   1.522   0.907   3.842
 6303SOL    HW119808   1.598   0.971   3.831
 6303SOL    HW219809   1.552   0.827   3.894
 6304SOL     OW19810   2.323   1.314   1.193
 6304SOL    HW119811   2.393   1.260   1.146
 6304SOL    HW219812   2.247   1.254   1.218
 6305SOL     OW19813   6.251   6.664   0.695
 6305SOL    HW119814   6.287   6.755   0.711
 6305SOL    HW219815   6.250   6.612   0.781
 6306SOL     OW19816   0.446   4.185   4.463
 6306SOL    HW119817   0.466   4.102   4.412
 6306SOL    HW219818   0.445   4.263   4.400
 6307SOL     OW19819   3.742   4.179   4.881
 6307SOL    HW119820   3.837   4.151   4.868
 6307SOL    HW219821   3.734   4.278   4.869
 6308SOL     OW19822   2.166   2.131   4.533
 6308SOL    HW119823   2.184   2.216   4.482
 6308SOL    HW219824   2.171   2.150   4.631
 6309SOL     OW19825   6.022   4.899   5.156
 6309SOL    HW119826   5.943   4.839   5.166
 6309SOL    HW219827   6.069   4.907   5.244
 6310SOL     OW19828   2.274   5.705   2.701
 6310SOL    HW119829   2.219   5.690   2.784
 6310SOL    HW219830   2.222   5.762   2.637
 6311SOL     OW19831   5.147   1.430   5.482
 6311SOL    HW119832   5.202   1.351   5.454
 6311SOL    HW219833   5.150   1.440   5.581
 6312SOL     OW19834   6.845   6.799   5.435
 6312SOL    HW119835   6.845   6.897   5.451
 6312SOL    HW219836   6.751   6.766   5.426
 6313SOL     OW19837   6.610   5.943   4.200
 6313SOL    HW119838   6.593   5.859   4.252
 6313SOL    HW219839   6.533   6.006   4.214
 6314SOL     OW19840   3.920   6.968   1.545
 6314SOL    HW119841   3.831   7.001   1.514
 6314SOL    HW219842   3.920   6.956   1.644
 6315SOL     OW19843   2.189   2.706   5.454
 6315SOL    HW119844   2.210   2.635   5.521
 6315SOL    HW219845   2.275   2.749   5.424
 6316SOL     OW19846   5.170   2.036   6.756
 6316SOL    HW119847   5.249   1.979   6.733
 6316SOL    HW219848   5.098   2.022   6.688
 6317SOL     OW19849   4.529   5.133   1.349
 6317SOL    HW119850   4.506   5.036   1.357
 6317SOL    HW219851   4.594   5.146   1.274
 6318SOL     OW19852   3.900   0.017   5.967
 6318SOL    HW119853   3.982   0.008   6.024
 6318SOL    HW219854   3.909   6.984   5.886
 6319SOL     OW19855   6.659   1.759   4.943
 6319SOL    HW119856   6.748   1.782   4.981
 6319SOL    HW219857   6.633   1.827   4.874
 6320SOL     OW19858   6.519   6.358   5.145
 6320SOL    HW119859   6.470   6.282   5.188
 6320SOL    HW219860   6.493   6.364   5.049
 6321SOL     OW19861   3.830   4.047   0.780
 6321SOL    HW119862   3.907   4.071   0.839
 6321SOL    HW219863   3.846   3.958   0.738
 6322SOL     OW19864   2.093   2.918   0.681
 6322SOL    HW119865   2.108   2.888   0.587
 6322SOL    HW219866   2.120   2.844   0.744
 6323SOL     OW19867   2.373   2.322   1.496
 6323SOL    HW119868   2.405   2.228   1.501
 6323SOL    HW219869   2.342   2.343   1.403
 6324SOL     OW19870   4.887   1.115   0.802
 6324SOL    HW119871   4.972   1.072   0.771
 6324SOL    HW219872   4.900   1.153   0.894
 6325SOL     OW19873   1.908   2.984   2.632
 6325SOL    HW119874   1.988   3.036   2.602
 6325SOL    HW219875   1.877   2.925   2.557
 6326SOL     OW19876   5.199   4.839   1.606
 6326SOL    HW119877   5.144   4.922   1.595
 6326SOL    HW219878   5.138   4.762   1.625
 6327SOL     OW19879   0.768   1.115   4.977
 6327SOL    HW119880   0.678   1.159   4.984
 6327SOL    HW219881   0.838   1.179   5.010
 6328SOL     OW19882   3.378   3.482   0.322
 6328SOL    HW119883   3.316   3.558   0.337
 6328SOL    HW219884   3.382   3.460   0.225
 6329SOL     OW19885   1.529   2.651   3.038
 6329SOL    HW119886   1.461   2.629   2.968
 6329SOL    HW219887   1.509   2.741   3.077
 6330SOL     OW19888   5.782   0.105   1.539
 6330SOL    HW119889   5.789   0.030   1.604
 6330SOL    HW219890   5.730   0.075   1.459
 6331SOL     OW19891   6.085   2.361   5.379
 6331SOL    HW119892   6.070   2.460   5.384
 6331SOL    HW219893   6.180   2.340   5.402
 6332SOL     OW19894   0.255   2.964   0.897
 6332SOL    HW119895   0.252   2.872   0.858
 6332SOL    HW219896   0.162   2.995   0.917
 6333SOL     OW19897   4.794   6.195   5.116
 6333SOL    HW119898   4.864   6.253   5.074
 6333SOL    HW219899   4.772   6.120   5.053
 6334SOL     OW19900   2.482   1.243   2.485
 6334SOL    HW119901   2.472   1.321   2.547
 6334SOL    HW219902   2.394   1.221   2.444
 6335SOL     OW19903   4.430   0.841   0.648
 6335SOL    HW119904   4.459   0.757   0.695
 6335SOL    HW219905   4.509   0.902   0.639
 6336SOL     OW19906   1.106   2.699   6.575
 6336SOL    HW119907   1.042   2.702   6.652
 6336SOL    HW219908   1.133   2.793   6.551
 6337SOL     OW19909   4.976   4.669   5.020
 6337SOL    HW119910   4.913   4.735   4.979
 6337SOL    HW219911   4.950   4.577   4.992
 6338SOL     OW19912   3.426   2.034   3.986
 6338SOL    HW119913   3.452   1.975   4.062
 6338SOL    HW219914   3.336   2.073   4.004
 6339SOL     OW19915   0.605   3.957   3.343
 6339SOL    HW119916   0.583   4.051   3.316
 6339SOL    HW219917   0.700   3.937   3.322
 6340SOL     OW19918   1.633   5.367   1.681
 6340SOL    HW119919   1.573   5.292   1.656
 6340SOL    HW219920   1.582   5.453   1.680
 6341SOL     OW19921   6.901   3.986   4.566
 6341SOL    HW119922   6.802   3.972   4.577
 6341SOL    HW219923   6.927   4.073   4.609
 6342SOL     OW19924   2.353   0.953   2.040
 6342SOL    HW119925   2.437   0.994   2.076
 6342SOL    HW219926   2.368   0.855   2.026
 6343SOL     OW19927   4.672   1.540   6.304
 6343SOL    HW119928   4.671   1.472   6.230
 6343SOL    HW219929   4.765   1.573   6.318
 6344SOL     OW19930   5.198   2.199   4.596
 6344SOL    HW119931   5.156   2.126   4.650
 6344SOL    HW219932   5.275   2.238   4.647
 6345SOL     OW19933   5.982   3.141   2.644
 6345SOL    HW119934   6.071   3.095   2.645
 6345SOL    HW219935   5.910   3.074   2.658
 6346SOL     OW19936   6.757   5.465   4.202
 6346SOL    HW119937   6.798   5.539   4.256
 6346SOL    HW219938   6.657   5.469   4.210
 6347SOL     OW19939   1.868   0.906   1.095
 6347SOL    HW119940   1.859   0.994   1.048
 6347SOL    HW219941   1.964   0.883   1.105
 6348SOL     OW19942   1.438   2.893   6.204
 6348SOL    HW119943   1.439   2.810   6.261
 6348SOL    HW219944   1.528   2.937   6.209
 6349SOL     OW19945   2.111   0.708   1.430
 6349SOL    HW119946   2.134   0.613   1.447
 6349SOL    HW219947   2.078   0.750   1.515
 6350SOL     OW19948   0.563   5.221   4.079
 6350SOL    HW119949   0.638   5.258   4.025
 6350SOL    HW219950   0.574   5.248   4.175
 6351SOL     OW19951   6.174   3.363   3.710
 6351SOL    HW119952   6.180   3.275   3.664
 6351SOL    HW219953   6.261   3.412   3.699
 6352SOL     OW19954   3.394   6.712   4.773
 6352SOL    HW119955   3.346   6.799   4.759
 6352SOL    HW219956   3.454   6.694   4.695
 6353SOL     OW19957   1.363   0.018   5.925
 6353SOL    HW119958   1.439   7.005   5.873
 6353SOL    HW219959   1.296   0.058   5.862
 6354SOL     OW19960   2.582   5.114   3.058
 6354SOL    HW119961   2.659   5.121   3.123
 6354SOL    HW219962   2.496   5.121   3.108
 6355SOL     OW19963   1.368   5.047   6.797
 6355SOL    HW119964   1.406   5.138   6.785
 6355SOL    HW219965   1.388   5.014   6.889
 6356SOL     OW19966   4.822   5.968   1.878
 6356SOL    HW119967   4.883   5.979   1.800
 6356SOL    HW219968   4.864   6.007   1.960
 6357SOL     OW19969   6.437   3.738   2.798
 6357SOL    HW119970   6.356   3.788   2.768
 6357SOL    HW219971   6.519   3.786   2.765
 6358SOL     OW19972   0.555   2.204   6.809
 6358SOL    HW119973   0.465   2.185   6.769
 6358SOL    HW219974   0.595   2.118   6.842
 6359SOL     OW19975   6.292   0.560   0.386
 6359SOL    HW119976   6.273   0.589   0.480
 6359SOL    HW219977   6.375   0.605   0.354
 6360SOL     OW19978   1.376   4.213   4.423
 6360SOL    HW119979   1.340   4.187   4.334
 6360SOL    HW219980   1.344   4.148   4.492
 6361SOL     OW19981   1.200   6.600   0.865
 6361SOL    HW119982   1.117   6.580   0.813
 6361SOL    HW219983   1.248   6.677   0.823
 6362SOL     OW19984   0.321   6.096   0.208
 6362SOL    HW119985   0.348   6.001   0.199
 6362SOL    HW219986   0.258   6.106   0.285
 6363SOL     OW19987   2.074   5.333   3.759
 6363SOL    HW119988   2.136   5.270   3.712
 6363SOL    HW219989   2.008   5.370   3.694
 6364SOL     OW19990   2.517   1.955   5.400
 6364SOL    HW119991   2.420   1.977   5.395
 6364SOL    HW219992   2.571   2.040   5.397
 6365SOL     OW19993   5.523   0.037   4.238
 6365SOL    HW119994   5.604   7.010   4.213
 6365SOL    HW219995   5.551   0.127   4.274
 6366SOL     OW19996   0.940   5.882   5.382
 6366SOL    HW119997   1.006   5.810   5.402
 6366SOL    HW219998   0.859   5.870   5.439
 6367SOL     OW19999   3.954   1.424   4.760
 6367SOL    HW120000   3.939   1.514   4.802
 6367SOL    HW220001   3.951   1.433   4.660
 6368SOL     OW20002   3.538   5.081   3.489
 6368SOL    HW120003   3.442   5.060   3.503
 6368SOL    HW220004   3.554   5.179   3.505
 6369SOL     OW20005   2.595   6.490   4.345
 6369SOL    HW120006   2.636   6.410   4.302
 6369SOL    HW220007   2.617   6.571   4.291
 6370SOL     OW20008   0.262   3.090   3.743
 6370SOL    HW120009   0.341   3.150   3.752
 6370SOL    HW220010   0.185   3.127   3.795
 6371SOL     OW20011   4.828   4.576   3.053
 6371SOL    HW120012   4.756   4.539   2.994
 6371SOL    HW220013   4.902   4.611   2.996
 6372SOL     OW20014   1.411   1.003   1.522
 6372SOL    HW120015   1.337   0.939   1.499
 6372SOL    HW220016   1.401   1.085   1.466
 6373SOL     OW20017   4.712   4.206   2.396
 6373SOL    HW120018   4.727   4.157   2.482
 6373SOL    HW220019   4.765   4.163   2.323
 6374SOL     OW20020   4.138   3.723   3.021
 6374SOL    HW120021   4.185   3.733   2.933
 6374SOL    HW220022   4.098   3.810   3.048
 6375SOL     OW20023   0.039   1.707   3.135
 6375SOL    HW120024   6.995   1.731   3.068
 6375SOL    HW220025   7.023   1.652   3.208
 6376SOL     OW20026   5.375   2.714   5.129
 6376SOL    HW120027   5.446   2.784   5.118
 6376SOL    HW220028   5.311   2.720   5.052
 6377SOL     OW20029   0.340   1.564   5.198
 6377SOL    HW120030   0.349   1.558   5.297
 6377SOL    HW220031   0.275   1.494   5.166
 6378SOL     OW20032   4.438   4.632   3.782
 6378SOL    HW120033   4.448   4.535   3.801
 6378SOL    HW220034   4.514   4.682   3.824
 6379SOL     OW20035   1.481   4.160   4.758
 6379SOL    HW120036   1.551   4.090   4.742
 6379SOL    HW220037   1.508   4.245   4.712
 6380SOL     OW20038   0.610   1.763   5.066
 6380SOL    HW120039   0.638   1.741   5.159
 6380SOL    HW220040   0.669   1.716   5.000
 6381SOL     OW20041   3.990   2.949   1.813
 6381SOL    HW120042   3.955   2.941   1.906
 6381SOL    HW220043   3.986   2.860   1.768
 6382SOL     OW20044   2.649   1.768   0.741
 6382SOL    HW120045   2.603   1.845   0.785
 6382SOL    HW220046   2.597   1.741   0.660
 6383SOL     OW20047   1.987   2.527   2.946
 6383SOL    HW120048   1.937   2.441   2.958
 6383SOL    HW220049   1.942   2.599   2.998
 6384SOL     OW20050   6.005   3.950   3.203
 6384SOL    HW120051   5.949   4.013   3.149
 6384SOL    HW220052   6.082   3.918   3.147
 6385SOL     OW20053   0.037   3.880   3.342
 6385SOL    HW120054   7.000   3.803   3.327
 6385SOL    HW220055   0.013   3.925   3.427
 6386SOL     OW20056   1.774   4.130   6.085
 6386SOL    HW120057   1.852   4.083   6.043
 6386SOL    HW220058   1.694   4.071   6.081
 6387SOL     OW20059   6.621   1.615   6.282
 6387SOL    HW120060   6.636   1.546   6.211
 6387SOL    HW220061   6.649   1.578   6.371
 6388SOL     OW20062   3.919   6.596   2.014
 6388SOL    HW120063   3.932   6.677   2.072
 6388SOL    HW220064   3.831   6.604   1.967
 6389SOL     OW20065   6.963   5.314   2.141
 6389SOL    HW120066   7.024   5.237   2.119
 6389SOL    HW220067   6.928   5.304   2.234
 6390SOL     OW20068   0.476   0.864   5.942
 6390SOL    HW120069   0.416   0.784   5.950
 6390SOL    HW220070   0.430   0.935   5.890
 6391SOL     OW20071   2.656   0.279   5.867
 6391SOL    HW120072   2.650   0.321   5.958
 6391SOL    HW220073   2.574   0.300   5.815
 6392SOL     OW20074   2.946   5.782   2.748
 6392SOL    HW120075   2.873   5.763   2.814
 6392SOL    HW220076   3.000   5.860   2.780
 6393SOL     OW20077   6.920   6.326   1.793
 6393SOL    HW120078   6.940   6.329   1.891
 6393SOL    HW220079   6.983   6.262   1.748
 6394SOL     OW20080   2.619   5.262   0.789
 6394SOL    HW120081   2.677   5.288   0.711
 6394SOL    HW220082   2.534   5.314   0.785
 6395SOL     OW20083   0.298   2.654   1.543
 6395SOL    HW120084   0.354   2.636   1.463
 6395SOL    HW220085   0.208   2.611   1.531
 6396SOL     OW20086   5.478   3.439   6.719
 6396SOL    HW120087   5.383   3.447   6.686
 6396SOL    HW220088   5.537   3.495   6.661
 6397SOL     OW20089   6.013   1.442   1.404
 6397SOL    HW120090   5.958   1.381   1.462
 6397SOL    HW220091   5.964   1.458   1.318
 6398SOL     OW20092   2.641   6.821   1.690
 6398SOL    HW120093   2.717   6.774   1.735
 6398SOL    HW220094   2.648   6.807   1.591
 6399SOL     OW20095   1.812   6.774   6.481
 6399SOL    HW120096   1.754   6.701   6.442
 6399SOL    HW220097   1.885   6.795   6.417
 6400SOL     OW20098   2.956   5.518   1.940
 6400SOL    HW120099   2.885   5.451   1.921
 6400SOL    HW220100   2.937   5.563   2.028
 6401SOL     OW20101   5.397   5.984   3.627
 6401SOL    HW120102   5.457   5.948   3.556
 6401SOL    HW220103   5.405   5.927   3.709
 6402SOL     OW20104   2.720   2.346   3.057
 6402SOL    HW120105   2.730   2.339   3.156
 6402SOL    HW220106   2.655   2.419   3.035
 6403SOL     OW20107   6.946   5.504   6.333
 6403SOL    HW120108   0.018   5.484   6.329
 6403SOL    HW220109   6.923   5.572   6.264
 6404SOL     OW20110   4.238   0.684   2.478
 6404SOL    HW120111   4.234   0.737   2.563
 6404SOL    HW220112   4.149   0.641   2.462
 6405SOL     OW20113   3.408   0.013   4.037
 6405SOL    HW120114   3.330   6.977   4.041
 6405SOL    HW220115   3.457   7.025   3.951
 6406SOL     OW20116   1.047   2.806   2.783
 6406SOL    HW120117   1.050   2.711   2.816
 6406SOL    HW220118   1.087   2.810   2.692
 6407SOL     OW20119   2.688   6.800   3.839
 6407SOL    HW120120   2.689   6.702   3.817
 6407SOL    HW220121   2.639   6.814   3.925
 6408SOL     OW20122   5.568   1.096   0.725
 6408SOL    HW120123   5.520   1.183   0.720
 6408SOL    HW220124   5.638   1.100   0.796
 6409SOL     OW20125   6.541   4.491   3.322
 6409SOL    HW120126   6.535   4.551   3.402
 6409SOL    HW220127   6.632   4.498   3.282
 6410SOL     OW20128   1.907   1.228   6.732
 6410SOL    HW120129   1.909   1.253   6.829
 6410SOL    HW220130   1.814   1.238   6.697
 6411SOL     OW20131   0.881   3.330   3.205
 6411SOL    HW120132   0.932   3.383   3.138
 6411SOL    HW220133   0.783   3.337   3.186
 6412SOL     OW20134   1.167   1.808   4.703
 6412SOL    HW120135   1.151   1.905   4.684
 6412SOL    HW220136   1.240   1.775   4.642
 6413SOL     OW20137   3.830   4.991   3.534
 6413SOL    HW120138   3.788   5.076   3.504
 6413SOL    HW220139   3.888   4.955   3.461
 6414SOL     OW20140   5.710   0.822   6.967
 6414SOL    HW120141   5.622   0.801   7.009
 6414SOL    HW220142   5.772   0.858   0.010
 6415SOL     OW20143   1.946   3.401   2.955
 6415SOL    HW120144   1.994   3.334   2.898
 6415SOL    HW220145   1.850   3.376   2.963
 6416SOL     OW20146   0.982   1.016   6.659
 6416SOL    HW120147   0.883   1.005   6.650
 6416SOL    HW220148   1.007   1.011   6.756
 6417SOL     OW20149   5.749   5.161   0.611
 6417SOL    HW120150   5.799   5.110   0.541
 6417SOL    HW220151   5.769   5.122   0.701
 6418SOL     OW20152   4.889   3.838   1.951
 6418SOL    HW120153   4.812   3.831   1.887
 6418SOL    HW220154   4.973   3.812   1.904
 6419SOL     OW20155   1.512   4.668   3.405
 6419SOL    HW120156   1.471   4.739   3.461
 6419SOL    HW220157   1.498   4.579   3.448
 6420SOL     OW20158   2.583   5.951   4.292
 6420SOL    HW120159   2.644   6.017   4.247
 6420SOL    HW220160   2.500   5.940   4.236
 6421SOL     OW20161   5.021   0.193   3.194
 6421SOL    HW120162   4.966   0.189   3.111
 6421SOL    HW220163   4.965   0.227   3.270
 6422SOL     OW20164   0.196   0.892   4.684
 6422SOL    HW120165   0.157   0.983   4.671
 6422SOL    HW220166   0.196   0.843   4.597
 6423SOL     OW20167   5.152   5.108   3.251
 6423SOL    HW120168   5.077   5.142   3.307
 6423SOL    HW220169   5.221   5.179   3.241
 6424SOL     OW20170   0.413   5.105   5.979
 6424SOL    HW120171   0.425   5.148   5.890
 6424SOL    HW220172   0.321   5.065   5.985
 6425SOL     OW20173   6.517   6.095   3.237
 6425SOL    HW120174   6.560   6.125   3.152
 6425SOL    HW220175   6.425   6.135   3.244
 6426SOL     OW20176   1.442   5.250   3.288
 6426SOL    HW120177   1.458   5.320   3.218
 6426SOL    HW220178   1.417   5.164   3.244
 6427SOL     OW20179   3.460   4.167   4.549
 6427SOL    HW120180   3.395   4.185   4.622
 6427SOL    HW220181   3.553   4.177   4.583
 6428SOL     OW20182   5.963   3.605   5.835
 6428SOL    HW120183   5.868   3.574   5.839
 6428SOL    HW220184   5.968   3.701   5.863
 6429SOL     OW20185   1.320   2.097   5.742
 6429SOL    HW120186   1.262   2.122   5.665
 6429SOL    HW220187   1.345   2.179   5.793
 6430SOL     OW20188   5.912   1.009   3.405
 6430SOL    HW120189   5.969   0.988   3.326
 6430SOL    HW220190   5.943   1.094   3.447
 6431SOL     OW20191   4.917   6.992   4.161
 6431SOL    HW120192   4.973   0.006   4.233
 6431SOL    HW220193   4.953   7.020   4.072
 6432SOL     OW20194   4.543   4.430   5.598
 6432SOL    HW120195   4.557   4.341   5.642
 6432SOL    HW220196   4.499   4.492   5.662
 6433SOL     OW20197   1.414   5.547   5.916
 6433SOL    HW120198   1.460   5.481   5.975
 6433SOL    HW220199   1.416   5.637   5.959
 6434SOL     OW20200   2.474   5.412   6.365
 6434SOL    HW120201   2.528   5.328   6.359
 6434SOL    HW220202   2.377   5.389   6.367
 6435SOL     OW20203   4.838   6.627   0.910
 6435SOL    HW120204   4.906   6.600   0.843
 6435SOL    HW220205   4.839   6.727   0.921
 6436SOL     OW20206   1.233   3.033   2.957
 6436SOL    HW120207   1.237   2.991   2.866
 6436SOL    HW220208   1.141   3.023   2.995
 6437SOL     OW20209   2.364   1.228   0.417
 6437SOL    HW120210   2.329   1.150   0.468
 6437SOL    HW220211   2.462   1.238   0.434
 6438SOL     OW20212   6.173   4.388   5.546
 6438SOL    HW120213   6.134   4.475   5.515
 6438SOL    HW220214   6.161   4.320   5.474
 6439SOL     OW20215   5.634   1.147   1.887
 6439SOL    HW120216   5.567   1.175   1.818
 6439SOL    HW220217   5.615   1.053   1.916
 6440SOL     OW20218   2.416   1.786   6.186
 6440SOL    HW120219   2.330   1.836   6.179
 6440SOL    HW220220   2.448   1.761   6.095
 6441SOL     OW20221   7.001   6.711   2.061
 6441SOL    HW120222   6.908   6.676   2.067
 6441SOL    HW220223   7.000   6.811   2.067
 6442SOL     OW20224   2.425   1.199   4.653
 6442SOL    HW120225   2.460   1.146   4.577
 6442SOL    HW220226   2.430   1.297   4.631
 6443SOL     OW20227   3.862   2.206   5.509
 6443SOL    HW120228   3.918   2.212   5.426
 6443SOL    HW220229   3.766   2.219   5.485
 6444SOL     OW20230   5.576   2.938   4.727
 6444SOL    HW120231   5.644   2.979   4.788
 6444SOL    HW220232   5.498   2.999   4.718
 6445SOL     OW20233   3.718   3.033   4.718
 6445SOL    HW120234   3.650   2.964   4.694
 6445SOL    HW220235   3.711   3.054   4.816
 6446SOL     OW20236   1.103   1.251   0.230
 6446SOL    HW120237   1.139   1.287   0.317
 6446SOL    HW220238   1.004   1.240   0.237
 6447SOL     OW20239   5.395   4.907   3.824
 6447SOL    HW120240   5.366   4.814   3.847
 6447SOL    HW220241   5.316   4.968   3.826
 6448SOL     OW20242   4.245   5.604   1.989
 6448SOL    HW120243   4.278   5.696   2.011
 6448SOL    HW220244   4.194   5.608   1.903
 6449SOL     OW20245   3.673   6.310   1.281
 6449SOL    HW120246   3.676   6.239   1.210
 6449SOL    HW220247   3.692   6.270   1.370
 6450SOL     OW20248   0.723   3.815   1.224
 6450SOL    HW120249   0.728   3.742   1.293
 6450SOL    HW220250   0.766   3.898   1.260
 6451SOL     OW20251   2.192   0.670   4.823
 6451SOL    HW120252   2.170   0.716   4.737
 6451SOL    HW220253   2.197   0.571   4.808
 6452SOL     OW20254   4.687   5.371   3.757
 6452SOL    HW120255   4.730   5.373   3.848
 6452SOL    HW220256   4.662   5.277   3.735
 6453SOL     OW20257   2.438   6.309   1.704
 6453SOL    HW120258   2.419   6.302   1.606
 6453SOL    HW220259   2.395   6.233   1.752
 6454SOL     OW20260   1.059   2.309   2.874
 6454SOL    HW120261   0.974   2.306   2.925
 6454SOL    HW220262   1.125   2.247   2.916
 6455SOL     OW20263   6.821   3.458   3.509
 6455SOL    HW120264   6.901   3.517   3.510
 6455SOL    HW220265   6.835   3.384   3.444
 6456SOL     OW20266   1.198   0.789   3.221
 6456SOL    HW120267   1.181   0.730   3.142
 6456SOL    HW220268   1.285   0.763   3.264
 6457SOL     OW20269   5.217   1.644   1.573
 6457SOL    HW120270   5.126   1.675   1.546
 6457SOL    HW220271   5.251   1.702   1.647
 6458SOL     OW20272   0.986   6.253   4.573
 6458SOL    HW120273   0.983   6.259   4.673
 6458SOL    HW220274   0.993   6.345   4.534
 6459SOL     OW20275   6.365   3.193   1.365
 6459SOL    HW120276   6.276   3.224   1.400
 6459SOL    HW220277   6.372   3.215   1.268
 6460SOL     OW20278   5.731   6.371   6.339
 6460SOL    HW120279   5.714   6.433   6.416
 6460SOL    HW220280   5.668   6.393   6.264
 6461SOL     OW20281   2.077   4.683   6.015
 6461SOL    HW120282   2.097   4.773   5.976
 6461SOL    HW220283   2.047   4.621   5.942
 6462SOL     OW20284   2.436   2.544   4.646
 6462SOL    HW120285   2.447   2.587   4.736
 6462SOL    HW220286   2.368   2.595   4.593
 6463SOL     OW20287   6.035   2.523   0.126
 6463SOL    HW120288   6.128   2.558   0.121
 6463SOL    HW220289   5.987   2.544   0.040
 6464SOL     OW20290   1.133   5.211   5.303
 6464SOL    HW120291   1.167   5.135   5.248
 6464SOL    HW220292   1.210   5.267   5.334
 6465SOL     OW20293   6.783   2.909   2.812
 6465SOL    HW120294   6.795   2.827   2.756
 6465SOL    HW220295   6.858   2.973   2.794
 6466SOL     OW20296   0.646   1.355   6.090
 6466SOL    HW120297   0.742   1.369   6.117
 6466SOL    HW220298   0.624   1.258   6.094
 6467SOL     OW20299   3.492   1.766   0.254
 6467SOL    HW120300   3.441   1.788   0.171
 6467SOL    HW220301   3.478   1.669   0.277
 6468SOL     OW20302   3.224   6.650   0.728
 6468SOL    HW120303   3.307   6.595   0.737
 6468SOL    HW220304   3.228   6.701   0.642
 6469SOL     OW20305   4.503   1.666   4.342
 6469SOL    HW120306   4.496   1.576   4.384
 6469SOL    HW220307   4.442   1.730   4.388
 6470SOL     OW20308   5.893   2.702   0.744
 6470SOL    HW120309   5.947   2.624   0.715
 6470SOL    HW220310   5.935   2.786   0.711
 6471SOL     OW20311   6.595   6.577   6.238
 6471SOL    HW120312   6.577   6.549   6.144
 6471SOL    HW220313   6.583   6.676   6.246
 6472SOL     OW20314   0.422   5.708   2.004
 6472SOL    HW120315   0.438   5.803   2.030
 6472SOL    HW220316   0.474   5.648   2.065
 6473SOL     OW20317   3.102   1.548   4.443
 6473SOL    HW120318   3.092   1.595   4.531
 6473SOL    HW220319   3.157   1.604   4.382
 6474SOL     OW20320   2.800   4.540   5.621
 6474SOL    HW120321   2.781   4.544   5.523
 6474SOL    HW220322   2.862   4.464   5.640
 6475SOL     OW20323   5.708   5.233   3.722
 6475SOL    HW120324   5.761   5.243   3.807
 6475SOL    HW220325   5.686   5.324   3.686
 6476SOL     OW20326   4.171   3.281   1.190
 6476SOL    HW120327   4.194   3.355   1.252
 6476SOL    HW220328   4.193   3.308   1.096
 6477SOL     OW20329   5.754   4.830   1.083
 6477SOL    HW120330   5.783   4.805   1.176
 6477SOL    HW220331   5.787   4.761   1.019
 6478SOL     OW20332   3.500   0.277   1.618
 6478SOL    HW120333   3.443   0.333   1.559
 6478SOL    HW220334   3.474   0.181   1.609
 6479SOL     OW20335   4.537   5.162   3.374
 6479SOL    HW120336   4.538   5.260   3.393
 6479SOL    HW220337   4.473   5.143   3.300
 6480SOL     OW20338   3.106   1.317   6.312
 6480SOL    HW120339   3.130   1.220   6.310
 6480SOL    HW220340   3.188   1.371   6.325
 6481SOL     OW20341   3.560   2.054   2.125
 6481SOL    HW120342   3.483   2.073   2.186
 6481SOL    HW220343   3.611   2.138   2.108
 6482SOL     OW20344   6.812   0.805   6.349
 6482SOL    HW120345   6.819   0.902   6.373
 6482SOL    HW220346   6.861   0.789   6.263
 6483SOL     OW20347   1.118   6.550   2.755
 6483SOL    HW120348   1.168   6.606   2.689
 6483SOL    HW220349   1.026   6.532   2.720
 6484SOL     OW20350   3.008   0.127   1.139
 6484SOL    HW120351   3.087   0.110   1.081
 6484SOL    HW220352   2.924   0.104   1.089
 6485SOL     OW20353   2.082   5.053   3.534
 6485SOL    HW120354   2.159   5.057   3.597
 6485SOL    HW220355   2.074   5.139   3.484
 6486SOL     OW20356   2.201   4.527   3.386
 6486SOL    HW120357   2.228   4.621   3.364
 6486SOL    HW220358   2.275   4.482   3.435
 6487SOL     OW20359   0.689   6.817   5.344
 6487SOL    HW120360   0.767   6.840   5.286
 6487SOL    HW220361   0.612   6.876   5.321
 6488SOL     OW20362   3.683   5.634   4.316
 6488SOL    HW120363   3.726   5.636   4.225
 6488SOL    HW220364   3.601   5.690   4.314
 6489SOL     OW20365   3.090   2.834   5.926
 6489SOL    HW120366   3.119   2.812   6.019
 6489SOL    HW220367   3.168   2.825   5.864
 6490SOL     OW20368   4.054   0.805   6.852
 6490SOL    HW120369   4.041   0.891   6.902
 6490SOL    HW220370   3.983   0.740   6.879
 6491SOL     OW20371   4.321   1.139   0.822
 6491SOL    HW120372   4.280   1.049   0.804
 6491SOL    HW220373   4.410   1.127   0.864
 6492SOL     OW20374   3.860   4.686   6.455
 6492SOL    HW120375   3.820   4.737   6.378
 6492SOL    HW220376   3.789   4.668   6.522
 6493SOL     OW20377   1.277   4.478   4.983
 6493SOL    HW120378   1.218   4.554   4.957
 6493SOL    HW220379   1.370   4.512   5.001
 6494SOL     OW20380   0.190   0.367   3.816
 6494SOL    HW120381   0.239   0.280   3.822
 6494SOL    HW220382   0.159   0.381   3.722
 6495SOL     OW20383   6.170   0.299   4.729
 6495SOL    HW120384   6.179   0.395   4.756
 6495SOL    HW220385   6.147   0.244   4.809
 6496SOL     OW20386   6.425   0.811   3.043
 6496SOL    HW120387   6.523   0.829   3.054
 6496SOL    HW220388   6.395   0.748   3.115
 6497SOL     OW20389   1.060   1.494   0.865
 6497SOL    HW120390   1.148   1.450   0.886
 6497SOL    HW220391   1.048   1.573   0.925
 6498SOL     OW20392   1.799   3.037   3.985
 6498SOL    HW120393   1.850   2.993   3.911
 6498SOL    HW220394   1.840   3.126   4.006
 6499SOL     OW20395   5.284   3.199   5.466
 6499SOL    HW120396   5.323   3.274   5.413
 6499SOL    HW220397   5.342   3.118   5.458
 6500SOL     OW20398   0.053   3.839   4.406
 6500SOL    HW120399   7.011   3.894   4.455
 6500SOL    HW220400   0.138   3.837   4.458
 6501SOL     OW20401   6.779   1.803   6.358
 6501SOL    HW120402   6.790   1.814   6.457
 6501SOL    HW220403   6.699   1.746   6.340
 6502SOL     OW20404   6.760   2.021   1.918
 6502SOL    HW120405   6.731   2.078   1.841
 6502SOL    HW220406   6.845   2.056   1.956
 6503SOL     OW20407   5.377   0.795   3.479
 6503SOL    HW120408   5.311   0.730   3.441
 6503SOL    HW220409   5.346   0.824   3.570
 6504SOL     OW20410   4.503   6.222   5.534
 6504SOL    HW120411   4.500   6.236   5.435
 6504SOL    HW220412   4.547   6.301   5.577
 6505SOL     OW20413   5.188   6.043   0.194
 6505SOL    HW120414   5.176   6.022   0.291
 6505SOL    HW220415   5.245   5.972   0.152
 6506SOL     OW20416   6.617   2.544   2.731
 6506SOL    HW120417   6.540   2.606   2.716
 6506SOL    HW220418   6.697   2.578   2.682
 6507SOL     OW20419   1.237   5.040   5.521
 6507SOL    HW120420   1.242   5.137   5.544
 6507SOL    HW220421   1.318   5.013   5.470
 6508SOL     OW20422   1.779   0.574   2.540
 6508SOL    HW120423   1.811   0.580   2.445
 6508SOL    HW220424   1.690   0.619   2.548
 6509SOL     OW20425   3.658   1.865   4.423
 6509SOL    HW120426   3.646   1.952   4.471
 6509SOL    HW220427   3.684   1.794   4.489
 6510SOL     OW20428   6.159   5.303   0.033
 6510SOL    HW120429   6.066   5.269   0.051
 6510SOL    HW220430   6.168   5.325   6.962
 6511SOL     OW20431   4.027   1.762   4.483
 6511SOL    HW120432   4.062   1.839   4.429
 6511SOL    HW220433   3.959   1.796   4.548
 6512SOL     OW20434   3.989   6.825   2.422
 6512SOL    HW120435   4.081   6.816   2.460
 6512SOL    HW220436   3.922   6.810   2.495
 6513SOL     OW20437   2.456   5.032   2.804
 6513SOL    HW120438   2.398   5.113   2.797
 6513SOL    HW220439   2.512   5.037   2.886
 6514SOL     OW20440   6.568   0.949   3.844
 6514SOL    HW120441   6.595   1.037   3.805
 6514SOL    HW220442   6.646   0.887   3.846
 6515SOL     OW20443   0.082   4.636   4.260
 6515SOL    HW120444   0.139   4.707   4.302
 6515SOL    HW220445   0.105   4.628   4.163
 6516SOL     OW20446   0.318   3.401   1.474
 6516SOL    HW120447   0.275   3.311   1.487
 6516SOL    HW220448   0.248   3.468   1.452
 6517SOL     OW20449   6.301   1.050   1.298
 6517SOL    HW120450   6.243   1.051   1.216
 6517SOL    HW220451   6.335   1.142   1.316
 6518SOL     OW20452   0.126   0.702   0.142
 6518SOL    HW120453   0.037   0.704   0.187
 6518SOL    HW220454   0.190   0.761   0.192
 6519SOL     OW20455   1.470   2.255   3.529
 6519SOL    HW120456   1.501   2.320   3.599
 6519SOL    HW220457   1.449   2.305   3.445
 6520SOL     OW20458   5.925   5.643   1.777
 6520SOL    HW120459   5.911   5.545   1.763
 6520SOL    HW220460   5.966   5.659   1.867
 6521SOL     OW20461   1.948   2.509   3.769
 6521SOL    HW120462   1.892   2.517   3.687
 6521SOL    HW220463   1.889   2.503   3.850
 6522SOL     OW20464   3.122   5.420   6.015
 6522SOL    HW120465   3.101   5.515   6.034
 6522SOL    HW220466   3.221   5.406   6.021
 6523SOL     OW20467   3.970   1.054   6.701
 6523SOL    HW120468   4.003   1.147   6.720
 6523SOL    HW220469   4.030   1.010   6.634
 6524SOL     OW20470   3.502   3.687   1.708
 6524SOL    HW120471   3.498   3.671   1.807
 6524SOL    HW220472   3.516   3.784   1.691
 6525SOL     OW20473   2.923   5.017   2.773
 6525SOL    HW120474   2.989   5.089   2.747
 6525SOL    HW220475   2.845   5.059   2.819
 6526SOL     OW20476   1.889   0.331   6.689
 6526SOL    HW120477   1.904   0.419   6.644
 6526SOL    HW220478   1.974   0.300   6.732
 6527SOL     OW20479   0.517   1.971   4.488
 6527SOL    HW120480   0.586   2.020   4.540
 6527SOL    HW220481   0.531   1.987   4.390
 6528SOL     OW20482   0.112   0.828   5.920
 6528SOL    HW120483   0.157   0.906   5.965
 6528SOL    HW220484   0.143   0.822   5.825
 6529SOL     OW20485   1.661   0.958   2.594
 6529SOL    HW120486   1.724   0.902   2.647
 6529SOL    HW220487   1.587   0.990   2.654
 6530SOL     OW20488   6.719   3.597   0.416
 6530SOL    HW120489   6.647   3.596   0.346
 6530SOL    HW220490   6.677   3.595   0.507
 6531SOL     OW20491   5.328   3.062   5.183
 6531SOL    HW120492   5.350   3.119   5.104
 6531SOL    HW220493   5.412   3.040   5.233
 6532SOL     OW20494   6.956   1.412   0.971
 6532SOL    HW120495   6.973   1.359   1.054
 6532SOL    HW220496   6.887   1.365   0.916
 6533SOL     OW20497   4.520   6.762   0.886
 6533SOL    HW120498   4.597   6.825   0.871
 6533SOL    HW220499   4.545   6.696   0.956
 6534SOL     OW20500   4.065   4.696   1.484
 6534SOL    HW120501   4.066   4.641   1.401
 6534SOL    HW220502   4.061   4.636   1.564
 6535SOL     OW20503   6.186   3.635   3.962
 6535SOL    HW120504   6.120   3.561   3.981
 6535SOL    HW220505   6.144   3.703   3.903
 6536SOL     OW20506   1.259   1.120   5.710
 6536SOL    HW120507   1.322   1.192   5.738
 6536SOL    HW220508   1.172   1.131   5.758
 6537SOL     OW20509   6.805   5.493   6.964
 6537SOL    HW120510   6.801   5.473   0.037
 6537SOL    HW220511   6.760   5.580   6.946
 6538SOL     OW20512   2.506   3.958   6.399
 6538SOL    HW120513   2.421   4.003   6.426
 6538SOL    HW220514   2.504   3.862   6.429
 6539SOL     OW20515   4.213   0.590   5.876
 6539SOL    HW120516   4.290   0.545   5.830
 6539SOL    HW220517   4.230   0.594   5.974
 6540SOL     OW20518   4.689   1.802   5.887
 6540SOL    HW120519   4.660   1.863   5.960
 6540SOL    HW220520   4.617   1.735   5.868
 6541SOL     OW20521   4.670   2.744   4.919
 6541SOL    HW120522   4.761   2.717   4.952
 6541SOL    HW220523   4.606   2.744   4.996
 6542SOL     OW20524   6.370   3.562   3.763
 6542SOL    HW120525   6.292   3.560   3.825
 6542SOL    HW220526   6.437   3.628   3.796
 6543SOL     OW20527   5.199   2.785   5.822
 6543SOL    HW120528   5.299   2.789   5.824
 6543SOL    HW220529   5.165   2.771   5.915
 6544SOL     OW20530   0.989   6.246   3.165
 6544SOL    HW120531   0.966   6.286   3.076
 6544SOL    HW220532   1.038   6.314   3.220
 6545SOL     OW20533   3.934   2.365   0.437
 6545SOL    HW120534   3.866   2.294   0.459
 6545SOL    HW220535   3.994   2.331   0.365
 6546SOL     OW20536   2.600   4.528   0.191
 6546SOL    HW120537   2.551   4.592   0.133
 6546SOL    HW220538   2.577   4.546   0.287
 6547SOL     OW20539   4.676   1.157   5.702
 6547SOL    HW120540   4.775   1.156   5.711
 6547SOL    HW220541   4.644   1.067   5.672
 6548SOL     OW20542   0.570   4.132   0.487
 6548SOL    HW120543   0.536   4.149   0.579
 6548SOL    HW220544   0.670   4.130   0.487
 6549SOL     OW20545   5.035   0.943   1.663
 6549SOL    HW120546   4.975   0.871   1.628
 6549SOL    HW220547   5.014   1.029   1.615
 6550SOL     OW20548   0.107   6.349   4.202
 6550SOL    HW120549   0.043   6.295   4.147
 6550SOL    HW220550   0.179   6.385   4.144
 6551SOL     OW20551   1.820   5.180   2.367
 6551SOL    HW120552   1.870   5.148   2.286
 6551SOL    HW220553   1.753   5.249   2.340
 6552SOL     OW20554   1.867   6.923   6.707
 6552SOL    HW120555   1.864   6.871   6.621
 6552SOL    HW220556   1.815   7.008   6.697
 6553SOL     OW20557   0.233   1.888   3.221
 6553SOL    HW120558   0.180   1.803   3.218
 6553SOL    HW220559   0.243   1.924   3.128
 6554SOL     OW20560   0.629   0.870   4.526
 6554SOL    HW120561   0.585   0.900   4.442
 6554SOL    HW220562   0.721   0.836   4.506
 6555SOL     OW20563   6.033   1.829   3.005
 6555SOL    HW120564   5.999   1.907   3.059
 6555SOL    HW220565   5.972   1.812   2.928
 6556SOL     OW20566   5.265   4.766   4.717
 6556SOL    HW120567   5.310   4.816   4.643
 6556SOL    HW220568   5.282   4.813   4.804
 6557SOL     OW20569   3.161   6.866   2.509
 6557SOL    HW120570   3.168   6.825   2.418
 6557SOL    HW220571   3.250   6.900   2.537
 6558SOL     OW20572   6.823   4.997   6.807
 6558SOL    HW120573   6.802   5.017   6.902
 6558SOL    HW220574   6.752   5.035   6.748
 6559SOL     OW20575   0.447   3.145   6.356
 6559SOL    HW120576   0.448   3.236   6.399
 6559SOL    HW220577   0.515   3.142   6.283
 6560SOL     OW20578   4.516   5.404   1.361
 6560SOL    HW120579   4.421   5.433   1.374
 6560SOL    HW220580   4.526   5.309   1.391
 6561SOL     OW20581   3.214   3.878   1.307
 6561SOL    HW120582   3.184   3.799   1.253
 6561SOL    HW220583   3.312   3.890   1.297
 6562SOL     OW20584   5.837   3.517   1.052
 6562SOL    HW120585   5.754   3.497   1.104
 6562SOL    HW220586   5.909   3.452   1.078
 6563SOL     OW20587   5.639   6.445   0.148
 6563SOL    HW120588   5.719   6.498   0.178
 6563SOL    HW220589   5.662   6.395   0.064
 6564SOL     OW20590   6.633   4.448   2.998
 6564SOL    HW120591   6.693   4.474   3.074
 6564SOL    HW220592   6.688   4.405   2.926
 6565SOL     OW20593   5.635   1.791   3.472
 6565SOL    HW120594   5.567   1.782   3.545
 6565SOL    HW220595   5.696   1.711   3.474
 6566SOL     OW20596   3.568   6.075   2.801
 6566SOL    HW120597   3.576   6.125   2.714
 6566SOL    HW220598   3.552   6.140   2.875
 6567SOL     OW20599   4.266   1.029   2.377
 6567SOL    HW120600   4.320   1.067   2.302
 6567SOL    HW220601   4.325   0.973   2.435
 6568SOL     OW20602   3.571   0.985   3.564
 6568SOL    HW120603   3.665   0.953   3.575
 6568SOL    HW220604   3.532   0.949   3.479
 6569SOL     OW20605   3.126   3.647   6.102
 6569SOL    HW120606   3.103   3.713   6.173
 6569SOL    HW220607   3.061   3.656   6.026
 6570SOL     OW20608   3.970   0.761   1.810
 6570SOL    HW120609   4.026   0.717   1.880
 6570SOL    HW220610   3.998   0.856   1.799
 6571SOL     OW20611   3.006   5.595   1.486
 6571SOL    HW120612   3.065   5.514   1.490
 6571SOL    HW220613   2.940   5.591   1.561
 6572SOL     OW20614   6.244   5.094   5.834
 6572SOL    HW120615   6.316   5.151   5.873
 6572SOL    HW220616   6.185   5.150   5.776
 6573SOL     OW20617   1.787   1.705   2.052
 6573SOL    HW120618   1.737   1.760   1.985
 6573SOL    HW220619   1.723   1.648   2.103
 6574SOL     OW20620   3.432   5.620   2.687
 6574SOL    HW120621   3.421   5.543   2.624
 6574SOL    HW220622   3.354   5.682   2.678
 6575SOL     OW20623   1.095   6.755   2.970
 6575SOL    HW120624   1.017   6.817   2.960
 6575SOL    HW220625   1.080   6.672   2.916
 6576SOL     OW20626   2.285   6.147   6.289
 6576SOL    HW120627   2.243   6.215   6.349
 6576SOL    HW220628   2.305   6.064   6.341
 6577SOL     OW20629   0.671   1.180   4.428
 6577SOL    HW120630   0.602   1.118   4.389
 6577SOL    HW220631   0.660   1.183   4.527
 6578SOL     OW20632   1.201   5.126   3.171
 6578SOL    HW120633   1.115   5.093   3.131
 6578SOL    HW220634   1.267   5.142   3.098
 6579SOL     OW20635   6.702   3.746   4.970
 6579SOL    HW120636   6.754   3.796   5.039
 6579SOL    HW220637   6.711   3.791   4.882
 6580SOL     OW20638   0.802   2.572   0.677
 6580SOL    HW120639   0.837   2.653   0.723
 6580SOL    HW220640   0.873   2.533   0.619
 6581SOL     OW20641   2.658   0.590   6.925
 6581SOL    HW120642   2.674   0.675   6.974
 6581SOL    HW220643   2.733   0.526   6.943
 6582SOL     OW20644   0.648   1.546   1.915
 6582SOL    HW120645   0.638   1.450   1.887
 6582SOL    HW220646   0.576   1.601   1.874
 6583SOL     OW20647   4.357   0.901   5.094
 6583SOL    HW120648   4.312   0.963   5.158
 6583SOL    HW220649   4.332   0.807   5.116
 6584SOL     OW20650   4.686   2.689   1.114
 6584SOL    HW120651   4.760   2.720   1.173
 6584SOL    HW220652   4.725   2.652   1.029
 6585SOL     OW20653   5.323   6.905   0.347
 6585SOL    HW120654   5.393   6.862   0.404
 6585SOL    HW220655   5.334   6.876   0.252
 6586SOL     OW20656   0.360   1.861   4.998
 6586SOL    HW120657   0.294   1.832   5.068
 6586SOL    HW220658   0.452   1.835   5.027
 6587SOL     OW20659   1.866   6.869   4.795
 6587SOL    HW120660   1.875   6.805   4.719
 6587SOL    HW220661   1.807   6.945   4.768
 6588SOL     OW20662   0.796   3.482   1.620
 6588SOL    HW120663   0.873   3.496   1.682
 6588SOL    HW220664   0.750   3.396   1.642
 6589SOL     OW20665   5.403   1.295   0.135
 6589SOL    HW120666   5.468   1.226   0.167
 6589SOL    HW220667   5.324   1.250   0.093
 6590SOL     OW20668   1.040   0.762   6.260
 6590SOL    HW120669   1.080   0.763   6.352
 6590SOL    HW220670   1.042   0.855   6.223
 6591SOL     OW20671   5.211   5.355   2.340
 6591SOL    HW120672   5.281   5.350   2.268
 6591SOL    HW220673   5.239   5.298   2.418
 6592SOL     OW20674   5.822   0.383   3.779
 6592SOL    HW120675   5.912   0.340   3.775
 6592SOL    HW220676   5.819   0.461   3.717
 6593SOL     OW20677   1.992   2.255   2.289
 6593SOL    HW120678   2.046   2.311   2.352
 6593SOL    HW220679   2.052   2.186   2.247
 6594SOL     OW20680   3.373   1.874   0.042
 6594SOL    HW120681   3.286   1.851   7.023
 6594SOL    HW220682   3.448   1.858   7.004
 6595SOL     OW20683   0.562   3.937   6.833
 6595SOL    HW120684   0.600   3.936   6.740
 6595SOL    HW220685   0.607   3.867   6.888
 6596SOL     OW20686   3.348   6.199   4.247
 6596SOL    HW120687   3.340   6.284   4.301
 6596SOL    HW220688   3.359   6.222   4.151
 6597SOL     OW20689   1.785   5.319   1.360
 6597SOL    HW120690   1.688   5.344   1.353
 6597SOL    HW220691   1.796   5.223   1.337
 6598SOL     OW20692   1.627   6.126   4.629
 6598SOL    HW120693   1.614   6.225   4.619
 6598SOL    HW220694   1.682   6.108   4.711
 6599SOL     OW20695   4.502   6.895   6.127
 6599SOL    HW120696   4.447   6.866   6.205
 6599SOL    HW220697   4.553   6.817   6.091
 6600SOL     OW20698   5.145   4.911   4.995
 6600SOL    HW120699   5.105   4.823   4.970
 6600SOL    HW220700   5.074   4.981   4.998
 6601SOL     OW20701   1.156   2.139   5.523
 6601SOL    HW120702   1.119   2.048   5.542
 6601SOL    HW220703   1.213   2.135   5.441
 6602SOL     OW20704   0.984   0.932   2.216
 6602SOL    HW120705   0.956   1.019   2.176
 6602SOL    HW220706   1.033   0.878   2.148
 6603SOL     OW20707   6.688   2.716   3.782
 6603SOL    HW120708   6.635   2.662   3.848
 6603SOL    HW220709   6.652   2.809   3.779
 6604SOL     OW20710   2.207   0.195   0.939
 6604SOL    HW120711   2.132   0.213   0.875
 6604SOL    HW220712   2.292   0.178   0.888
 6605SOL     OW20713   5.562   3.916   1.896
 6605SOL    HW120714   5.535   3.949   1.986
 6605SOL    HW220715   5.642   3.856   1.905
 6606SOL     OW20716   6.800   6.318   1.558
 6606SOL    HW120717   6.884   6.304   1.506
 6606SOL    HW220718   6.822   6.332   1.654
 6607SOL     OW20719   1.933   3.090   2.355
 6607SOL    HW120720   1.840   3.078   2.319
 6607SOL    HW220721   1.977   3.167   2.309
 6608SOL     OW20722   6.026   6.293   1.169
 6608SOL    HW120723   5.982   6.295   1.259
 6608SOL    HW220724   6.093   6.368   1.164
 6609SOL     OW20725   4.636   0.896   5.670
 6609SOL    HW120726   4.548   0.851   5.685
 6609SOL    HW220727   4.704   0.860   5.735
 6610SOL     OW20728   3.062   7.016   6.971
 6610SOL    HW120729   2.972   7.007   7.014
 6610SOL    HW220730   3.095   0.085   6.981
 6611SOL     OW20731   5.070   2.673   3.774
 6611SOL    HW120732   5.035   2.752   3.824
 6611SOL    HW220733   5.151   2.637   3.821
 6612SOL     OW20734   5.945   2.189   6.085
 6612SOL    HW120735   5.933   2.095   6.054
 6612SOL    HW220736   5.988   2.189   6.175
 6613SOL     OW20737   6.688   5.961   4.945
 6613SOL    HW120738   6.674   6.050   4.901
 6613SOL    HW220739   6.782   5.931   4.929
 6614SOL     OW20740   5.437   6.581   0.816
 6614SOL    HW120741   5.414   6.537   0.730
 6614SOL    HW220742   5.426   6.680   0.806
 6615SOL     OW20743   1.339   5.188   2.470
 6615SOL    HW120744   1.285   5.176   2.387
 6615SOL    HW220745   1.286   5.158   2.549
 6616SOL     OW20746   4.217   0.855   5.926
 6616SOL    HW120747   4.203   0.928   5.859
 6616SOL    HW220748   4.175   0.771   5.891
 6617SOL     OW20749   4.344   4.791   3.308
 6617SOL    HW120750   4.400   4.722   3.262
 6617SOL    HW220751   4.305   4.853   3.240
 6618SOL     OW20752   1.468   2.347   2.310
 6618SOL    HW120753   1.417   2.303   2.236
 6618SOL    HW220754   1.551   2.388   2.272
 6619SOL     OW20755   6.331   7.023   4.033
 6619SOL    HW120756   6.327   0.086   3.987
 6619SOL    HW220757   6.394   6.962   3.984
 6620SOL     OW20758   1.682   3.145   5.314
 6620SOL    HW120759   1.668   3.049   5.340
 6620SOL    HW220760   1.761   3.151   5.253
 6621SOL     OW20761   3.086   2.930   6.186
 6621SOL    HW120762   3.031   2.963   6.109
 6621SOL    HW220763   3.062   2.982   6.268
 6622SOL     OW20764   5.591   6.977   1.022
 6622SOL    HW120765   5.542   6.931   1.096
 6622SOL    HW220766   5.642   6.909   0.969
 6623SOL     OW20767   3.256   3.166   5.424
 6623SOL    HW120768   3.208   3.251   5.445
 6623SOL    HW220769   3.323   3.183   5.352
 6624SOL     OW20770   0.542   4.971   6.323
 6624SOL    HW120771   0.512   4.913   6.398
 6624SOL    HW220772   0.467   4.984   6.258
 6625SOL     OW20773   5.153   2.064   5.428
 6625SOL    HW120774   5.068   2.055   5.480
 6625SOL    HW220775   5.138   2.036   5.333
 6626SOL     OW20776   5.003   4.986   5.248
 6626SOL    HW120777   5.042   4.895   5.266
 6626SOL    HW220778   4.996   5.000   5.150
 6627SOL     OW20779   2.092   6.508   4.990
 6627SOL    HW120780   2.165   6.519   4.922
 6627SOL    HW220781   2.004   6.530   4.948
 6628SOL     OW20782   4.665   4.646   4.878
 6628SOL    HW120783   4.669   4.547   4.871
 6628SOL    HW220784   4.670   4.673   4.974
 6629SOL     OW20785   4.299   5.974   0.020
 6629SOL    HW120786   4.252   6.059   0.000
 6629SOL    HW220787   4.250   5.897   7.004
 6630SOL     OW20788   4.093   1.272   1.633
 6630SOL    HW120789   4.183   1.247   1.669
 6630SOL    HW220790   4.050   1.338   1.694
 6631SOL     OW20791   2.768   5.381   3.357
 6631SOL    HW120792   2.761   5.445   3.432
 6631SOL    HW220793   2.865   5.362   3.338
 6632SOL     OW20794   0.283   6.904   1.466
 6632SOL    HW120795   0.193   6.947   1.463
 6632SOL    HW220796   0.276   6.810   1.431
 6633SOL     OW20797   0.821   4.518   6.019
 6633SOL    HW120798   0.839   4.435   6.072
 6633SOL    HW220799   0.832   4.499   5.921
 6634SOL     OW20800   5.100   2.194   4.153
 6634SOL    HW120801   5.016   2.143   4.170
 6634SOL    HW220802   5.087   2.255   4.074
 6635SOL     OW20803   4.453   4.578   3.176
 6635SOL    HW120804   4.458   4.517   3.255
 6635SOL    HW220805   4.534   4.566   3.119
 6636SOL     OW20806   5.028   2.563   5.715
 6636SOL    HW120807   4.996   2.523   5.801
 6636SOL    HW220808   5.102   2.628   5.735
 6637SOL     OW20809   1.514   0.300   6.680
 6637SOL    HW120810   1.470   0.307   6.769
 6637SOL    HW220811   1.583   0.228   6.681
 6638SOL     OW20812   3.174   3.694   3.800
 6638SOL    HW120813   3.247   3.648   3.850
 6638SOL    HW220814   3.172   3.791   3.826
 6639SOL     OW20815   5.200   4.461   6.620
 6639SOL    HW120816   5.189   4.418   6.530
 6639SOL    HW220817   5.201   4.391   6.691
 6640SOL     OW20818   1.740   1.592   5.206
 6640SOL    HW120819   1.689   1.523   5.257
 6640SOL    HW220820   1.730   1.575   5.108
 6641SOL     OW20821   1.878   2.267   6.304
 6641SOL    HW120822   1.900   2.169   6.300
 6641SOL    HW220823   1.789   2.283   6.263
 6642SOL     OW20824   2.268   5.806   6.712
 6642SOL    HW120825   2.304   5.777   6.801
 6642SOL    HW220826   2.194   5.745   6.684
 6643SOL     OW20827   5.905   4.999   0.441
 6643SOL    HW120828   5.939   4.954   0.359
 6643SOL    HW220829   5.942   4.953   0.522
 6644SOL     OW20830   2.292   5.326   1.982
 6644SOL    HW120831   2.369   5.388   1.966
 6644SOL    HW220832   2.293   5.296   2.077
 6645SOL     OW20833   6.571   5.044   0.592
 6645SOL    HW120834   6.539   5.020   0.684
 6645SOL    HW220835   6.525   5.128   0.562
 6646SOL     OW20836   4.349   0.290   4.548
 6646SOL    HW120837   4.432   0.282   4.492
 6646SOL    HW220838   4.323   0.200   4.582
 6647SOL     OW20839   5.038   1.154   1.467
 6647SOL    HW120840   5.062   1.162   1.370
 6647SOL    HW220841   5.069   1.236   1.516
 6648SOL     OW20842   4.615   6.537   3.422
 6648SOL    HW120843   4.652   6.537   3.515
 6648SOL    HW220844   4.530   6.483   3.420
 6649SOL     OW20845   4.782   0.953   6.664
 6649SOL    HW120846   4.700   0.925   6.715
 6649SOL    HW220847   4.863   0.919   6.711
 6650SOL     OW20848   3.918   1.454   5.117
 6650SOL    HW120849   3.898   1.359   5.091
 6650SOL    HW220850   3.899   1.514   5.039
 6651SOL     OW20851   2.153   1.952   5.613
 6651SOL    HW120852   2.055   1.971   5.611
 6651SOL    HW220853   2.202   2.018   5.557
 6652SOL     OW20854   1.077   4.452   0.740
 6652SOL    HW120855   1.158   4.450   0.798
 6652SOL    HW220856   1.082   4.529   0.677
 6653SOL     OW20857   2.859   3.522   2.522
 6653SOL    HW120858   2.761   3.532   2.541
 6653SOL    HW220859   2.875   3.533   2.424
 6654SOL     OW20860   1.128   4.845   1.043
 6654SOL    HW120861   1.176   4.766   1.005
 6654SOL    HW220862   1.112   4.829   1.141
 6655SOL     OW20863   0.680   6.833   3.515
 6655SOL    HW120864   0.718   6.888   3.440
 6655SOL    HW220865   0.636   6.894   3.582
 6656SOL     OW20866   5.563   1.718   4.050
 6656SOL    HW120867   5.625   1.730   4.128
 6656SOL    HW220868   5.586   1.634   4.001
 6657SOL     OW20869   5.545   5.611   6.421
 6657SOL    HW120870   5.601   5.532   6.446
 6657SOL    HW220871   5.559   5.633   6.324
 6658SOL     OW20872   0.007   1.330   4.272
 6658SOL    HW120873   6.942   1.367   4.291
 6658SOL    HW220874   7.023   1.235   4.242
 6659SOL     OW20875   2.186   2.551   0.479
 6659SOL    HW120876   2.120   2.483   0.444
 6659SOL    HW220877   2.272   2.505   0.502
 6660SOL     OW20878   1.079   4.905   1.326
 6660SOL    HW120879   1.043   4.991   1.290
 6660SOL    HW220880   1.066   4.903   1.425
 6661SOL     OW20881   0.834   6.433   5.088
 6661SOL    HW120882   0.877   6.478   5.167
 6661SOL    HW220883   0.800   6.343   5.116
 6662SOL     OW20884   1.013   0.641   0.119
 6662SOL    HW120885   0.995   0.687   0.032
 6662SOL    HW220886   1.054   0.706   0.183
 6663SOL     OW20887   6.445   4.591   4.083
 6663SOL    HW120888   6.545   4.588   4.090
 6663SOL    HW220889   6.412   4.506   4.043
 6664SOL     OW20890   1.877   6.239   0.527
 6664SOL    HW120891   1.796   6.298   0.526
 6664SOL    HW220892   1.887   6.198   0.618
 6665SOL     OW20893   1.956   6.106   4.221
 6665SOL    HW120894   1.947   6.108   4.320
 6665SOL    HW220895   1.974   6.012   4.191
 6666SOL     OW20896   6.528   0.110   5.477
 6666SOL    HW120897   6.515   0.051   5.397
 6666SOL    HW220898   6.523   0.206   5.449
 6667SOL     OW20899   6.454   5.888   6.530
 6667SOL    HW120900   6.452   5.916   6.625
 6667SOL    HW220901   6.400   5.951   6.474
 6668SOL     OW20902   0.092   5.145   1.201
 6668SOL    HW120903   0.087   5.151   1.300
 6668SOL    HW220904   0.165   5.204   1.167
 6669SOL     OW20905   1.836   2.695   3.333
 6669SOL    HW120906   1.860   2.724   3.240
 6669SOL    HW220907   1.765   2.755   3.369
 6670SOL     OW20908   3.491   1.868   5.518
 6670SOL    HW120909   3.407   1.902   5.477
 6670SOL    HW220910   3.558   1.849   5.447
 6671SOL     OW20911   6.195   6.284   0.866
 6671SOL    HW120912   6.178   6.210   0.932
 6671SOL    HW220913   6.110   6.335   0.851
 6672SOL     OW20914   6.432   1.961   6.399
 6672SOL    HW120915   6.498   1.952   6.473
 6672SOL    HW220916   6.405   2.057   6.390
 6673SOL     OW20917   4.683   5.342   4.393
 6673SOL    HW120918   4.762   5.384   4.348
 6673SOL    HW220919   4.705   5.247   4.417
 6674SOL     OW20920   0.578   4.609   6.108
 6674SOL    HW120921   0.580   4.684   6.042
 6674SOL    HW220922   0.659   4.551   6.095
 6675SOL     OW20923   4.691   3.654   1.672
 6675SOL    HW120924   4.756   3.596   1.720
 6675SOL    HW220925   4.739   3.733   1.633
 6676SOL     OW20926   0.117   3.539   5.578
 6676SOL    HW120927   0.170   3.454   5.581
 6676SOL    HW220928   0.057   3.543   5.658
 6677SOL     OW20929   1.719   1.378   6.546
 6677SOL    HW120930   1.680   1.411   6.632
 6677SOL    HW220931   1.786   1.444   6.512
 6678SOL     OW20932   3.403   3.019   6.526
 6678SOL    HW120933   3.337   3.073   6.473
 6678SOL    HW220934   3.436   3.073   6.604
 6679SOL     OW20935   3.162   1.142   4.151
 6679SOL    HW120936   3.229   1.216   4.142
 6679SOL    HW220937   3.070   1.178   4.131
 6680SOL     OW20938   4.923   6.645   6.770
 6680SOL    HW120939   4.869   6.729   6.778
 6680SOL    HW220940   4.863   6.569   6.746
 6681SOL     OW20941   3.906   6.273   1.676
 6681SOL    HW120942   3.873   6.273   1.771
 6681SOL    HW220943   4.005   6.292   1.675
 6682SOL     OW20944   0.097   4.641   2.668
 6682SOL    HW120945   0.070   4.731   2.702
 6682SOL    HW220946   0.196   4.639   2.652
 6683SOL     OW20947   5.771   3.090   5.326
 6683SOL    HW120948   5.793   3.171   5.272
 6683SOL    HW220949   5.843   3.022   5.315
 6684SOL     OW20950   2.977   0.586   1.255
 6684SOL    HW120951   3.072   0.615   1.268
 6684SOL    HW220952   2.925   0.602   1.339
 6685SOL     OW20953   6.784   3.714   5.470
 6685SOL    HW120954   6.787   3.697   5.569
 6685SOL    HW220955   6.870   3.756   5.441
 6686SOL     OW20956   5.467   5.966   4.569
 6686SOL    HW120957   5.458   5.879   4.618
 6686SOL    HW220958   5.377   5.996   4.537
 6687SOL     OW20959   1.084   3.394   0.196
 6687SOL    HW120960   1.123   3.463   0.257
 6687SOL    HW220961   1.102   3.419   0.101
 6688SOL     OW20962   0.163   3.991   2.676
 6688SOL    HW120963   0.075   4.011   2.720
 6688SOL    HW220964   0.187   4.066   2.614
 6689SOL     OW20965   4.489   2.905   0.307
 6689SOL    HW120966   4.498   2.971   0.382
 6689SOL    HW220967   4.556   2.927   0.236
 6690SOL     OW20968   2.023   1.229   0.705
 6690SOL    HW120969   2.069   1.312   0.674
 6690SOL    HW220970   1.973   1.188   0.629
 6691SOL     OW20971   2.460   6.564   1.835
 6691SOL    HW120972   2.421   6.618   1.761
 6691SOL    HW220973   2.466   6.468   1.807
 6692SOL     OW20974   3.994   3.887   5.198
 6692SOL    HW120975   3.904   3.866   5.234
 6692SOL    HW220976   4.063   3.875   5.270
 6693SOL     OW20977   4.167   3.639   4.878
 6693SOL    HW120978   4.182   3.649   4.976
 6693SOL    HW220979   4.174   3.543   4.852
 6694SOL     OW20980   3.698   6.086   1.094
 6694SOL    HW120981   3.786   6.048   1.062
 6694SOL    HW220982   3.659   6.025   1.163
 6695SOL     OW20983   3.063   1.867   0.650
 6695SOL    HW120984   3.146   1.904   0.693
 6695SOL    HW220985   3.088   1.812   0.571
 6696SOL     OW20986   2.217   3.268   5.541
 6696SOL    HW120987   2.167   3.243   5.624
 6696SOL    HW220988   2.233   3.185   5.486
 6697SOL     OW20989   4.618   2.486   2.802
 6697SOL    HW120990   4.611   2.395   2.843
 6697SOL    HW220991   4.621   2.555   2.875
 6698SOL     OW20992   2.725   2.724   1.749
 6698SOL    HW120993   2.697   2.820   1.754
 6698SOL    HW220994   2.654   2.671   1.702
 6699SOL     OW20995   2.399   5.736   6.152
 6699SOL    HW120996   2.401   5.817   6.210
 6699SOL    HW220997   2.472   5.674   6.178
 6700SOL     OW20998   6.779   6.840   1.379
 6700SOL    HW120999   6.744   6.910   1.441
 6700SOL    HW221000   6.737   6.752   1.400
 6701SOL     OW21001   5.540   3.153   1.824
 6701SOL    HW121002   5.504   3.138   1.916
 6701SOL    HW221003   5.638   3.132   1.822
 6702SOL     OW21004   3.375   1.675   1.846
 6702SOL    HW121005   3.326   1.590   1.825
 6702SOL    HW221006   3.416   1.667   1.937
 6703SOL     OW21007   5.969   1.952   6.513
 6703SOL    HW121008   5.914   1.996   6.442
 6703SOL    HW221009   5.957   2.000   6.600
 6704SOL     OW21010   3.160   1.784   3.579
 6704SOL    HW121011   3.149   1.688   3.604
 6704SOL    HW221012   3.102   1.805   3.501
 6705SOL     OW21013   6.624   3.015   1.696
 6705SOL    HW121014   6.603   3.109   1.670
 6705SOL    HW221015   6.539   2.962   1.703
 6706SOL     OW21016   1.326   3.870   2.097
 6706SOL    HW121017   1.288   3.782   2.069
 6706SOL    HW221018   1.405   3.892   2.040
 6707SOL     OW21019   6.859   5.793   3.317
 6707SOL    HW121020   6.884   5.720   3.381
 6707SOL    HW221021   6.765   5.822   3.334
 6708SOL     OW21022   5.962   5.382   1.868
 6708SOL    HW121023   6.028   5.343   1.803
 6708SOL    HW221024   6.010   5.425   1.944
 6709SOL     OW21025   2.603   6.525   3.225
 6709SOL    HW121026   2.604   6.553   3.129
 6709SOL    HW221027   2.532   6.457   3.240
 6710SOL     OW21028   3.645   1.066   6.058
 6710SOL    HW121029   3.549   1.090   6.066
 6710SOL    HW221030   3.696   1.106   6.134
 6711SOL     OW21031   4.750   5.282   6.304
 6711SOL    HW121032   4.760   5.277   6.403
 6711SOL    HW221033   4.704   5.199   6.271
 6712SOL     OW21034   5.644   4.185   6.980
 6712SOL    HW121035   5.659   4.283   6.966
 6712SOL    HW221036   5.599   4.170   0.042
 6713SOL     OW21037   2.334   0.464   2.671
 6713SOL    HW121038   2.395   0.469   2.592
 6713SOL    HW221039   2.312   0.556   2.703
 6714SOL     OW21040   6.165   1.140   6.012
 6714SOL    HW121041   6.219   1.223   6.026
 6714SOL    HW221042   6.152   1.094   6.100
 6715SOL     OW21043   0.409   0.127   0.079
 6715SOL    HW121044   0.357   0.109   0.163
 6715SOL    HW221045   0.383   0.061   0.009
 6716SOL     OW21046   0.500   5.881   1.477
 6716SOL    HW121047   0.409   5.872   1.438
 6716SOL    HW221048   0.493   5.882   1.577
 6717SOL     OW21049   4.365   3.036   6.661
 6717SOL    HW121050   4.380   2.972   6.736
 6717SOL    HW221051   4.327   2.986   6.582
 6718SOL     OW21052   4.821   0.728   0.456
 6718SOL    HW121053   4.752   0.712   0.385
 6718SOL    HW221054   4.794   0.681   0.540
 6719SOL     OW21055   2.463   0.403   6.847
 6719SOL    HW121056   2.385   0.414   6.786
 6719SOL    HW221057   2.520   0.485   6.843
 6720SOL     OW21058   1.100   6.825   4.177
 6720SOL    HW121059   1.179   6.849   4.122
 6720SOL    HW221060   1.082   6.727   4.170
 6721SOL     OW21061   6.639   0.366   6.411
 6721SOL    HW121062   6.610   0.433   6.342
 6721SOL    HW221063   6.650   0.411   6.499
 6722SOL     OW21064   6.587   2.783   1.435
 6722SOL    HW121065   6.534   2.705   1.402
 6722SOL    HW221066   6.660   2.752   1.495
 6723SOL     OW21067   2.423   6.810   3.400
 6723SOL    HW121068   2.434   6.835   3.303
 6723SOL    HW221069   2.505   6.761   3.431
 6724SOL     OW21070   1.511   3.457   5.712
 6724SOL    HW121071   1.429   3.435   5.660
 6724SOL    HW221072   1.583   3.489   5.650
 6725SOL     OW21073   0.217   3.755   1.576
 6725SOL    HW121074   0.215   3.810   1.660
 6725SOL    HW221075   0.262   3.807   1.503
 6726SOL     OW21076   0.574   2.294   4.998
 6726SOL    HW121077   0.517   2.241   5.061
 6726SOL    HW221078   0.521   2.318   4.917
 6727SOL     OW21079   6.556   4.188   5.323
 6727SOL    HW121080   6.539   4.240   5.239
 6727SOL    HW221081   6.642   4.219   5.363
 6728SOL     OW21082   4.017   1.572   3.351
 6728SOL    HW121083   4.044   1.514   3.427
 6728SOL    HW221084   3.923   1.604   3.365
 6729SOL     OW21085   6.782   1.200   2.782
 6729SOL    HW121086   6.690   1.239   2.783
 6729SOL    HW221087   6.838   1.246   2.852
 6730SOL     OW21088   2.383   6.762   0.069
 6730SOL    HW121089   2.437   6.751   7.011
 6730SOL    HW221090   2.337   6.851   0.067
 6731SOL     OW21091   1.090   5.931   2.016
 6731SOL    HW121092   1.098   5.856   1.950
 6731SOL    HW221093   1.042   5.898   2.097
 6732SOL     OW21094   5.663   5.263   5.489
 6732SOL    HW121095   5.752   5.235   5.452
 6732SOL    HW221096   5.595   5.261   5.416
 6733SOL     OW21097   4.125   4.989   6.898
 6733SOL    HW121098   4.190   4.982   6.823
 6733SOL    HW221099   4.158   5.056   6.965
 6734SOL     OW21100   6.353   1.964   5.155
 6734SOL    HW121101   6.368   2.049   5.103
 6734SOL    HW221102   6.259   1.933   5.143
 6735SOL     OW21103   6.797   4.247   4.683
 6735SOL    HW121104   6.729   4.191   4.730
 6735SOL    HW221105   6.884   4.243   4.732
 6736SOL     OW21106   3.392   3.690   6.980
 6736SOL    HW121107   3.439   3.617   0.005
 6736SOL    HW221108   3.375   3.660   6.886
 6737SOL     OW21109   2.171   2.228   0.711
 6737SOL    HW121110   2.210   2.137   0.727
 6737SOL    HW221111   2.239   2.286   0.667
 6738SOL     OW21112   1.546   4.988   2.420
 6738SOL    HW121113   1.614   5.023   2.484
 6738SOL    HW221114   1.474   5.056   2.405
 6739SOL     OW21115   3.657   6.226   5.513
 6739SOL    HW121116   3.702   6.232   5.424
 6739SOL    HW221117   3.562   6.199   5.502
 6740SOL     OW21118   1.672   0.800   4.096
 6740SOL    HW121119   1.760   0.830   4.060
 6740SOL    HW221120   1.670   0.816   4.195
 6741SOL     OW21121   4.327   1.131   5.566
 6741SOL    HW121122   4.376   1.150   5.651
 6741SOL    HW221123   4.384   1.155   5.488
 6742SOL     OW21124   6.305   5.737   2.946
 6742SOL    HW121125   6.302   5.769   3.041
 6742SOL    HW221126   6.347   5.646   2.943
 6743SOL     OW21127   3.854   4.709   0.324
 6743SOL    HW121128   3.885   4.787   0.270
 6743SOL    HW221129   3.765   4.731   0.364
 6744SOL     OW21130   5.698   4.270   6.582
 6744SOL    HW121131   5.661   4.339   6.645
 6744SOL    HW221132   5.690   4.304   6.488
 6745SOL     OW21133   0.131   0.169   3.026
 6745SOL    HW121134   0.180   0.216   3.100
 6745SOL    HW221135   0.098   0.236   2.960
 6746SOL     OW21136   1.239   1.163   3.217
 6746SOL    HW121137   1.300   1.086   3.236
 6746SOL    HW221138   1.263   1.240   3.276
 6747SOL     OW21139   5.690   1.181   4.988
 6747SOL    HW121140   5.647   1.269   5.011
 6747SOL    HW221141   5.768   1.166   5.050
 6748SOL     OW21142   1.406   0.734   3.357
 6748SOL    HW121143   1.383   0.769   3.448
 6748SOL    HW221144   1.473   0.660   3.365
 6749SOL     OW21145   2.484   6.519   0.519
 6749SOL    HW121146   2.562   6.580   0.504
 6749SOL    HW221147   2.518   6.427   0.539
 6750SOL     OW21148   4.072   2.149   5.199
 6750SOL    HW121149   4.021   2.066   5.222
 6750SOL    HW221150   4.010   2.216   5.160
 6751SOL     OW21151   4.387   0.133   3.599
 6751SOL    HW121152   4.425   0.048   3.636
 6751SOL    HW221153   4.303   0.112   3.550
 6752SOL     OW21154   0.509   2.583   2.821
 6752SOL    HW121155   0.439   2.552   2.886
 6752SOL    HW221156   0.465   2.634   2.747
 6753SOL     OW21157   4.306   1.065   6.279
 6753SOL    HW121158   4.375   1.131   6.307
 6753SOL    HW221159   4.336   0.973   6.304
 6754SOL     OW21160   0.423   1.640   0.220
 6754SOL    HW121161   0.470   1.669   0.136
 6754SOL    HW221162   0.324   1.651   0.208
 6755SOL     OW21163   3.944   0.727   3.376
 6755SOL    HW121164   3.896   0.735   3.288
 6755SOL    HW221165   4.037   0.763   3.366
 6756SOL     OW21166   3.917   5.672   5.374
 6756SOL    HW121167   3.894   5.757   5.327
 6756SOL    HW221168   3.912   5.596   5.310
 6757SOL     OW21169   4.441   0.264   1.900
 6757SOL    HW121170   4.479   0.196   1.963
 6757SOL    HW221171   4.345   0.242   1.883
 6758SOL     OW21172   0.162   2.288   1.525
 6758SOL    HW121173   0.134   2.384   1.525
 6758SOL    HW221174   0.082   2.231   1.544
 6759SOL     OW21175   1.005   4.470   4.050
 6759SOL    HW121176   0.958   4.558   4.040
 6759SOL    HW221177   0.997   4.418   3.965
 6760SOL     OW21178   6.797   4.556   3.204
 6760SOL    HW121179   6.816   4.649   3.236
 6760SOL    HW221180   6.865   4.493   3.242
 6761SOL     OW21181   6.329   2.349   5.939
 6761SOL    HW121182   6.415   2.376   5.983
 6761SOL    HW221183   6.283   2.280   5.995
 6762SOL     OW21184   0.156   5.374   3.559
 6762SOL    HW121185   0.244   5.328   3.567
 6762SOL    HW221186   0.151   5.422   3.472
 6763SOL     OW21187   0.232   4.877   3.109
 6763SOL    HW121188   0.153   4.822   3.080
 6763SOL    HW221189   0.201   4.969   3.132
 6764SOL     OW21190   2.441   5.413   6.759
 6764SOL    HW121191   2.474   5.426   6.852
 6764SOL    HW221192   2.346   5.442   6.753
 6765SOL     OW21193   5.064   4.830   3.968
 6765SOL    HW121194   5.070   4.873   4.059
 6765SOL    HW221195   5.108   4.741   3.971
 6766SOL     OW21196   4.766   6.764   6.055
 6766SOL    HW121197   4.796   6.721   5.970
 6766SOL    HW221198   4.739   6.859   6.036
 6767SOL     OW21199   1.180   2.105   0.650
 6767SOL    HW121200   1.279   2.101   0.664
 6767SOL    HW221201   1.137   2.027   0.694
 6768SOL     OW21202   1.026   6.116   3.449
 6768SOL    HW121203   1.089   6.039   3.463
 6768SOL    HW221204   1.025   6.141   3.352
 6769SOL     OW21205   2.783   0.090   5.715
 6769SOL    HW121206   2.709   0.074   5.650
 6769SOL    HW221207   2.753   0.154   5.786
 6770SOL     OW21208   5.464   1.750   3.678
 6770SOL    HW121209   5.531   1.701   3.734
 6770SOL    HW221210   5.384   1.692   3.665
 6771SOL     OW21211   4.005   1.350   2.083
 6771SOL    HW121212   4.012   1.391   1.992
 6771SOL    HW221213   4.054   1.263   2.085
 6772SOL     OW21214   4.715   2.240   2.654
 6772SOL    HW121215   4.779   2.316   2.643
 6772SOL    HW221216   4.712   2.213   2.750
 6773SOL     OW21217   0.113   6.555   1.903
 6773SOL    HW121218   0.087   6.468   1.945
 6773SOL    HW221219   0.068   6.631   1.950
 6774SOL     OW21220   1.311   3.247   4.712
 6774SOL    HW121221   1.394   3.242   4.767
 6774SOL    HW221222   1.303   3.165   4.655
 6775SOL     OW21223   0.861   2.298   3.326
 6775SOL    HW121224   0.855   2.227   3.397
 6775SOL    HW221225   0.954   2.336   3.326
 6776SOL     OW21226   4.300   3.885   1.014
 6776SOL    HW121227   4.273   3.790   1.026
 6776SOL    HW221228   4.399   3.891   1.002
 6777SOL     OW21229   4.359   5.641   0.933
 6777SOL    HW121230   4.265   5.664   0.909
 6777SOL    HW221231   4.380   5.678   1.024
 6778SOL     OW21232   6.202   3.767   1.935
 6778SOL    HW121233   6.175   3.702   1.863
 6778SOL    HW221234   6.271   3.725   1.993
 6779SOL     OW21235   5.229   4.408   6.191
 6779SOL    HW121236   5.140   4.444   6.165
 6779SOL    HW221237   5.217   4.341   6.265
 6780SOL     OW21238   0.749   3.612   2.888
 6780SOL    HW121239   0.757   3.680   2.816
 6780SOL    HW221240   0.833   3.610   2.942
 6781SOL     OW21241   6.720   2.100   4.026
 6781SOL    HW121242   6.771   2.129   4.107
 6781SOL    HW221243   6.747   2.156   3.947
 6782SOL     OW21244   0.697   1.281   3.248
 6782SOL    HW121245   0.783   1.306   3.203
 6782SOL    HW221246   0.639   1.361   3.256
 6783SOL     OW21247   1.064   2.859   6.123
 6783SOL    HW121248   0.993   2.864   6.053
 6783SOL    HW221249   1.152   2.889   6.084
 6784SOL     OW21250   2.415   3.767   0.846
 6784SOL    HW121251   2.453   3.675   0.853
 6784SOL    HW221252   2.468   3.820   0.780
 6785SOL     OW21253   5.713   5.047   5.235
 6785SOL    HW121254   5.666   5.000   5.310
 6785SOL    HW221255   5.645   5.085   5.172
 6786SOL     OW21256   0.833   3.007   6.792
 6786SOL    HW121257   0.740   2.973   6.783
 6786SOL    HW221258   0.834   3.090   6.847
 6787SOL     OW21259   3.358   1.977   1.269
 6787SOL    HW121260   3.301   2.053   1.238
 6787SOL    HW221261   3.321   1.891   1.233
 6788SOL     OW21262   0.209   4.788   2.083
 6788SOL    HW121263   0.291   4.839   2.107
 6788SOL    HW221264   0.156   4.770   2.165
 6789SOL     OW21265   0.181   4.690   3.975
 6789SOL    HW121266   0.265   4.644   3.944
 6789SOL    HW221267   0.105   4.664   3.915
 6790SOL     OW21268   0.721   4.280   6.967
 6790SOL    HW121269   0.820   4.267   6.970
 6790SOL    HW221270   0.680   4.249   0.028
 6791SOL     OW21271   4.129   2.140   2.594
 6791SOL    HW121272   4.181   2.117   2.677
 6791SOL    HW221273   4.189   2.135   2.515
 6792SOL     OW21274   5.406   0.136   5.619
 6792SOL    HW121275   5.453   0.056   5.655
 6792SOL    HW221276   5.307   0.123   5.628
 6793SOL     OW21277   3.698   0.655   6.647
 6793SOL    HW121278   3.774   0.590   6.643
 6793SOL    HW221279   3.722   0.731   6.707
 6794SOL     OW21280   5.422   1.196   5.223
 6794SOL    HW121281   5.360   1.186   5.301
 6794SOL    HW221282   5.380   1.157   5.142
 6795SOL     OW21283   1.031   6.139   0.208
 6795SOL    HW121284   0.950   6.115   0.155
 6795SOL    HW221285   1.073   6.056   0.244
 6796SOL     OW21286   6.131   0.057   2.345
 6796SOL    HW121287   6.158   0.150   2.320
 6796SOL    HW221288   6.138   7.024   2.264
 6797SOL     OW21289   6.447   1.631   1.000
 6797SOL    HW121290   6.368   1.691   1.007
 6797SOL    HW221291   6.530   1.685   0.982
 6798SOL     OW21292   6.499   0.357   1.783
 6798SOL    HW121293   6.486   0.417   1.862
 6798SOL    HW221294   6.573   0.292   1.801
 6799SOL     OW21295   6.019   6.843   2.452
 6799SOL    HW121296   6.055   6.819   2.542
 6799SOL    HW221297   6.067   6.924   2.418
 6800SOL     OW21298   2.382   2.599   2.069
 6800SOL    HW121299   2.330   2.557   2.143
 6800SOL    HW221300   2.479   2.575   2.078
 6801SOL     OW21301   0.889   6.799   3.669
 6801SOL    HW121302   0.798   6.811   3.630
 6801SOL    HW221303   0.948   6.752   3.603
 6802SOL     OW21304   3.732   6.138   1.498
 6802SOL    HW121305   3.646   6.134   1.549
 6802SOL    HW221306   3.802   6.182   1.554
 6803SOL     OW21307   3.938   4.124   6.624
 6803SOL    HW121308   4.037   4.123   6.639
 6803SOL    HW221309   3.901   4.212   6.654
 6804SOL     OW21310   4.169   4.963   3.108
 6804SOL    HW121311   4.171   5.049   3.159
 6804SOL    HW221312   4.074   4.939   3.087
 6805SOL     OW21313   0.497   5.392   6.936
 6805SOL    HW121314   0.553   5.309   6.941
 6805SOL    HW221315   0.464   5.403   6.842
 6806SOL     OW21316   0.030   0.865   4.319
 6806SOL    HW121317   0.014   0.931   4.246
 6806SOL    HW221318   0.010   0.908   4.408
 6807SOL     OW21319   3.911   3.956   2.792
 6807SOL    HW121320   3.954   3.873   2.758
 6807SOL    HW221321   3.836   3.931   2.854
 6808SOL     OW21322   6.952   1.350   5.308
 6808SOL    HW121323   6.940   1.257   5.342
 6808SOL    HW221324   6.963   1.349   5.209
 6809SOL     OW21325   6.464   3.365   0.606
 6809SOL    HW121326   6.478   3.295   0.676
 6809SOL    HW221327   6.449   3.321   0.517
 6810SOL     OW21328   2.896   1.038   2.303
 6810SOL    HW121329   2.947   1.083   2.230
 6810SOL    HW221330   2.879   1.104   2.376
 6811SOL     OW21331   6.312   3.208   2.492
 6811SOL    HW121332   6.271   3.129   2.446
 6811SOL    HW221333   6.403   3.224   2.456
 6812SOL     OW21334   3.926   4.142   5.134
 6812SOL    HW121335   3.923   4.044   5.152
 6812SOL    HW221336   4.016   4.167   5.098
 6813SOL     OW21337   5.977   3.301   2.439
 6813SOL    HW121338   5.964   3.231   2.509
 6813SOL    HW221339   5.944   3.389   2.474
 6814SOL     OW21340   4.644   1.871   6.590
 6814SOL    HW121341   4.594   1.895   6.673
 6814SOL    HW221342   4.740   1.856   6.613
 6815SOL     OW21343   2.672   6.557   6.588
 6815SOL    HW121344   2.728   6.480   6.560
 6815SOL    HW221345   2.579   6.545   6.554
 6816SOL     OW21346   0.085   1.433   5.533
 6816SOL    HW121347   0.030   1.385   5.602
 6816SOL    HW221348   0.046   1.415   5.442
 6817SOL     OW21349   2.309   2.405   3.984
 6817SOL    HW121350   2.308   2.323   3.926
 6817SOL    HW221351   2.216   2.426   4.014
 6818SOL     OW21352   2.029   6.747   0.216
 6818SOL    HW121353   2.037   6.778   0.121
 6818SOL    HW221354   1.933   6.746   0.243
 6819SOL     OW21355   4.434   1.434   2.878
 6819SOL    HW121356   4.508   1.378   2.839
 6819SOL    HW221357   4.423   1.517   2.823
 6820SOL     OW21358   1.358   5.848   1.385
 6820SOL    HW121359   1.447   5.858   1.428
 6820SOL    HW221360   1.313   5.766   1.419
 6821SOL     OW21361   4.299   2.732   5.346
 6821SOL    HW121362   4.332   2.693   5.432
 6821SOL    HW221363   4.256   2.661   5.291
 6822SOL     OW21364   5.780   2.385   5.782
 6822SOL    HW121365   5.828   2.298   5.784
 6822SOL    HW221366   5.734   2.396   5.693
 6823SOL     OW21367   5.850   4.201   6.022
 6823SOL    HW121368   5.901   4.182   6.106
 6823SOL    HW221369   5.908   4.251   5.958
 6824SOL     OW21370   1.412   1.598   0.506
 6824SOL    HW121371   1.484   1.666   0.505
 6824SOL    HW221372   1.323   1.644   0.500
 6825SOL     OW21373   6.067   0.212   0.370
 6825SOL    HW121374   6.037   0.210   0.274
 6825SOL    HW221375   6.158   0.170   0.376
 6826SOL     OW21376   1.624   3.761   3.175
 6826SOL    HW121377   1.648   3.777   3.271
 6826SOL    HW221378   1.707   3.764   3.119
 6827SOL     OW21379   5.187   5.236   6.360
 6827SOL    HW121380   5.227   5.207   6.448
 6827SOL    HW221381   5.168   5.334   6.363
 6828SOL     OW21382   3.786   1.486   2.641
 6828SOL    HW121383   3.875   1.472   2.685
 6828SOL    HW221384   3.717   1.506   2.710
 6829SOL     OW21385   5.512   6.446   5.005
 6829SOL    HW121386   5.431   6.498   4.979
 6829SOL    HW221387   5.557   6.491   5.083
 6830SOL     OW21388   5.280   0.554   3.800
 6830SOL    HW121389   5.309   0.462   3.825
 6830SOL    HW221390   5.187   0.551   3.764
 6831SOL     OW21391   2.078   1.109   5.770
 6831SOL    HW121392   2.125   1.134   5.855
 6831SOL    HW221393   1.983   1.140   5.775
 6832SOL     OW21394   2.414   3.960   0.465
 6832SOL    HW121395   2.328   3.980   0.512
 6832SOL    HW221396   2.478   3.918   0.529
 6833SOL     OW21397   2.409   4.875   6.133
 6833SOL    HW121398   2.363   4.878   6.045
 6833SOL    HW221399   2.483   4.807   6.130
 6834SOL     OW21400   6.322   0.092   0.421
 6834SOL    HW121401   6.333   0.075   0.323
 6834SOL    HW221402   6.412   0.091   0.464
 6835SOL     OW21403   3.626   1.336   4.535
 6835SOL    HW121404   3.670   1.386   4.460
 6835SOL    HW221405   3.625   1.393   4.617
 6836SOL     OW21406   2.618   4.304   6.256
 6836SOL    HW121407   2.696   4.253   6.293
 6836SOL    HW221408   2.588   4.261   6.171
 6837SOL     OW21409   0.712   1.882   2.956
 6837SOL    HW121410   0.794   1.890   3.011
 6837SOL    HW221411   0.737   1.879   2.859
 6838SOL     OW21412   2.766   4.575   6.257
 6838SOL    HW121413   2.796   4.658   6.303
 6838SOL    HW221414   2.666   4.570   6.259
 6839SOL     OW21415   4.957   1.218   5.209
 6839SOL    HW121416   4.889   1.192   5.140
 6839SOL    HW221417   4.998   1.306   5.184
 6840SOL     OW21418   3.111   6.636   5.278
 6840SOL    HW121419   3.027   6.674   5.318
 6840SOL    HW221420   3.169   6.710   5.245
 6841SOL     OW21421   3.837   5.058   0.613
 6841SOL    HW121422   3.809   4.971   0.571
 6841SOL    HW221423   3.804   5.063   0.707
 6842SOL     OW21424   2.583   2.638   0.190
 6842SOL    HW121425   2.494   2.627   0.235
 6842SOL    HW221426   2.571   2.682   0.101
 6843SOL     OW21427   5.703   0.106   2.171
 6843SOL    HW121428   5.705   0.189   2.116
 6843SOL    HW221429   5.759   0.118   2.253
 6844SOL     OW21430   6.175   6.586   3.933
 6844SOL    HW121431   6.085   6.619   3.961
 6844SOL    HW221432   6.232   6.571   4.013
 6845SOL     OW21433   5.274   4.174   2.522
 6845SOL    HW121434   5.182   4.212   2.506
 6845SOL    HW221435   5.308   4.132   2.438
 6846SOL     OW21436   4.208   3.100   1.559
 6846SOL    HW121437   4.195   3.056   1.470
 6846SOL    HW221438   4.260   3.184   1.546
 6847SOL     OW21439   6.710   4.208   2.265
 6847SOL    HW121440   6.746   4.175   2.353
 6847SOL    HW221441   6.757   4.292   2.239
 6848SOL     OW21442   3.027   6.449   3.516
 6848SOL    HW121443   3.082   6.527   3.548
 6848SOL    HW221444   3.085   6.386   3.465
 6849SOL     OW21445   3.083   5.693   4.735
 6849SOL    HW121446   3.104   5.700   4.638
 6849SOL    HW221447   3.059   5.783   4.771
 6850SOL     OW21448   5.097   3.472   2.531
 6850SOL    HW121449   5.160   3.534   2.576
 6850SOL    HW221450   5.129   3.378   2.542
 6851SOL     OW21451   1.446   2.918   3.982
 6851SOL    HW121452   1.380   2.923   3.907
 6851SOL    HW221453   1.427   2.991   4.048
 6852SOL     OW21454   1.539   4.829   0.937
 6852SOL    HW121455   1.555   4.909   0.994
 6852SOL    HW221456   1.617   4.767   0.942
 6853SOL     OW21457   6.814   3.853   6.844
 6853SOL    HW121458   6.811   3.854   6.744
 6853SOL    HW221459   6.736   3.903   6.880
 6854SOL     OW21460   6.169   1.793   5.733
 6854SOL    HW121461   6.130   1.702   5.716
 6854SOL    HW221462   6.238   1.787   5.805
 6855SOL     OW21463   3.239   5.825   2.644
 6855SOL    HW121464   3.280   5.877   2.569
 6855SOL    HW221465   3.141   5.812   2.627
 6856SOL     OW21466   5.434   4.795   5.641
 6856SOL    HW121467   5.383   4.733   5.701
 6856SOL    HW221468   5.370   4.857   5.597
 6857SOL     OW21469   3.265   1.485   0.223
 6857SOL    HW121470   3.240   1.446   0.312
 6857SOL    HW221471   3.190   1.543   0.190
 6858SOL     OW21472   3.843   3.338   4.006
 6858SOL    HW121473   3.764   3.368   3.953
 6858SOL    HW221474   3.820   3.338   4.103
 6859SOL     OW21475   1.419   7.020   1.058
 6859SOL    HW121476   1.389   6.988   1.148
 6859SOL    HW221477   1.358   0.066   1.026
 6860SOL     OW21478   6.023   5.592   1.340
 6860SOL    HW121479   5.993   5.501   1.311
 6860SOL    HW221480   5.944   5.643   1.376
 6861SOL     OW21481   6.002   4.523   0.755
 6861SOL    HW121482   5.918   4.542   0.705
 6861SOL    HW221483   6.030   4.428   0.740
 6862SOL     OW21484   2.270   4.911   5.017
 6862SOL    HW121485   2.319   4.836   5.060
 6862SOL    HW221486   2.211   4.955   5.085
 6863SOL     OW21487   5.912   1.315   5.151
 6863SOL    HW121488   5.966   1.326   5.068
 6863SOL    HW221489   5.909   1.402   5.200
 6864SOL     OW21490   3.534   5.625   4.004
 6864SOL    HW121491   3.475   5.560   4.051
 6864SOL    HW221492   3.510   5.627   3.906
 6865SOL     OW21493   6.788   5.592   2.705
 6865SOL    HW121494   6.784   5.659   2.780
 6865SOL    HW221495   6.711   5.530   2.713
 6866SOL     OW21496   6.529   4.499   2.227
 6866SOL    HW121497   6.448   4.521   2.281
 6866SOL    HW221498   6.611   4.510   2.284
 6867SOL     OW21499   1.590   4.920   1.422
 6867SOL    HW121500   1.625   4.837   1.464
 6867SOL    HW221501   1.667   4.980   1.398
 6868SOL     OW21502   0.823   5.574   5.858
 6868SOL    HW121503   0.862   5.610   5.942
 6868SOL    HW221504   0.890   5.583   5.784
 6869SOL     OW21505   6.178   0.988   5.299
 6869SOL    HW121506   6.224   1.076   5.290
 6869SOL    HW221507   6.087   1.001   5.338
 6870SOL     OW21508   6.639   5.490   2.191
 6870SOL    HW121509   6.556   5.491   2.135
 6870SOL    HW221510   6.719   5.487   2.131
 6871SOL     OW21511   5.929   4.286   2.390
 6871SOL    HW121512   6.002   4.219   2.381
 6871SOL    HW221513   5.840   4.241   2.382
 6872SOL     OW21514   0.883   3.514   1.204
 6872SOL    HW121515   0.851   3.575   1.277
 6872SOL    HW221516   0.962   3.462   1.236
 6873SOL     OW21517   6.416   3.905   4.959
 6873SOL    HW121518   6.334   3.854   4.984
 6873SOL    HW221519   6.476   3.914   5.039
 6874SOL     OW21520   0.883   4.815   2.683
 6874SOL    HW121521   0.894   4.796   2.780
 6874SOL    HW221522   0.789   4.798   2.655
 6875SOL     OW21523   1.055   2.575   3.643
 6875SOL    HW121524   1.084   2.556   3.736
 6875SOL    HW221525   0.989   2.650   3.643
 6876SOL     OW21526   4.349   6.375   5.279
 6876SOL    HW121527   4.446   6.398   5.270
 6876SOL    HW221528   4.330   6.290   5.230
 6877SOL     OW21529   2.551   4.520   6.587
 6877SOL    HW121530   2.530   4.501   6.491
 6877SOL    HW221531   2.636   4.573   6.593
 6878SOL     OW21532   2.773   2.444   5.209
 6878SOL    HW121533   2.853   2.460   5.267
 6878SOL    HW221534   2.796   2.378   5.138
 6879SOL     OW21535   1.062   2.209   0.330
 6879SOL    HW121536   1.092   2.180   0.239
 6879SOL    HW221537   1.137   2.257   0.376
 6880SOL     OW21538   1.811   3.605   5.063
 6880SOL    HW121539   1.866   3.625   5.144
 6880SOL    HW221540   1.817   3.681   4.998
 6881SOL     OW21541   0.828   4.121   2.350
 6881SOL    HW121542   0.784   4.059   2.415
 6881SOL    HW221543   0.897   4.176   2.398
 6882SOL     OW21544   3.091   0.436   6.084
 6882SOL    HW121545   3.143   0.416   6.001
 6882SOL    HW221546   3.145   0.495   6.144
 6883SOL     OW21547   3.799   2.053   0.823
 6883SOL    HW121548   3.798   2.024   0.919
 6883SOL    HW221549   3.773   2.149   0.817
 6884SOL     OW21550   1.959   4.060   4.572
 6884SOL    HW121551   1.935   3.963   4.578
 6884SOL    HW221552   1.878   4.116   4.592
 6885SOL     OW21553   4.194   5.944   4.901
 6885SOL    HW121554   4.101   5.963   4.933
 6885SOL    HW221555   4.200   5.849   4.871
 6886SOL     OW21556   0.146   0.692   3.853
 6886SOL    HW121557   0.127   0.594   3.855
 6886SOL    HW221558   0.242   0.708   3.830
 6887SOL     OW21559   5.535   6.756   5.561
 6887SOL    HW121560   5.470   6.705   5.505
 6887SOL    HW221561   5.552   6.707   5.647
 6888SOL     OW21562   5.140   6.658   6.993
 6888SOL    HW121563   5.053   6.637   6.949
 6888SOL    HW221564   5.215   6.637   6.930
 6889SOL     OW21565   1.941   2.656   5.321
 6889SOL    HW121566   1.885   2.732   5.355
 6889SOL    HW221567   2.031   2.658   5.364
 6890SOL     OW21568   3.483   6.881   0.958
 6890SOL    HW121569   3.429   6.963   0.974
 6890SOL    HW221570   3.492   6.829   1.043
 6891SOL     OW21571   2.289   4.253   4.202
 6891SOL    HW121572   2.282   4.190   4.280
 6891SOL    HW221573   2.222   4.327   4.213
 6892SOL     OW21574   3.362   1.369   3.228
 6892SOL    HW121575   3.420   1.315   3.167
 6892SOL    HW221576   3.344   1.458   3.187
 6893SOL     OW21577   5.615   5.228   6.926
 6893SOL    HW121578   5.703   5.254   6.967
 6893SOL    HW221579   5.555   5.308   6.923
 6894SOL     OW21580   6.259   4.795   0.372
 6894SOL    HW121581   6.270   4.883   0.327
 6894SOL    HW221582   6.275   4.806   0.470
 6895SOL     OW21583   2.356   5.933   6.430
 6895SOL    HW121584   2.411   5.877   6.492
 6895SOL    HW221585   2.265   5.894   6.422
 6896SOL     OW21586   1.665   6.561   3.656
 6896SOL    HW121587   1.599   6.487   3.671
 6896SOL    HW221588   1.729   6.565   3.732
 6897SOL     OW21589   2.881   3.559   0.052
 6897SOL    HW121590   2.819   3.638   0.051
 6897SOL    HW221591   2.834   3.481   0.094
 6898SOL     OW21592   3.739   1.654   2.434
 6898SOL    HW121593   3.760   1.596   2.513
 6898SOL    HW221594   3.770   1.608   2.350
 6899SOL     OW21595   5.106   6.705   1.232
 6899SOL    HW121596   5.015   6.664   1.233
 6899SOL    HW221597   5.160   6.667   1.307
 6900SOL     OW21598   6.524   0.537   5.626
 6900SOL    HW121599   6.427   0.516   5.634
 6900SOL    HW221600   6.570   0.465   5.573
 6901SOL     OW21601   0.334   0.104   5.692
 6901SOL    HW121602   0.299   0.033   5.630
 6901SOL    HW221603   0.411   0.068   5.744
 6902SOL     OW21604   5.794   6.811   0.541
 6902SOL    HW121605   5.873   6.832   0.484
 6902SOL    HW221606   5.802   6.860   0.628
 6903SOL     OW21607   4.058   5.241   4.774
 6903SOL    HW121608   4.138   5.289   4.810
 6903SOL    HW221609   4.087   5.173   4.707
 6904SOL     OW21610   5.935   2.033   3.972
 6904SOL    HW121611   6.004   1.969   4.008
 6904SOL    HW221612   5.867   2.051   4.042
 6905SOL     OW21613   5.859   6.485   6.838
 6905SOL    HW121614   5.797   6.418   6.878
 6905SOL    HW221615   5.839   6.576   6.875
 6906SOL     OW21616   4.404   1.082   4.276
 6906SOL    HW121617   4.312   1.111   4.251
 6906SOL    HW221618   4.423   0.993   4.233
 6907SOL     OW21619   5.297   1.827   1.221
 6907SOL    HW121620   5.303   1.736   1.261
 6907SOL    HW221621   5.202   1.850   1.204
 6908SOL     OW21622   1.260   6.258   5.865
 6908SOL    HW121623   1.264   6.274   5.767
 6908SOL    HW221624   1.335   6.198   5.893
 6909SOL     OW21625   6.067   4.156   1.745
 6909SOL    HW121626   6.162   4.158   1.714
 6909SOL    HW221627   6.065   4.155   1.845
 6910SOL     OW21628   0.278   2.332   4.103
 6910SOL    HW121629   0.331   2.249   4.121
 6910SOL    HW221630   0.198   2.309   4.048
 6911SOL     OW21631   5.032   6.595   3.743
 6911SOL    HW121632   4.983   6.525   3.796
 6911SOL    HW221633   5.027   6.573   3.646
 6912SOL     OW21634   4.121   5.040   0.538
 6912SOL    HW121635   4.027   5.053   0.568
 6912SOL    HW221636   4.147   4.944   0.552
 6913SOL     OW21637   5.263   4.937   5.472
 6913SOL    HW121638   5.194   4.997   5.512
 6913SOL    HW221639   5.217   4.861   5.426
 6914SOL     OW21640   5.643   4.465   7.005
 6914SOL    HW121641   5.695   4.477   0.064
 6914SOL    HW221642   5.556   4.515   7.012
 6915SOL     OW21643   6.360   3.926   1.604
 6915SOL    HW121644   6.284   3.919   1.539
 6915SOL    HW221645   6.440   3.879   1.567
 6916SOL     OW21646   6.349   3.788   6.796
 6916SOL    HW121647   6.305   3.861   6.743
 6916SOL    HW221648   6.295   3.704   6.788
 6917SOL     OW21649   3.366   5.592   0.920
 6917SOL    HW121650   3.403   5.674   0.876
 6917SOL    HW221651   3.314   5.619   1.001
 6918SOL     OW21652   0.676   3.302   4.278
 6918SOL    HW121653   0.767   3.260   4.267
 6918SOL    HW221654   0.686   3.388   4.328
 6919SOL     OW21655   0.448   6.292   2.752
 6919SOL    HW121656   0.483   6.367   2.808
 6919SOL    HW221657   0.516   6.267   2.683
 6920SOL     OW21658   4.246   5.468   5.367
 6920SOL    HW121659   4.343   5.445   5.373
 6920SOL    HW221660   4.191   5.386   5.381
 6921SOL     OW21661   5.299   6.316   3.465
 6921SOL    HW121662   5.311   6.415   3.474
 6921SOL    HW221663   5.378   6.277   3.418
 6922SOL     OW21664   1.949   5.643   6.452
 6922SOL    HW121665   2.004   5.567   6.417
 6922SOL    HW221666   1.977   5.728   6.407
 6923SOL     OW21667   4.995   5.146   3.521
 6923SOL    HW121668   4.942   5.062   3.518
 6923SOL    HW221669   4.942   5.221   3.482
 6924SOL     OW21670   1.223   4.235   6.619
 6924SOL    HW121671   1.319   4.224   6.647
 6924SOL    HW221672   1.163   4.200   6.691
 6925SOL     OW21673   3.936   6.087   4.900
 6925SOL    HW121674   3.968   6.162   4.841
 6925SOL    HW221675   3.860   6.118   4.956
 6926SOL     OW21676   2.861   3.414   1.965
 6926SOL    HW121677   2.919   3.495   1.961
 6926SOL    HW221678   2.766   3.442   1.972
 6927SOL     OW21679   5.482   3.200   6.463
 6927SOL    HW121680   5.402   3.193   6.522
 6927SOL    HW221681   5.478   3.286   6.411
 6928SOL     OW21682   6.306   6.286   0.627
 6928SOL    HW121683   6.261   6.365   0.584
 6928SOL    HW221684   6.278   6.281   0.723
 6929SOL     OW21685   4.808   5.418   1.154
 6929SOL    HW121686   4.765   5.409   1.244
 6929SOL    HW221687   4.812   5.515   1.128
 6930SOL     OW21688   6.851   0.122   2.582
 6930SOL    HW121689   6.949   0.121   2.600
 6930SOL    HW221690   6.808   0.041   2.621
 6931SOL     OW21691   2.016   0.515   2.395
 6931SOL    HW121692   2.008   0.551   2.488
 6931SOL    HW221693   2.073   0.433   2.396
 6932SOL     OW21694   3.893   0.022   0.683
 6932SOL    HW121695   3.830   0.082   0.634
 6932SOL    HW221696   3.954   0.078   0.740
 6933SOL     OW21697   3.406   5.972   5.198
 6933SOL    HW121698   3.417   6.068   5.222
 6933SOL    HW221699   3.478   5.918   5.242
 6934SOL     OW21700   4.881   4.252   5.972
 6934SOL    HW121701   4.902   4.328   6.034
 6934SOL    HW221702   4.956   4.187   5.973
 6935SOL     OW21703   4.402   6.149   3.344
 6935SOL    HW121704   4.489   6.182   3.380
 6935SOL    HW221705   4.378   6.062   3.388
 6936SOL     OW21706   6.598   2.527   3.261
 6936SOL    HW121707   6.648   2.474   3.329
 6936SOL    HW221708   6.500   2.519   3.278
 6937SOL     OW21709   6.889   6.031   0.433
 6937SOL    HW121710   6.813   6.077   0.480
 6937SOL    HW221711   6.867   6.023   0.336
 6938SOL     OW21712   5.196   3.464   6.033
 6938SOL    HW121713   5.115   3.408   6.053
 6938SOL    HW221714   5.268   3.406   5.994
 6939SOL     OW21715   6.961   4.087   1.321
 6939SOL    HW121716   0.007   4.154   1.341
 6939SOL    HW221717   6.943   4.087   1.222
 6940SOL     OW21718   4.572   1.503   0.810
 6940SOL    HW121719   4.499   1.540   0.753
 6940SOL    HW221720   4.535   1.479   0.900
 6941SOL     OW21721   3.337   2.997   3.079
 6941SOL    HW121722   3.369   2.940   3.155
 6941SOL    HW221723   3.366   2.955   2.992
 6942SOL     OW21724   6.104   2.446   1.216
 6942SOL    HW121725   6.133   2.526   1.268
 6942SOL    HW221726   6.073   2.374   1.278
 6943SOL     OW21727   5.058   5.980   6.483
 6943SOL    HW121728   5.017   6.006   6.395
 6943SOL    HW221729   4.992   5.928   6.537
 6944SOL     OW21730   1.840   3.970   6.325
 6944SOL    HW121731   1.810   3.874   6.328
 6944SOL    HW221732   1.806   4.012   6.241
 6945SOL     OW21733   6.353   3.379   6.061
 6945SOL    HW121734   6.266   3.338   6.089
 6945SOL    HW221735   6.337   3.475   6.036
 6946SOL     OW21736   6.149   6.736   1.354
 6946SOL    HW121737   6.235   6.787   1.359
 6946SOL    HW221738   6.100   6.745   1.441
 6947SOL     OW21739   3.468   6.650   5.678
 6947SOL    HW121740   3.460   6.559   5.719
 6947SOL    HW221741   3.441   6.719   5.745
 6948SOL     OW21742   5.858   0.431   6.420
 6948SOL    HW121743   5.904   0.514   6.388
 6948SOL    HW221744   5.798   0.454   6.496
 6949SOL     OW21745   4.953   0.022   3.887
 6949SOL    HW121746   5.037   0.072   3.908
 6949SOL    HW221747   4.900   0.073   3.819
 6950SOL     OW21748   2.282   0.027   3.859
 6950SOL    HW121749   2.303   6.962   3.819
 6950SOL    HW221750   2.366   0.081   3.863
 6951SOL     OW21751   6.494   6.282   6.091
 6951SOL    HW121752   6.549   6.342   6.033
 6951SOL    HW221753   6.489   6.190   6.051
 6952SOL     OW21754   6.833   5.714   3.969
 6952SOL    HW121755   6.816   5.617   3.956
 6952SOL    HW221756   6.930   5.734   3.950
 6953SOL     OW21757   4.937   0.507   0.052
 6953SOL    HW121758   4.867   0.545   7.016
 6953SOL    HW221759   4.977   0.580   0.107
 6954SOL     OW21760   0.263   3.559   4.124
 6954SOL    HW121761   0.167   3.557   4.153
 6954SOL    HW221762   0.281   3.645   4.076
 6955SOL     OW21763   6.122   0.510   2.020
 6955SOL    HW121764   6.169   0.456   1.951
 6955SOL    HW221765   6.032   0.538   1.985
 6956SOL     OW21766   4.632   6.211   3.459
 6956SOL    HW121767   4.644   6.306   3.488
 6956SOL    HW221768   4.703   6.154   3.501
 6957SOL     OW21769   5.758   5.039   0.875
 6957SOL    HW121770   5.744   5.002   0.967
 6957SOL    HW221771   5.823   5.114   0.879
 6958SOL     OW21772   2.992   3.881   5.066
 6958SOL    HW121773   2.949   3.871   4.976
 6958SOL    HW221774   3.092   3.879   5.055
 6959SOL     OW21775   2.407   1.166   4.940
 6959SOL    HW121776   2.392   1.133   4.846
 6959SOL    HW221777   2.472   1.106   4.986
 6960SOL     OW21778   1.449   5.645   1.189
 6960SOL    HW121779   1.507   5.725   1.193
 6960SOL    HW221780   1.425   5.617   1.283
 6961SOL     OW21781   6.569   2.574   3.992
 6961SOL    HW121782   6.503   2.588   4.066
 6961SOL    HW221783   6.567   2.478   3.963
 6962SOL     OW21784   5.759   6.033   2.071
 6962SOL    HW121785   5.852   6.043   2.035
 6962SOL    HW221786   5.764   6.021   2.170
 6963SOL     OW21787   6.315   5.238   0.903
 6963SOL    HW121788   6.304   5.289   0.988
 6963SOL    HW221789   6.395   5.273   0.853
 6964SOL     OW21790   3.768   6.455   4.977
 6964SOL    HW121791   3.726   6.410   4.898
 6964SOL    HW221792   3.697   6.500   5.031
 6965SOL     OW21793   0.130   3.235   6.727
 6965SOL    HW121794   0.175   3.325   6.726
 6965SOL    HW221795   0.173   3.178   6.797
 6966SOL     OW21796   6.812   1.923   3.363
 6966SOL    HW121797   6.810   1.860   3.285
 6966SOL    HW221798   6.897   1.976   3.361
 6967SOL     OW21799   1.531   0.318   5.597
 6967SOL    HW121800   1.613   0.374   5.587
 6967SOL    HW221801   1.554   0.236   5.650
 6968SOL     OW21802   4.597   6.554   2.818
 6968SOL    HW121803   4.610   6.645   2.858
 6968SOL    HW221804   4.638   6.485   2.877
 6969SOL     OW21805   2.572   2.502   1.317
 6969SOL    HW121806   2.632   2.465   1.387
 6969SOL    HW221807   2.499   2.436   1.296
 6970SOL     OW21808   3.329   3.984   6.731
 6970SOL    HW121809   3.328   4.078   6.696
 6970SOL    HW221810   3.424   3.953   6.739
 6971SOL     OW21811   6.386   4.450   1.231
 6971SOL    HW121812   6.405   4.441   1.133
 6971SOL    HW221813   6.331   4.372   1.262
 6972SOL     OW21814   5.854   4.449   3.351
 6972SOL    HW121815   5.762   4.489   3.355
 6972SOL    HW221816   5.867   4.404   3.264
 6973SOL     OW21817   0.676   3.112   5.524
 6973SOL    HW121818   0.655   3.185   5.459
 6973SOL    HW221819   0.769   3.079   5.509
 6974SOL     OW21820   3.430   2.924   2.838
 6974SOL    HW121821   3.394   2.939   2.746
 6974SOL    HW221822   3.529   2.939   2.838
 6975SOL     OW21823   1.938   6.099   6.399
 6975SOL    HW121824   1.911   6.125   6.492
 6975SOL    HW221825   1.890   6.156   6.333
 6976SOL     OW21826   4.318   5.383   4.872
 6976SOL    HW121827   4.381   5.419   4.803
 6976SOL    HW221828   4.283   5.459   4.927
 6977SOL     OW21829   4.350   2.464   1.720
 6977SOL    HW121830   4.309   2.373   1.712
 6977SOL    HW221831   4.337   2.514   1.634
 6978SOL     OW21832   4.566   1.830   2.432
 6978SOL    HW121833   4.564   1.776   2.348
 6978SOL    HW221834   4.552   1.927   2.410
 6979SOL     OW21835   1.489   4.112   0.989
 6979SOL    HW121836   1.475   4.200   1.033
 6979SOL    HW221837   1.401   4.069   0.971
 6980SOL     OW21838   1.326   1.458   3.550
 6980SOL    HW121839   1.376   1.528   3.602
 6980SOL    HW221840   1.383   1.425   3.475
 6981SOL     OW21841   4.042   3.291   6.042
 6981SOL    HW121842   4.057   3.324   6.135
 6981SOL    HW221843   4.095   3.207   6.027
 6982SOL     OW21844   1.594   0.505   4.350
 6982SOL    HW121845   1.569   0.442   4.276
 6982SOL    HW221846   1.546   0.592   4.336
 6983SOL     OW21847   4.276   1.955   4.235
 6983SOL    HW121848   4.295   2.051   4.214
 6983SOL    HW221849   4.302   1.899   4.157
 6984SOL     OW21850   2.347   1.563   3.990
 6984SOL    HW121851   2.250   1.543   3.981
 6984SOL    HW221852   2.359   1.657   4.023
 6985SOL     OW21853   3.999   5.870   1.518
 6985SOL    HW121854   4.077   5.933   1.528
 6985SOL    HW221855   3.949   5.892   1.434
 6986SOL     OW21856   2.489   6.547   6.111
 6986SOL    HW121857   2.402   6.588   6.138
 6986SOL    HW221858   2.503   6.560   6.013
 6987SOL     OW21859   0.233   2.075   6.350
 6987SOL    HW121860   0.295   2.012   6.304
 6987SOL    HW221861   0.151   2.088   6.294
 6988SOL     OW21862   6.783   1.188   5.756
 6988SOL    HW121863   6.850   1.152   5.820
 6988SOL    HW221864   6.791   1.288   5.752
 6989SOL     OW21865   0.744   3.512   4.025
 6989SOL    HW121866   0.758   3.598   3.976
 6989SOL    HW221867   0.799   3.512   4.109
 6990SOL     OW21868   4.909   2.601   1.638
 6990SOL    HW121869   4.840   2.621   1.569
 6990SOL    HW221870   4.864   2.569   1.722
 6991SOL     OW21871   3.196   4.872   4.074
 6991SOL    HW121872   3.219   4.969   4.077
 6991SOL    HW221873   3.197   4.841   3.979
 6992SOL     OW21874   5.568   6.405   5.458
 6992SOL    HW121875   5.615   6.333   5.508
 6992SOL    HW221876   5.613   6.421   5.370
 6993SOL     OW21877   6.674   0.905   3.126
 6993SOL    HW121878   6.751   0.849   3.160
 6993SOL    HW221879   6.670   0.990   3.177
 6994SOL     OW21880   0.365   2.648   4.654
 6994SOL    HW121881   0.293   2.704   4.695
 6994SOL    HW221882   0.362   2.657   4.554
 6995SOL     OW21883   6.943   4.687   5.711
 6995SOL    HW121884   7.020   4.744   5.681
 6995SOL    HW221885   6.957   4.660   5.806
 6996SOL     OW21886   2.473   0.714   0.086
 6996SOL    HW121887   2.482   0.618   0.111
 6996SOL    HW221888   2.565   0.754   0.074
 6997SOL     OW21889   6.351   6.181   5.255
 6997SOL    HW121890   6.275   6.245   5.242
 6997SOL    HW221891   6.333   6.097   5.204
 6998SOL     OW21892   1.426   1.957   1.178
 6998SOL    HW121893   1.496   2.023   1.151
 6998SOL    HW221894   1.470   1.871   1.205
 6999SOL     OW21895   2.614   2.885   5.985
 6999SOL    HW121896   2.602   2.978   5.951
 6999SOL    HW221897   2.525   2.848   6.014
 7000SOL     OW21898   6.544   6.084   1.816
 7000SOL    HW121899   6.517   6.139   1.738
 7000SOL    HW221900   6.533   6.137   1.900
 7001SOL     OW21901   2.298   3.083   5.372
 7001SOL    HW121902   2.368   3.052   5.307
 7001SOL    HW221903   2.213   3.033   5.355
 7002SOL     OW21904   2.655   4.933   3.652
 7002SOL    HW121905   2.627   4.910   3.745
 7002SOL    HW221906   2.715   5.013   3.654
 7003SOL     OW21907   3.775   5.629   6.994
 7003SOL    HW121908   3.698   5.686   6.965
 7003SOL    HW221909   3.826   5.598   6.914
 7004SOL     OW21910   1.456   4.788   2.020
 7004SOL    HW121911   1.554   4.787   2.038
 7004SOL    HW221912   1.409   4.728   2.085
 7005SOL     OW21913   1.450   6.810   0.306
 7005SOL    HW121914   1.368   6.864   0.286
 7005SOL    HW221915   1.429   6.743   0.377
 7006SOL     OW21916   4.671   4.844   4.224
 7006SOL    HW121917   4.693   4.769   4.162
 7006SOL    HW221918   4.576   4.835   4.255
 7007SOL     OW21919   4.637   0.118   3.938
 7007SOL    HW121920   4.583   0.061   3.875
 7007SOL    HW221921   4.714   0.064   3.973
 7008SOL     OW21922   0.972   4.514   4.820
 7008SOL    HW121923   0.894   4.477   4.871
 7008SOL    HW221924   0.997   4.604   4.857
 7009SOL     OW21925   6.359   6.111   2.380
 7009SOL    HW121926   6.411   6.044   2.327
 7009SOL    HW221927   6.382   6.102   2.477
 7010SOL     OW21928   5.223   4.558   5.127
 7010SOL    HW121929   5.246   4.461   5.115
 7010SOL    HW221930   5.140   4.579   5.076
 7011SOL     OW21931   3.727   6.838   6.285
 7011SOL    HW121932   3.675   6.914   6.247
 7011SOL    HW221933   3.825   6.859   6.281
 7012SOL     OW21934   1.731   1.838   1.793
 7012SOL    HW121935   1.717   1.854   1.696
 7012SOL    HW221936   1.770   1.920   1.835
 7013SOL     OW21937   0.860   0.581   0.614
 7013SOL    HW121938   0.853   0.633   0.528
 7013SOL    HW221939   0.795   0.505   0.612
 7014SOL     OW21940   4.197   3.027   1.301
 7014SOL    HW121941   4.194   3.115   1.255
 7014SOL    HW221942   4.243   2.960   1.242
 7015SOL     OW21943   5.709   4.301   2.075
 7015SOL    HW121944   5.782   4.303   2.007
 7015SOL    HW221945   5.744   4.337   2.162
 7016SOL     OW21946   3.456   4.797   1.698
 7016SOL    HW121947   3.509   4.727   1.746
 7016SOL    HW221948   3.493   4.887   1.720
 7017SOL     OW21949   2.716   5.875   2.312
 7017SOL    HW121950   2.711   5.922   2.223
 7017SOL    HW221951   2.651   5.917   2.375
 7018SOL     OW21952   6.090   4.472   3.746
 7018SOL    HW121953   6.128   4.425   3.667
 7018SOL    HW221954   6.106   4.570   3.737
 7019SOL     OW21955   2.434   4.082   6.742
 7019SOL    HW121956   2.407   4.104   6.836
 7019SOL    HW221957   2.534   4.087   6.734
 7020SOL     OW21958   5.434   0.132   6.870
 7020SOL    HW121959   5.452   0.111   6.773
 7020SOL    HW221960   5.340   0.107   6.893
 7021SOL     OW21961   1.521   1.333   6.198
 7021SOL    HW121962   1.481   1.248   6.163
 7021SOL    HW221963   1.561   1.317   6.288
 7022SOL     OW21964   4.486   6.238   0.237
 7022SOL    HW121965   4.406   6.228   0.295
 7022SOL    HW221966   4.514   6.149   0.201
 7023SOL     OW21967   0.634   1.625   3.024
 7023SOL    HW121968   0.658   1.715   2.988
 7023SOL    HW221969   0.583   1.574   2.955
 7024SOL     OW21970   1.635   4.390   5.477
 7024SOL    HW121971   1.706   4.411   5.544
 7024SOL    HW221972   1.662   4.427   5.388
 7025SOL     OW21973   2.704   0.767   6.725
 7025SOL    HW121974   2.608   0.787   6.710
 7025SOL    HW221975   2.714   0.702   6.800
 7026SOL     OW21976   3.463   2.014   1.884
 7026SOL    HW121977   3.497   2.046   1.972
 7026SOL    HW221978   3.391   1.946   1.898
 7027SOL     OW21979   2.374   5.192   4.222
 7027SOL    HW121980   2.289   5.216   4.268
 7027SOL    HW221981   2.446   5.255   4.251
 7028SOL     OW21982   4.610   0.422   3.950
 7028SOL    HW121983   4.627   0.325   3.932
 7028SOL    HW221984   4.570   0.433   4.041
 7029SOL     OW21985   5.248   4.787   6.256
 7029SOL    HW121986   5.338   4.799   6.215
 7029SOL    HW221987   5.181   4.768   6.183
 7030SOL     OW21988   1.005   1.526   5.015
 7030SOL    HW121989   1.078   1.577   4.970
 7030SOL    HW221990   0.963   1.582   5.086
 7031SOL     OW21991   2.196   6.491   5.275
 7031SOL    HW121992   2.195   6.575   5.329
 7031SOL    HW221993   2.160   6.510   5.183
 7032SOL     OW21994   3.424   0.764   2.706
 7032SOL    HW121995   3.507   0.818   2.694
 7032SOL    HW221996   3.380   0.751   2.617
 7033SOL     OW21997   1.626   2.824   3.438
 7033SOL    HW121998   1.631   2.867   3.528
 7033SOL    HW221999   1.541   2.772   3.430
 7034SOL     OW22000   6.157   0.503   2.886
 7034SOL    HW122001   6.106   0.544   2.961
 7034SOL    HW222002   6.234   0.561   2.862
 7035SOL     OW22003   1.911   6.694   1.637
 7035SOL    HW122004   1.895   6.780   1.588
 7035SOL    HW222005   1.978   6.709   1.710
 7036SOL     OW22006   0.734   0.527   2.700
 7036SOL    HW122007   0.666   0.535   2.626
 7036SOL    HW222008   0.774   0.436   2.698
 7037SOL     OW22009   1.789   0.780   6.518
 7037SOL    HW122010   1.748   0.689   6.526
 7037SOL    HW222011   1.720   0.846   6.488
 7038SOL     OW22012   1.684   3.601   4.580
 7038SOL    HW122013   1.638   3.560   4.502
 7038SOL    HW222014   1.616   3.634   4.645
 7039SOL     OW22015   2.959   4.832   1.473
 7039SOL    HW122016   3.051   4.869   1.459
 7039SOL    HW222017   2.960   4.768   1.550
 7040SOL     OW22018   6.492   1.936   4.835
 7040SOL    HW122019   6.466   2.029   4.858
 7040SOL    HW222020   6.462   1.874   4.907
 7041SOL     OW22021   0.231   2.313   1.941
 7041SOL    HW122022   0.182   2.232   1.907
 7041SOL    HW222023   0.328   2.291   1.951
 7042SOL     OW22024   5.524   5.108   5.714
 7042SOL    HW122025   5.562   5.023   5.750
 7042SOL    HW222026   5.592   5.153   5.656
 7043SOL     OW22027   2.104   3.322   2.419
 7043SOL    HW122028   2.076   3.372   2.501
 7043SOL    HW222029   2.123   3.227   2.442
 7044SOL     OW22030   4.778   4.987   3.431
 7044SOL    HW122031   4.808   4.923   3.360
 7044SOL    HW222032   4.687   5.022   3.408
 7045SOL     OW22033   5.285   5.355   3.195
 7045SOL    HW122034   5.209   5.397   3.146
 7045SOL    HW222035   5.372   5.392   3.160
 7046SOL     OW22036   3.352   1.614   2.916
 7046SOL    HW122037   3.421   1.638   2.984
 7046SOL    HW222038   3.377   1.653   2.827
 7047SOL     OW22039   0.857   2.656   2.507
 7047SOL    HW122040   0.860   2.721   2.431
 7047SOL    HW222041   0.876   2.564   2.473
 7048SOL     OW22042   6.450   6.219   2.944
 7048SOL    HW122043   6.385   6.222   2.867
 7048SOL    HW222044   6.440   6.301   2.999
 7049SOL     OW22045   3.486   1.453   0.959
 7049SOL    HW122046   3.464   1.546   0.988
 7049SOL    HW222047   3.401   1.404   0.939
 7050SOL     OW22048   3.961   4.031   1.810
 7050SOL    HW122049   3.898   4.098   1.848
 7050SOL    HW222050   3.912   3.944   1.795
 7051SOL     OW22051   6.969   0.698   1.513
 7051SOL    HW122052   6.993   0.746   1.428
 7051SOL    HW222053   6.882   0.651   1.500
 7052SOL     OW22054   5.351   2.586   4.170
 7052SOL    HW122055   5.297   2.543   4.243
 7052SOL    HW222056   5.442   2.544   4.167
 7053SOL     OW22057   0.712   3.307   4.857
 7053SOL    HW122058   0.753   3.378   4.913
 7053SOL    HW222059   0.673   3.236   4.916
 7054SOL     OW22060   0.250   6.791   0.737
 7054SOL    HW122061   0.234   6.859   0.809
 7054SOL    HW222062   0.219   6.828   0.649
 7055SOL     OW22063   3.598   6.480   5.322
 7055SOL    HW122064   3.514   6.532   5.335
 7055SOL    HW222065   3.676   6.542   5.317
 7056SOL     OW22066   6.487   5.863   2.220
 7056SOL    HW122067   6.503   5.814   2.306
 7056SOL    HW222068   6.574   5.895   2.182
 7057SOL     OW22069   1.232   5.647   4.107
 7057SOL    HW122070   1.291   5.616   4.033
 7057SOL    HW222071   1.265   5.609   4.194
 7058SOL     OW22072   6.112   5.496   6.256
 7058SOL    HW122073   6.027   5.525   6.299
 7058SOL    HW222074   6.099   5.494   6.156
 7059SOL     OW22075   6.773   1.127   4.104
 7059SOL    HW122076   6.714   1.154   4.027
 7059SOL    HW222077   6.763   1.030   4.122
 7060SOL     OW22078   4.016   6.908   1.807
 7060SOL    HW122079   3.980   6.968   1.879
 7060SOL    HW222080   4.115   6.923   1.798
 7061SOL     OW22081   1.459   3.097   3.582
 7061SOL    HW122082   1.494   3.096   3.489
 7061SOL    HW222083   1.521   3.045   3.641
 7062SOL     OW22084   4.683   1.145   5.218
 7062SOL    HW122085   4.702   1.242   5.235
 7062SOL    HW222086   4.721   1.090   5.293
 7063SOL     OW22087   0.887   0.375   1.961
 7063SOL    HW122088   0.974   0.412   1.994
 7063SOL    HW222089   0.822   0.450   1.952
 7064SOL     OW22090   3.906   2.428   1.273
 7064SOL    HW122091   3.976   2.424   1.344
 7064SOL    HW222092   3.815   2.434   1.315
 7065SOL     OW22093   3.966   3.865   6.243
 7065SOL    HW122094   4.028   3.844   6.319
 7065SOL    HW222095   3.910   3.785   6.223
 7066SOL     OW22096   4.515   0.102   0.596
 7066SOL    HW122097   4.474   0.013   0.575
 7066SOL    HW222098   4.581   0.125   0.524
 7067SOL     OW22099   1.940   1.740   5.127
 7067SOL    HW122100   1.846   1.717   5.154
 7067SOL    HW222101   1.975   1.811   5.188
 7068SOL     OW22102   0.558   4.269   4.041
 7068SOL    HW122103   0.466   4.236   4.021
 7068SOL    HW222104   0.625   4.207   4.000
 7069SOL     OW22105   5.662   1.413   4.715
 7069SOL    HW122106   5.616   1.477   4.776
 7069SOL    HW222107   5.757   1.404   4.743
 7070SOL     OW22108   6.840   6.072   5.224
 7070SOL    HW122109   6.805   6.007   5.291
 7070SOL    HW222110   6.819   6.040   5.132
 7071SOL     OW22111   2.184   6.295   6.478
 7071SOL    HW122112   2.104   6.354   6.473
 7071SOL    HW222113   2.175   6.231   6.554
 7072SOL     OW22114   1.579   6.067   6.879
 7072SOL    HW122115   1.634   6.091   6.959
 7072SOL    HW222116   1.489   6.111   6.885
 7073SOL     OW22117   5.029   6.706   4.529
 7073SOL    HW122118   5.017   6.802   4.557
 7073SOL    HW222119   5.106   6.699   4.466
 7074SOL     OW22120   4.358   2.403   2.209
 7074SOL    HW122121   4.301   2.484   2.196
 7074SOL    HW222122   4.426   2.398   2.135
 7075SOL     OW22123   1.966   4.741   5.099
 7075SOL    HW122124   2.034   4.742   5.172
 7075SOL    HW222125   2.003   4.693   5.020
 7076SOL     OW22126   5.329   1.885   6.568
 7076SOL    HW122127   5.393   1.948   6.523
 7076SOL    HW222128   5.274   1.840   6.498
 7077SOL     OW22129   2.395   4.441   4.027
 7077SOL    HW122130   2.394   4.365   4.092
 7077SOL    HW222131   2.375   4.407   3.936
 7078SOL     OW22132   0.161   0.424   1.850
 7078SOL    HW122133   0.114   0.346   1.891
 7078SOL    HW222134   0.200   0.481   1.923
 7079SOL     OW22135   6.703   6.217   4.822
 7079SOL    HW122136   6.692   6.299   4.879
 7079SOL    HW222137   6.714   6.244   4.727
 7080SOL     OW22138   2.784   2.046   4.057
 7080SOL    HW122139   2.713   1.997   4.109
 7080SOL    HW222140   2.742   2.113   3.997
 7081SOL     OW22141   3.116   0.474   0.122
 7081SOL    HW122142   3.144   0.566   0.096
 7081SOL    HW222143   3.144   0.455   0.216
 7082SOL     OW22144   6.643   4.512   6.693
 7082SOL    HW122145   6.587   4.586   6.657
 7082SOL    HW222146   6.617   4.492   6.787
 7083SOL     OW22147   2.630   0.048   0.647
 7083SOL    HW122148   2.539   0.073   0.680
 7083SOL    HW222149   2.664   0.120   0.587
 7084SOL     OW22150   0.251   6.425   6.060
 7084SOL    HW122151   0.310   6.456   5.986
 7084SOL    HW222152   0.157   6.417   6.027
 7085SOL     OW22153   0.693   2.068   1.888
 7085SOL    HW122154   0.618   2.017   1.929
 7085SOL    HW222155   0.779   2.018   1.901
 7086SOL     OW22156   5.321   0.708   5.435
 7086SOL    HW122157   5.314   0.789   5.377
 7086SOL    HW222158   5.342   0.628   5.378
 7087SOL     OW22159   6.177   2.878   3.813
 7087SOL    HW122160   6.171   2.957   3.873
 7087SOL    HW222161   6.121   2.804   3.850
 7088SOL     OW22162   5.648   3.036   3.634
 7088SOL    HW122163   5.654   2.979   3.552
 7088SOL    HW222164   5.739   3.064   3.663
 7089SOL     OW22165   2.911   2.247   5.056
 7089SOL    HW122166   3.000   2.271   5.095
 7089SOL    HW222167   2.921   2.167   4.997
 7090SOL     OW22168   2.422   0.444   0.216
 7090SOL    HW122169   2.438   0.397   0.303
 7090SOL    HW222170   2.399   0.376   0.146
 7091SOL     OW22171   0.439   1.627   6.809
 7091SOL    HW122172   0.388   1.657   6.728
 7091SOL    HW222173   0.499   1.551   6.785
 7092SOL     OW22174   4.634   2.768   5.861
 7092SOL    HW122175   4.689   2.738   5.784
 7092SOL    HW222176   4.604   2.863   5.846
 7093SOL     OW22177   3.127   3.649   3.208
 7093SOL    HW122178   3.108   3.655   3.306
 7093SOL    HW222179   3.104   3.736   3.164
 7094SOL     OW22180   6.896   6.022   5.698
 7094SOL    HW122181   6.948   5.959   5.755
 7094SOL    HW222182   6.819   5.973   5.656
 7095SOL     OW22183   3.527   3.764   6.015
 7095SOL    HW122184   3.470   3.813   5.949
 7095SOL    HW222185   3.495   3.784   6.108
 7096SOL     OW22186   6.772   0.756   3.861
 7096SOL    HW122187   6.827   0.674   3.851
 7096SOL    HW222188   6.817   0.818   3.926
 7097SOL     OW22189   6.001   1.300   0.901
 7097SOL    HW122190   5.932   1.358   0.858
 7097SOL    HW222191   6.085   1.303   0.847
 7098SOL     OW22192   1.633   6.939   5.416
 7098SOL    HW122193   1.664   0.006   5.437
 7098SOL    HW222194   1.712   6.877   5.412
 7099SOL     OW22195   3.395   1.132   5.412
 7099SOL    HW122196   3.329   1.206   5.398
 7099SOL    HW222197   3.488   1.169   5.404
 7100SOL     OW22198   5.072   2.444   0.992
 7100SOL    HW122199   5.009   2.487   0.928
 7100SOL    HW222200   5.165   2.449   0.956
 7101SOL     OW22201   2.146   0.852   4.598
 7101SOL    HW122202   2.096   0.881   4.680
 7101SOL    HW222203   2.180   0.932   4.549
 7102SOL     OW22204   5.133   6.938   0.773
 7102SOL    HW122205   5.184   6.876   0.713
 7102SOL    HW222206   5.102   7.017   0.720
 7103SOL     OW22207   4.697   4.685   1.456
 7103SOL    HW122208   4.686   4.605   1.514
 7103SOL    HW222209   4.608   4.727   1.438
 7104SOL     OW22210   0.285   2.806   3.699
 7104SOL    HW122211   0.320   2.894   3.728
 7104SOL    HW222212   0.185   2.805   3.708
 7105SOL     OW22213   2.778   2.908   5.347
 7105SOL    HW122214   2.753   2.942   5.438
 7105SOL    HW222215   2.855   2.961   5.312
 7106SOL     OW22216   3.691   3.871   2.895
 7106SOL    HW122217   3.618   3.887   2.829
 7106SOL    HW222218   3.671   3.920   2.980
 7107SOL     OW22219   3.872   1.596   0.582
 7107SOL    HW122220   3.776   1.571   0.567
 7107SOL    HW222221   3.918   1.522   0.631
 7108SOL     OW22222   4.852   5.621   3.238
 7108SOL    HW122223   4.836   5.703   3.293
 7108SOL    HW222224   4.780   5.554   3.256
 7109SOL     OW22225   3.103   0.815   6.054
 7109SOL    HW122226   3.068   0.856   5.970
 7109SOL    HW222227   3.079   0.872   6.132
 7110SOL     OW22228   2.943   5.952   4.405
 7110SOL    HW122229   3.009   6.021   4.435
 7110SOL    HW222230   2.862   5.955   4.463
 7111SOL     OW22231   1.429   2.368   4.506
 7111SOL    HW122232   1.524   2.343   4.525
 7111SOL    HW222233   1.371   2.343   4.584
 7112SOL     OW22234   1.309   5.335   4.796
 7112SOL    HW122235   1.356   5.259   4.841
 7112SOL    HW222236   1.301   5.316   4.698
 7113SOL     OW22237   4.055   3.726   4.621
 7113SOL    HW122238   4.062   3.633   4.584
 7113SOL    HW222239   4.079   3.724   4.718
 7114SOL     OW22240   3.668   6.964   1.878
 7114SOL    HW122241   3.753   6.921   1.909
 7114SOL    HW222242   3.679   0.038   1.877
 7115SOL     OW22243   5.524   2.765   1.483
 7115SOL    HW122244   5.477   2.762   1.394
 7115SOL    HW222245   5.528   2.860   1.514
 7116SOL     OW22246   6.455   4.285   3.503
 7116SOL    HW122247   6.366   4.329   3.517
 7116SOL    HW222248   6.498   4.322   3.421
 7117SOL     OW22249   0.318   6.427   5.259
 7117SOL    HW122250   0.228   6.405   5.298
 7117SOL    HW222251   0.344   6.355   5.194
 7118SOL     OW22252   2.568   3.667   1.365
 7118SOL    HW122253   2.665   3.685   1.385
 7118SOL    HW222254   2.521   3.640   1.448
 7119SOL     OW22255   5.050   2.236   3.155
 7119SOL    HW122256   5.009   2.292   3.083
 7119SOL    HW222257   5.146   2.219   3.134
 7120SOL     OW22258   3.491   1.662   2.635
 7120SOL    HW122259   3.408   1.643   2.582
 7120SOL    HW222260   3.568   1.676   2.573
 7121SOL     OW22261   1.297   6.815   3.374
 7121SOL    HW122262   1.310   6.840   3.279
 7121SOL    HW222263   1.375   6.760   3.405
 7122SOL     OW22264   0.705   0.288   5.916
 7122SOL    HW122265   0.632   0.352   5.891
 7122SOL    HW222266   0.704   0.210   5.853
 7123SOL     OW22267   1.905   4.517   3.190
 7123SOL    HW122268   1.998   4.542   3.163
 7123SOL    HW222269   1.845   4.524   3.111
 7124SOL     OW22270   0.024   2.106   1.233
 7124SOL    HW122271   0.008   2.159   1.316
 7124SOL    HW222272   6.998   2.021   1.237
 7125SOL     OW22273   0.022   0.096   1.333
 7125SOL    HW122274   0.052   0.192   1.333
 7125SOL    HW222275   0.018   0.063   1.427
 7126SOL     OW22276   3.177   5.123   6.993
 7126SOL    HW122277   3.191   5.044   0.027
 7126SOL    HW222278   3.228   5.201   0.005
 7127SOL     OW22279   1.292   5.400   5.403
 7127SOL    HW122280   1.334   5.373   5.490
 7127SOL    HW222281   1.209   5.452   5.421
 7128SOL     OW22282   3.261   4.886   0.133
 7128SOL    HW122283   3.282   4.850   0.042
 7128SOL    HW222284   3.236   4.811   0.193
 7129SOL     OW22285   1.957   1.865   6.591
 7129SOL    HW122286   1.956   1.931   6.666
 7129SOL    HW222287   1.939   1.773   6.627
 7130SOL     OW22288   4.014   5.954   5.316
 7130SOL    HW122289   3.972   5.932   5.228
 7130SOL    HW222290   4.049   6.047   5.314
 7131SOL     OW22291   2.562   0.618   1.384
 7131SOL    HW122292   2.610   0.650   1.466
 7131SOL    HW222293   2.564   0.518   1.381
 7132SOL     OW22294   3.362   4.328   6.838
 7132SOL    HW122295   3.269   4.362   6.854
 7132SOL    HW222296   3.381   4.327   6.740
 7133SOL     OW22297   5.253   5.585   6.115
 7133SOL    HW122298   5.276   5.519   6.044
 7133SOL    HW222299   5.254   5.678   6.076
 7134SOL     OW22300   5.528   6.834   2.432
 7134SOL    HW122301   5.467   6.760   2.459
 7134SOL    HW222302   5.481   6.895   2.368
 7135SOL     OW22303   1.535   3.372   3.176
 7135SOL    HW122304   1.507   3.468   3.174
 7135SOL    HW222305   1.610   3.361   3.241
 7136SOL     OW22306   2.495   2.903   1.021
 7136SOL    HW122307   2.548   2.985   0.997
 7136SOL    HW222308   2.493   2.893   1.120
 7137SOL     OW22309   3.472   0.124   6.773
 7137SOL    HW122310   3.395   0.061   6.760
 7137SOL    HW222311   3.462   0.170   6.861
 7138SOL     OW22312   1.474   2.252   6.936
 7138SOL    HW122313   1.419   2.194   6.875
 7138SOL    HW222314   1.555   2.284   6.887
 7139SOL     OW22315   5.887   4.077   1.312
 7139SOL    HW122316   5.874   4.118   1.402
 7139SOL    HW222317   5.832   3.994   1.304
 7140SOL     OW22318   6.037   4.118   3.406
 7140SOL    HW122319   6.036   4.044   3.338
 7140SOL    HW222320   5.943   4.138   3.435
 7141SOL     OW22321   3.384   5.807   1.483
 7141SOL    HW122322   3.289   5.836   1.490
 7141SOL    HW222323   3.444   5.882   1.512
 7142SOL     OW22324   3.827   0.364   3.783
 7142SOL    HW122325   3.921   0.347   3.811
 7142SOL    HW222326   3.826   0.435   3.713
 7143SOL     OW22327   1.516   2.663   5.823
 7143SOL    HW122328   1.492   2.663   5.920
 7143SOL    HW222329   1.463   2.591   5.776
 7144SOL     OW22330   1.891   2.443   1.987
 7144SOL    HW122331   1.923   2.538   1.993
 7144SOL    HW222332   1.965   2.385   1.953
 7145SOL     OW22333   4.948   0.319   0.432
 7145SOL    HW122334   5.029   0.375   0.413
 7145SOL    HW222335   4.902   0.297   0.346
 7146SOL     OW22336   2.343   0.287   1.304
 7146SOL    HW122337   2.317   0.351   1.232
 7146SOL    HW222338   2.440   0.298   1.325
 7147SOL     OW22339   0.389   0.213   3.483
 7147SOL    HW122340   0.385   0.121   3.443
 7147SOL    HW222341   0.467   0.219   3.546
 7148SOL     OW22342   0.937   5.943   0.954
 7148SOL    HW122343   0.927   5.920   0.857
 7148SOL    HW222344   0.993   6.026   0.963
 7149SOL     OW22345   6.369   6.658   2.868
 7149SOL    HW122346   6.389   6.731   2.803
 7149SOL    HW222347   6.310   6.693   2.941
 7150SOL     OW22348   3.053   2.160   2.228
 7150SOL    HW122349   3.084   2.076   2.185
 7150SOL    HW222350   3.009   2.219   2.160
 7151SOL     OW22351   2.173   6.345   1.175
 7151SOL    HW122352   2.249   6.406   1.154
 7151SOL    HW222353   2.132   6.372   1.263
 7152SOL     OW22354   1.057   0.684   5.232
 7152SOL    HW122355   1.157   0.681   5.229
 7152SOL    HW222356   1.027   0.779   5.233
 7153SOL     OW22357   3.496   5.698   1.862
 7153SOL    HW122358   3.591   5.715   1.889
 7153SOL    HW222359   3.466   5.771   1.801
 7154SOL     OW22360   3.559   0.386   3.232
 7154SOL    HW122361   3.630   0.413   3.168
 7154SOL    HW222362   3.576   0.428   3.321
 7155SOL     OW22363   1.749   3.624   1.140
 7155SOL    HW122364   1.833   3.620   1.194
 7155SOL    HW222365   1.772   3.648   1.045
 7156SOL     OW22366   7.022   3.451   3.926
 7156SOL    HW122367   0.003   3.512   3.848
 7156SOL    HW222368   0.036   3.495   4.006
 7157SOL     OW22369   0.126   3.892   1.814
 7157SOL    HW122370   0.037   3.851   1.796
 7157SOL    HW222371   0.114   3.976   1.867
 7158SOL     OW22372   0.991   6.938   3.903
 7158SOL    HW122373   1.016   6.865   3.967
 7158SOL    HW222374   0.945   6.899   3.824
 7159SOL     OW22375   0.616   4.787   2.588
 7159SOL    HW122376   0.580   4.702   2.627
 7159SOL    HW222377   0.555   4.863   2.611
 7160SOL     OW22378   5.922   0.167   3.043
 7160SOL    HW122379   5.966   0.150   3.132
 7160SOL    HW222380   5.859   0.093   3.022
 7161SOL     OW22381   3.083   3.997   4.148
 7161SOL    HW122382   3.129   4.063   4.206
 7161SOL    HW222383   3.058   3.916   4.201
 7162SOL     OW22384   1.171   5.679   6.189
 7162SOL    HW122385   1.197   5.583   6.201
 7162SOL    HW222386   1.212   5.734   6.261
 7163SOL     OW22387   2.942   6.438   2.978
 7163SOL    HW122388   2.848   6.441   2.942
 7163SOL    HW222389   2.963   6.345   3.009
 7164SOL     OW22390   2.214   0.556   3.489
 7164SOL    HW122391   2.236   0.484   3.555
 7164SOL    HW222392   2.227   0.521   3.396
 7165SOL     OW22393   6.853   0.994   2.492
 7165SOL    HW122394   6.912   0.938   2.551
 7165SOL    HW222395   6.902   1.017   2.408
 7166SOL     OW22396   6.045   2.412   0.680
 7166SOL    HW122397   6.098   2.378   0.603
 7166SOL    HW222398   6.105   2.458   0.745
 7167SOL     OW22399   5.407   3.305   4.043
 7167SOL    HW122400   5.360   3.378   4.092
 7167SOL    HW222401   5.360   3.218   4.059
 7168SOL     OW22402   1.415   2.409   3.312
 7168SOL    HW122403   1.400   2.505   3.335
 7168SOL    HW222404   1.473   2.402   3.231
 7169SOL     OW22405   6.980   2.126   4.778
 7169SOL    HW122406   6.942   2.108   4.869
 7169SOL    HW222407   0.028   2.061   4.760
 7170SOL     OW22408   4.651   6.890   4.250
 7170SOL    HW122409   4.690   6.821   4.188
 7170SOL    HW222410   4.719   6.962   4.267
 7171SOL     OW22411   5.734   3.907   0.009
 7171SOL    HW122412   5.720   4.005   7.018
 7171SOL    HW222413   5.650   3.858   7.012
 7172SOL     OW22414   1.482   0.454   5.182
 7172SOL    HW122415   1.573   0.476   5.149
 7172SOL    HW222416   1.425   0.423   5.106
 7173SOL     OW22417   6.749   4.641   6.127
 7173SOL    HW122418   6.827   4.661   6.066
 7173SOL    HW222419   6.671   4.696   6.099
 7174SOL     OW22420   0.567   4.560   6.958
 7174SOL    HW122421   0.657   4.550   6.917
 7174SOL    HW222422   0.551   4.485   7.022
 7175SOL     OW22423   5.792   2.443   6.683
 7175SOL    HW122424   5.859   2.447   6.757
 7175SOL    HW222425   5.839   2.452   6.595
 7176SOL     OW22426   0.443   0.184   3.114
 7176SOL    HW122427   0.406   0.107   3.062
 7176SOL    HW222428   0.465   0.259   3.053
 7177SOL     OW22429   1.432   5.125   4.643
 7177SOL    HW122430   1.407   5.160   4.553
 7177SOL    HW222431   1.530   5.137   4.658
 7178SOL     OW22432   2.162   1.979   6.163
 7178SOL    HW122433   2.238   2.031   6.201
 7178SOL    HW222434   2.104   2.041   6.110
 7179SOL     OW22435   1.961   3.587   4.758
 7179SOL    HW122436   1.930   3.498   4.724
 7179SOL    HW222437   2.041   3.575   4.816
 7180SOL     OW22438   2.553   5.465   0.385
 7180SOL    HW122439   2.481   5.517   0.431
 7180SOL    HW222440   2.617   5.430   0.453
 7181SOL     OW22441   2.231   6.558   0.176
 7181SOL    HW122442   2.154   6.612   0.211
 7181SOL    HW222443   2.306   6.619   0.151
 7182SOL     OW22444   0.977   2.627   4.787
 7182SOL    HW122445   0.886   2.626   4.829
 7182SOL    HW222446   0.975   2.572   4.703
 7183SOL     OW22447   2.092   6.286   6.877
 7183SOL    HW122448   2.078   6.249   6.969
 7183SOL    HW222449   2.161   6.358   6.881
 7184SOL     OW22450   6.868   0.886   3.445
 7184SOL    HW122451   6.771   0.864   3.455
 7184SOL    HW222452   6.919   0.850   3.523
 7185SOL     OW22453   5.910   0.469   5.347
 7185SOL    HW122454   5.994   0.451   5.398
 7185SOL    HW222455   5.896   0.568   5.340
 7186SOL     OW22456   6.866   1.678   0.212
 7186SOL    HW122457   6.919   1.758   0.239
 7186SOL    HW222458   6.896   1.598   0.265
 7187SOL     OW22459   3.757   5.113   6.278
 7187SOL    HW122460   3.814   5.191   6.306
 7187SOL    HW222461   3.697   5.142   6.203
 7188SOL     OW22462   6.339   1.269   0.812
 7188SOL    HW122463   6.389   1.188   0.840
 7188SOL    HW222464   6.311   1.261   0.717
 7189SOL     OW22465   0.560   1.890   6.191
 7189SOL    HW122466   0.590   1.890   6.287
 7189SOL    HW222467   0.532   1.798   6.165
 7190SOL     OW22468   0.041   3.425   3.050
 7190SOL    HW122469   0.068   3.479   2.971
 7190SOL    HW222470   6.988   3.367   3.026
 7191SOL     OW22471   0.756   4.465   2.495
 7191SOL    HW122472   0.665   4.449   2.534
 7191SOL    HW222473   0.819   4.491   2.569
 7192SOL     OW22474   3.190   4.856   5.660
 7192SOL    HW122475   3.112   4.803   5.627
 7192SOL    HW222476   3.221   4.918   5.588
 7193SOL     OW22477   1.148   2.363   2.001
 7193SOL    HW122478   1.107   2.274   1.981
 7193SOL    HW222479   1.242   2.365   1.967
 7194SOL     OW22480   2.572   1.815   0.189
 7194SOL    HW122481   2.510   1.888   0.161
 7194SOL    HW222482   2.649   1.855   0.239
 7195SOL     OW22483   0.117   4.467   0.037
 7195SOL    HW122484   0.101   4.373   0.008
 7195SOL    HW222485   0.088   4.530   6.990
 7196SOL     OW22486   3.387   4.270   0.658
 7196SOL    HW122487   3.448   4.331   0.707
 7196SOL    HW222488   3.391   4.290   0.560
 7197SOL     OW22489   0.563   2.573   5.812
 7197SOL    HW122490   0.636   2.580   5.744
 7197SOL    HW222491   0.506   2.655   5.808
 7198SOL     OW22492   0.115   0.536   0.408
 7198SOL    HW122493   0.201   0.584   0.392
 7198SOL    HW222494   0.044   0.573   0.348
 7199SOL     OW22495   2.067   0.967   2.521
 7199SOL    HW122496   2.135   0.960   2.593
 7199SOL    HW222497   2.099   1.030   2.450
 7200SOL     OW22498   2.697   2.215   0.221
 7200SOL    HW122499   2.715   2.236   0.125
 7200SOL    HW222500   2.748   2.278   0.279
 7201SOL     OW22501   0.551   5.502   4.769
 7201SOL    HW122502   0.629   5.552   4.806
 7201SOL    HW222503   0.504   5.454   4.843
 7202SOL     OW22504   4.671   0.379   6.462
 7202SOL    HW122505   4.694   0.462   6.514
 7202SOL    HW222506   4.755   0.331   6.438
 7203SOL     OW22507   0.555   1.621   1.009
 7203SOL    HW122508   0.615   1.595   0.933
 7203SOL    HW222509   0.583   1.573   1.092
 7204SOL     OW22510   0.943   0.283   5.445
 7204SOL    HW122511   0.993   0.275   5.359
 7204SOL    HW222512   1.006   0.307   5.519
 7205SOL     OW22513   1.036   5.117   4.457
 7205SOL    HW122514   0.976   5.095   4.534
 7205SOL    HW222515   1.024   5.213   4.432
 7206SOL     OW22516   1.323   6.946   1.329
 7206SOL    HW122517   1.265   7.011   1.379
 7206SOL    HW222518   1.321   6.858   1.375
 7207SOL     OW22519   3.682   0.226   2.702
 7207SOL    HW122520   3.671   0.128   2.715
 7207SOL    HW222521   3.763   0.244   2.646
 7208SOL     OW22522   4.182   0.254   3.019
 7208SOL    HW122523   4.211   0.203   2.938
 7208SOL    HW222524   4.084   0.273   3.013
 7209SOL     OW22525   2.932   3.864   1.767
 7209SOL    HW122526   3.008   3.890   1.708
 7209SOL    HW222527   2.862   3.817   1.712
 7210SOL     OW22528   4.825   0.819   3.851
 7210SOL    HW122529   4.873   0.907   3.854
 7210SOL    HW222530   4.764   0.816   3.772
 7211SOL     OW22531   3.224   6.402   3.818
 7211SOL    HW122532   3.251   6.490   3.858
 7211SOL    HW222533   3.126   6.403   3.799
 7212SOL     OW22534   0.396   6.250   4.794
 7212SOL    HW122535   0.438   6.192   4.725
 7212SOL    HW222536   0.310   6.286   4.759
 7213SOL     OW22537   5.003   6.302   0.632
 7213SOL    HW122538   5.021   6.385   0.683
 7213SOL    HW222539   4.991   6.324   0.535
 7214SOL     OW22540   6.817   5.678   5.465
 7214SOL    HW122541   6.774   5.761   5.427
 7214SOL    HW222542   6.760   5.641   5.538
 7215SOL     OW22543   6.798   4.024   5.106
 7215SOL    HW122544   6.809   4.122   5.121
 7215SOL    HW222545   6.866   3.993   5.039
 7216SOL     OW22546   3.814   6.513   6.457
 7216SOL    HW122547   3.891   6.546   6.510
 7216SOL    HW222548   3.731   6.561   6.484
 7217SOL     OW22549   2.872   4.789   2.578
 7217SOL    HW122550   2.827   4.713   2.625
 7217SOL    HW222551   2.897   4.859   2.645
 7218SOL     OW22552   5.101   2.972   5.088
 7218SOL    HW122553   5.051   3.048   5.046
 7218SOL    HW222554   5.193   3.002   5.113
 7219SOL     OW22555   4.799   0.440   3.731
 7219SOL    HW122556   4.728   0.461   3.799
 7219SOL    HW222557   4.763   0.372   3.667
 7220SOL     OW22558   0.398   5.074   4.906
 7220SOL    HW122559   0.460   5.004   4.941
 7220SOL    HW222560   0.329   5.031   4.847
 7221SOL     OW22561   3.669   6.303   4.725
 7221SOL    HW122562   3.747   6.281   4.667
 7221SOL    HW222563   3.596   6.343   4.669
 7222SOL     OW22564   5.893   0.349   3.364
 7222SOL    HW122565   5.876   0.432   3.312
 7222SOL    HW222566   5.814   0.329   3.422
 7223SOL     OW22567   2.860   1.560   1.705
 7223SOL    HW122568   2.900   1.647   1.677
 7223SOL    HW222569   2.912   1.484   1.665
 7224SOL     OW22570   5.119   1.994   3.951
 7224SOL    HW122571   5.185   1.934   3.907
 7224SOL    HW222572   5.152   2.020   4.042
 7225SOL     OW22573   0.634   5.755   0.500
 7225SOL    HW122574   0.634   5.787   0.595
 7225SOL    HW222575   0.714   5.698   0.484
 7226SOL     OW22576   6.450   0.989   0.824
 7226SOL    HW122577   6.541   1.003   0.786
 7226SOL    HW222578   6.388   0.956   0.752
 7227SOL     OW22579   1.847   1.439   0.578
 7227SOL    HW122580   1.880   1.397   0.493
 7227SOL    HW222581   1.905   1.517   0.601
 7228SOL     OW22582   0.774   1.474   2.457
 7228SOL    HW122583   0.721   1.484   2.373
 7228SOL    HW222584   0.712   1.478   2.536
 7229SOL     OW22585   1.670   6.130   5.980
 7229SOL    HW122586   1.694   6.180   5.896
 7229SOL    HW222587   1.570   6.124   5.986
 7230SOL     OW22588   4.402   5.389   4.386
 7230SOL    HW122589   4.369   5.470   4.339
 7230SOL    HW222590   4.500   5.378   4.370
 7231SOL     OW22591   4.587   0.949   0.968
 7231SOL    HW122592   4.677   0.908   0.987
 7231SOL    HW222593   4.515   0.883   0.991
 7232SOL     OW22594   5.129   5.084   2.898
 7232SOL    HW122595   5.142   5.182   2.885
 7232SOL    HW222596   5.121   5.039   2.809
 7233SOL     OW22597   6.999   1.821   3.749
 7233SOL    HW122598   0.034   1.742   3.737
 7233SOL    HW222599   0.028   1.905   3.748
 7234SOL     OW22600   5.425   3.517   3.462
 7234SOL    HW122601   5.495   3.509   3.391
 7234SOL    HW222602   5.443   3.451   3.535
 7235SOL     OW22603   6.409   4.002   2.129
 7235SOL    HW122604   6.443   4.004   2.034
 7235SOL    HW222605   6.350   4.082   2.145
 7236SOL     OW22606   2.386   1.914   1.846
 7236SOL    HW122607   2.421   1.941   1.935
 7236SOL    HW222608   2.288   1.896   1.853
 7237SOL     OW22609   4.952   1.122   4.552
 7237SOL    HW122610   5.015   1.073   4.492
 7237SOL    HW222611   4.913   1.059   4.619
 7238SOL     OW22612   3.138   1.503   0.691
 7238SOL    HW122613   3.193   1.447   0.752
 7238SOL    HW222614   3.049   1.522   0.734
 7239SOL     OW22615   1.496   2.908   2.140
 7239SOL    HW122616   1.508   2.900   2.239
 7239SOL    HW222617   1.400   2.898   2.116
 7240SOL     OW22618   2.702   5.475   5.923
 7240SOL    HW122619   2.619   5.435   5.884
 7240SOL    HW222620   2.749   5.529   5.853
 7241SOL     OW22621   1.996   0.745   0.854
 7241SOL    HW122622   1.914   0.777   0.901
 7241SOL    HW222623   1.998   0.784   0.762
 7242SOL     OW22624   6.384   5.974   0.428
 7242SOL    HW122625   6.393   5.917   0.509
 7242SOL    HW222626   6.442   6.055   0.438
 7243SOL     OW22627   6.566   4.819   6.000
 7243SOL    HW122628   6.596   4.894   5.943
 7243SOL    HW222629   6.470   4.833   6.025
 7244SOL     OW22630   5.902   0.530   1.865
 7244SOL    HW122631   5.895   0.434   1.836
 7244SOL    HW222632   5.851   0.587   1.801
 7245SOL     OW22633   0.758   2.078   4.598
 7245SOL    HW122634   0.775   2.024   4.516
 7245SOL    HW222635   0.777   2.022   4.679
 7246SOL     OW22636   6.555   0.644   4.134
 7246SOL    HW122637   6.565   0.553   4.175
 7246SOL    HW222638   6.537   0.635   4.036
 7247SOL     OW22639   3.188   6.827   4.011
 7247SOL    HW122640   3.158   6.816   4.105
 7247SOL    HW222641   3.113   6.863   3.956
 7248SOL     OW22642   2.870   1.397   3.730
 7248SOL    HW122643   2.946   1.359   3.784
 7248SOL    HW222644   2.792   1.335   3.735
 7249SOL     OW22645   6.244   4.243   2.191
 7249SOL    HW122646   6.314   4.251   2.262
 7249SOL    HW222647   6.265   4.305   2.115
 7250SOL     OW22648   4.115   0.041   6.144
 7250SOL    HW122649   4.167   0.121   6.115
 7250SOL    HW222650   4.178   6.991   6.166
 7251SOL     OW22651   0.618   0.074   5.749
 7251SOL    HW122652   0.625   0.125   5.663
 7251SOL    HW222653   0.697   0.014   5.759
 7252SOL     OW22654   3.123   3.276   2.764
 7252SOL    HW122655   3.112   3.194   2.820
 7252SOL    HW222656   3.081   3.261   2.675
 7253SOL     OW22657   2.748   6.692   6.112
 7253SOL    HW122658   2.671   6.628   6.122
 7253SOL    HW222659   2.797   6.672   6.027
 7254SOL     OW22660   4.272   5.097   4.076
 7254SOL    HW122661   4.246   5.122   3.983
 7254SOL    HW222662   4.277   4.998   4.084
 7255SOL     OW22663   3.267   3.747   0.430
 7255SOL    HW122664   3.218   3.834   0.418
 7255SOL    HW222665   3.204   3.677   0.463
 7256SOL     OW22666   3.916   4.837   4.285
 7256SOL    HW122667   3.854   4.885   4.347
 7256SOL    HW222668   3.916   4.883   4.197
 7257SOL     OW22669   4.726   2.867   3.928
 7257SOL    HW122670   4.639   2.873   3.976
 7257SOL    HW222671   4.744   2.953   3.881
 7258SOL     OW22672   4.254   1.012   3.021
 7258SOL    HW122673   4.335   0.979   2.972
 7258SOL    HW222674   4.228   1.101   2.985
 7259SOL     OW22675   3.052   3.312   1.042
 7259SOL    HW122676   3.042   3.305   0.943
 7259SOL    HW222677   3.086   3.226   1.079
 7260SOL     OW22678   3.050   1.716   2.749
 7260SOL    HW122679   3.130   1.740   2.693
 7260SOL    HW222680   3.031   1.790   2.813
 7261SOL     OW22681   1.375   3.198   1.436
 7261SOL    HW122682   1.420   3.256   1.367
 7261SOL    HW222683   1.284   3.235   1.456
 7262SOL     OW22684   5.136   1.705   5.402
 7262SOL    HW122685   5.141   1.606   5.419
 7262SOL    HW222686   5.041   1.730   5.382
 7263SOL     OW22687   0.587   6.477   1.133
 7263SOL    HW122688   0.545   6.561   1.099
 7263SOL    HW222689   0.605   6.415   1.057
 7264SOL     OW22690   5.453   1.402   6.078
 7264SOL    HW122691   5.401   1.320   6.056
 7264SOL    HW222692   5.390   1.477   6.100
 7265SOL     OW22693   5.451   5.270   6.137
 7265SOL    HW122694   5.384   5.307   6.073
 7265SOL    HW222695   5.414   5.274   6.230
 7266SOL     OW22696   5.484   0.124   1.322
 7266SOL    HW122697   5.440   0.170   1.245
 7266SOL    HW222698   5.453   0.029   1.326
 7267SOL     OW22699   0.013   6.264   5.642
 7267SOL    HW122700   6.963   6.211   5.682
 7267SOL    HW222701   0.078   6.202   5.598
 7268SOL     OW22702   4.726   4.791   3.175
 7268SOL    HW122703   4.743   4.713   3.115
 7268SOL    HW222704   4.709   4.872   3.119
 7269SOL     OW22705   6.836   6.137   1.116
 7269SOL    HW122706   6.809   6.221   1.069
 7269SOL    HW222707   6.860   6.158   1.211
 7270SOL     OW22708   0.662   3.191   5.105
 7270SOL    HW122709   0.659   3.255   5.182
 7270SOL    HW222710   0.608   3.110   5.128
 7271SOL     OW22711   0.265   5.677   4.147
 7271SOL    HW122712   0.325   5.756   4.132
 7271SOL    HW222713   0.312   5.609   4.203
 7272SOL     OW22714   5.247   5.043   2.278
 7272SOL    HW122715   5.343   5.016   2.279
 7272SOL    HW222716   5.239   5.141   2.258
 7273SOL     OW22717   5.511   4.466   1.802
 7273SOL    HW122718   5.478   4.479   1.895
 7273SOL    HW222719   5.611   4.470   1.801
 7274SOL     OW22720   1.357   6.210   6.912
 7274SOL    HW122721   1.332   6.298   6.871
 7274SOL    HW222722   1.285   6.143   6.892
 7275SOL     OW22723   6.663   0.931   2.831
 7275SOL    HW122724   6.685   0.910   2.926
 7275SOL    HW222725   6.722   1.005   2.798
 7276SOL     OW22726   3.658   1.432   3.085
 7276SOL    HW122727   3.599   1.355   3.062
 7276SOL    HW222728   3.608   1.498   3.141
 7277SOL     OW22729   4.403   0.838   4.142
 7277SOL    HW122730   4.441   0.774   4.076
 7277SOL    HW222731   4.358   0.787   4.216
 7278SOL     OW22732   3.517   2.212   1.689
 7278SOL    HW122733   3.588   2.272   1.725
 7278SOL    HW222734   3.513   2.128   1.743
 7279SOL     OW22735   4.471   3.205   6.452
 7279SOL    HW122736   4.447   3.191   6.357
 7279SOL    HW222737   4.419   3.142   6.510
 7280SOL     OW22738   0.061   2.010   4.014
 7280SOL    HW122739   0.157   2.034   4.027
 7280SOL    HW222740   0.024   2.061   3.936
 7281SOL     OW22741   1.714   0.631   0.390
 7281SOL    HW122742   1.792   0.575   0.419
 7281SOL    HW222743   1.631   0.575   0.390
 7282SOL     OW22744   5.727   6.760   0.913
 7282SOL    HW122745   5.734   6.693   0.839
 7282SOL    HW222746   5.783   6.730   0.991
 7283SOL     OW22747   3.484   6.994   1.659
 7283SOL    HW122748   3.424   6.915   1.648
 7283SOL    HW222749   3.549   6.977   1.732
 7284SOL     OW22750   6.754   2.408   4.862
 7284SOL    HW122751   6.830   2.411   4.796
 7284SOL    HW222752   6.786   2.440   4.951
 7285SOL     OW22753   5.702   3.576   1.642
 7285SOL    HW122754   5.612   3.541   1.667
 7285SOL    HW222755   5.696   3.618   1.551
 7286SOL     OW22756   0.640   0.191   1.374
 7286SOL    HW122757   0.645   0.091   1.374
 7286SOL    HW222758   0.592   0.222   1.292
 7287SOL     OW22759   6.484   2.885   4.403
 7287SOL    HW122760   6.521   2.902   4.311
 7287SOL    HW222761   6.498   2.789   4.427
 7288SOL     OW22762   1.100   2.145   1.835
 7288SOL    HW122763   1.077   2.056   1.874
 7288SOL    HW222764   1.186   2.138   1.785
 7289SOL     OW22765   6.072   1.620   3.401
 7289SOL    HW122766   6.123   1.664   3.475
 7289SOL    HW222767   6.136   1.594   3.328
 7290SOL     OW22768   2.829   0.878   5.153
 7290SOL    HW122769   2.890   0.877   5.232
 7290SOL    HW222770   2.810   0.783   5.125
 7291SOL     OW22771   2.579   0.562   1.018
 7291SOL    HW122772   2.494   0.595   1.058
 7291SOL    HW222773   2.657   0.603   1.067
 7292SOL     OW22774   2.867   6.786   2.434
 7292SOL    HW122775   2.948   6.788   2.375
 7292SOL    HW222776   2.786   6.806   2.379
 7293SOL     OW22777   1.806   1.620   6.041
 7293SOL    HW122778   1.715   1.640   6.077
 7293SOL    HW222779   1.839   1.699   5.990
 7294SOL     OW22780   3.548   4.413   0.486
 7294SOL    HW122781   3.631   4.406   0.541
 7294SOL    HW222782   3.559   4.360   0.402
 7295SOL     OW22783   6.920   4.470   1.281
 7295SOL    HW122784   6.893   4.484   1.377
 7295SOL    HW222785   6.981   4.544   1.252
 7296SOL     OW22786   4.558   5.209   2.538
 7296SOL    HW122787   4.566   5.110   2.529
 7296SOL    HW222788   4.606   5.254   2.462
 7297SOL     OW22789   2.365   0.016   1.784
 7297SOL    HW122790   2.306   6.961   1.793
 7297SOL    HW222791   2.353   0.075   1.864
 7298SOL     OW22792   5.372   4.613   6.754
 7298SOL    HW122793   5.298   4.556   6.718
 7298SOL    HW222794   5.382   4.694   6.696
 7299SOL     OW22795   0.644   1.908   0.972
 7299SOL    HW122796   0.681   1.909   0.879
 7299SOL    HW222797   0.637   1.813   1.003
 7300SOL     OW22798   0.530   6.273   2.459
 7300SOL    HW122799   0.464   6.307   2.392
 7300SOL    HW222800   0.538   6.174   2.451
 7301SOL     OW22801   6.669   2.236   5.497
 7301SOL    HW122802   6.650   2.169   5.568
 7301SOL    HW222803   6.601   2.227   5.424
 7302SOL     OW22804   0.355   2.586   6.135
 7302SOL    HW122805   0.360   2.661   6.201
 7302SOL    HW222806   0.272   2.596   6.081
 7303SOL     OW22807   3.624   0.741   6.377
 7303SOL    HW122808   3.637   0.684   6.458
 7303SOL    HW222809   3.712   0.782   6.351
 7304SOL     OW22810   3.203   5.594   1.849
 7304SOL    HW122811   3.126   5.534   1.869
 7304SOL    HW222812   3.262   5.551   1.781
 7305SOL     OW22813   5.239   2.036   1.426
 7305SOL    HW122814   5.255   1.998   1.517
 7305SOL    HW222815   5.275   1.973   1.357
 7306SOL     OW22816   3.669   1.793   1.846
 7306SOL    HW122817   3.588   1.744   1.877
 7306SOL    HW222818   3.644   1.853   1.770
 7307SOL     OW22819   4.273   6.842   2.425
 7307SOL    HW122820   4.307   6.936   2.434
 7307SOL    HW222821   4.348   6.781   2.404
 7308SOL     OW22822   6.545   1.435   4.098
 7308SOL    HW122823   6.454   1.438   4.140
 7308SOL    HW222824   6.614   1.450   4.168
 7309SOL     OW22825   3.451   6.739   1.192
 7309SOL    HW122826   3.488   6.672   1.257
 7309SOL    HW222827   3.375   6.788   1.235
 7310SOL     OW22828   2.404   3.723   0.134
 7310SOL    HW122829   2.363   3.808   0.102
 7310SOL    HW222830   2.342   3.647   0.114
 7311SOL     OW22831   1.498   0.477   0.370
 7311SOL    HW122832   1.453   0.398   0.411
 7311SOL    HW222833   1.449   0.505   0.288
 7312SOL     OW22834   1.233   1.654   4.919
 7312SOL    HW122835   1.258   1.718   4.993
 7312SOL    HW222836   1.222   1.705   4.834
 7313SOL     OW22837   2.223   1.418   0.958
 7313SOL    HW122838   2.264   1.409   1.049
 7313SOL    HW222839   2.265   1.353   0.895
 7314SOL     OW22840   0.074   3.933   6.295
 7314SOL    HW122841   0.103   3.986   6.375
 7314SOL    HW222842   0.072   3.992   6.214
 7315SOL     OW22843   4.964   5.926   2.144
 7315SOL    HW122844   5.016   5.872   2.077
 7315SOL    HW222845   5.000   5.910   2.236
 7316SOL     OW22846   2.988   3.049   6.433
 7316SOL    HW122847   2.892   3.076   6.423
 7316SOL    HW222848   2.996   2.977   6.502
 7317SOL     OW22849   3.965   1.681   2.104
 7317SOL    HW122850   3.977   1.768   2.151
 7317SOL    HW222851   3.869   1.657   2.101
 7318SOL     OW22852   3.055   0.048   3.069
 7318SOL    HW122853   3.119   0.008   3.003
 7318SOL    HW222854   3.011   0.128   3.028
 7319SOL     OW22855   5.748   3.009   6.831
 7319SOL    HW122856   5.694   3.082   6.788
 7319SOL    HW222857   5.818   2.978   6.766
 7320SOL     OW22858   0.479   3.113   0.939
 7320SOL    HW122859   0.513   3.189   0.883
 7320SOL    HW222860   0.398   3.073   0.898
 7321SOL     OW22861   2.293   6.982   6.001
 7321SOL    HW122862   2.333   6.924   5.930
 7321SOL    HW222863   2.336   6.962   6.089
 7322SOL     OW22864   0.197   2.295   3.074
 7322SOL    HW122865   0.117   2.313   3.017
 7322SOL    HW222866   0.237   2.207   3.049
 7323SOL     OW22867   2.596   2.969   1.648
 7323SOL    HW122868   2.585   3.022   1.564
 7323SOL    HW222869   2.512   2.917   1.666
 7324SOL     OW22870   5.627   4.260   2.380
 7324SOL    HW122871   5.539   4.290   2.416
 7324SOL    HW222872   5.655   4.176   2.425
 7325SOL     OW22873   3.162   0.251   5.454
 7325SOL    HW122874   3.236   0.272   5.389
 7325SOL    HW222875   3.150   0.327   5.518
 7326SOL     OW22876   3.549   6.498   6.097
 7326SOL    HW122877   3.547   6.506   6.197
 7326SOL    HW222878   3.547   6.402   6.071
 7327SOL     OW22879   5.878   2.599   4.412
 7327SOL    HW122880   5.795   2.640   4.374
 7327SOL    HW222881   5.906   2.651   4.493
 7328SOL     OW22882   4.739   6.395   5.556
 7328SOL    HW122883   4.792   6.321   5.514
 7328SOL    HW222884   4.759   6.399   5.654
 7329SOL     OW22885   1.031   3.798   0.622
 7329SOL    HW122886   1.076   3.730   0.680
 7329SOL    HW222887   0.933   3.776   0.617
 7330SOL     OW22888   2.305   3.146   1.159
 7330SOL    HW122889   2.394   3.164   1.117
 7330SOL    HW222890   2.299   3.195   1.246
 7331SOL     OW22891   5.660   6.620   1.892
 7331SOL    HW122892   5.748   6.586   1.925
 7331SOL    HW222893   5.600   6.542   1.872
 7332SOL     OW22894   2.729   4.139   6.447
 7332SOL    HW122895   2.641   4.095   6.430
 7332SOL    HW222896   2.746   4.143   6.545
 7333SOL     OW22897   6.438   3.218   2.854
 7333SOL    HW122898   6.509   3.154   2.826
 7333SOL    HW222899   6.369   3.224   2.781
 7334SOL     OW22900   2.559   5.995   6.207
 7334SOL    HW122901   2.564   6.083   6.161
 7334SOL    HW222902   2.478   5.991   6.265
 7335SOL     OW22903   0.026   2.868   3.678
 7335SOL    HW122904   0.034   2.958   3.635
 7335SOL    HW222905   6.986   2.812   3.626
 7336SOL     OW22906   2.365   6.695   1.624
 7336SOL    HW122907   2.399   6.786   1.646
 7336SOL    HW222908   2.427   6.651   1.560
 7337SOL     OW22909   2.246   3.196   1.536
 7337SOL    HW122910   2.248   3.098   1.519
 7337SOL    HW222911   2.245   3.213   1.635
 7338SOL     OW22912   5.264   1.957   1.679
 7338SOL    HW122913   5.347   1.960   1.734
 7338SOL    HW222914   5.184   1.966   1.739
 7339SOL     OW22915   0.013   0.692   5.174
 7339SOL    HW122916   6.964   0.732   5.120
 7339SOL    HW222917   7.002   0.622   5.235
 7340SOL     OW22918   3.529   1.369   0.291
 7340SOL    HW122919   3.456   1.419   0.246
 7340SOL    HW222920   3.524   1.384   0.390
 7341SOL     OW22921   1.075   4.963   4.816
 7341SOL    HW122922   1.094   5.059   4.793
 7341SOL    HW222923   1.127   4.903   4.755
 7342SOL     OW22924   6.501   6.488   6.875
 7342SOL    HW122925   6.432   6.429   6.833
 7342SOL    HW222926   6.462   6.531   6.957
 7343SOL     OW22927   5.358   3.626   1.569
 7343SOL    HW122928   5.346   3.706   1.627
 7343SOL    HW222929   5.363   3.544   1.626
 7344SOL     OW22930   2.418   0.447   6.299
 7344SOL    HW122931   2.357   0.526   6.294
 7344SOL    HW222932   2.443   0.431   6.394
 7345SOL     OW22933   5.196   6.547   5.867
 7345SOL    HW122934   5.211   6.593   5.954
 7345SOL    HW222935   5.113   6.492   5.872
 7346SOL     OW22936   3.612   4.619   1.285
 7346SOL    HW122937   3.635   4.692   1.349
 7346SOL    HW222938   3.603   4.533   1.334
 7347SOL     OW22939   6.994   2.988   0.679
 7347SOL    HW122940   7.017   2.890   0.673
 7347SOL    HW222941   6.974   3.023   0.588
 7348SOL     OW22942   1.539   3.321   3.792
 7348SOL    HW122943   1.474   3.246   3.804
 7348SOL    HW222944   1.598   3.302   3.713
 7349SOL     OW22945   4.289   1.975   1.152
 7349SOL    HW122946   4.341   1.908   1.206
 7349SOL    HW222947   4.213   1.929   1.107
 7350SOL     OW22948   1.794   3.870   4.262
 7350SOL    HW122949   1.745   3.952   4.291
 7350SOL    HW222950   1.815   3.876   4.164
 7351SOL     OW22951   4.532   5.753   5.382
 7351SOL    HW122952   4.565   5.842   5.352
 7351SOL    HW222953   4.442   5.764   5.426
 7352SOL     OW22954   1.535   3.159   2.554
 7352SOL    HW122955   1.473   3.209   2.614
 7352SOL    HW222956   1.629   3.187   2.572
 7353SOL     OW22957   0.141   0.541   5.927
 7353SOL    HW122958   0.204   0.522   6.002
 7353SOL    HW222959   0.126   0.640   5.921
 7354SOL     OW22960   1.037   1.704   6.827
 7354SOL    HW122961   0.966   1.699   6.757
 7354SOL    HW222962   0.997   1.690   6.917
 7355SOL     OW22963   1.527   1.192   0.480
 7355SOL    HW122964   1.598   1.185   0.409
 7355SOL    HW222965   1.452   1.249   0.447
 7356SOL     OW22966   4.934   2.954   6.492
 7356SOL    HW122967   5.002   2.886   6.463
 7356SOL    HW222968   4.904   3.007   6.412
 7357SOL     OW22969   4.252   0.874   1.598
 7357SOL    HW122970   4.267   0.793   1.654
 7357SOL    HW222971   4.334   0.894   1.544
 7358SOL     OW22972   1.233   2.892   2.146
 7358SOL    HW122973   1.165   2.863   2.214
 7358SOL    HW222974   1.187   2.919   2.062
 7359SOL     OW22975   2.989   2.812   0.382
 7359SOL    HW122976   2.914   2.748   0.398
 7359SOL    HW222977   3.038   2.828   0.467
 7360SOL     OW22978   3.163   3.383   5.695
 7360SOL    HW122979   3.165   3.443   5.615
 7360SOL    HW222980   3.085   3.321   5.687
 7361SOL     OW22981   4.152   0.425   2.218
 7361SOL    HW122982   4.099   0.492   2.271
 7361SOL    HW222983   4.248   0.452   2.216
 7362SOL     OW22984   0.564   6.333   4.399
 7362SOL    HW122985   0.623   6.376   4.467
 7362SOL    HW222986   0.486   6.392   4.380
 7363SOL     OW22987   4.118   1.443   1.053
 7363SOL    HW122988   4.033   1.395   1.073
 7363SOL    HW222989   4.097   1.532   1.013
 7364SOL     OW22990   4.365   0.263   1.455
 7364SOL    HW122991   4.410   0.188   1.406
 7364SOL    HW222992   4.266   0.260   1.439
 7365SOL     OW22993   1.506   6.209   1.774
 7365SOL    HW122994   1.538   6.261   1.854
 7365SOL    HW222995   1.407   6.196   1.780
 7366SOL     OW22996   2.092   5.614   0.466
 7366SOL    HW122997   2.059   5.705   0.440
 7366SOL    HW222998   2.191   5.616   0.476
 7367SOL     OW22999   4.931   4.178   1.182
 7367SOL    HW123000   4.906   4.267   1.144
 7367SOL    HW223001   4.977   4.191   1.270
 7368SOL     OW23002   3.896   2.971   3.694
 7368SOL    HW123003   3.813   2.942   3.742
 7368SOL    HW223004   3.937   3.048   3.742
 7369SOL     OW23005   4.935   3.222   0.481
 7369SOL    HW123006   4.931   3.123   0.465
 7369SOL    HW223007   5.018   3.244   0.533
 7370SOL     OW23008   2.896   0.538   5.219
 7370SOL    HW123009   2.913   0.588   5.304
 7370SOL    HW223010   2.797   0.536   5.202
 7371SOL     OW23011   1.989   5.871   4.104
 7371SOL    HW123012   1.950   5.934   4.036
 7371SOL    HW223013   1.954   5.779   4.087
 7372SOL     OW23014   2.934   1.331   5.459
 7372SOL    HW123015   2.867   1.395   5.498
 7372SOL    HW223016   2.892   1.283   5.382
 7373SOL     OW23017   5.600   0.877   4.378
 7373SOL    HW123018   5.576   0.970   4.405
 7373SOL    HW223019   5.688   0.878   4.329
 7374SOL     OW23020   2.610   2.477   5.586
 7374SOL    HW123021   2.639   2.535   5.510
 7374SOL    HW223022   2.548   2.406   5.553
 7375SOL     OW23023   1.877   2.751   3.044
 7375SOL    HW123024   1.813   2.758   2.968
 7375SOL    HW223025   1.960   2.802   3.021
 7376SOL     OW23026   3.858   1.523   6.707
 7376SOL    HW123027   3.795   1.596   6.681
 7376SOL    HW223028   3.926   1.559   6.771
 7377SOL     OW23029   5.406   5.236   1.515
 7377SOL    HW123030   5.433   5.327   1.548
 7377SOL    HW223031   5.484   5.174   1.523
 7378SOL     OW23032   0.371   1.499   5.476
 7378SOL    HW123033   0.275   1.477   5.492
 7378SOL    HW223034   0.429   1.431   5.523
 7379SOL     OW23035   3.615   2.017   2.903
 7379SOL    HW123036   3.712   2.043   2.903
 7379SOL    HW223037   3.590   1.982   2.992
 7380SOL     OW23038   6.690   3.407   5.099
 7380SOL    HW123039   6.699   3.431   5.195
 7380SOL    HW223040   6.623   3.468   5.055
 7381SOL     OW23041   5.149   3.956   2.052
 7381SOL    HW123042   5.128   3.884   1.985
 7381SOL    HW223043   5.147   3.918   2.144
 7382SOL     OW23044   0.072   5.860   5.840
 7382SOL    HW123045   0.045   5.764   5.827
 7382SOL    HW223046   0.167   5.872   5.811
 7383SOL     OW23047   0.684   6.328   0.893
 7383SOL    HW123048   0.740   6.407   0.868
 7383SOL    HW223049   0.626   6.302   0.815
 7384SOL     OW23050   5.788   0.564   2.674
 7384SOL    HW123051   5.723   0.555   2.598
 7384SOL    HW223052   5.867   0.505   2.657
 7385SOL     OW23053   4.288   5.858   2.142
 7385SOL    HW123054   4.216   5.821   2.201
 7385SOL    HW223055   4.297   5.956   2.159
 7386SOL     OW23056   0.124   1.882   5.446
 7386SOL    HW123057   0.132   1.824   5.527
 7386SOL    HW223058   0.196   1.952   5.448
 7387SOL     OW23059   4.314   6.321   4.198
 7387SOL    HW123060   4.276   6.384   4.267
 7387SOL    HW223061   4.409   6.299   4.221
 7388SOL     OW23062   0.040   4.902   2.729
 7388SOL    HW123063   0.016   4.954   2.812
 7388SOL    HW223064   6.997   4.920   2.658
 7389SOL     OW23065   0.648   4.137   6.190
 7389SOL    HW123066   0.594   4.214   6.222
 7389SOL    HW223067   0.614   4.052   6.231
 7390SOL     OW23068   2.325   1.233   6.856
 7390SOL    HW123069   2.256   1.243   6.928
 7390SOL    HW223070   2.296   1.286   6.775
 7391SOL     OW23071   5.030   4.162   4.899
 7391SOL    HW123072   4.968   4.095   4.941
 7391SOL    HW223073   5.114   4.116   4.871
 7392SOL     OW23074   2.582   6.041   0.023
 7392SOL    HW123075   2.538   5.952   0.034
 7392SOL    HW223076   2.582   6.066   6.951
 7393SOL     OW23077   5.612   5.031   1.538
 7393SOL    HW123078   5.657   5.089   1.606
 7393SOL    HW223079   5.641   4.936   1.551
 7394SOL     OW23080   2.974   2.911   5.703
 7394SOL    HW123081   3.034   2.856   5.645
 7394SOL    HW223082   2.982   2.880   5.798
 7395SOL     OW23083   2.458   1.661   6.989
 7395SOL    HW123084   2.440   1.565   7.010
 7395SOL    HW223085   2.462   1.714   0.048
 7396SOL     OW23086   0.541   6.580   0.326
 7396SOL    HW123087   0.584   6.490   0.334
 7396SOL    HW223088   0.445   6.569   0.301
 7397SOL     OW23089   4.672   5.017   5.030
 7397SOL    HW123090   4.644   5.083   5.100
 7397SOL    HW223091   4.592   4.986   4.979
 7398SOL     OW23092   3.033   5.207   4.490
 7398SOL    HW123093   3.057   5.147   4.566
 7398SOL    HW223094   2.934   5.200   4.472
 7399SOL     OW23095   1.116   2.929   5.601
 7399SOL    HW123096   1.137   2.889   5.512
 7399SOL    HW223097   1.037   2.883   5.641
 7400SOL     OW23098   3.763   3.284   5.984
 7400SOL    HW123099   3.848   3.285   6.036
 7400SOL    HW223100   3.713   3.370   5.998
 7401SOL     OW23101   1.218   0.785   3.994
 7401SOL    HW123102   1.292   0.771   4.058
 7401SOL    HW223103   1.139   0.729   4.021
 7402SOL     OW23104   2.728   5.693   5.747
 7402SOL    HW123105   2.727   5.645   5.660
 7402SOL    HW223106   2.659   5.766   5.746
 7403SOL     OW23107   1.755   3.996   2.866
 7403SOL    HW123108   1.824   4.065   2.843
 7403SOL    HW223109   1.693   4.032   2.935
 7404SOL     OW23110   3.073   4.845   1.132
 7404SOL    HW123111   2.995   4.892   1.089
 7404SOL    HW223112   3.085   4.755   1.089
 7405SOL     OW23113   3.034   4.897   4.284
 7405SOL    HW123114   3.085   4.882   4.199
 7405SOL    HW223115   2.964   4.827   4.293
 7406SOL     OW23116   0.572   3.048   3.599
 7406SOL    HW123117   0.635   3.125   3.597
 7406SOL    HW223118   0.614   2.972   3.650
 7407SOL     OW23119   0.234   6.176   4.546
 7407SOL    HW123120   0.141   6.178   4.509
 7407SOL    HW223121   0.299   6.158   4.472
 7408SOL     OW23122   1.309   3.105   6.383
 7408SOL    HW123123   1.343   3.029   6.327
 7408SOL    HW223124   1.278   3.179   6.323
 7409SOL     OW23125   0.812   1.391   5.722
 7409SOL    HW123126   0.723   1.405   5.680
 7409SOL    HW223127   0.885   1.418   5.658
 7410SOL     OW23128   0.596   5.180   1.182
 7410SOL    HW123129   0.533   5.107   1.157
 7410SOL    HW223130   0.557   5.268   1.155
 7411SOL     OW23131   2.659   6.706   4.164
 7411SOL    HW123132   2.586   6.764   4.128
 7411SOL    HW223133   2.747   6.754   4.156
 7412SOL     OW23134   4.162   0.235   2.707
 7412SOL    HW123135   4.259   0.216   2.688
 7412SOL    HW223136   4.143   0.332   2.691
 7413SOL     OW23137   4.891   5.352   5.150
 7413SOL    HW123138   4.914   5.257   5.127
 7413SOL    HW223139   4.803   5.375   5.108
 7414SOL     OW23140   0.248   6.846   4.154
 7414SOL    HW123141   0.333   6.844   4.101
 7414SOL    HW223142   0.206   6.936   4.144
 7415SOL     OW23143   1.093   3.503   3.103
 7415SOL    HW123144   1.148   3.457   3.033
 7415SOL    HW223145   1.137   3.491   3.192
 7416SOL     OW23146   3.078   1.324   3.885
 7416SOL    HW123147   3.174   1.308   3.906
 7416SOL    HW223148   3.028   1.340   3.970
 7417SOL     OW23149   2.288   1.080   6.147
 7417SOL    HW123150   2.332   1.037   6.069
 7417SOL    HW223151   2.189   1.077   6.135
 7418SOL     OW23152   3.771   5.824   0.741
 7418SOL    HW123153   3.771   5.724   0.732
 7418SOL    HW223154   3.730   5.865   0.660
 7419SOL     OW23155   5.911   2.523   5.110
 7419SOL    HW123156   5.983   2.487   5.170
 7419SOL    HW223157   5.904   2.465   5.029
 7420SOL     OW23158   0.189   0.160   1.971
 7420SOL    HW123159   0.273   0.170   1.917
 7420SOL    HW223160   0.205   0.095   2.046
 7421SOL     OW23161   3.519   3.543   0.969
 7421SOL    HW123162   3.584   3.567   0.897
 7421SOL    HW223163   3.483   3.451   0.952
 7422SOL     OW23164   0.078   2.854   2.570
 7422SOL    HW123165   0.168   2.887   2.543
 7422SOL    HW223166   0.086   2.800   2.654
 7423SOL     OW23167   6.774   4.704   5.466
 7423SOL    HW123168   6.685   4.661   5.479
 7423SOL    HW223169   6.824   4.702   5.553
 7424SOL     OW23170   0.477   0.700   5.113
 7424SOL    HW123171   0.562   0.742   5.142
 7424SOL    HW223172   0.445   0.637   5.184
 7425SOL     OW23173   5.066   5.475   6.309
 7425SOL    HW123174   5.144   5.519   6.265
 7425SOL    HW223175   5.011   5.429   6.240
 7426SOL     OW23176   1.897   1.608   6.722
 7426SOL    HW123177   1.915   1.509   6.718
 7426SOL    HW223178   1.799   1.624   6.712
 7427SOL     OW23179   3.386   6.219   3.991
 7427SOL    HW123180   3.387   6.136   3.936
 7427SOL    HW223181   3.345   6.293   3.939
 7428SOL     OW23182   3.942   1.427   6.002
 7428SOL    HW123183   3.944   1.406   6.100
 7428SOL    HW223184   3.860   1.481   5.982
 7429SOL     OW23185   6.765   6.458   3.202
 7429SOL    HW123186   6.814   6.394   3.143
 7429SOL    HW223187   6.814   6.545   3.205
 7430SOL     OW23188   0.224   3.763   6.555
 7430SOL    HW123189   0.291   3.743   6.483
 7430SOL    HW223190   0.133   3.734   6.526
 7431SOL     OW23191   0.411   3.008   2.925
 7431SOL    HW123192   0.369   2.937   2.981
 7431SOL    HW223193   0.341   3.071   2.892
 7432SOL     OW23194   0.107   0.069   3.370
 7432SOL    HW123195   0.189   0.012   3.361
 7432SOL    HW223196   0.035   0.033   3.310
 7433SOL     OW23197   5.430   4.774   6.970
 7433SOL    HW123198   5.519   4.762   7.015
 7433SOL    HW223199   5.424   4.716   6.890
 7434SOL     OW23200   4.908   0.354   5.841
 7434SOL    HW123201   4.937   0.425   5.906
 7434SOL    HW223202   4.968   0.358   5.761
 7435SOL     OW23203   4.136   5.764   0.799
 7435SOL    HW123204   4.114   5.751   0.703
 7435SOL    HW223205   4.167   5.858   0.814
 7436SOL     OW23206   5.858   3.019   6.577
 7436SOL    HW123207   5.861   3.117   6.557
 7436SOL    HW223208   5.774   2.980   6.539
 7437SOL     OW23209   0.358   6.008   0.513
 7437SOL    HW123210   0.401   5.918   0.510
 7437SOL    HW223211   0.418   6.072   0.561
 7438SOL     OW23212   0.706   5.153   0.361
 7438SOL    HW123213   0.743   5.158   0.453
 7438SOL    HW223214   0.710   5.059   0.328
 7439SOL     OW23215   1.332   6.082   4.751
 7439SOL    HW123216   1.411   6.105   4.807
 7439SOL    HW223217   1.336   5.985   4.725
 7440SOL     OW23218   0.466   3.363   4.559
 7440SOL    HW123219   0.485   3.269   4.530
 7440SOL    HW223220   0.499   3.426   4.489
 7441SOL     OW23221   4.915   5.926   4.801
 7441SOL    HW123222   4.922   6.026   4.811
 7441SOL    HW223223   4.915   5.903   4.704
 7442SOL     OW23224   0.785   1.028   6.436
 7442SOL    HW123225   0.705   1.087   6.425
 7442SOL    HW223226   0.767   0.958   6.505
 7443SOL     OW23227   0.448   0.682   2.232
 7443SOL    HW123228   0.455   0.742   2.312
 7443SOL    HW223229   0.540   0.658   2.201
 7444SOL     OW23230   6.357   3.109   4.460
 7444SOL    HW123231   6.289   3.096   4.531
 7444SOL    HW223232   6.404   3.022   4.442
 7445SOL     OW23233   3.148   1.155   1.114
 7445SOL    HW123234   3.126   1.073   1.062
 7445SOL    HW223235   3.242   1.150   1.147
 7446SOL     OW23236   5.586   4.104   0.971
 7446SOL    HW123237   5.538   4.178   0.924
 7446SOL    HW223238   5.569   4.017   0.925
 7447SOL     OW23239   0.865   3.051   5.772
 7447SOL    HW123240   0.926   3.121   5.735
 7447SOL    HW223241   0.775   3.090   5.788
 7448SOL     OW23242   6.576   6.730   5.438
 7448SOL    HW123243   6.489   6.685   5.458
 7448SOL    HW223244   6.567   6.784   5.354
 7449SOL     OW23245   6.643   2.644   1.941
 7449SOL    HW123246   6.648   2.576   2.014
 7449SOL    HW223247   6.734   2.659   1.903
 7450SOL     OW23248   5.599   1.726   4.628
 7450SOL    HW123249   5.603   1.796   4.557
 7450SOL    HW223250   5.687   1.678   4.632
 7451SOL     OW23251   0.884   6.448   3.392
 7451SOL    HW123252   0.818   6.472   3.464
 7451SOL    HW223253   0.857   6.361   3.350
 7452SOL     OW23254   0.451   6.281   5.062
 7452SOL    HW123255   0.462   6.261   4.965
 7452SOL    HW223256   0.541   6.281   5.107
 7453SOL     OW23257   4.828   5.930   5.732
 7453SOL    HW123258   4.885   6.012   5.719
 7453SOL    HW223259   4.734   5.951   5.707
 7454SOL     OW23260   1.418   2.308   1.907
 7454SOL    HW123261   1.502   2.363   1.903
 7454SOL    HW223262   1.413   2.250   1.826
 7455SOL     OW23263   0.096   1.906   2.391
 7455SOL    HW123264   0.007   1.879   2.428
 7455SOL    HW223265   0.110   2.004   2.407
 7456SOL     OW23266   0.581   2.168   4.246
 7456SOL    HW123267   0.662   2.220   4.275
 7456SOL    HW223268   0.566   2.181   4.148
 7457SOL     OW23269   4.032   0.844   5.277
 7457SOL    HW123270   4.000   0.766   5.225
 7457SOL    HW223271   4.069   0.913   5.214
 7458SOL     OW23272   2.393   6.972   6.322
 7458SOL    HW123273   2.480   7.014   6.295
 7458SOL    HW223274   2.386   6.973   6.422
 7459SOL     OW23275   4.888   0.664   1.709
 7459SOL    HW123276   4.873   0.582   1.764
 7459SOL    HW223277   4.976   0.658   1.663
 7460SOL     OW23278   1.897   5.044   0.967
 7460SOL    HW123279   1.995   5.051   0.951
 7460SOL    HW223280   1.852   5.130   0.943
 7461SOL     OW23281   6.409   1.467   5.854
 7461SOL    HW123282   6.445   1.512   5.773
 7461SOL    HW223283   6.371   1.378   5.830
 7462SOL     OW23284   1.315   4.213   2.796
 7462SOL    HW123285   1.310   4.114   2.785
 7462SOL    HW223286   1.373   4.235   2.875
 7463SOL     OW23287   2.962   4.948   0.577
 7463SOL    HW123288   2.984   4.853   0.596
 7463SOL    HW223289   2.924   4.990   0.660
 7464SOL     OW23290   4.536   0.487   6.771
 7464SOL    HW123291   4.588   0.559   6.817
 7464SOL    HW223292   4.476   0.528   6.702
 7465SOL     OW23293   1.031   6.989   0.001
 7465SOL    HW123294   1.080   6.989   6.939
 7465SOL    HW223295   1.085   0.011   0.070
 7466SOL     OW23296   0.185   0.552   6.215
 7466SOL    HW123297   0.274   0.596   6.224
 7466SOL    HW223298   0.178   0.477   6.282
 7467SOL     OW23299   7.013   1.860   0.328
 7467SOL    HW123300   0.024   1.907   0.408
 7467SOL    HW223301   6.981   1.928   0.261
 7468SOL     OW23302   6.715   2.448   3.015
 7468SOL    HW123303   6.688   2.527   3.069
 7468SOL    HW223304   6.678   2.456   2.922
 7469SOL     OW23305   7.009   0.882   0.487
 7469SOL    HW123306   0.022   0.843   0.570
 7469SOL    HW223307   6.980   0.808   0.426
 7470SOL     OW23308   0.053   2.995   3.938
 7470SOL    HW123309   0.150   3.005   3.962
 7470SOL    HW223310   0.044   2.936   3.858
 7471SOL     OW23311   6.643   6.519   5.930
 7471SOL    HW123312   6.711   6.491   5.863
 7471SOL    HW223313   6.598   6.602   5.899
 7472SOL     OW23314   6.456   7.012   4.279
 7472SOL    HW123315   6.487   6.917   4.287
 7472SOL    HW223316   6.385   7.019   4.208
 7473SOL     OW23317   6.485   4.590   2.560
 7473SOL    HW123318   6.535   4.503   2.566
 7473SOL    HW223319   6.422   4.586   2.482
 7474SOL     OW23320   2.218   1.554   5.651
 7474SOL    HW123321   2.181   1.593   5.567
 7474SOL    HW223322   2.158   1.577   5.728
 7475SOL     OW23323   3.951   1.206   2.800
 7475SOL    HW123324   4.031   1.233   2.852
 7475SOL    HW223325   3.975   1.199   2.703
 7476SOL     OW23326   3.223   5.147   4.037
 7476SOL    HW123327   3.142   5.204   4.028
 7476SOL    HW223328   3.303   5.205   4.054
 7477SOL     OW23329   6.964   1.407   5.009
 7477SOL    HW123330   6.953   1.382   4.912
 7477SOL    HW223331   0.010   1.477   5.017
 7478SOL     OW23332   4.496   4.691   6.372
 7478SOL    HW123333   4.449   4.612   6.411
 7478SOL    HW223334   4.537   4.745   6.446
 7479SOL     OW23335   4.048   2.431   1.484
 7479SOL    HW123336   4.125   2.482   1.445
 7479SOL    HW223337   4.060   2.421   1.582
 7480SOL     OW23338   6.921   3.803   1.744
 7480SOL    HW123339   6.887   3.712   1.718
 7480SOL    HW223340   6.876   3.873   1.689
 7481SOL     OW23341   6.323   5.549   1.373
 7481SOL    HW123342   6.224   5.562   1.365
 7481SOL    HW223343   6.346   5.454   1.350
 7482SOL     OW23344   4.633   2.082   3.625
 7482SOL    HW123345   4.533   2.081   3.631
 7482SOL    HW223346   4.663   2.164   3.575
 7483SOL     OW23347   4.961   2.737   4.992
 7483SOL    HW123348   5.048   2.741   4.943
 7483SOL    HW223349   4.957   2.810   5.060
 7484SOL     OW23350   1.083   1.154   3.534
 7484SOL    HW123351   1.061   1.084   3.465
 7484SOL    HW223352   1.000   1.177   3.585
 7485SOL     OW23353   3.366   0.586   4.819
 7485SOL    HW123354   3.361   0.486   4.823
 7485SOL    HW223355   3.430   0.613   4.747
 7486SOL     OW23356   2.894   0.469   5.768
 7486SOL    HW123357   2.873   0.541   5.833
 7486SOL    HW223358   2.825   0.398   5.772
 7487SOL     OW23359   2.286   6.039   2.300
 7487SOL    HW123360   2.377   6.035   2.341
 7487SOL    HW223361   2.260   6.134   2.285
 7488SOL     OW23362   1.894   6.403   4.451
 7488SOL    HW123363   1.964   6.418   4.380
 7488SOL    HW223364   1.804   6.401   4.408
 7489SOL     OW23365   5.630   2.412   4.766
 7489SOL    HW123366   5.645   2.445   4.672
 7489SOL    HW223367   5.718   2.393   4.809
 7490SOL     OW23368   0.507   0.789   1.533
 7490SOL    HW123369   0.574   0.735   1.482
 7490SOL    HW223370   0.493   0.876   1.487
 7491SOL     OW23371   6.115   3.233   5.640
 7491SOL    HW123372   6.041   3.184   5.686
 7491SOL    HW223373   6.085   3.325   5.616
 7492SOL     OW23374   2.029   0.570   3.811
 7492SOL    HW123375   2.076   0.495   3.765
 7492SOL    HW223376   1.932   0.547   3.821
 7493SOL     OW23377   6.424   3.759   0.350
 7493SOL    HW123378   6.496   3.783   0.416
 7493SOL    HW223379   6.460   3.769   0.257
 7494SOL     OW23380   5.255   0.717   2.800
 7494SOL    HW123381   5.168   0.677   2.772
 7494SOL    HW223382   5.328   0.684   2.741
 7495SOL     OW23383   1.832   0.830   0.559
 7495SOL    HW123384   1.797   0.754   0.504
 7495SOL    HW223385   1.791   0.826   0.650
 7496SOL     OW23386   0.281   3.301   5.533
 7496SOL    HW123387   0.353   3.368   5.552
 7496SOL    HW223388   0.322   3.214   5.505
 7497SOL     OW23389   2.326   5.082   0.708
 7497SOL    HW123390   2.293   5.154   0.647
 7497SOL    HW223391   2.401   5.033   0.664
 7498SOL     OW23392   2.481   1.534   5.616
 7498SOL    HW123393   2.381   1.540   5.627
 7498SOL    HW223394   2.502   1.467   5.545
 7499SOL     OW23395   3.899   2.140   2.972
 7499SOL    HW123396   3.941   2.230   2.956
 7499SOL    HW223397   3.952   2.090   3.040
 7500SOL     OW23398   3.452   5.261   4.199
 7500SOL    HW123399   3.510   5.295   4.273
 7500SOL    HW223400   3.506   5.204   4.137
 7501SOL     OW23401   5.734   4.010   3.749
 7501SOL    HW123402   5.689   3.924   3.772
 7501SOL    HW223403   5.776   4.003   3.658
 7502SOL     OW23404   1.756   0.037   4.605
 7502SOL    HW123405   1.795   0.024   4.514
 7502SOL    HW223406   1.667   7.017   4.611
 7503SOL     OW23407   2.903   1.765   0.821
 7503SOL    HW123408   2.810   1.748   0.791
 7503SOL    HW223409   2.959   1.794   0.743
 7504SOL     OW23410   1.871   0.159   2.837
 7504SOL    HW123411   1.963   0.145   2.802
 7504SOL    HW223412   1.832   0.241   2.796
 7505SOL     OW23413   2.398   2.057   5.903
 7505SOL    HW123414   2.377   1.960   5.910
 7505SOL    HW223415   2.443   2.075   5.815
 7506SOL     OW23416   4.858   6.925   3.145
 7506SOL    HW123417   4.874   6.912   3.243
 7506SOL    HW223418   4.932   6.882   3.094
 7507SOL     OW23419   0.875   0.492   2.370
 7507SOL    HW123420   0.884   0.592   2.365
 7507SOL    HW223421   0.936   0.456   2.440
 7508SOL     OW23422   0.330   6.202   2.040
 7508SOL    HW123423   0.395   6.243   1.977
 7508SOL    HW223424   0.251   6.167   1.989
 7509SOL     OW23425   5.705   4.339   0.366
 7509SOL    HW123426   5.647   4.291   0.301
 7509SOL    HW223427   5.693   4.300   0.457
 7510SOL     OW23428   3.764   4.534   5.313
 7510SOL    HW123429   3.854   4.500   5.288
 7510SOL    HW223430   3.694   4.474   5.274
 7511SOL     OW23431   1.840   6.847   3.553
 7511SOL    HW123432   1.891   6.921   3.596
 7511SOL    HW223433   1.886   6.818   3.469
 7512SOL     OW23434   2.841   5.635   6.965
 7512SOL    HW123435   2.903   5.569   6.923
 7512SOL    HW223436   2.813   5.602   0.030
 7513SOL     OW23437   2.066   1.015   1.899
 7513SOL    HW123438   2.048   1.035   1.803
 7513SOL    HW223439   1.989   0.963   1.937
 7514SOL     OW23440   2.176   5.529   1.081
 7514SOL    HW123441   2.239   5.457   1.111
 7514SOL    HW223442   2.121   5.560   1.158
 7515SOL     OW23443   6.863   4.796   2.109
 7515SOL    HW123444   6.926   4.856   2.060
 7515SOL    HW223445   6.910   4.754   2.187
 7516SOL     OW23446   6.723   5.738   5.849
 7516SOL    HW123447   6.746   5.802   5.922
 7516SOL    HW223448   6.672   5.786   5.778
 7517SOL     OW23449   6.750   3.038   0.904
 7517SOL    HW123450   6.747   3.005   0.999
 7517SOL    HW223451   6.845   3.055   0.878
 7518SOL     OW23452   4.207   5.189   3.278
 7518SOL    HW123453   4.118   5.229   3.299
 7518SOL    HW223454   4.259   5.251   3.218
 7519SOL     OW23455   6.692   6.951   4.101
 7519SOL    HW123456   6.780   6.906   4.089
 7519SOL    HW223457   6.627   6.888   4.144
 7520SOL     OW23458   3.801   0.705   2.219
 7520SOL    HW123459   3.735   0.667   2.154
 7520SOL    HW223460   3.815   0.802   2.198
 7521SOL     OW23461   4.962   4.460   6.151
 7521SOL    HW123462   4.923   4.552   6.154
 7521SOL    HW223463   4.903   4.397   6.202
 7522SOL     OW23464   2.213   0.435   6.704
 7522SOL    HW123465   2.168   0.478   6.782
 7522SOL    HW223466   2.255   0.505   6.647
 7523SOL     OW23467   6.119   0.143   5.975
 7523SOL    HW123468   6.184   0.205   6.018
 7523SOL    HW223469   6.032   0.191   5.959
 7524SOL     OW23470   1.959   1.895   5.904
 7524SOL    HW123471   2.044   1.844   5.890
 7524SOL    HW223472   1.979   1.992   5.909
 7525SOL     OW23473   3.346   0.694   6.033
 7525SOL    HW123474   3.246   0.703   6.038
 7525SOL    HW223475   3.383   0.769   5.978
 7526SOL     OW23476   3.055   3.221   1.507
 7526SOL    HW123477   3.153   3.218   1.523
 7526SOL    HW223478   3.008   3.172   1.581
 7527SOL     OW23479   4.167   5.845   2.934
 7527SOL    HW123480   4.124   5.890   2.855
 7527SOL    HW223481   4.125   5.878   3.018
 7528SOL     OW23482   5.399   1.710   0.096
 7528SOL    HW123483   5.498   1.694   0.090
 7528SOL    HW223484   5.358   1.692   0.007
 7529SOL     OW23485   5.549   0.425   4.583
 7529SOL    HW123486   5.642   0.457   4.567
 7529SOL    HW223487   5.526   0.353   4.517
 7530SOL     OW23488   0.660   3.951   2.491
 7530SOL    HW123489   0.697   3.865   2.526
 7530SOL    HW223490   0.560   3.944   2.484
 7531SOL     OW23491   4.470   2.518   4.217
 7531SOL    HW123492   4.534   2.589   4.186
 7531SOL    HW223493   4.520   2.433   4.233
 7532SOL     OW23494   5.493   4.794   0.964
 7532SOL    HW123495   5.574   4.833   1.007
 7532SOL    HW223496   5.491   4.696   0.979
 7533SOL     OW23497   2.225   2.180   2.044
 7533SOL    HW123498   2.283   2.239   1.988
 7533SOL    HW223499   2.270   2.164   2.132
 7534SOL     OW23500   4.598   5.974   5.614
 7534SOL    HW123501   4.573   6.065   5.580
 7534SOL    HW223502   4.518   5.930   5.654
 7535SOL     OW23503   2.405   0.385   5.731
 7535SOL    HW123504   2.376   0.289   5.733
 7535SOL    HW223505   2.391   0.423   5.640
 7536SOL     OW23506   4.815   4.383   4.494
 7536SOL    HW123507   4.790   4.465   4.545
 7536SOL    HW223508   4.873   4.325   4.551
 7537SOL     OW23509   3.489   5.326   2.778
 7537SOL    HW123510   3.511   5.390   2.704
 7537SOL    HW223511   3.402   5.352   2.820
 7538SOL     OW23512   2.880   2.952   1.548
 7538SOL    HW123513   2.804   3.013   1.526
 7538SOL    HW223514   2.861   2.861   1.510
 7539SOL     OW23515   0.938   3.036   4.000
 7539SOL    HW123516   0.892   2.966   3.945
 7539SOL    HW223517   0.892   3.124   3.987
 7540SOL     OW23518   4.641   0.040   5.232
 7540SOL    HW123519   4.737   0.021   5.211
 7540SOL    HW223520   4.593   6.979   5.249
 7541SOL     OW23521   6.919   4.473   4.130
 7541SOL    HW123522   6.949   4.377   4.130
 7541SOL    HW223523   6.976   4.525   4.194
 7542SOL     OW23524   0.660   5.618   7.015
 7542SOL    HW123525   0.607   5.534   7.025
 7542SOL    HW223526   0.674   5.637   6.918
 7543SOL     OW23527   3.518   2.408   0.007
 7543SOL    HW123528   3.572   2.423   0.090
 7543SOL    HW223529   3.498   2.311   7.023
 7544SOL     OW23530   0.470   2.104   2.698
 7544SOL    HW123531   0.446   2.200   2.685
 7544SOL    HW223532   0.468   2.082   2.796
 7545SOL     OW23533   6.530   5.898   1.335
 7545SOL    HW123534   6.483   5.954   1.403
 7545SOL    HW223535   6.560   5.812   1.377
 7546SOL     OW23536   3.181   1.913   2.135
 7546SOL    HW123537   3.180   1.895   2.037
 7546SOL    HW223538   3.274   1.896   2.170
 7547SOL     OW23539   4.877   1.344   0.457
 7547SOL    HW123540   4.835   1.314   0.542
 7547SOL    HW223541   4.852   1.438   0.437
 7548SOL     OW23542   3.937   2.066   0.286
 7548SOL    HW123543   3.976   2.145   0.238
 7548SOL    HW223544   3.965   2.069   0.382
 7549SOL     OW23545   5.653   1.986   0.892
 7549SOL    HW123546   5.624   2.030   0.807
 7549SOL    HW223547   5.588   2.008   0.965
 7550SOL     OW23548   2.571   4.586   2.454
 7550SOL    HW123549   2.559   4.674   2.501
 7550SOL    HW223550   2.625   4.599   2.371
 7551SOL     OW23551   4.983   3.574   6.208
 7551SOL    HW123552   4.925   3.493   6.217
 7551SOL    HW223553   4.954   3.627   6.129
 7552SOL     OW23554   0.740   5.080   2.879
 7552SOL    HW123555   0.659   5.089   2.937
 7552SOL    HW223556   0.722   5.015   2.805
 7553SOL     OW23557   4.470   6.101   5.108
 7553SOL    HW123558   4.439   6.092   5.203
 7553SOL    HW223559   4.558   6.055   5.097
 7554SOL     OW23560   4.495   1.817   1.276
 7554SOL    HW123561   4.456   1.735   1.234
 7554SOL    HW223562   4.592   1.825   1.252
 7555SOL     OW23563   1.956   5.242   5.732
 7555SOL    HW123564   1.870   5.292   5.726
 7555SOL    HW223565   2.000   5.239   5.642
 7556SOL     OW23566   1.029   2.765   6.840
 7556SOL    HW123567   0.986   2.851   6.810
 7556SOL    HW223568   1.119   2.785   6.878
 7557SOL     OW23569   5.286   2.509   6.053
 7557SOL    HW123570   5.248   2.597   6.083
 7557SOL    HW223571   5.371   2.525   6.003
 7558SOL     OW23572   1.738   2.656   4.300
 7558SOL    HW123573   1.739   2.721   4.224
 7558SOL    HW223574   1.764   2.703   4.385
 7559SOL     OW23575   5.720   4.342   6.310
 7559SOL    HW123576   5.788   4.301   6.250
 7559SOL    HW223577   5.648   4.383   6.256
 7560SOL     OW23578   4.998   6.348   1.230
 7560SOL    HW123579   4.956   6.436   1.251
 7560SOL    HW223580   4.984   6.327   1.133
 7561SOL     OW23581   1.204   3.471   6.971
 7561SOL    HW123582   1.187   3.449   6.875
 7561SOL    HW223583   1.295   3.438   6.996
 7562SOL     OW23584   6.378   6.209   4.049
 7562SOL    HW123585   6.330   6.142   3.993
 7562SOL    HW223586   6.390   6.173   4.142
 7563SOL     OW23587   2.095   6.815   0.913
 7563SOL    HW123588   2.160   6.791   0.985
 7563SOL    HW223589   2.002   6.804   0.948
 7564SOL     OW23590   4.773   0.848   2.965
 7564SOL    HW123591   4.736   0.935   2.933
 7564SOL    HW223592   4.865   0.863   3.002
 7565SOL     OW23593   6.063   3.177   0.458
 7565SOL    HW123594   6.074   3.241   0.534
 7565SOL    HW223595   6.147   3.174   0.404
 7566SOL     OW23596   6.464   4.594   2.865
 7566SOL    HW123597   6.517   4.530   2.922
 7566SOL    HW223598   6.463   4.562   2.771
 7567SOL     OW23599   1.573   2.301   5.112
 7567SOL    HW123600   1.524   2.343   5.036
 7567SOL    HW223601   1.507   2.259   5.175
 7568SOL     OW23602   5.882   6.328   2.689
 7568SOL    HW123603   5.817   6.260   2.654
 7568SOL    HW223604   5.964   6.282   2.723
 7569SOL     OW23605   4.211   6.130   6.128
 7569SOL    HW123606   4.259   6.137   6.040
 7569SOL    HW223607   4.265   6.075   6.191
 7570SOL     OW23608   5.479   4.450   4.947
 7570SOL    HW123609   5.413   4.386   4.986
 7570SOL    HW223610   5.509   4.514   5.019
 7571SOL     OW23611   5.334   5.473   3.635
 7571SOL    HW123612   5.332   5.403   3.705
 7571SOL    HW223613   5.376   5.436   3.552
 7572SOL     OW23614   4.346   0.996   1.846
 7572SOL    HW123615   4.320   0.959   1.757
 7572SOL    HW223616   4.398   1.080   1.834
 7573SOL     OW23617   0.136   6.750   4.919
 7573SOL    HW123618   0.163   6.653   4.918
 7573SOL    HW223619   0.131   6.784   4.825
 7574SOL     OW23620   6.508   0.875   4.548
 7574SOL    HW123621   6.423   0.917   4.579
 7574SOL    HW223622   6.511   0.779   4.578
 7575SOL     OW23623   4.290   0.252   6.076
 7575SOL    HW123624   4.305   0.325   6.142
 7575SOL    HW223625   4.376   0.206   6.057
 7576SOL     OW23626   4.805   4.438   6.523
 7576SOL    HW123627   4.790   4.532   6.494
 7576SOL    HW223628   4.789   4.376   6.446
 7577SOL     OW23629   6.965   6.850   6.689
 7577SOL    HW123630   6.924   6.904   6.763
 7577SOL    HW223631   6.970   6.906   6.607
 7578SOL     OW23632   2.371   5.686   2.045
 7578SOL    HW123633   2.420   5.769   2.020
 7578SOL    HW223634   2.427   5.606   2.022
 7579SOL     OW23635   6.064   1.366   1.885
 7579SOL    HW123636   6.076   1.267   1.893
 7579SOL    HW223637   6.024   1.388   1.796
 7580SOL     OW23638   1.279   3.620   3.738
 7580SOL    HW123639   1.281   3.534   3.688
 7580SOL    HW223640   1.262   3.695   3.675
 7581SOL     OW23641   6.513   0.897   1.224
 7581SOL    HW123642   6.437   0.957   1.250
 7581SOL    HW223643   6.485   0.839   1.148
 7582SOL     OW23644   3.244   1.305   0.859
 7582SOL    HW123645   3.192   1.265   0.934
 7582SOL    HW223646   3.310   1.239   0.825
 7583SOL     OW23647   6.413   2.671   1.131
 7583SOL    HW123648   6.337   2.627   1.179
 7583SOL    HW223649   6.416   2.768   1.154
 7584SOL     OW23650   2.573   0.203   1.709
 7584SOL    HW123651   2.604   0.168   1.621
 7584SOL    HW223652   2.492   0.152   1.738
 7585SOL     OW23653   1.456   2.671   6.341
 7585SOL    HW123654   1.520   2.728   6.392
 7585SOL    HW223655   1.391   2.628   6.405
 7586SOL     OW23656   2.991   0.891   3.876
 7586SOL    HW123657   3.066   0.846   3.925
 7586SOL    HW223658   3.028   0.966   3.821
 7587SOL     OW23659   2.347   1.938   0.095
 7587SOL    HW123660   2.297   1.981   0.170
 7587SOL    HW223661   2.391   2.009   0.039
 7588SOL     OW23662   1.478   2.943   2.400
 7588SOL    HW123663   1.524   3.018   2.448
 7588SOL    HW223664   1.389   2.974   2.367
 7589SOL     OW23665   0.687   6.903   2.067
 7589SOL    HW123666   0.737   6.965   2.008
 7589SOL    HW223667   0.729   6.812   2.063
 7590SOL     OW23668   4.789   1.934   6.372
 7590SOL    HW123669   4.873   1.966   6.415
 7590SOL    HW223670   4.715   1.934   6.439
 7591SOL     OW23671   6.911   3.894   0.415
 7591SOL    HW123672   6.825   3.862   0.454
 7591SOL    HW223673   6.958   3.818   0.370
 7592SOL     OW23674   7.007   4.129   6.065
 7592SOL    HW123675   0.031   4.203   6.019
 7592SOL    HW223676   6.935   4.095   6.005
 7593SOL     OW23677   6.066   3.221   1.410
 7593SOL    HW123678   6.028   3.136   1.447
 7593SOL    HW223679   5.999   3.266   1.351
 7594SOL     OW23680   0.854   5.193   2.483
 7594SOL    HW123681   0.912   5.115   2.504
 7594SOL    HW223682   0.907   5.278   2.490
 7595SOL     OW23683   0.153   2.231   5.762
 7595SOL    HW123684   0.181   2.143   5.799
 7595SOL    HW223685   0.079   2.218   5.695
 7596SOL     OW23686   4.475   5.531   3.982
 7596SOL    HW123687   4.531   5.450   4.000
 7596SOL    HW223688   4.414   5.514   3.905
 7597SOL     OW23689   3.631   6.216   3.125
 7597SOL    HW123690   3.605   6.124   3.155
 7597SOL    HW223691   3.597   6.282   3.192
 7598SOL     OW23692   6.281   1.199   3.058
 7598SOL    HW123693   6.211   1.270   3.049
 7598SOL    HW223694   6.339   1.219   3.137
 7599SOL     OW23695   5.325   1.822   2.582
 7599SOL    HW123696   5.323   1.852   2.677
 7599SOL    HW223697   5.363   1.730   2.577
 7600SOL     OW23698   2.190   1.530   2.564
 7600SOL    HW123699   2.093   1.539   2.584
 7600SOL    HW223700   2.206   1.549   2.467
 7601SOL     OW23701   2.017   5.361   3.060
 7601SOL    HW123702   1.988   5.266   3.049
 7601SOL    HW223703   2.117   5.366   3.057
 7602SOL     OW23704   0.825   4.438   5.755
 7602SOL    HW123705   0.837   4.425   5.657
 7602SOL    HW223706   0.742   4.390   5.785
 7603SOL     OW23707   1.392   5.788   6.021
 7603SOL    HW123708   1.302   5.771   6.060
 7603SOL    HW223709   1.459   5.800   6.095
 7604SOL     OW23710   1.475   4.657   4.556
 7604SOL    HW123711   1.442   4.672   4.463
 7604SOL    HW223712   1.550   4.721   4.576
 7605SOL     OW23713   0.518   0.087   1.123
 7605SOL    HW123714   0.615   0.067   1.116
 7605SOL    HW223715   0.467   0.001   1.130
 7606SOL     OW23716   5.866   3.587   4.423
 7606SOL    HW123717   5.956   3.630   4.420
 7606SOL    HW223718   5.824   3.591   4.333
 7607SOL     OW23719   3.725   4.626   6.854
 7607SOL    HW123720   3.680   4.702   6.902
 7607SOL    HW223721   3.702   4.630   6.756
 7608SOL     OW23722   3.895   3.666   2.487
 7608SOL    HW123723   3.971   3.625   2.437
 7608SOL    HW223724   3.823   3.694   2.423
 7609SOL     OW23725   1.208   3.342   4.368
 7609SOL    HW123726   1.225   3.404   4.444
 7609SOL    HW223727   1.136   3.278   4.392
 7610SOL     OW23728   5.409   6.185   6.919
 7610SOL    HW123729   5.352   6.229   6.989
 7610SOL    HW223730   5.359   6.109   6.879
 7611SOL     OW23731   0.177   2.285   0.754
 7611SOL    HW123732   0.132   2.269   0.666
 7611SOL    HW223733   0.118   2.255   0.828
 7612SOL     OW23734   5.133   3.226   3.912
 7612SOL    HW123735   5.115   3.168   3.833
 7612SOL    HW223736   5.197   3.179   3.974
 7613SOL     OW23737   6.302   3.318   1.138
 7613SOL    HW123738   6.242   3.395   1.160
 7613SOL    HW223739   6.387   3.352   1.099
 7614SOL     OW23740   5.075   3.292   0.870
 7614SOL    HW123741   5.103   3.239   0.950
 7614SOL    HW223742   5.137   3.274   0.794
 7615SOL     OW23743   3.610   4.956   6.699
 7615SOL    HW123744   3.701   4.975   6.735
 7615SOL    HW223745   3.541   4.970   6.770
 7616SOL     OW23746   5.873   4.979   4.933
 7616SOL    HW123747   5.934   4.991   4.854
 7616SOL    HW223748   5.927   4.968   5.016
 7617SOL     OW23749   3.780   4.909   2.701
 7617SOL    HW123750   3.859   4.938   2.755
 7617SOL    HW223751   3.739   4.988   2.657
 7618SOL     OW23752   0.372   1.568   5.917
 7618SOL    HW123753   0.327   1.617   5.842
 7618SOL    HW223754   0.390   1.473   5.889
 7619SOL     OW23755   6.010   2.948   5.316
 7619SOL    HW123756   6.059   3.033   5.298
 7619SOL    HW223757   6.076   2.876   5.336
 7620SOL     OW23758   4.080   5.711   1.045
 7620SOL    HW123759   4.117   5.794   1.088
 7620SOL    HW223760   4.111   5.707   0.950
 7621SOL     OW23761   6.881   1.878   1.191
 7621SOL    HW123762   6.889   1.782   1.166
 7621SOL    HW223763   6.809   1.921   1.137
 7622SOL     OW23764   4.214   5.920   1.191
 7622SOL    HW123765   4.165   6.007   1.193
 7622SOL    HW223766   4.311   5.937   1.174
 7623SOL     OW23767   4.578   4.561   6.746
 7623SOL    HW123768   4.504   4.542   6.681
 7623SOL    HW223769   4.646   4.487   6.741
 7624SOL     OW23770   0.013   3.597   5.290
 7624SOL    HW123771   0.024   3.568   5.385
 7624SOL    HW223772   6.986   3.529   5.239
 7625SOL     OW23773   4.615   0.673   1.666
 7625SOL    HW123774   4.710   0.687   1.695
 7625SOL    HW223775   4.608   0.686   1.567
 7626SOL     OW23776   5.665   7.025   4.571
 7626SOL    HW123777   5.678   0.068   4.499
 7626SOL    HW223778   5.574   6.985   4.563
 7627SOL     OW23779   5.079   2.553   0.419
 7627SOL    HW123780   5.117   2.599   0.500
 7627SOL    HW223781   5.073   2.618   0.344
 7628SOL     OW23782   3.681   1.181   2.809
 7628SOL    HW123783   3.780   1.189   2.797
 7628SOL    HW223784   3.658   1.200   2.905
 7629SOL     OW23785   6.863   6.060   3.260
 7629SOL    HW123786   6.932   6.065   3.333
 7629SOL    HW223787   6.779   6.020   3.296
 7630SOL     OW23788   6.716   6.904   1.043
 7630SOL    HW123789   6.713   6.877   0.947
 7630SOL    HW223790   6.746   6.826   1.098
 7631SOL     OW23791   1.195   1.243   6.138
 7631SOL    HW123792   1.220   1.339   6.150
 7631SOL    HW223793   1.279   1.189   6.125
 7632SOL     OW23794   3.119   2.917   1.741
 7632SOL    HW123795   3.084   2.825   1.754
 7632SOL    HW223796   3.059   2.967   1.678
 7633SOL     OW23797   5.093   0.466   1.270
 7633SOL    HW123798   5.064   0.455   1.175
 7633SOL    HW223799   5.051   0.395   1.327
 7634SOL     OW23800   1.335   2.258   2.684
 7634SOL    HW123801   1.319   2.213   2.596
 7634SOL    HW223802   1.249   2.294   2.720
 7635SOL     OW23803   3.587   5.420   4.920
 7635SOL    HW123804   3.657   5.350   4.934
 7635SOL    HW223805   3.583   5.480   4.999
 7636SOL     OW23806   1.599   2.541   3.733
 7636SOL    HW123807   1.609   2.578   3.826
 7636SOL    HW223808   1.514   2.574   3.693
 7637SOL     OW23809   2.208   5.088   2.585
 7637SOL    HW123810   2.148   5.137   2.521
 7637SOL    HW223811   2.171   4.996   2.602
 7638SOL     OW23812   3.441   6.325   1.046
 7638SOL    HW123813   3.441   6.226   1.054
 7638SOL    HW223814   3.535   6.359   1.041
 7639SOL     OW23815   1.567   2.646   0.924
 7639SOL    HW123816   1.614   2.689   1.001
 7639SOL    HW223817   1.474   2.621   0.951
 7640SOL     OW23818   3.101   1.966   5.999
 7640SOL    HW123819   3.133   1.995   5.909
 7640SOL    HW223820   3.077   2.047   6.053
 7641SOL     OW23821   1.014   5.031   2.116
 7641SOL    HW123822   1.017   5.045   2.017
 7641SOL    HW223823   1.029   4.935   2.137
 7642SOL     OW23824   3.825   0.675   2.691
 7642SOL    HW123825   3.864   0.757   2.652
 7642SOL    HW223826   3.785   0.618   2.619
 7643SOL     OW23827   5.030   2.871   4.067
 7643SOL    HW123828   5.081   2.914   3.993
 7643SOL    HW223829   5.038   2.771   4.060
 7644SOL     OW23830   5.926   2.492   2.525
 7644SOL    HW123831   5.902   2.542   2.442
 7644SOL    HW223832   5.869   2.410   2.532
 7645SOL     OW23833   4.165   3.880   5.433
 7645SOL    HW123834   4.120   3.948   5.491
 7645SOL    HW223835   4.264   3.888   5.442
 7646SOL     OW23836   1.102   3.900   2.839
 7646SOL    HW123837   1.198   3.882   2.820
 7646SOL    HW223838   1.047   3.872   2.760
 7647SOL     OW23839   6.472   3.752   3.099
 7647SOL    HW123840   6.512   3.743   3.008
 7647SOL    HW223841   6.544   3.774   3.165
 7648SOL     OW23842   2.430   1.452   2.661
 7648SOL    HW123843   2.453   1.512   2.738
 7648SOL    HW223844   2.335   1.468   2.634
 7649SOL     OW23845   0.951   0.696   2.617
 7649SOL    HW123846   0.965   0.744   2.704
 7649SOL    HW223847   0.896   0.614   2.632
 7650SOL     OW23848   4.748   1.895   1.128
 7650SOL    HW123849   4.763   1.849   1.041
 7650SOL    HW223850   4.672   1.959   1.120
 7651SOL     OW23851   2.301   0.704   4.049
 7651SOL    HW123852   2.238   0.633   4.081
 7651SOL    HW223853   2.272   0.735   3.958
 7652SOL     OW23854   5.993   3.755   4.863
 7652SOL    HW123855   5.939   3.828   4.903
 7652SOL    HW223856   6.071   3.733   4.923
 7653SOL     OW23857   0.929   2.105   6.951
 7653SOL    HW123858   0.891   2.142   0.010
 7653SOL    HW223859   0.909   2.168   6.875
 7654SOL     OW23860   4.868   2.585   3.592
 7654SOL    HW123861   4.959   2.595   3.632
 7654SOL    HW223862   4.799   2.618   3.657
 7655SOL     OW23863   4.660   0.113   3.212
 7655SOL    HW123864   4.741   0.057   3.228
 7655SOL    HW223865   4.688   0.205   3.183
 7656SOL     OW23866   2.842   4.200   6.071
 7656SOL    HW123867   2.885   4.290   6.066
 7656SOL    HW223868   2.870   4.146   5.991
 7657SOL     OW23869   1.303   2.860   4.437
 7657SOL    HW123870   1.363   2.780   4.437
 7657SOL    HW223871   1.358   2.943   4.440
 7658SOL     OW23872   3.851   6.815   5.814
 7658SOL    HW123873   3.804   6.767   5.887
 7658SOL    HW223874   3.803   6.801   5.727
 7659SOL     OW23875   5.380   5.647   6.692
 7659SOL    HW123876   5.419   5.646   6.600
 7659SOL    HW223877   5.280   5.654   6.687
 7660SOL     OW23878   0.507   5.860   4.177
 7660SOL    HW123879   0.525   5.958   4.173
 7660SOL    HW223880   0.459   5.838   4.262
 7661SOL     OW23881   6.166   2.460   4.354
 7661SOL    HW123882   6.102   2.486   4.427
 7661SOL    HW223883   6.114   2.433   4.273
 7662SOL     OW23884   1.120   3.590   2.770
 7662SOL    HW123885   1.041   3.652   2.766
 7662SOL    HW223886   1.176   3.612   2.850
 7663SOL     OW23887   0.736   5.746   5.509
 7663SOL    HW123888   0.767   5.651   5.506
 7663SOL    HW223889   0.657   5.756   5.448
 7664SOL     OW23890   3.664   0.028   1.478
 7664SOL    HW123891   3.613   0.034   1.392
 7664SOL    HW223892   3.603   7.022   1.551
 7665SOL     OW23893   5.698   6.823   4.804
 7665SOL    HW123894   5.790   6.836   4.841
 7665SOL    HW223895   5.686   6.880   4.723
 7666SOL     OW23896   0.456   5.843   1.747
 7666SOL    HW123897   0.425   5.765   1.802
 7666SOL    HW223898   0.528   5.892   1.797
 7667SOL     OW23899   5.347   6.185   2.305
 7667SOL    HW123900   5.280   6.173   2.378
 7667SOL    HW223901   5.427   6.232   2.341
 7668SOL     OW23902   2.946   4.695   6.934
 7668SOL    HW123903   2.874   4.633   6.905
 7668SOL    HW223904   2.999   4.653   7.008
 7669SOL     OW23905   4.821   1.736   5.665
 7669SOL    HW123906   4.837   1.638   5.653
 7669SOL    HW223907   4.769   1.751   5.749
 7670SOL     OW23908   0.912   5.090   6.328
 7670SOL    HW123909   0.981   5.133   6.386
 7670SOL    HW223910   0.869   5.015   6.378
 7671SOL     OW23911   4.305   1.123   2.701
 7671SOL    HW123912   4.278   1.029   2.683
 7671SOL    HW223913   4.355   1.159   2.622
 7672SOL     OW23914   0.373   6.907   3.385
 7672SOL    HW123915   0.455   6.916   3.330
 7672SOL    HW223916   0.311   6.840   3.343
 7673SOL     OW23917   1.471   5.552   0.092
 7673SOL    HW123918   1.520   5.596   0.016
 7673SOL    HW223919   1.478   5.452   0.083
 7674SOL     OW23920   5.410   1.166   3.503
 7674SOL    HW123921   5.495   1.147   3.454
 7674SOL    HW223922   5.334   1.169   3.438
 7675SOL     OW23923   6.444   6.611   2.533
 7675SOL    HW123924   6.375   6.539   2.539
 7675SOL    HW223925   6.510   6.589   2.461
 7676SOL     OW23926   1.859   1.734   0.407
 7676SOL    HW123927   1.915   1.772   0.334
 7676SOL    HW223928   1.915   1.675   0.465
 7677SOL     OW23929   0.590   4.814   1.764
 7677SOL    HW123930   0.600   4.843   1.859
 7677SOL    HW223931   0.493   4.808   1.740
 7678SOL     OW23932   2.220   2.635   4.490
 7678SOL    HW123933   2.256   2.669   4.403
 7678SOL    HW223934   2.185   2.711   4.544
 7679SOL     OW23935   2.828   5.638   6.421
 7679SOL    HW123936   2.802   5.628   6.325
 7679SOL    HW223937   2.748   5.622   6.479
 7680SOL     OW23938   1.477   1.239   0.767
 7680SOL    HW123939   1.500   1.241   0.670
 7680SOL    HW223940   1.424   1.321   0.790
 7681SOL     OW23941   2.103   0.486   0.897
 7681SOL    HW123942   2.053   0.571   0.882
 7681SOL    HW223943   2.054   0.410   0.856
 7682SOL     OW23944   3.466   0.303   2.362
 7682SOL    HW123945   3.562   0.323   2.341
 7682SOL    HW223946   3.449   0.321   2.459
 7683SOL     OW23947   5.282   1.509   4.388
 7683SOL    HW123948   5.186   1.516   4.360
 7683SOL    HW223949   5.287   1.489   4.486
 7684SOL     OW23950   3.534   2.071   1.452
 7684SOL    HW123951   3.508   2.128   1.529
 7684SOL    HW223952   3.455   2.018   1.421
 7685SOL     OW23953   3.035   2.109   6.280
 7685SOL    HW123954   2.968   2.054   6.329
 7685SOL    HW223955   3.112   2.131   6.340
 7686SOL     OW23956   0.201   6.789   3.131
 7686SOL    HW123957   0.133   6.850   3.091
 7686SOL    HW223958   0.159   6.733   3.202
 7687SOL     OW23959   5.464   5.425   3.961
 7687SOL    HW123960   5.408   5.359   3.911
 7687SOL    HW223961   5.546   5.380   3.995
 7688SOL     OW23962   1.400   6.061   6.006
 7688SOL    HW123963   1.304   6.078   6.030
 7688SOL    HW223964   1.417   5.962   6.003
 7689SOL     OW23965   5.934   6.271   2.291
 7689SOL    HW123966   6.021   6.227   2.270
 7689SOL    HW223967   5.951   6.367   2.316
 7690SOL     OW23968   5.507   4.610   0.518
 7690SOL    HW123969   5.483   4.706   0.499
 7690SOL    HW223970   5.482   4.587   0.612
 7691SOL     OW23971   5.306   3.571   4.765
 7691SOL    HW123972   5.271   3.592   4.856
 7691SOL    HW223973   5.261   3.489   4.729
 7692SOL     OW23974   0.065   6.088   2.053
 7692SOL    HW123975   0.055   5.995   2.018
 7692SOL    HW223976   0.116   6.086   2.139
 7693SOL     OW23977   4.182   6.941   1.148
 7693SOL    HW123978   4.153   6.848   1.124
 7693SOL    HW223979   4.253   6.972   1.084
 7694SOL     OW23980   0.179   4.485   5.000
 7694SOL    HW123981   0.081   4.503   5.001
 7694SOL    HW223982   0.196   4.389   4.978
 7695SOL     OW23983   4.399   0.270   1.121
 7695SOL    HW123984   4.407   0.249   1.023
 7695SOL    HW223985   4.305   0.297   1.142
 7696SOL     OW23986   0.049   1.101   5.153
 7696SOL    HW123987   0.016   1.075   5.244
 7696SOL    HW223988   0.025   1.030   5.087
 7697SOL     OW23989   2.882   6.565   2.186
 7697SOL    HW123990   2.836   6.654   2.193
 7697SOL    HW223991   2.923   6.556   2.095
 7698SOL     OW23992   6.332   1.559   3.774
 7698SOL    HW123993   6.237   1.579   3.798
 7698SOL    HW223994   6.356   1.468   3.808
 7699SOL     OW23995   3.872   6.075   7.016
 7699SOL    HW123996   3.965   6.103   6.992
 7699SOL    HW223997   3.815   6.072   6.933
 7700SOL     OW23998   4.999   5.960   3.856
 7700SOL    HW123999   5.047   5.963   3.768
 7700SOL    HW224000   5.033   6.033   3.915
 7701SOL     OW24001   6.826   1.830   6.615
 7701SOL    HW124002   6.830   1.765   6.690
 7701SOL    HW224003   6.915   1.874   6.603
 7702SOL     OW24004   3.434   6.962   5.465
 7702SOL    HW124005   3.354   6.909   5.491
 7702SOL    HW224006   3.446   6.959   5.366
 7703SOL     OW24007   6.013   0.275   6.583
 7703SOL    HW124008   5.951   0.320   6.518
 7703SOL    HW224009   5.972   0.277   6.674
 7704SOL     OW24010   5.710   5.720   4.721
 7704SOL    HW124011   5.703   5.661   4.802
 7704SOL    HW224012   5.796   5.702   4.675
 7705SOL     OW24013   3.594   5.673   6.790
 7705SOL    HW124014   3.678   5.642   6.745
 7705SOL    HW224015   3.541   5.729   6.726
 7706SOL     OW24016   4.560   3.175   5.337
 7706SOL    HW124017   4.593   3.176   5.432
 7706SOL    HW224018   4.482   3.113   5.330
 7707SOL     OW24019   0.019   5.105   6.127
 7707SOL    HW124020   0.081   5.028   6.113
 7707SOL    HW224021   6.950   5.072   6.130
 7708SOL     OW24022   0.178   0.273   5.833
 7708SOL    HW124023   0.244   0.222   5.778
 7708SOL    HW224024   0.203   0.369   5.834
 7709SOL     OW24025   5.901   5.112   2.032
 7709SOL    HW124026   5.802   5.101   2.041
 7709SOL    HW224027   5.920   5.179   1.960
 7710SOL     OW24028   2.631   1.100   0.294
 7710SOL    HW124029   2.641   1.159   0.374
 7710SOL    HW224030   2.695   1.129   0.223
 7711SOL     OW24031   6.322   6.711   6.118
 7711SOL    HW124032   6.406   6.747   6.075
 7711SOL    HW224033   6.257   6.785   6.131
 7712SOL     OW24034   5.875   5.314   2.260
 7712SOL    HW124035   5.950   5.251   2.243
 7712SOL    HW224036   5.822   5.327   2.175
 7713SOL     OW24037   1.473   3.915   0.582
 7713SOL    HW124038   1.560   3.964   0.578
 7713SOL    HW224039   1.484   3.831   0.635
 7714SOL     OW24040   5.872   4.099   5.641
 7714SOL    HW124041   5.897   4.163   5.714
 7714SOL    HW224042   5.946   4.033   5.628
 7715SOL     OW24043   3.792   2.320   0.139
 7715SOL    HW124044   3.774   2.224   0.115
 7715SOL    HW224045   3.870   2.353   0.086
 7716SOL     OW24046   5.791   4.397   2.797
 7716SOL    HW124047   5.691   4.397   2.795
 7716SOL    HW224048   5.825   4.303   2.801
 7717SOL     OW24049   1.758   0.999   4.872
 7717SOL    HW124050   1.729   0.917   4.920
 7717SOL    HW224051   1.731   1.080   4.925
 7718SOL     OW24052   1.120   3.168   3.387
 7718SOL    HW124053   1.141   3.084   3.438
 7718SOL    HW224054   1.041   3.152   3.328
 7719SOL     OW24055   6.775   4.432   5.037
 7719SOL    HW124056   6.764   4.502   5.108
 7719SOL    HW224057   6.828   4.356   5.073
 7720SOL     OW24058   6.917   1.502   0.434
 7720SOL    HW124059   6.921   1.405   0.408
 7720SOL    HW224060   6.954   1.512   0.527
 7721SOL     OW24061   0.458   5.586   2.675
 7721SOL    HW124062   0.437   5.554   2.583
 7721SOL    HW224063   0.375   5.581   2.731
 7722SOL     OW24064   1.356   4.825   3.612
 7722SOL    HW124065   1.320   4.813   3.704
 7722SOL    HW224066   1.451   4.856   3.617
 7723SOL     OW24067   4.790   3.262   0.036
 7723SOL    HW124068   4.844   3.180   0.017
 7723SOL    HW224069   4.694   3.244   0.015
 7724SOL     OW24070   3.342   3.989   0.673
 7724SOL    HW124071   3.368   4.078   0.634
 7724SOL    HW224072   3.363   3.988   0.771
 7725SOL     OW24073   6.505   1.248   3.210
 7725SOL    HW124074   6.556   1.308   3.149
 7725SOL    HW224075   6.545   1.252   3.301
 7726SOL     OW24076   1.523   5.692   5.326
 7726SOL    HW124077   1.491   5.602   5.297
 7726SOL    HW224078   1.444   5.754   5.332
 7727SOL     OW24079   0.322   0.756   2.709
 7727SOL    HW124080   0.321   0.856   2.703
 7727SOL    HW224081   0.324   0.729   2.805
 7728SOL     OW24082   1.248   4.544   3.703
 7728SOL    HW124083   1.167   4.597   3.678
 7728SOL    HW224084   1.276   4.568   3.796
 7729SOL     OW24085   5.633   3.057   0.720
 7729SOL    HW124086   5.645   3.104   0.808
 7729SOL    HW224087   5.570   2.980   0.732
 7730SOL     OW24088   6.056   5.889   0.387
 7730SOL    HW124089   6.152   5.868   0.407
 7730SOL    HW224090   6.007   5.905   0.473
 7731SOL     OW24091   6.596   1.266   0.470
 7731SOL    HW124092   6.688   1.251   0.507
 7731SOL    HW224093   6.547   1.179   0.467
 7732SOL     OW24094   4.664   6.645   0.527
 7732SOL    HW124095   4.630   6.575   0.464
 7732SOL    HW224096   4.622   6.632   0.617
 7733SOL     OW24097   5.175   6.270   2.878
 7733SOL    HW124098   5.157   6.334   2.953
 7733SOL    HW224099   5.115   6.292   2.801
 7734SOL     OW24100   2.704   4.677   3.082
 7734SOL    HW124101   2.794   4.696   3.043
 7734SOL    HW224102   2.703   4.705   3.178
 7735SOL     OW24103   4.595   6.989   6.530
 7735SOL    HW124104   4.539   0.042   6.503
 7735SOL    HW224105   4.580   6.970   6.628
 7736SOL     OW24106   3.551   3.430   6.600
 7736SOL    HW124107   3.560   3.341   6.644
 7736SOL    HW224108   3.505   3.419   6.512
 7737SOL     OW24109   3.124   6.642   2.660
 7737SOL    HW124110   3.142   6.725   2.608
 7737SOL    HW224111   3.025   6.627   2.666
 7738SOL     OW24112   3.097   6.215   6.880
 7738SOL    HW124113   3.106   6.234   6.978
 7738SOL    HW224114   3.034   6.139   6.866
 7739SOL     OW24115   0.485   2.526   1.392
 7739SOL    HW124116   0.518   2.520   1.486
 7739SOL    HW224117   0.452   2.436   1.363
 7740SOL     OW24118   2.245   1.245   2.347
 7740SOL    HW124119   2.256   1.326   2.290
 7740SOL    HW224120   2.195   1.175   2.295
 7741SOL     OW24121   0.816   5.128   5.698
 7741SOL    HW124122   0.853   5.220   5.687
 7741SOL    HW224123   0.832   5.076   5.614
 7742SOL     OW24124   4.356   2.333   3.613
 7742SOL    HW124125   4.379   2.274   3.690
 7742SOL    HW224126   4.266   2.307   3.576
 7743SOL     OW24127   5.770   1.587   6.491
 7743SOL    HW124128   5.813   1.497   6.499
 7743SOL    HW224129   5.819   1.641   6.422
 7744SOL     OW24130   0.925   6.206   4.243
 7744SOL    HW124131   0.921   6.154   4.328
 7744SOL    HW224132   0.855   6.172   4.180
 7745SOL     OW24133   3.592   1.175   6.952
 7745SOL    HW124134   3.492   1.170   6.952
 7745SOL    HW224135   3.623   1.231   6.875
 7746SOL     OW24136   1.696   0.202   0.500
 7746SOL    HW124137   1.727   0.268   0.568
 7746SOL    HW224138   1.733   0.226   0.411
 7747SOL     OW24139   5.386   5.794   0.972
 7747SOL    HW124140   5.416   5.703   0.944
 7747SOL    HW224141   5.425   5.863   0.911
 7748SOL     OW24142   3.471   4.160   5.009
 7748SOL    HW124143   3.555   4.214   5.007
 7748SOL    HW224144   3.440   4.142   4.916
 7749SOL     OW24145   2.748   3.131   6.146
 7749SOL    HW124146   2.782   3.044   6.109
 7749SOL    HW224147   2.763   3.203   6.079
 7750SOL     OW24148   0.115   6.275   1.624
 7750SOL    HW124149   0.062   6.261   1.541
 7750SOL    HW224150   0.205   6.232   1.615
 7751SOL     OW24151   1.709   2.412   2.233
 7751SOL    HW124152   1.783   2.381   2.173
 7751SOL    HW224153   1.701   2.511   2.228
 7752SOL     OW24154   5.915   6.564   5.712
 7752SOL    HW124155   5.935   6.474   5.675
 7752SOL    HW224156   5.963   6.634   5.660
 7753SOL     OW24157   2.555   0.774   3.913
 7753SOL    HW124158   2.510   0.738   3.995
 7753SOL    HW224159   2.519   0.728   3.832
 7754SOL     OW24160   3.164   6.214   1.947
 7754SOL    HW124161   3.168   6.192   1.850
 7754SOL    HW224162   3.138   6.132   1.998
 7755SOL     OW24163   2.210   2.449   5.659
 7755SOL    HW124164   2.156   2.518   5.707
 7755SOL    HW224165   2.200   2.361   5.705
 7756SOL     OW24166   2.419   6.162   2.677
 7756SOL    HW124167   2.331   6.192   2.641
 7756SOL    HW224168   2.410   6.136   2.773
 7757SOL     OW24169   5.270   4.694   0.328
 7757SOL    HW124170   5.237   4.708   0.234
 7757SOL    HW224171   5.345   4.758   0.346
 7758SOL     OW24172   2.401   0.699   5.610
 7758SOL    HW124173   2.466   0.762   5.651
 7758SOL    HW224174   2.332   0.751   5.559
 7759SOL     OW24175   2.157   2.199   5.754
 7759SOL    HW124176   2.112   2.233   5.836
 7759SOL    HW224177   2.215   2.121   5.777
 7760SOL     OW24178   5.865   3.531   2.616
 7760SOL    HW124179   5.774   3.530   2.657
 7760SOL    HW224180   5.934   3.527   2.688
 7761SOL     OW24181   6.824   0.230   4.530
 7761SOL    HW124182   6.757   0.264   4.596
 7761SOL    HW224183   6.853   0.305   4.469
 7762SOL     OW24184   2.423   0.414   3.874
 7762SOL    HW124185   2.406   0.474   3.952
 7762SOL    HW224186   2.335   0.386   3.834
 7763SOL     OW24187   2.089   0.226   6.876
 7763SOL    HW124188   2.054   0.185   6.961
 7763SOL    HW224189   2.131   0.314   6.896
 7764SOL     OW24190   3.598   3.501   4.875
 7764SOL    HW124191   3.557   3.583   4.834
 7764SOL    HW224192   3.538   3.423   4.859
 7765SOL     OW24193   5.919   4.335   5.396
 7765SOL    HW124194   5.967   4.257   5.437
 7765SOL    HW224195   5.932   4.333   5.297
 7766SOL     OW24196   6.928   4.141   0.022
 7766SOL    HW124197   6.864   4.157   6.972
 7766SOL    HW224198   7.021   4.139   7.012
 7767SOL     OW24199   5.161   6.113   2.523
 7767SOL    HW124200   5.085   6.058   2.488
 7767SOL    HW224201   5.125   6.189   2.578
 7768SOL     OW24202   4.530   4.430   3.411
 7768SOL    HW124203   4.554   4.521   3.443
 7768SOL    HW224204   4.528   4.367   3.489
 7769SOL     OW24205   4.460   1.454   3.756
 7769SOL    HW124206   4.412   1.503   3.683
 7769SOL    HW224207   4.504   1.373   3.717
 7770SOL     OW24208   1.899   4.300   4.280
 7770SOL    HW124209   1.831   4.234   4.247
 7770SOL    HW224210   1.911   4.289   4.378
 7771SOL     OW24211   3.603   1.850   5.251
 7771SOL    HW124212   3.690   1.822   5.213
 7771SOL    HW224213   3.529   1.799   5.207
 7772SOL     OW24214   4.317   7.015   2.111
 7772SOL    HW124215   4.252   0.051   2.155
 7772SOL    HW224216   4.409   0.028   2.116
 7773SOL     OW24217   2.385   5.629   4.999
 7773SOL    HW124218   2.403   5.676   5.086
 7773SOL    HW224219   2.471   5.591   4.963
 7774SOL     OW24220   5.315   1.819   4.572
 7774SOL    HW124221   5.363   1.734   4.590
 7774SOL    HW224222   5.352   1.862   4.490
 7775SOL     OW24223   4.816   6.019   0.454
 7775SOL    HW124224   4.758   5.938   0.450
 7775SOL    HW224225   4.759   6.101   0.463
 7776SOL     OW24226   0.265   6.082   6.598
 7776SOL    HW124227   0.271   5.993   6.642
 7776SOL    HW224228   0.314   6.080   6.511
 7777SOL     OW24229   5.870   5.668   3.903
 7777SOL    HW124230   5.798   5.656   3.834
 7777SOL    HW224231   5.959   5.648   3.862
 7778SOL     OW24232   5.567   4.004   0.641
 7778SOL    HW124233   5.598   3.942   0.570
 7778SOL    HW224234   5.547   3.953   0.724
 7779SOL     OW24235   2.550   1.838   1.441
 7779SOL    HW124236   2.580   1.769   1.508
 7779SOL    HW224237   2.528   1.793   1.355
 7780SOL     OW24238   0.616   4.923   5.013
 7780SOL    HW124239   0.705   4.966   5.026
 7780SOL    HW224240   0.585   4.883   5.099
 7781SOL     OW24241   2.475   4.178   1.069
 7781SOL    HW124242   2.538   4.106   1.099
 7781SOL    HW224243   2.528   4.257   1.036
 7782SOL     OW24244   5.309   5.102   4.708
 7782SOL    HW124245   5.217   5.100   4.668
 7782SOL    HW224246   5.375   5.135   4.640
 7783SOL     OW24247   0.823   6.898   5.732
 7783SOL    HW124248   0.877   6.917   5.651
 7783SOL    HW224249   0.734   6.861   5.706
 7784SOL     OW24250   3.671   2.801   1.905
 7784SOL    HW124251   3.646   2.736   1.977
 7784SOL    HW224252   3.742   2.862   1.939
 7785SOL     OW24253   1.841   6.327   5.143
 7785SOL    HW124254   1.843   6.241   5.194
 7785SOL    HW224255   1.915   6.328   5.075
 7786SOL     OW24256   3.574   6.840   0.704
 7786SOL    HW124257   3.533   6.855   0.794
 7786SOL    HW224258   3.673   6.847   0.710
 7787SOL     OW24259   2.513   2.778   6.996
 7787SOL    HW124260   2.449   2.725   6.940
 7787SOL    HW224261   2.551   2.852   6.941
 7788SOL     OW24262   1.824   5.031   1.280
 7788SOL    HW124263   1.843   5.061   1.186
 7788SOL    HW224264   1.883   4.954   1.303
 7789SOL     OW24265   2.496   0.158   6.561
 7789SOL    HW124266   2.517   0.108   6.645
 7789SOL    HW224267   2.397   0.168   6.552
 7790SOL     OW24268   5.208   5.355   2.881
 7790SOL    HW124269   5.282   5.404   2.835
 7790SOL    HW224270   5.144   5.422   2.921
 7791SOL     OW24271   2.279   5.231   2.843
 7791SOL    HW124272   2.329   5.305   2.887
 7791SOL    HW224273   2.257   5.256   2.749
 7792SOL     OW24274   2.149   5.739   4.944
 7792SOL    HW124275   2.108   5.705   4.859
 7792SOL    HW224276   2.243   5.704   4.952
 7793SOL     OW24277   3.968   1.140   0.338
 7793SOL    HW124278   3.983   1.198   0.418
 7793SOL    HW224279   3.987   1.191   0.255
 7794SOL     OW24280   6.080   4.037   2.337
 7794SOL    HW124281   6.078   3.938   2.323
 7794SOL    HW224282   6.159   4.075   2.289
 7795SOL     OW24283   1.952   4.418   5.389
 7795SOL    HW124284   1.893   4.400   5.310
 7795SOL    HW224285   1.902   4.397   5.473
 7796SOL     OW24286   3.267   2.863   4.938
 7796SOL    HW124287   3.303   2.894   4.850
 7796SOL    HW224288   3.197   2.793   4.923
 7797SOL     OW24289   1.671   6.630   1.436
 7797SOL    HW124290   1.747   6.628   1.371
 7797SOL    HW224291   1.654   6.537   1.469
 7798SOL     OW24292   1.018   3.222   3.703
 7798SOL    HW124293   1.092   3.194   3.643
 7798SOL    HW224294   1.056   3.274   3.780
 7799SOL     OW24295   1.567   5.296   2.580
 7799SOL    HW124296   1.490   5.249   2.538
 7799SOL    HW224297   1.626   5.333   2.509
 7800SOL     OW24298   0.845   5.661   2.939
 7800SOL    HW124299   0.910   5.597   2.898
 7800SOL    HW224300   0.785   5.698   2.868
 7801SOL     OW24301   1.858   1.739   1.250
 7801SOL    HW124302   1.878   1.693   1.337
 7801SOL    HW224303   1.933   1.723   1.186
 7802SOL     OW24304   6.266   2.606   1.371
 7802SOL    HW124305   6.201   2.597   1.446
 7802SOL    HW224306   6.357   2.579   1.404
 7803SOL     OW24307   4.128   2.252   6.270
 7803SOL    HW124308   4.037   2.295   6.274
 7803SOL    HW224309   4.119   2.155   6.289
 7804SOL     OW24310   4.477   2.425   5.162
 7804SOL    HW124311   4.471   2.522   5.183
 7804SOL    HW224312   4.571   2.403   5.133
 7805SOL     OW24313   5.212   3.201   1.639
 7805SOL    HW124314   5.297   3.156   1.613
 7805SOL    HW224315   5.139   3.173   1.577
 7806SOL     OW24316   5.882   1.386   6.129
 7806SOL    HW124317   5.850   1.294   6.107
 7806SOL    HW224318   5.946   1.381   6.206
 7807SOL     OW24319   0.939   3.897   6.256
 7807SOL    HW124320   1.011   3.833   6.285
 7807SOL    HW224321   0.924   3.888   6.158
 7808SOL     OW24322   5.911   3.097   4.173
 7808SOL    HW124323   5.876   3.162   4.105
 7808SOL    HW224324   5.979   3.142   4.230
 7809SOL     OW24325   4.432   4.952   4.874
 7809SOL    HW124326   4.430   5.047   4.841
 7809SOL    HW224327   4.412   4.891   4.797
 7810SOL     OW24328   3.632   6.743   5.060
 7810SOL    HW124329   3.646   6.759   4.962
 7810SOL    HW224330   3.549   6.689   5.074
 7811SOL     OW24331   1.235   5.243   1.494
 7811SOL    HW124332   1.203   5.336   1.514
 7811SOL    HW224333   1.183   5.206   1.416
 7812SOL     OW24334   0.627   2.826   4.484
 7812SOL    HW124335   0.563   2.817   4.408
 7812SOL    HW224336   0.581   2.805   4.570
 7813SOL     OW24337   4.203   2.067   0.728
 7813SOL    HW124338   4.183   1.969   0.729
 7813SOL    HW224339   4.196   2.104   0.821
 7814SOL     OW24340   6.717   3.201   3.098
 7814SOL    HW124341   6.655   3.279   3.101
 7814SOL    HW224342   6.780   3.206   3.176
 7815SOL     OW24343   5.750   1.767   4.245
 7815SOL    HW124344   5.766   1.863   4.218
 7815SOL    HW224345   5.725   1.764   4.341
 7816SOL     OW24346   1.536   2.387   6.392
 7816SOL    HW124347   1.595   2.410   6.470
 7816SOL    HW224348   1.493   2.470   6.357
 7817SOL     OW24349   4.688   4.279   4.274
 7817SOL    HW124350   4.742   4.323   4.346
 7817SOL    HW224351   4.591   4.297   4.290
 7818SOL     OW24352   5.244   0.062   2.573
 7818SOL    HW124353   5.313   0.051   2.645
 7818SOL    HW224354   5.265   0.144   2.519
 7819SOL     OW24355   6.886   4.028   3.776
 7819SOL    HW124356   6.802   4.003   3.825
 7819SOL    HW224357   6.941   4.089   3.833
 7820SOL     OW24358   1.431   1.480   5.568
 7820SOL    HW124359   1.484   1.440   5.643
 7820SOL    HW224360   1.469   1.570   5.546
 7821SOL     OW24361   5.409   5.257   0.169
 7821SOL    HW124362   5.395   5.314   0.088
 7821SOL    HW224363   5.506   5.253   0.190
 7822SOL     OW24364   0.724   1.320   7.022
 7822SOL    HW124365   0.768   1.245   0.047
 7822SOL    HW224366   0.632   1.292   6.994
 7823SOL     OW24367   2.929   3.758   5.856
 7823SOL    HW124368   2.843   3.749   5.806
 7823SOL    HW224369   3.005   3.747   5.792
 7824SOL     OW24370   5.823   1.033   3.916
 7824SOL    HW124371   5.767   0.955   3.888
 7824SOL    HW224372   5.883   1.060   3.841
 7825SOL     OW24373   1.066   3.386   0.970
 7825SOL    HW124374   1.112   3.302   0.998
 7825SOL    HW224375   0.971   3.385   1.002
 7826SOL     OW24376   6.212   1.812   6.436
 7826SOL    HW124377   6.295   1.868   6.429
 7826SOL    HW224378   6.135   1.869   6.464
 7827SOL     OW24379   2.986   4.202   0.843
 7827SOL    HW124380   2.955   4.293   0.815
 7827SOL    HW224381   2.916   4.134   0.821
 7828SOL     OW24382   0.803   5.550   0.541
 7828SOL    HW124383   0.860   5.469   0.557
 7828SOL    HW224384   0.707   5.523   0.541
 7829SOL     OW24385   2.470   3.171   0.135
 7829SOL    HW124386   2.372   3.180   0.117
 7829SOL    HW224387   2.522   3.216   0.062
 7830SOL     OW24388   4.242   3.827   5.847
 7830SOL    HW124389   4.185   3.746   5.830
 7830SOL    HW224390   4.223   3.863   5.938
 7831SOL     OW24391   1.773   5.706   0.982
 7831SOL    HW124392   1.684   5.664   0.963
 7831SOL    HW224393   1.836   5.637   1.016
 7832SOL     OW24394   3.711   1.431   4.288
 7832SOL    HW124395   3.647   1.371   4.241
 7832SOL    HW224396   3.696   1.526   4.260
 7833SOL     OW24397   0.428   1.005   6.912
 7833SOL    HW124398   0.484   1.070   6.964
 7833SOL    HW224399   0.432   0.915   6.955
 7834SOL     OW24400   0.391   1.083   3.841
 7834SOL    HW124401   0.438   1.125   3.919
 7834SOL    HW224402   0.311   1.032   3.873
 7835SOL     OW24403   2.183   2.456   4.935
 7835SOL    HW124404   2.233   2.538   4.908
 7835SOL    HW224405   2.115   2.480   5.005
 7836SOL     OW24406   3.035   3.039   5.276
 7836SOL    HW124407   3.055   2.941   5.279
 7836SOL    HW224408   3.090   3.086   5.345
 7837SOL     OW24409   6.871   5.637   1.147
 7837SOL    HW124410   6.842   5.722   1.102
 7837SOL    HW224411   6.934   5.587   1.089
 7838SOL     OW24412   4.228   6.297   0.337
 7838SOL    HW124413   4.139   6.255   0.357
 7838SOL    HW224414   4.220   6.397   0.345
 7839SOL     OW24415   6.097   4.556   5.042
 7839SOL    HW124416   6.120   4.646   5.006
 7839SOL    HW224417   6.168   4.491   5.017
 7840SOL     OW24418   5.074   2.892   4.498
 7840SOL    HW124419   5.083   2.908   4.596
 7840SOL    HW224420   4.981   2.911   4.468
 7841SOL     OW24421   4.741   1.503   6.729
 7841SOL    HW124422   4.758   1.411   6.693
 7841SOL    HW224423   4.683   1.554   6.665
 7842SOL     OW24424   1.908   1.551   2.555
 7842SOL    HW124425   1.817   1.521   2.584
 7842SOL    HW224426   1.900   1.612   2.477
 7843SOL     OW24427   4.805   4.578   1.831
 7843SOL    HW124428   4.711   4.570   1.796
 7843SOL    HW224429   4.808   4.550   1.927
 7844SOL     OW24430   4.651   6.822   3.473
 7844SOL    HW124431   4.602   6.858   3.394
 7844SOL    HW224432   4.664   6.723   3.462
 7845SOL     OW24433   6.048   1.623   4.375
 7845SOL    HW124434   6.072   1.604   4.280
 7845SOL    HW224435   6.040   1.721   4.388
 7846SOL     OW24436   1.213   1.398   1.970
 7846SOL    HW124437   1.184   1.304   1.951
 7846SOL    HW224438   1.193   1.456   1.891
 7847SOL     OW24439   6.481   1.678   2.318
 7847SOL    HW124440   6.441   1.732   2.393
 7847SOL    HW224441   6.580   1.687   2.321
 7848SOL     OW24442   2.868   2.881   0.785
 7848SOL    HW124443   2.782   2.833   0.801
 7848SOL    HW224444   2.928   2.824   0.729
 7849SOL     OW24445   4.931   3.658   3.319
 7849SOL    HW124446   5.023   3.617   3.325
 7849SOL    HW224447   4.882   3.644   3.405
 7850SOL     OW24448   0.802   2.001   3.954
 7850SOL    HW124449   0.812   1.976   3.857
 7850SOL    HW224450   0.876   2.062   3.980
 7851SOL     OW24451   6.547   0.397   1.030
 7851SOL    HW124452   6.526   0.445   1.115
 7851SOL    HW224453   6.622   0.333   1.045
 7852SOL     OW24454   2.844   0.870   5.787
 7852SOL    HW124455   2.793   0.811   5.849
 7852SOL    HW224456   2.940   0.840   5.784
 7853SOL     OW24457   4.324   1.330   2.034
 7853SOL    HW124458   4.271   1.245   2.029
 7853SOL    HW224459   4.264   1.406   2.057
 7854SOL     OW24460   2.874   3.259   0.075
 7854SOL    HW124461   2.866   3.203   0.157
 7854SOL    HW224462   2.967   3.254   0.039
 7855SOL     OW24463   3.175   5.950   5.797
 7855SOL    HW124464   3.165   6.001   5.883
 7855SOL    HW224465   3.107   5.982   5.731
 7856SOL     OW24466   5.609   5.170   4.967
 7856SOL    HW124467   5.547   5.092   4.957
 7856SOL    HW224468   5.702   5.142   4.945
 7857SOL     OW24469   6.177   2.671   5.376
 7857SOL    HW124470   6.165   2.604   5.449
 7857SOL    HW224471   6.271   2.706   5.378
 7858SOL     OW24472   5.271   5.107   3.573
 7858SOL    HW124473   5.171   5.106   3.565
 7858SOL    HW224474   5.311   5.128   3.484
 7859SOL     OW24475   6.125   2.983   5.875
 7859SOL    HW124476   6.056   2.960   5.943
 7859SOL    HW224477   6.201   3.031   5.918
 7860SOL     OW24478   4.427   0.124   2.690
 7860SOL    HW124479   4.504   0.185   2.709
 7860SOL    HW224480   4.458   0.029   2.695
 7861SOL     OW24481   4.237   5.188   1.769
 7861SOL    HW124482   4.239   5.250   1.690
 7861SOL    HW224483   4.257   5.239   1.852
 7862SOL     OW24484   3.098   4.287   1.700
 7862SOL    HW124485   3.135   4.230   1.773
 7862SOL    HW224486   3.016   4.334   1.732
 7863SOL     OW24487   6.692   6.210   3.721
 7863SOL    HW124488   6.709   6.181   3.815
 7863SOL    HW224489   6.769   6.265   3.688
 7864SOL     OW24490   0.281   6.636   5.544
 7864SOL    HW124491   0.298   6.560   5.607
 7864SOL    HW224492   0.263   6.601   5.452
 7865SOL     OW24493   5.431   6.912   4.525
 7865SOL    HW124494   5.388   7.002   4.532
 7865SOL    HW224495   5.373   6.851   4.471
 7866SOL     OW24496   2.199   2.286   6.895
 7866SOL    HW124497   2.194   2.380   6.928
 7866SOL    HW224498   2.124   2.232   6.933
 7867SOL     OW24499   5.571   6.583   2.744
 7867SOL    HW124500   5.557   6.635   2.828
 7867SOL    HW224501   5.512   6.619   2.672
 7868SOL     OW24502   5.942   6.539   2.344
 7868SOL    HW124503   5.930   6.629   2.300
 7868SOL    HW224504   5.859   6.517   2.395
 7869SOL     OW24505   5.625   3.211   6.711
 7869SOL    HW124506   5.594   3.200   6.617
 7869SOL    HW224507   5.569   3.279   6.757
 7870SOL     OW24508   4.504   5.109   4.213
 7870SOL    HW124509   4.407   5.111   4.187
 7870SOL    HW224510   4.512   5.089   4.311
 7871SOL     OW24511   5.663   3.195   2.603
 7871SOL    HW124512   5.588   3.244   2.648
 7871SOL    HW224513   5.742   3.256   2.595
 7872SOL     OW24514   2.323   4.326   2.819
 7872SOL    HW124515   2.347   4.377   2.736
 7872SOL    HW224516   2.390   4.345   2.891
 7873SOL     OW24517   5.876   0.731   5.343
 7873SOL    HW124518   5.935   0.776   5.409
 7873SOL    HW224519   5.780   0.744   5.370
 7874SOL     OW24520   5.296   1.732   0.707
 7874SOL    HW124521   5.383   1.685   0.723
 7874SOL    HW224522   5.223   1.665   0.699
 7875SOL     OW24523   4.805   2.550   6.604
 7875SOL    HW124524   4.893   2.593   6.581
 7875SOL    HW224525   4.731   2.610   6.575
 7876SOL     OW24526   0.009   0.021   5.579
 7876SOL    HW124527   6.978   0.029   5.496
 7876SOL    HW224528   6.975   0.016   5.659
 7877SOL     OW24529   6.787   2.720   3.080
 7877SOL    HW124530   6.714   2.732   3.147
 7877SOL    HW224531   6.785   2.796   3.014
 7878SOL     OW24532   5.114   4.927   4.215
 7878SOL    HW124533   5.173   4.860   4.261
 7878SOL    HW224534   5.026   4.930   4.262
 7879SOL     OW24535   4.367   5.547   3.414
 7879SOL    HW124536   4.379   5.642   3.384
 7879SOL    HW224537   4.453   5.514   3.454
 7880SOL     OW24538   2.325   5.323   1.510
 7880SOL    HW124539   2.301   5.275   1.426
 7880SOL    HW224540   2.424   5.333   1.516
 7881SOL     OW24541   5.884   4.085   4.779
 7881SOL    HW124542   5.812   4.037   4.728
 7881SOL    HW224543   5.955   4.114   4.715
 7882SOL     OW24544   1.179   3.673   2.477
 7882SOL    HW124545   1.104   3.702   2.537
 7882SOL    HW224546   1.235   3.752   2.452
 7883SOL     OW24547   1.474   6.749   0.989
 7883SOL    HW124548   1.458   6.843   1.017
 7883SOL    HW224549   1.434   6.687   1.057
 7884SOL     OW24550   2.013   3.766   3.912
 7884SOL    HW124551   2.073   3.763   3.992
 7884SOL    HW224552   2.063   3.801   3.833
 7885SOL     OW24553   5.898   6.555   1.590
 7885SOL    HW124554   5.975   6.613   1.618
 7885SOL    HW224555   5.901   6.469   1.641
 7886SOL     OW24556   3.969   5.394   1.410
 7886SOL    HW124557   3.951   5.477   1.359
 7886SOL    HW224558   3.929   5.316   1.362
 7887SOL     OW24559   3.162   2.771   5.311
 7887SOL    HW124560   3.249   2.809   5.344
 7887SOL    HW224561   3.175   2.676   5.285
 7888SOL     OW24562   0.138   0.647   4.905
 7888SOL    HW124563   0.219   0.702   4.882
 7888SOL    HW224564   0.109   0.669   4.998
 7889SOL     OW24565   0.850   4.941   6.906
 7889SOL    HW124566   0.884   4.892   6.826
 7889SOL    HW224567   0.908   5.021   6.923
 7890SOL     OW24568   0.590   3.224   3.299
 7890SOL    HW124569   0.557   3.132   3.280
 7890SOL    HW224570   0.653   3.221   3.377
 7891SOL     OW24571   2.017   4.330   4.680
 7891SOL    HW124572   2.086   4.259   4.671
 7891SOL    HW224573   2.035   4.383   4.763
 7892SOL     OW24574   1.987   1.924   4.161
 7892SOL    HW124575   2.049   1.992   4.122
 7892SOL    HW224576   1.971   1.851   4.094
 7893SOL     OW24577   6.179   6.537   1.807
 7893SOL    HW124578   6.266   6.497   1.837
 7893SOL    HW224579   6.114   6.535   1.882
 7894SOL     OW24580   3.197   0.463   0.971
 7894SOL    HW124581   3.098   0.456   0.971
 7894SOL    HW224582   3.225   0.557   0.952
 7895SOL     OW24583   4.974   0.525   5.016
 7895SOL    HW124584   5.038   0.599   4.995
 7895SOL    HW224585   4.901   0.560   5.076
 7896SOL     OW24586   4.452   2.702   0.801
 7896SOL    HW124587   4.530   2.752   0.837
 7896SOL    HW224588   4.429   2.627   0.863
 7897SOL     OW24589   3.226   2.244   1.223
 7897SOL    HW124590   3.297   2.310   1.198
 7897SOL    HW224591   3.202   2.256   1.319
 7898SOL     OW24592   3.845   6.884   3.899
 7898SOL    HW124593   3.777   6.954   3.879
 7898SOL    HW224594   3.937   6.922   3.883
 7899SOL     OW24595   5.870   0.032   1.244
 7899SOL    HW124596   5.872   0.127   1.215
 7899SOL    HW224597   5.816   7.003   1.180
 7900SOL     OW24598   1.063   5.498   1.460
 7900SOL    HW124599   1.001   5.451   1.523
 7900SOL    HW224600   1.009   5.543   1.388
 7901SOL     OW24601   3.732   0.893   6.787
 7901SOL    HW124602   3.821   0.927   6.759
 7901SOL    HW224603   3.713   0.920   6.882
 7902SOL     OW24604   6.388   6.450   2.008
 7902SOL    HW124605   6.296   6.418   1.986
 7902SOL    HW224606   6.451   6.373   2.009
 7903SOL     OW24607   4.592   1.979   3.263
 7903SOL    HW124608   4.567   1.918   3.188
 7903SOL    HW224609   4.598   1.927   3.348
 7904SOL     OW24610   5.969   6.648   2.773
 7904SOL    HW124611   5.887   6.591   2.774
 7904SOL    HW224612   5.948   6.739   2.809
 7905SOL     OW24613   5.813   2.408   0.819
 7905SOL    HW124614   5.890   2.408   0.755
 7905SOL    HW224615   5.835   2.467   0.897
 7906SOL     OW24616   0.737   5.129   0.670
 7906SOL    HW124617   0.771   5.036   0.665
 7906SOL    HW224618   0.814   5.192   0.681
 7907SOL     OW24619   5.786   2.045   3.733
 7907SOL    HW124620   5.831   2.041   3.823
 7907SOL    HW224621   5.749   1.954   3.712
 7908SOL     OW24622   1.816   0.803   5.846
 7908SOL    HW124623   1.769   0.891   5.841
 7908SOL    HW224624   1.748   0.729   5.852
 7909SOL     OW24625   5.078   4.448   4.059
 7909SOL    HW124626   5.021   4.471   4.138
 7909SOL    HW224627   5.174   4.442   4.087
 7910SOL     OW24628   2.595   3.392   0.244
 7910SOL    HW124629   2.550   3.303   0.247
 7910SOL    HW224630   2.626   3.417   0.336
 7911SOL     OW24631   0.661   4.254   0.233
 7911SOL    HW124632   0.633   4.247   0.329
 7911SOL    HW224633   0.708   4.341   0.219
 7912SOL     OW24634   6.341   4.394   0.921
 7912SOL    HW124635   6.300   4.483   0.901
 7912SOL    HW224636   6.268   4.326   0.930
 7913SOL     OW24637   1.262   4.230   1.494
 7913SOL    HW124638   1.226   4.252   1.585
 7913SOL    HW224639   1.361   4.222   1.498
 7914SOL     OW24640   0.255   4.824   0.687
 7914SOL    HW124641   0.228   4.836   0.783
 7914SOL    HW224642   0.198   4.883   0.630
 7915SOL     OW24643   4.810   2.438   1.845
 7915SOL    HW124644   4.837   2.389   1.927
 7915SOL    HW224645   4.751   2.379   1.789
 7916SOL     OW24646   0.019   6.753   5.916
 7916SOL    HW124647   6.971   6.747   5.848
 7916SOL    HW224648   7.017   6.704   5.999
 7917SOL     OW24649   3.145   3.100   5.026
 7917SOL    HW124650   3.108   3.074   5.115
 7917SOL    HW224651   3.193   3.023   4.986
 7918SOL     OW24652   6.944   1.369   4.732
 7918SOL    HW124653   6.935   1.462   4.697
 7918SOL    HW224654   6.901   1.305   4.668
 7919SOL     OW24655   1.160   4.539   3.227
 7919SOL    HW124656   1.096   4.514   3.155
 7919SOL    HW224657   1.209   4.458   3.258
 7920SOL     OW24658   6.759   0.451   0.211
 7920SOL    HW124659   6.719   0.387   0.277
 7920SOL    HW224660   6.740   0.419   0.118
 7921SOL     OW24661   5.917   6.342   1.770
 7921SOL    HW124662   5.870   6.344   1.859
 7921SOL    HW224663   6.015   6.355   1.783
 7922SOL     OW24664   0.139   6.209   1.000
 7922SOL    HW124665   0.046   6.172   0.996
 7922SOL    HW224666   0.178   6.188   1.090
 7923SOL     OW24667   4.098   0.840   6.560
 7923SOL    HW124668   4.072   0.779   6.635
 7923SOL    HW224669   4.184   0.885   6.582
 7924SOL     OW24670   5.347   0.268   2.352
 7924SOL    HW124671   5.332   0.356   2.306
 7924SOL    HW224672   5.351   0.195   2.283
 7925SOL     OW24673   0.795   0.224   0.265
 7925SOL    HW124674   0.727   0.295   0.284
 7925SOL    HW224675   0.780   0.188   0.173
 7926SOL     OW24676   4.108   1.826   6.620
 7926SOL    HW124677   4.113   1.829   6.720
 7926SOL    HW224678   4.016   1.854   6.590
 7927SOL     OW24679   4.477   6.018   3.118
 7927SOL    HW124680   4.417   6.041   3.042
 7927SOL    HW224681   4.472   6.089   3.188
 7928SOL     OW24682   1.727   1.941   4.248
 7928SOL    HW124683   1.817   1.932   4.206
 7928SOL    HW224684   1.657   1.937   4.176
 7929SOL     OW24685   4.422   3.990   5.377
 7929SOL    HW124686   4.490   4.052   5.415
 7929SOL    HW224687   4.468   3.910   5.338
 7930SOL     OW24688   4.452   5.224   5.061
 7930SOL    HW124689   4.424   5.200   5.154
 7930SOL    HW224690   4.378   5.273   5.015
 7931SOL     OW24691   3.038   3.101   6.872
 7931SOL    HW124692   3.063   3.053   6.956
 7931SOL    HW224693   3.073   3.195   6.876
 7932SOL     OW24694   1.015   6.741   6.583
 7932SOL    HW124695   0.959   6.746   6.500
 7932SOL    HW224696   1.090   6.676   6.567
 7933SOL     OW24697   6.827   6.658   6.558
 7933SOL    HW124698   6.795   6.721   6.487
 7933SOL    HW224699   6.895   6.703   6.615
 7934SOL     OW24700   1.195   4.955   6.242
 7934SOL    HW124701   1.226   4.907   6.160
 7934SOL    HW224702   1.103   4.991   6.226
 7935SOL     OW24703   5.815   6.258   1.344
 7935SOL    HW124704   5.831   6.267   1.443
 7935SOL    HW224705   5.731   6.206   1.329
 7936SOL     OW24706   3.184   5.872   1.878
 7936SOL    HW124707   3.174   5.892   1.781
 7936SOL    HW224708   3.212   5.776   1.890
 7937SOL     OW24709   6.717   5.966   3.966
 7937SOL    HW124710   6.763   5.878   3.956
 7937SOL    HW224711   6.665   5.967   4.051
 7938SOL     OW24712   6.261   5.981   3.929
 7938SOL    HW124713   6.288   5.885   3.940
 7938SOL    HW224714   6.181   5.987   3.870
 7939SOL     OW24715   1.822   2.417   4.436
 7939SOL    HW124716   1.781   2.506   4.415
 7939SOL    HW224717   1.836   2.410   4.535
 7940SOL     OW24718   1.514   3.986   1.929
 7940SOL    HW124719   1.572   3.981   2.010
 7940SOL    HW224720   1.543   4.062   1.871
 7941SOL     OW24721   6.130   6.812   1.088
 7941SOL    HW124722   6.218   6.766   1.072
 7941SOL    HW224723   6.113   6.816   1.187
 7942SOL     OW24724   6.751   5.170   2.388
 7942SOL    HW124725   6.739   5.122   2.301
 7942SOL    HW224726   6.731   5.268   2.376
 7943SOL     OW24727   0.461   3.993   6.405
 7943SOL    HW124728   0.405   4.075   6.418
 7943SOL    HW224729   0.408   3.925   6.354
 7944SOL     OW24730   0.987   2.716   0.918
 7944SOL    HW124731   1.018   2.649   0.851
 7944SOL    HW224732   0.894   2.745   0.896
 7945SOL     OW24733   6.383   5.257   1.374
 7945SOL    HW124734   6.397   5.222   1.467
 7945SOL    HW224735   6.321   5.196   1.324
 7946SOL     OW24736   4.076   0.335   5.826
 7946SOL    HW124737   4.109   0.425   5.857
 7946SOL    HW224738   4.124   0.263   5.877
 7947SOL     OW24739   3.671   1.191   5.713
 7947SOL    HW124740   3.769   1.208   5.726
 7947SOL    HW224741   3.658   1.111   5.655
 7948SOL     OW24742   1.440   6.472   1.229
 7948SOL    HW124743   1.387   6.468   1.143
 7948SOL    HW224744   1.525   6.420   1.218
 7949SOL     OW24745   4.826   4.307   5.527
 7949SOL    HW124746   4.860   4.262   5.445
 7949SOL    HW224747   4.899   4.310   5.596
 7950SOL     OW24748   4.945   5.282   3.865
 7950SOL    HW124749   5.014   5.231   3.813
 7950SOL    HW224750   4.935   5.242   3.956
 7951SOL     OW24751   2.105   4.788   2.335
 7951SOL    HW124752   2.054   4.725   2.277
 7951SOL    HW224753   2.091   4.763   2.431
 7952SOL     OW24754   6.928   3.368   6.447
 7952SOL    HW124755   6.974   3.311   6.379
 7952SOL    HW224756   6.921   3.317   6.533
 7953SOL     OW24757   3.284   2.175   3.385
 7953SOL    HW124758   3.252   2.265   3.415
 7953SOL    HW224759   3.368   2.151   3.434
 7954SOL     OW24760   3.526   4.392   5.893
 7954SOL    HW124761   3.609   4.434   5.931
 7954SOL    HW224762   3.462   4.373   5.967
 7955SOL     OW24763   2.896   0.962   6.693
 7955SOL    HW124764   2.822   0.896   6.696
 7955SOL    HW224765   2.983   0.915   6.711
 7956SOL     OW24766   4.653   6.201   2.021
 7956SOL    HW124767   4.695   6.157   2.100
 7956SOL    HW224768   4.609   6.131   1.964
 7957SOL     OW24769   1.085   0.521   1.568
 7957SOL    HW124770   1.067   0.433   1.612
 7957SOL    HW224771   1.183   0.529   1.548
 7958SOL     OW24772   3.972   4.843   5.115
 7958SOL    HW124773   3.934   4.880   5.031
 7958SOL    HW224774   4.048   4.781   5.093
 7959SOL     OW24775   5.018   5.451   0.631
 7959SOL    HW124776   5.108   5.430   0.592
 7959SOL    HW224777   4.946   5.411   0.574
 7960SOL     OW24778   2.555   1.749   5.944
 7960SOL    HW124779   2.644   1.781   5.975
 7960SOL    HW224780   2.537   1.783   5.852
 7961SOL     OW24781   7.013   1.527   0.701
 7961SOL    HW124782   7.004   1.584   0.783
 7961SOL    HW224783   0.042   1.446   0.723
 7962SOL     OW24784   1.649   0.601   5.880
 7962SOL    HW124785   1.674   0.527   5.943
 7962SOL    HW224786   1.560   0.580   5.839
 7963SOL     OW24787   6.467   6.660   4.461
 7963SOL    HW124788   6.524   6.679   4.541
 7963SOL    HW224789   6.375   6.636   4.491
 7964SOL     OW24790   6.975   4.141   2.813
 7964SOL    HW124791   6.976   4.170   2.909
 7964SOL    HW224792   6.928   4.053   2.806
 7965SOL     OW24793   3.936   2.589   5.882
 7965SOL    HW124794   3.934   2.503   5.832
 7965SOL    HW224795   3.842   2.619   5.902
 7966SOL     OW24796   2.387   2.753   6.035
 7966SOL    HW124797   2.419   2.663   6.005
 7966SOL    HW224798   2.304   2.742   6.090
 7967SOL     OW24799   3.692   6.495   2.460
 7967SOL    HW124800   3.744   6.561   2.514
 7967SOL    HW224801   3.743   6.472   2.377
 7968SOL     OW24802   1.178   2.536   3.892
 7968SOL    HW124803   1.217   2.580   3.973
 7968SOL    HW224804   1.238   2.462   3.862
 7969SOL     OW24805   4.437   5.896   0.801
 7969SOL    HW124806   4.409   5.863   0.891
 7969SOL    HW224807   4.526   5.941   0.808
 7970SOL     OW24808   6.577   2.551   2.434
 7970SOL    HW124809   6.504   2.612   2.403
 7970SOL    HW224810   6.642   2.538   2.359
 7971SOL     OW24811   3.053   2.057   1.108
 7971SOL    HW124812   3.009   2.077   1.021
 7971SOL    HW224813   3.105   2.138   1.138
 7972SOL     OW24814   2.254   3.170   0.406
 7972SOL    HW124815   2.208   3.213   0.328
 7972SOL    HW224816   2.273   3.074   0.384
 7973SOL     OW24817   4.246   4.771   4.599
 7973SOL    HW124818   4.283   4.722   4.678
 7973SOL    HW224819   4.154   4.804   4.621
 7974SOL     OW24820   5.931   0.957   5.135
 7974SOL    HW124821   5.885   0.870   5.152
 7974SOL    HW224822   5.904   1.023   5.205
 7975SOL     OW24823   5.988   1.460   2.131
 7975SOL    HW124824   6.017   1.452   2.036
 7975SOL    HW224825   5.889   1.474   2.135
 7976SOL     OW24826   0.448   0.463   6.296
 7976SOL    HW124827   0.427   0.366   6.283
 7976SOL    HW224828   0.506   0.474   6.377
 7977SOL     OW24829   4.906   5.863   2.913
 7977SOL    HW124830   4.838   5.793   2.938
 7977SOL    HW224831   4.904   5.877   2.814
 7978SOL     OW24832   5.991   2.995   6.096
 7978SOL    HW124833   5.976   2.919   6.160
 7978SOL    HW224834   5.942   3.076   6.130
 7979SOL     OW24835   4.187   6.169   5.689
 7979SOL    HW124836   4.197   6.163   5.589
 7979SOL    HW224837   4.091   6.155   5.714
 7980SOL     OW24838   3.188   5.682   0.059
 7980SOL    HW124839   3.268   5.666   0.118
 7980SOL    HW224840   3.185   5.611   7.013
 7981SOL     OW24841   0.726   4.915   2.006
 7981SOL    HW124842   0.747   4.997   1.954
 7981SOL    HW224843   0.697   4.940   2.099
 7982SOL     OW24844   1.895   1.291   7.002
 7982SOL    HW124845   1.976   1.254   0.022
 7982SOL    HW224846   1.828   1.318   0.046
 7983SOL     OW24847   6.655   2.070   1.663
 7983SOL    HW124848   6.618   1.978   1.671
 7983SOL    HW224849   6.736   2.069   1.604
 7984SOL     OW24850   1.003   1.187   0.899
 7984SOL    HW124851   1.084   1.234   0.934
 7984SOL    HW224852   0.921   1.235   0.932
 7985SOL     OW24853   3.543   0.634   4.597
 7985SOL    HW124854   3.536   0.565   4.525
 7985SOL    HW224855   3.621   0.693   4.578
 7986SOL     OW24856   3.158   1.023   6.307
 7986SOL    HW124857   3.089   0.997   6.374
 7986SOL    HW224858   3.249   0.999   6.342
 7987SOL     OW24859   1.894   2.345   0.031
 7987SOL    HW124860   1.865   2.420   0.090
 7987SOL    HW224861   1.824   2.329   6.987
 7988SOL     OW24862   0.328   2.216   3.514
 7988SOL    HW124863   0.326   2.250   3.608
 7988SOL    HW224864   0.246   2.247   3.466
 7989SOL     OW24865   2.867   3.276   6.663
 7989SOL    HW124866   2.862   3.291   6.564
 7989SOL    HW224867   2.951   3.316   6.699
 7990SOL     OW24868   0.916   4.650   4.303
 7990SOL    HW124869   0.854   4.574   4.319
 7990SOL    HW224870   1.009   4.623   4.327
 7991SOL     OW24871   5.431   0.062   3.506
 7991SOL    HW124872   5.504   0.065   3.438
 7991SOL    HW224873   5.343   0.070   3.460
 7992SOL     OW24874   0.674   7.001   0.757
 7992SOL    HW124875   0.608   7.013   0.683
 7992SOL    HW224876   0.749   0.041   0.746
 7993SOL     OW24877   0.392   0.221   0.642
 7993SOL    HW124878   0.393   0.264   0.732
 7993SOL    HW224879   0.355   0.284   0.575
 7994SOL     OW24880   3.977   6.839   3.424
 7994SOL    HW124881   4.064   6.850   3.472
 7994SOL    HW224882   3.994   6.815   3.329
 7995SOL     OW24883   5.401   6.175   3.836
 7995SOL    HW124884   5.458   6.255   3.819
 7995SOL    HW224885   5.399   6.117   3.754
 7996SOL     OW24886   2.639   0.069   4.898
 7996SOL    HW124887   2.590   0.110   4.975
 7996SOL    HW224888   2.608   7.000   4.884
 7997SOL     OW24889   0.243   1.319   1.268
 7997SOL    HW124890   0.206   1.406   1.299
 7997SOL    HW224891   0.311   1.286   1.333
 7998SOL     OW24892   2.736   0.006   0.219
 7998SOL    HW124893   2.771   0.072   0.286
 7998SOL    HW224894   2.807   6.963   0.200
 7999SOL     OW24895   0.853   0.692   5.972
 7999SOL    HW124896   0.835   0.744   6.056
 7999SOL    HW224897   0.796   0.726   5.898
 8000SOL     OW24898   4.828   0.269   0.178
 8000SOL    HW124899   4.898   0.203   0.151
 8000SOL    HW224900   4.841   0.354   0.126
 8001SOL     OW24901   4.496   6.233   1.418
 8001SOL    HW124902   4.564   6.261   1.486
 8001SOL    HW224903   4.500   6.295   1.340
 8002SOL     OW24904   2.006   1.117   6.106
 8002SOL    HW124905   1.992   1.212   6.134
 8002SOL    HW224906   1.917   1.073   6.092
 8003SOL     OW24907   2.991   5.249   2.112
 8003SOL    HW124908   3.024   5.163   2.151
 8003SOL    HW224909   3.025   5.326   2.166
 8004SOL     OW24910   2.179   3.094   2.558
 8004SOL    HW124911   2.266   3.109   2.604
 8004SOL    HW224912   2.183   3.009   2.505
 8005SOL     OW24913   2.892   1.274   2.458
 8005SOL    HW124914   2.814   1.317   2.413
 8005SOL    HW224915   2.962   1.343   2.477
 8006SOL     OW24916   2.026   6.681   5.870
 8006SOL    HW124917   1.958   6.622   5.914
 8006SOL    HW224918   2.033   6.767   5.921
 8007SOL     OW24919   6.417   1.105   5.047
 8007SOL    HW124920   6.419   1.164   4.966
 8007SOL    HW224921   6.491   1.130   5.109
 8008SOL     OW24922   4.911   5.645   6.441
 8008SOL    HW124923   4.861   5.693   6.369
 8008SOL    HW224924   4.959   5.567   6.401
 8009SOL     OW24925   5.975   0.296   1.599
 8009SOL    HW124926   5.915   0.227   1.558
 8009SOL    HW224927   6.023   0.345   1.526
 8010SOL     OW24928   1.871   1.544   5.673
 8010SOL    HW124929   1.833   1.636   5.671
 8010SOL    HW224930   1.882   1.511   5.579
 8011SOL     OW24931   3.251   2.708   0.969
 8011SOL    HW124932   3.255   2.709   1.069
 8011SOL    HW224933   3.203   2.625   0.939
 8012SOL     OW24934   1.856   4.022   0.257
 8012SOL    HW124935   1.889   3.939   0.211
 8012SOL    HW224936   1.790   4.068   0.198
 8013SOL     OW24937   1.449   5.181   3.592
 8013SOL    HW124938   1.481   5.087   3.599
 8013SOL    HW224939   1.400   5.193   3.506
 8014SOL     OW24940   1.159   6.305   5.091
 8014SOL    HW124941   1.069   6.295   5.132
 8014SOL    HW224942   1.217   6.360   5.151
 8015SOL     OW24943   3.419   0.546   6.276
 8015SOL    HW124944   3.488   0.613   6.304
 8015SOL    HW224945   3.399   0.557   6.179
 8016SOL     OW24946   5.047   0.404   5.514
 8016SOL    HW124947   5.067   0.495   5.550
 8016SOL    HW224948   4.955   0.404   5.473
 8017SOL     OW24949   5.871   0.103   0.602
 8017SOL    HW124950   5.875   0.035   0.676
 8017SOL    HW224951   5.958   0.106   0.554
 8018SOL     OW24952   3.147   2.035   6.548
 8018SOL    HW124953   3.165   2.123   6.594
 8018SOL    HW224954   3.233   1.999   6.512
 8019SOL     OW24955   2.216   4.893   0.113
 8019SOL    HW124956   2.213   4.986   0.150
 8019SOL    HW224957   2.131   4.845   0.136
 8020SOL     OW24958   6.023   0.490   0.337
 8020SOL    HW124959   6.029   0.391   0.356
 8020SOL    HW224960   6.105   0.536   0.371
 8021SOL     OW24961   1.598   2.867   1.148
 8021SOL    HW124962   1.689   2.829   1.137
 8021SOL    HW224963   1.596   2.961   1.112
 8022SOL     OW24964   6.294   7.022   2.872
 8022SOL    HW124965   6.309   6.992   2.778
 8022SOL    HW224966   6.243   0.083   2.872
 8023SOL     OW24967   5.430   5.191   2.836
 8023SOL    HW124968   5.482   5.253   2.896
 8023SOL    HW224969   5.332   5.209   2.847
 8024SOL     OW24970   1.141   4.232   6.073
 8024SOL    HW124971   1.106   4.164   6.009
 8024SOL    HW224972   1.064   4.279   6.117
 8025SOL     OW24973   2.140   5.994   6.923
 8025SOL    HW124974   2.146   5.939   6.840
 8025SOL    HW224975   2.176   6.085   6.906
 8026SOL     OW24976   6.761   4.051   0.226
 8026SOL    HW124977   6.817   3.991   0.283
 8026SOL    HW224978   6.812   4.073   0.142
 8027SOL     OW24979   4.597   0.490   5.087
 8027SOL    HW124980   4.658   0.567   5.105
 8027SOL    HW224981   4.510   0.523   5.051
 8028SOL     OW24982   4.071   5.874   5.656
 8028SOL    HW124983   4.062   5.902   5.560
 8028SOL    HW224984   4.006   5.926   5.712
 8029SOL     OW24985   4.713   2.863   0.850
 8029SOL    HW124986   4.780   2.924   0.893
 8029SOL    HW224987   4.735   2.854   0.752
 8030SOL     OW24988   4.014   4.550   0.471
 8030SOL    HW124989   3.975   4.458   0.470
 8030SOL    HW224990   3.954   4.612   0.421
 8031SOL     OW24991   6.793   6.406   2.786
 8031SOL    HW124992   6.893   6.402   2.792
 8031SOL    HW224993   6.762   6.499   2.807
 8032SOL     OW24994   6.276   4.186   1.297
 8032SOL    HW124995   6.231   4.217   1.381
 8032SOL    HW224996   6.363   4.142   1.319
 8033SOL     OW24997   5.323   1.596   6.209
 8033SOL    HW124998   5.381   1.622   6.286
 8033SOL    HW224999   5.315   1.674   6.147
 8034SOL     OW25000   4.567   0.290   4.388
 8034SOL    HW125001   4.661   0.304   4.355
 8034SOL    HW225002   4.557   0.195   4.419
 8035SOL     OW25003   4.999   1.591   4.420
 8035SOL    HW125004   5.019   1.627   4.511
 8035SOL    HW225005   5.038   1.652   4.351
 8036SOL     OW25006   6.634   3.974   3.876
 8036SOL    HW125007   6.634   3.882   3.837
 8036SOL    HW225008   6.543   4.014   3.867
 8037SOL     OW25009   1.519   3.376   0.357
 8037SOL    HW125010   1.570   3.463   0.353
 8037SOL    HW225011   1.562   3.316   0.424
 8038SOL     OW25012   4.515   6.833   2.272
 8038SOL    HW125013   4.571   6.793   2.200
 8038SOL    HW225014   4.449   6.897   2.232
 8039SOL     OW25015   0.929   1.740   5.162
 8039SOL    HW125016   0.888   1.759   5.251
 8039SOL    HW225017   0.920   1.821   5.103
 8040SOL     OW25018   1.174   5.472   0.218
 8040SOL    HW125019   1.262   5.459   0.262
 8040SOL    HW225020   1.110   5.515   0.282
 8041SOL     OW25021   2.765   1.418   2.888
 8041SOL    HW125022   2.757   1.496   2.827
 8041SOL    HW225023   2.728   1.442   2.978
 8042SOL     OW25024   3.174   2.995   4.010
 8042SOL    HW125025   3.178   3.092   3.983
 8042SOL    HW225026   3.123   2.987   4.096
 8043SOL     OW25027   3.316   6.536   1.422
 8043SOL    HW125028   3.287   6.626   1.390
 8043SOL    HW225029   3.414   6.525   1.405
 8044SOL     OW25030   4.289   2.577   1.428
 8044SOL    HW125031   4.388   2.572   1.416
 8044SOL    HW225032   4.266   2.655   1.487
 8045SOL     OW25033   5.581   2.054   3.459
 8045SOL    HW125034   5.597   1.955   3.454
 8045SOL    HW225035   5.484   2.070   3.480
 8046SOL     OW25036   0.803   4.603   1.462
 8046SOL    HW125037   0.827   4.574   1.555
 8046SOL    HW225038   0.706   4.586   1.446
 8047SOL     OW25039   4.228   5.788   5.381
 8047SOL    HW125040   4.224   5.694   5.416
 8047SOL    HW225041   4.139   5.813   5.342
 8048SOL     OW25042   5.105   1.660   5.913
 8048SOL    HW125043   5.042   1.738   5.909
 8048SOL    HW225044   5.197   1.692   5.936
 8049SOL     OW25045   0.332   0.627   0.558
 8049SOL    HW125046   0.382   0.645   0.643
 8049SOL    HW225047   0.314   0.713   0.510
 8050SOL     OW25048   1.870   2.993   3.332
 8050SOL    HW125049   1.894   3.077   3.381
 8050SOL    HW225050   1.888   3.004   3.235
 8051SOL     OW25051   4.610   5.765   4.011
 8051SOL    HW125052   4.572   5.673   4.011
 8051SOL    HW225053   4.538   5.831   3.986
 8052SOL     OW25054   3.836   1.366   1.076
 8052SOL    HW125055   3.779   1.357   0.994
 8052SOL    HW225056   3.803   1.305   1.147
 8053SOL     OW25057   2.972   3.372   4.126
 8053SOL    HW125058   2.972   3.394   4.223
 8053SOL    HW225059   2.920   3.442   4.076
 8054SOL     OW25060   6.457   5.244   5.105
 8054SOL    HW125061   6.539   5.191   5.127
 8054SOL    HW225062   6.388   5.230   5.176
 8055SOL     OW25063   0.534   0.451   5.271
 8055SOL    HW125064   0.627   0.482   5.252
 8055SOL    HW225065   0.528   0.352   5.262
 8056SOL     OW25066   2.273   0.998   3.550
 8056SOL    HW125067   2.362   0.957   3.529
 8056SOL    HW225068   2.200   0.935   3.525
 8057SOL     OW25069   3.037   1.966   2.889
 8057SOL    HW125070   3.126   1.998   2.857
 8057SOL    HW225071   2.969   2.039   2.878
 8058SOL     OW25072   3.914   0.283   3.426
 8058SOL    HW125073   3.981   0.310   3.357
 8058SOL    HW225074   3.852   0.215   3.387
 8059SOL     OW25075   2.700   1.958   5.102
 8059SOL    HW125076   2.797   1.954   5.125
 8059SOL    HW225077   2.661   2.045   5.133
 8060SOL     OW25078   6.546   2.027   5.610
 8060SOL    HW125079   6.500   1.954   5.561
 8060SOL    HW225080   6.491   2.055   5.689
 8061SOL     OW25081   6.901   0.617   2.939
 8061SOL    HW125082   6.955   0.604   2.856
 8061SOL    HW225083   6.931   0.550   3.008
 8062SOL     OW25084   3.506   5.064   4.418
 8062SOL    HW125085   3.509   5.070   4.319
 8062SOL    HW225086   3.423   5.107   4.452
 8063SOL     OW25087   2.128   1.873   1.777
 8063SOL    HW125088   2.097   1.889   1.683
 8063SOL    HW225089   2.069   1.923   1.840
 8064SOL     OW25090   5.937   2.821   1.683
 8064SOL    HW125091   5.906   2.831   1.777
 8064SOL    HW225092   6.037   2.827   1.680
 8065SOL     OW25093   2.359   5.531   4.366
 8065SOL    HW125094   2.274   5.499   4.325
 8065SOL    HW225095   2.353   5.526   4.465
 8066SOL     OW25096   1.313   1.727   5.275
 8066SOL    HW125097   1.384   1.764   5.334
 8066SOL    HW225098   1.347   1.645   5.228
 8067SOL     OW25099   5.105   2.564   2.413
 8067SOL    HW125100   5.015   2.542   2.377
 8067SOL    HW225101   5.160   2.607   2.341
 8068SOL     OW25102   6.960   4.246   1.613
 8068SOL    HW125103   6.923   4.158   1.643
 8068SOL    HW225104   0.025   4.232   1.574
 8069SOL     OW25105   2.912   5.874   1.146
 8069SOL    HW125106   2.835   5.857   1.084
 8069SOL    HW225107   2.885   5.941   1.215
 8070SOL     OW25108   4.216   3.396   0.904
 8070SOL    HW125109   4.153   3.401   0.826
 8070SOL    HW225110   4.307   3.370   0.871
 8071SOL     OW25111   3.413   6.394   4.469
 8071SOL    HW125112   3.509   6.379   4.446
 8071SOL    HW225113   3.394   6.355   4.559
 8072SOL     OW25114   4.079   1.736   0.992
 8072SOL    HW125115   4.064   1.743   0.893
 8072SOL    HW225116   4.006   1.783   1.040
 8073SOL     OW25117   2.921   5.378   5.090
 8073SOL    HW125118   2.926   5.369   4.991
 8073SOL    HW225119   2.925   5.288   5.132
 8074SOL     OW25120   3.134   2.752   0.634
 8074SOL    HW125121   3.145   2.678   0.701
 8074SOL    HW225122   3.212   2.814   0.640
 8075SOL     OW25123   0.010   0.254   0.462
 8075SOL    HW125124   6.982   0.263   0.545
 8075SOL    HW225125   0.072   0.332   0.454
 8076SOL     OW25126   6.341   0.783   5.400
 8076SOL    HW125127   6.389   0.739   5.324
 8076SOL    HW225128   6.300   0.868   5.369
 8077SOL     OW25129   3.251   6.244   2.579
 8077SOL    HW125130   3.275   6.160   2.531
 8077SOL    HW225131   3.278   6.323   2.523
 8078SOL     OW25132   6.798   2.288   0.706
 8078SOL    HW125133   6.705   2.251   0.702
 8078SOL    HW225134   6.839   2.267   0.794
 8079SOL     OW25135   5.858   1.753   3.848
 8079SOL    HW125136   5.907   1.834   3.878
 8079SOL    HW225137   5.817   1.708   3.927
 8080SOL     OW25138   1.322   2.554   1.342
 8080SOL    HW125139   1.396   2.621   1.344
 8080SOL    HW225140   1.266   2.565   1.424
 8081SOL     OW25141   6.354   5.704   5.680
 8081SOL    HW125142   6.324   5.617   5.641
 8081SOL    HW225143   6.357   5.696   5.780
 8082SOL     OW25144   4.266   6.839   2.719
 8082SOL    HW125145   4.243   6.848   2.622
 8082SOL    HW225146   4.365   6.838   2.730
 8083SOL     OW25147   4.966   2.676   2.850
 8083SOL    HW125148   4.870   2.693   2.828
 8083SOL    HW225149   5.021   2.683   2.766
 8084SOL     OW25150   3.980   6.366   6.932
 8084SOL    HW125151   3.930   6.394   6.850
 8084SOL    HW225152   3.938   6.408   7.013
 8085SOL     OW25153   6.713   6.342   2.227
 8085SOL    HW125154   6.802   6.330   2.183
 8085SOL    HW225155   6.719   6.311   2.322
 8086SOL     OW25156   5.817   0.385   2.936
 8086SOL    HW125157   5.881   0.461   2.950
 8086SOL    HW225158   5.862   0.299   2.960
 8087SOL     OW25159   2.418   0.858   6.714
 8087SOL    HW125160   2.469   0.932   6.672
 8087SOL    HW225161   2.371   0.805   6.644
 8088SOL     OW25162   5.619   1.838   1.678
 8088SOL    HW125163   5.712   1.873   1.667
 8088SOL    HW225164   5.565   1.861   1.597
 8089SOL     OW25165   5.908   3.072   1.006
 8089SOL    HW125166   5.870   2.979   1.008
 8089SOL    HW225167   5.955   3.086   0.919
 8090SOL     OW25168   4.497   2.230   0.014
 8090SOL    HW125169   4.535   2.258   0.102
 8090SOL    HW225170   4.439   2.303   7.003
 8091SOL     OW25171   2.154   3.600   4.974
 8091SOL    HW125172   2.122   3.654   5.052
 8091SOL    HW225173   2.250   3.621   4.956
 8092SOL     OW25174   5.632   2.254   5.026
 8092SOL    HW125175   5.612   2.341   5.071
 8092SOL    HW225176   5.578   2.248   4.942
 8093SOL     OW25177   3.998   5.056   2.861
 8093SOL    HW125178   4.018   5.153   2.849
 8093SOL    HW225179   4.063   5.002   2.807
 8094SOL     OW25180   1.070   3.339   4.870
 8094SOL    HW125181   1.144   3.297   4.817
 8094SOL    HW225182   0.990   3.352   4.811
 8095SOL     OW25183   0.700   4.976   4.149
 8095SOL    HW125184   0.747   4.963   4.237
 8095SOL    HW225185   0.631   5.048   4.159
 8096SOL     OW25186   1.950   6.769   3.276
 8096SOL    HW125187   1.970   6.718   3.193
 8096SOL    HW225188   2.029   6.767   3.337
 8097SOL     OW25189   3.976   0.115   4.264
 8097SOL    HW125190   4.004   0.020   4.251
 8097SOL    HW225191   4.057   0.173   4.271
 8098SOL     OW25192   1.653   6.460   3.276
 8098SOL    HW125193   1.609   6.380   3.235
 8098SOL    HW225194   1.586   6.534   3.285
 8099SOL     OW25195   4.056   6.510   4.924
 8099SOL    HW125196   3.956   6.505   4.915
 8099SOL    HW225197   4.087   6.441   4.989
 8100SOL     OW25198   6.704   1.102   1.150
 8100SOL    HW125199   6.646   1.023   1.173
 8100SOL    HW225200   6.721   1.156   1.233
 8101SOL     OW25201   2.199   6.264   2.560
 8101SOL    HW125202   2.207   6.364   2.560
 8101SOL    HW225203   2.164   6.234   2.471
 8102SOL     OW25204   1.117   4.070   3.597
 8102SOL    HW125205   1.040   4.111   3.548
 8102SOL    HW225206   1.168   4.141   3.645
 8103SOL     OW25207   2.673   6.885   1.410
 8103SOL    HW125208   2.726   6.954   1.459
 8103SOL    HW225209   2.602   6.931   1.356
 8104SOL     OW25210   2.847   0.517   6.158
 8104SOL    HW125211   2.937   0.486   6.127
 8104SOL    HW225212   2.857   0.603   6.208
 8105SOL     OW25213   0.768   2.867   3.422
 8105SOL    HW125214   0.674   2.848   3.391
 8105SOL    HW225215   0.807   2.940   3.365
 8106SOL     OW25216   2.694   5.952   2.797
 8106SOL    HW125217   2.732   5.905   2.876
 8106SOL    HW225218   2.755   6.026   2.768
 8107SOL     OW25219   0.807   4.903   4.381
 8107SOL    HW125220   0.871   4.829   4.360
 8107SOL    HW225221   0.842   4.956   4.458
 8108SOL     OW25222   5.942   2.817   5.741
 8108SOL    HW125223   5.877   2.872   5.688
 8108SOL    HW225224   5.990   2.876   5.806
 8109SOL     OW25225   0.816   3.807   4.571
 8109SOL    HW125226   0.901   3.755   4.567
 8109SOL    HW225227   0.764   3.779   4.652
 8110SOL     OW25228   3.383   6.017   1.015
 8110SOL    HW125229   3.293   6.039   1.054
 8110SOL    HW225230   3.439   5.972   1.085
 8111SOL     OW25231   5.311   1.027   5.020
 8111SOL    HW125232   5.375   0.962   4.979
 8111SOL    HW225233   5.308   1.111   4.966
 8112SOL     OW25234   2.701   2.376   4.249
 8112SOL    HW125235   2.662   2.399   4.338
 8112SOL    HW225236   2.686   2.451   4.185
 8113SOL     OW25237   2.001   3.572   0.381
 8113SOL    HW125238   1.903   3.556   0.396
 8113SOL    HW225239   2.045   3.594   0.468
 8114SOL     OW25240   1.368   3.907   2.792
 8114SOL    HW125241   1.439   3.924   2.724
 8114SOL    HW225242   1.390   3.825   2.844
 8115SOL     OW25243   3.844   0.544   0.487
 8115SOL    HW125244   3.888   0.466   0.444
 8115SOL    HW225245   3.775   0.583   0.426
 8116SOL     OW25246   4.392   4.942   6.023
 8116SOL    HW125247   4.413   4.959   5.927
 8116SOL    HW225248   4.334   5.015   6.058
 8117SOL     OW25249   1.830   0.056   3.289
 8117SOL    HW125250   1.835   0.077   3.387
 8117SOL    HW225251   1.774   7.000   3.275
 8118SOL     OW25252   5.503   4.622   5.939
 8118SOL    HW125253   5.572   4.571   5.888
 8118SOL    HW225254   5.413   4.580   5.924
 8119SOL     OW25255   4.997   5.015   6.393
 8119SOL    HW125256   5.049   4.934   6.418
 8119SOL    HW225257   5.054   5.077   6.339
 8120SOL     OW25258   3.110   5.174   0.473
 8120SOL    HW125259   3.072   5.100   0.530
 8120SOL    HW225260   3.099   5.261   0.521
 8121SOL     OW25261   0.322   5.311   1.821
 8121SOL    HW125262   0.384   5.279   1.749
 8121SOL    HW225263   0.252   5.370   1.781
 8122SOL     OW25264   0.644   5.491   3.095
 8122SOL    HW125265   0.617   5.493   2.998
 8122SOL    HW225266   0.734   5.533   3.104
 8123SOL     OW25267   6.837   1.050   6.467
 8123SOL    HW125268   6.808   1.077   6.558
 8123SOL    HW225269   6.937   1.053   6.462
 8124SOL     OW25270   5.913   6.627   1.055
 8124SOL    HW125271   5.939   6.535   1.024
 8124SOL    HW225272   5.993   6.686   1.054
 8125SOL     OW25273   1.483   1.383   3.369
 8125SOL    HW125274   1.545   1.310   3.400
 8125SOL    HW225275   1.510   1.413   3.278
 8126SOL     OW25276   4.850   4.588   2.604
 8126SOL    HW125277   4.800   4.504   2.623
 8126SOL    HW225278   4.800   4.642   2.536
 8127SOL     OW25279   2.479   4.519   6.334
 8127SOL    HW125280   2.403   4.560   6.284
 8127SOL    HW225281   2.494   4.426   6.301
 8128SOL     OW25282   2.544   1.271   1.700
 8128SOL    HW125283   2.464   1.244   1.753
 8128SOL    HW225284   2.585   1.353   1.739
 8129SOL     OW25285   4.526   0.860   6.420
 8129SOL    HW125286   4.478   0.891   6.503
 8129SOL    HW225287   4.615   0.905   6.414
 8130SOL     OW25288   6.954   3.216   6.212
 8130SOL    HW125289   6.894   3.145   6.248
 8130SOL    HW225290   0.024   3.186   6.218
 8131SOL     OW25291   3.194   2.179   0.804
 8131SOL    HW125292   3.278   2.232   0.816
 8131SOL    HW225293   3.116   2.240   0.799
 8132SOL     OW25294   5.953   6.735   6.224
 8132SOL    HW125295   5.943   6.681   6.140
 8132SOL    HW225296   5.985   6.827   6.201
 8133SOL     OW25297   3.186   4.901   1.371
 8133SOL    HW125298   3.240   4.985   1.361
 8133SOL    HW225299   3.133   4.886   1.287
 8134SOL     OW25300   6.478   2.724   5.659
 8134SOL    HW125301   6.431   2.767   5.582
 8134SOL    HW225302   6.426   2.645   5.691
 8135SOL     OW25303   2.818   6.533   1.555
 8135SOL    HW125304   2.918   6.534   1.553
 8135SOL    HW225305   2.787   6.561   1.646
 8136SOL     OW25306   4.620   5.421   3.456
 8136SOL    HW125307   4.639   5.433   3.554
 8136SOL    HW225308   4.688   5.360   3.416
 8137SOL     OW25309   2.938   2.174   5.368
 8137SOL    HW125310   2.926   2.264   5.326
 8137SOL    HW225311   3.023   2.173   5.421
 8138SOL     OW25312   5.678   1.626   0.057
 8138SOL    HW125313   5.669   1.586   6.991
 8138SOL    HW225314   5.748   1.575   0.109
 8139SOL     OW25315   6.953   1.344   2.558
 8139SOL    HW125316   6.878   1.367   2.620
 8139SOL    HW225317   6.999   1.261   2.590
 8140SOL     OW25318   4.873   0.667   1.069
 8140SOL    HW125319   4.956   0.614   1.052
 8140SOL    HW225320   4.888   0.731   1.144
 8141SOL     OW25321   5.008   6.332   4.990
 8141SOL    HW125322   4.997   6.431   4.982
 8141SOL    HW225323   5.102   6.311   5.015
 8142SOL     OW25324   0.875   5.323   6.959
 8142SOL    HW125325   0.929   5.243   6.987
 8142SOL    HW225326   0.937   5.394   6.927
 8143SOL     OW25327   6.478   4.004   1.308
 8143SOL    HW125328   6.546   4.042   1.370
 8143SOL    HW225329   6.523   3.966   1.227
 8144SOL     OW25330   6.294   6.733   6.403
 8144SOL    HW125331   6.292   6.722   6.303
 8144SOL    HW225332   6.370   6.681   6.441
 8145SOL     OW25333   5.552   5.789   1.558
 8145SOL    HW125334   5.527   5.876   1.517
 8145SOL    HW225335   5.508   5.780   1.647
 8146SOL     OW25336   4.867   0.655   4.784
 8146SOL    HW125337   4.828   0.624   4.697
 8146SOL    HW225338   4.873   0.578   4.847
 8147SOL     OW25339   6.293   1.862   0.957
 8147SOL    HW125340   6.222   1.892   1.021
 8147SOL    HW225341   6.288   1.917   0.874
 8148SOL     OW25342   5.261   4.193   0.897
 8148SOL    HW125343   5.179   4.137   0.910
 8148SOL    HW225344   5.278   4.248   0.979
 8149SOL     OW25345   3.290   6.480   2.460
 8149SOL    HW125346   3.298   6.510   2.555
 8149SOL    HW225347   3.218   6.532   2.414
 8150SOL     OW25348   2.063   4.068   1.090
 8150SOL    HW125349   2.087   3.974   1.113
 8150SOL    HW225350   2.145   4.117   1.059
 8151SOL     OW25351   5.941   2.966   1.449
 8151SOL    HW125352   5.949   2.907   1.368
 8151SOL    HW225353   5.946   2.909   1.531
 8152SOL     OW25354   6.855   2.126   2.497
 8152SOL    HW125355   6.841   2.028   2.506
 8152SOL    HW225356   6.793   2.175   2.558
 8153SOL     OW25357   2.073   6.800   3.869
 8153SOL    HW125358   2.067   6.884   3.923
 8153SOL    HW225359   2.164   6.792   3.829
 8154SOL     OW25360   3.421   5.223   2.265
 8154SOL    HW125361   3.471   5.236   2.179
 8154SOL    HW225362   3.400   5.126   2.277
 8155SOL     OW25363   1.687   3.953   2.150
 8155SOL    HW125364   1.778   3.995   2.146
 8155SOL    HW225365   1.696   3.857   2.177
 8156SOL     OW25366   5.467   0.105   0.792
 8156SOL    HW125367   5.527   0.025   0.786
 8156SOL    HW225368   5.412   0.099   0.876
 8157SOL     OW25369   6.796   5.307   6.425
 8157SOL    HW125370   6.763   5.317   6.519
 8157SOL    HW225371   6.849   5.388   6.400
 8158SOL     OW25372   4.631   5.254   0.662
 8158SOL    HW125373   4.692   5.255   0.742
 8158SOL    HW225374   4.561   5.324   0.674
 8159SOL     OW25375   2.936   5.902   2.481
 8159SOL    HW125376   2.855   5.893   2.423
 8159SOL    HW225377   2.919   5.858   2.570
 8160SOL     OW25378   5.482   0.740   3.839
 8160SOL    HW125379   5.411   0.679   3.804
 8160SOL    HW225380   5.448   0.834   3.841
 8161SOL     OW25381   5.662   1.863   6.102
 8161SOL    HW125382   5.633   1.767   6.103
 8161SOL    HW225383   5.582   1.922   6.110
 8162SOL     OW25384   5.526   6.441   6.170
 8162SOL    HW125385   5.467   6.383   6.115
 8162SOL    HW225386   5.546   6.526   6.121
 8163SOL     OW25387   2.643   4.176   5.310
 8163SOL    HW125388   2.742   4.165   5.315
 8163SOL    HW225389   2.603   4.100   5.259
 8164SOL     OW25390   5.436   2.855   0.718
 8164SOL    HW125391   5.451   2.767   0.673
 8164SOL    HW225392   5.364   2.905   0.670
 8165SOL     OW25393   0.880   3.277   6.572
 8165SOL    HW125394   0.831   3.213   6.631
 8165SOL    HW225395   0.836   3.366   6.574
 8166SOL     OW25396   1.585   0.395   2.830
 8166SOL    HW125397   1.503   0.342   2.850
 8166SOL    HW225398   1.591   0.411   2.732
 8167SOL     OW25399   6.308   0.027   4.756
 8167SOL    HW125400   6.363   0.080   4.691
 8167SOL    HW225401   6.251   0.088   4.810
 8168SOL     OW25402   2.273   1.492   3.521
 8168SOL    HW125403   2.238   1.541   3.441
 8168SOL    HW225404   2.311   1.404   3.492
 8169SOL     OW25405   5.257   1.985   0.807
 8169SOL    HW125406   5.239   1.969   0.904
 8169SOL    HW225407   5.257   1.897   0.758
 8170SOL     OW25408   1.236   5.135   2.725
 8170SOL    HW125409   1.317   5.080   2.744
 8170SOL    HW225410   1.243   5.223   2.771
 8171SOL     OW25411   1.563   1.726   6.407
 8171SOL    HW125412   1.562   1.683   6.316
 8171SOL    HW225413   1.589   1.822   6.398
 8172SOL     OW25414   0.873   2.127   2.187
 8172SOL    HW125415   0.814   2.204   2.210
 8172SOL    HW225416   0.968   2.159   2.181
 8173SOL     OW25417   5.065   0.620   2.023
 8173SOL    HW125418   5.035   0.710   1.990
 8173SOL    HW225419   4.985   0.561   2.036
 8174SOL     OW25420   5.993   3.294   1.145
 8174SOL    HW125421   6.086   3.267   1.171
 8174SOL    HW225422   5.944   3.214   1.111
 8175SOL     OW25423   6.901   2.278   5.664
 8175SOL    HW125424   6.887   2.201   5.728
 8175SOL    HW225425   6.843   2.265   5.584
 8176SOL     OW25426   2.919   5.034   1.905
 8176SOL    HW125427   2.948   4.997   1.994
 8176SOL    HW225428   2.907   5.133   1.913
 8177SOL     OW25429   2.960   6.378   3.856
 8177SOL    HW125430   2.995   6.318   3.928
 8177SOL    HW225431   2.860   6.380   3.859
 8178SOL     OW25432   2.724   5.839   6.815
 8178SOL    HW125433   2.792   5.908   6.788
 8178SOL    HW225434   2.766   5.775   6.879
 8179SOL     OW25435   4.927   2.014   5.591
 8179SOL    HW125436   4.930   1.914   5.592
 8179SOL    HW225437   4.851   2.046   5.647
 8180SOL     OW25438   6.548   0.122   4.934
 8180SOL    HW125439   6.505   0.190   4.995
 8180SOL    HW225440   6.481   0.052   4.911
 8181SOL     OW25441   1.821   1.393   1.055
 8181SOL    HW125442   1.764   1.395   0.973
 8181SOL    HW225443   1.834   1.486   1.089
 8182SOL     OW25444   4.526   3.448   6.164
 8182SOL    HW125445   4.491   3.357   6.141
 8182SOL    HW225446   4.464   3.518   6.130
 8183SOL     OW25447   0.069   2.663   4.470
 8183SOL    HW125448   0.092   2.575   4.428
 8183SOL    HW225449   6.999   2.686   4.449
 8184SOL     OW25450   5.653   1.655   5.776
 8184SOL    HW125451   5.663   1.612   5.865
 8184SOL    HW225452   5.737   1.706   5.755
 8185SOL     OW25453   2.237   6.552   0.599
 8185SOL    HW125454   2.332   6.540   0.570
 8185SOL    HW225455   2.193   6.621   0.542
 8186SOL     OW25456   3.748   6.001   5.631
 8186SOL    HW125457   3.724   5.920   5.577
 8186SOL    HW225458   3.713   6.083   5.586
 8187SOL     OW25459   1.648   2.409   5.404
 8187SOL    HW125460   1.603   2.496   5.384
 8187SOL    HW225461   1.583   2.334   5.393
 8188SOL     OW25462   5.459   2.969   2.661
 8188SOL    HW125463   5.509   3.050   2.631
 8188SOL    HW225464   5.416   2.925   2.582
 8189SOL     OW25465   4.638   4.561   2.866
 8189SOL    HW125466   4.659   4.490   2.799
 8189SOL    HW225467   4.554   4.609   2.838
 8190SOL     OW25468   3.781   5.299   3.754
 8190SOL    HW125469   3.708   5.327   3.691
 8190SOL    HW225470   3.798   5.201   3.743
 8191SOL     OW25471   3.516   6.730   2.371
 8191SOL    HW125472   3.527   6.631   2.360
 8191SOL    HW225473   3.523   6.775   2.281
 8192SOL     OW25474   3.787   5.519   0.753
 8192SOL    HW125475   3.776   5.454   0.678
 8192SOL    HW225476   3.719   5.500   0.824
 8193SOL     OW25477   0.137   6.833   4.379
 8193SOL    HW125478   0.193   6.818   4.298
 8193SOL    HW225479   0.056   6.887   4.354
 8194SOL     OW25480   5.917   2.544   1.042
 8194SOL    HW125481   5.971   2.478   1.094
 8194SOL    HW225482   5.837   2.571   1.095
 8195SOL     OW25483   1.014   0.024   1.420
 8195SOL    HW125484   1.040   7.015   1.511
 8195SOL    HW225485   0.916   0.013   1.408
 8196SOL     OW25486   3.712   6.710   6.028
 8196SOL    HW125487   3.668   6.624   6.054
 8196SOL    HW225488   3.643   6.783   6.028
 8197SOL     OW25489   4.321   1.337   6.485
 8197SOL    HW125490   4.407   1.332   6.435
 8197SOL    HW225491   4.251   1.379   6.427
 8198SOL     OW25492   3.542   6.552   3.528
 8198SOL    HW125493   3.562   6.599   3.442
 8198SOL    HW225494   3.599   6.471   3.536
 8199SOL     OW25495   6.134   3.291   6.183
 8199SOL    HW125496   6.038   3.270   6.163
 8199SOL    HW225497   6.166   3.232   6.257
 8200SOL     OW25498   4.787   3.910   1.552
 8200SOL    HW125499   4.716   3.961   1.602
 8200SOL    HW225500   4.774   3.923   1.454
 8201SOL     OW25501   5.826   0.507   4.066
 8201SOL    HW125502   5.780   0.486   4.153
 8201SOL    HW225503   5.780   0.458   3.992
 8202SOL     OW25504   0.034   5.472   4.750
 8202SOL    HW125505   0.038   5.570   4.729
 8202SOL    HW225506   0.049   5.419   4.666
 8203SOL     OW25507   4.435   2.431   0.880
 8203SOL    HW125508   4.427   2.370   0.958
 8203SOL    HW225509   4.387   2.392   0.801
 8204SOL     OW25510   2.726   5.576   0.184
 8204SOL    HW125511   2.804   5.626   0.222
 8204SOL    HW225512   2.657   5.564   0.255
 8205SOL     OW25513   0.473   4.611   1.072
 8205SOL    HW125514   0.461   4.654   0.982
 8205SOL    HW225515   0.531   4.531   1.063
 8206SOL     OW25516   4.593   2.298   5.864
 8206SOL    HW125517   4.617   2.351   5.784
 8206SOL    HW225518   4.520   2.344   5.915
 8207SOL     OW25519   3.683   4.096   5.584
 8207SOL    HW125520   3.667   4.081   5.486
 8207SOL    HW225521   3.749   4.171   5.596
 8208SOL     OW25522   1.782   7.020   1.580
 8208SOL    HW125523   1.730   6.988   1.501
 8208SOL    HW225524   1.869   0.033   1.549
 8209SOL     OW25525   1.204   1.481   5.826
 8209SOL    HW125526   1.240   1.490   5.733
 8209SOL    HW225527   1.151   1.397   5.833
 8210SOL     OW25528   2.612   0.897   1.351
 8210SOL    HW125529   2.530   0.939   1.391
 8210SOL    HW225530   2.603   0.797   1.354
 8211SOL     OW25531   3.938   3.906   3.112
 8211SOL    HW125532   3.902   3.999   3.108
 8211SOL    HW225533   3.872   3.847   3.159
 8212SOL     OW25534   3.238   1.808   0.966
 8212SOL    HW125535   3.139   1.811   0.975
 8212SOL    HW225536   3.264   1.836   0.873
 8213SOL     OW25537   5.433   4.732   2.221
 8213SOL    HW125538   5.438   4.753   2.318
 8213SOL    HW225539   5.415   4.635   2.208
 8214SOL     OW25540   0.925   5.414   4.460
 8214SOL    HW125541   0.905   5.500   4.412
 8214SOL    HW225542   0.840   5.364   4.474
 8215SOL     OW25543   3.170   5.840   6.502
 8215SOL    HW125544   3.093   5.902   6.515
 8215SOL    HW225545   3.200   5.805   6.591
 8216SOL     OW25546   5.007   6.294   3.397
 8216SOL    HW125547   5.100   6.264   3.378
 8216SOL    HW225548   4.964   6.231   3.462
 8217SOL     OW25549   2.113   3.712   2.435
 8217SOL    HW125550   2.078   3.786   2.378
 8217SOL    HW225551   2.157   3.643   2.378
 8218SOL     OW25552   1.217   6.780   4.759
 8218SOL    HW125553   1.240   6.788   4.662
 8218SOL    HW225554   1.283   6.719   4.804
 8219SOL     OW25555   3.857   3.077   1.522
 8219SOL    HW125556   3.798   3.025   1.584
 8219SOL    HW225557   3.838   3.050   1.428
 8220SOL     OW25558   3.254   3.879   5.019
 8220SOL    HW125559   3.273   3.964   5.067
 8220SOL    HW225560   3.339   3.840   4.984
 8221SOL     OW25561   6.416   5.431   3.270
 8221SOL    HW125562   6.465   5.481   3.342
 8221SOL    HW225563   6.322   5.465   3.265
 8222SOL     OW25564   4.800   2.007   1.669
 8222SOL    HW125565   4.709   2.032   1.703
 8222SOL    HW225566   4.809   2.035   1.573
 8223SOL     OW25567   0.780   4.190   5.474
 8223SOL    HW125568   0.873   4.182   5.439
 8223SOL    HW225569   0.752   4.286   5.477
 8224SOL     OW25570   5.495   2.592   1.847
 8224SOL    HW125571   5.448   2.629   1.767
 8224SOL    HW225572   5.590   2.574   1.825
 8225SOL     OW25573   3.650   1.313   1.672
 8225SOL    HW125574   3.600   1.228   1.681
 8225SOL    HW225575   3.664   1.354   1.762
 8226SOL     OW25576   3.220   0.345   0.413
 8226SOL    HW125577   3.275   0.393   0.344
 8226SOL    HW225578   3.265   0.351   0.502
 8227SOL     OW25579   0.109   1.508   2.441
 8227SOL    HW125580   0.058   1.548   2.365
 8227SOL    HW225581   0.052   1.440   2.488
 8228SOL     OW25582   0.867   1.852   5.856
 8228SOL    HW125583   0.836   1.760   5.879
 8228SOL    HW225584   0.797   1.919   5.881
 8229SOL     OW25585   3.828   4.560   1.130
 8229SOL    HW125586   3.822   4.580   1.033
 8229SOL    HW225587   3.741   4.583   1.175
 8230SOL     OW25588   3.883   0.369   5.661
 8230SOL    HW125589   3.922   0.419   5.583
 8230SOL    HW225590   3.951   0.362   5.734
 8231SOL     OW25591   3.239   2.349   1.672
 8231SOL    HW125592   3.330   2.315   1.700
 8231SOL    HW225593   3.247   2.445   1.645
 8232SOL     OW25594   5.478   1.881   2.198
 8232SOL    HW125595   5.462   1.792   2.242
 8232SOL    HW225596   5.572   1.885   2.166
 8233SOL     OW25597   1.440   0.008   6.385
 8233SOL    HW125598   1.399   0.093   6.353
 8233SOL    HW225599   1.368   6.964   6.395
 8234SOL     OW25600   2.872   4.250   6.930
 8234SOL    HW125601   2.910   4.160   6.953
 8234SOL    HW225602   2.812   4.280   7.004
 8235SOL     OW25603   6.897   3.363   6.758
 8235SOL    HW125604   6.977   3.305   6.739
 8235SOL    HW225605   6.920   3.430   6.829
 8236SOL     OW25606   6.712   4.889   6.561
 8236SOL    HW125607   6.731   4.811   6.620
 8236SOL    HW225608   6.797   4.933   6.535
 8237SOL     OW25609   4.999   6.027   6.185
 8237SOL    HW125610   5.098   6.018   6.184
 8237SOL    HW225611   4.959   5.964   6.119
 8238SOL     OW25612   0.660   6.122   6.712
 8238SOL    HW125613   0.607   6.180   6.774
 8238SOL    HW225614   0.629   6.027   6.721
 8239SOL     OW25615   1.210   1.018   4.977
 8239SOL    HW125616   1.252   1.105   4.952
 8239SOL    HW225617   1.238   0.948   4.911
 8240SOL     OW25618   3.008   3.884   3.140
 8240SOL    HW125619   3.065   3.959   3.107
 8240SOL    HW225620   2.993   3.893   3.238
 8241SOL     OW25621   2.840   4.918   5.937
 8241SOL    HW125622   2.896   4.996   5.965
 8241SOL    HW225623   2.899   4.851   5.891
 8242SOL     OW25624   0.775   3.700   4.842
 8242SOL    HW125625   0.776   3.632   4.916
 8242SOL    HW225626   0.807   3.788   4.877
 8243SOL     OW25627   0.043   3.917   0.964
 8243SOL    HW125628   7.019   3.999   0.994
 8243SOL    HW225629   0.072   3.864   1.043
 8244SOL     OW25630   0.832   0.112   4.068
 8244SOL    HW125631   0.894   0.185   4.094
 8244SOL    HW225632   0.881   0.043   4.015
 8245SOL     OW25633   3.952   1.980   2.720
 8245SOL    HW125634   3.902   2.042   2.780
 8245SOL    HW225635   4.004   2.034   2.654
 8246SOL     OW25636   0.270   4.517   6.553
 8246SOL    HW125637   0.210   4.595   6.572
 8246SOL    HW225638   0.326   4.537   6.473
 8247SOL     OW25639   2.066   6.204   3.256
 8247SOL    HW125640   2.052   6.303   3.248
 8247SOL    HW225641   2.116   6.185   3.340
 8248SOL     OW25642   0.624   4.615   4.750
 8248SOL    HW125643   0.589   4.522   4.743
 8248SOL    HW225644   0.708   4.623   4.697
 8249SOL     OW25645   2.468   1.498   6.009
 8249SOL    HW125646   2.511   1.588   6.001
 8249SOL    HW225647   2.519   1.443   6.076
 8250SOL     OW25648   2.853   2.284   1.230
 8250SOL    HW125649   2.875   2.192   1.260
 8250SOL    HW225650   2.911   2.350   1.278
 8251SOL     OW25651   5.190   1.557   4.833
 8251SOL    HW125652   5.242   1.567   4.917
 8251SOL    HW225653   5.214   1.471   4.788
 8252SOL     OW25654   4.046   1.652   6.894
 8252SOL    HW125655   3.987   1.655   6.975
 8252SOL    HW225656   4.102   1.735   6.891
 8253SOL     OW25657   3.757   6.039   6.747
 8253SOL    HW125658   3.667   6.008   6.716
 8253SOL    HW225659   3.824   5.965   6.738
 8254SOL     OW25660   4.774   4.577   5.487
 8254SOL    HW125661   4.787   4.478   5.489
 8254SOL    HW225662   4.676   4.597   5.478
 8255SOL     OW25663   1.288   0.017   5.582
 8255SOL    HW125664   1.375   7.005   5.613
 8255SOL    HW225665   1.304   0.103   5.534
 8256SOL     OW25666   0.095   6.496   3.090
 8256SOL    HW125667   0.032   6.573   3.082
 8256SOL    HW225668   0.043   6.413   3.109
 8257SOL     OW25669   5.512   4.151   3.905
 8257SOL    HW125670   5.574   4.167   3.829
 8257SOL    HW225671   5.431   4.102   3.872
 8258SOL     OW25672   4.778   2.959   1.681
 8258SOL    HW125673   4.710   3.012   1.732
 8258SOL    HW225674   4.822   2.893   1.742
 8259SOL     OW25675   3.617   2.285   5.425
 8259SOL    HW125676   3.581   2.216   5.363
 8259SOL    HW225677   3.566   2.371   5.413
 8260SOL     OW25678   1.837   6.442   1.714
 8260SOL    HW125679   1.846   6.533   1.674
 8260SOL    HW225680   1.924   6.414   1.754
 8261SOL     OW25681   5.489   6.307   3.056
 8261SOL    HW125682   5.418   6.276   2.993
 8261SOL    HW225683   5.571   6.332   3.004
 8262SOL     OW25684   0.881   4.911   0.615
 8262SOL    HW125685   0.867   4.926   0.517
 8262SOL    HW225686   0.961   4.853   0.629
 8263SOL     OW25687   6.954   2.944   6.644
 8263SOL    HW125688   6.863   2.955   6.686
 8263SOL    HW225689   6.991   3.033   6.622
 8264SOL     OW25690   0.846   6.408   1.307
 8264SOL    HW125691   0.877   6.467   1.233
 8264SOL    HW225692   0.752   6.377   1.288
 8265SOL     OW25693   5.409   0.255   1.996
 8265SOL    HW125694   5.489   0.236   2.054
 8265SOL    HW225695   5.342   0.181   2.007
 8266SOL     OW25696   2.493   0.887   4.659
 8266SOL    HW125697   2.460   0.811   4.604
 8266SOL    HW225698   2.509   0.967   4.600
 8267SOL     OW25699   1.500   4.538   1.862
 8267SOL    HW125700   1.467   4.586   1.944
 8267SOL    HW225701   1.466   4.444   1.864
 8268SOL     OW25702   3.235   5.846   6.232
 8268SOL    HW125703   3.188   5.779   6.175
 8268SOL    HW225704   3.207   5.833   6.328
 8269SOL     OW25705   4.648   2.612   3.044
 8269SOL    HW125706   4.627   2.614   3.141
 8269SOL    HW225707   4.686   2.700   3.016
 8270SOL     OW25708   2.864   5.897   5.177
 8270SOL    HW125709   2.921   5.897   5.095
 8270SOL    HW225710   2.810   5.813   5.181
 8271SOL     OW25711   6.626   6.499   3.447
 8271SOL    HW125712   6.535   6.537   3.428
 8271SOL    HW225713   6.677   6.492   3.361
 8272SOL     OW25714   6.324   1.409   2.481
 8272SOL    HW125715   6.321   1.314   2.511
 8272SOL    HW225716   6.377   1.415   2.396
 8273SOL     OW25717   3.001   0.747   0.256
 8273SOL    HW125718   2.984   0.776   0.162
 8273SOL    HW225719   2.915   0.738   0.305
 8274SOL     OW25720   4.213   5.018   5.586
 8274SOL    HW125721   4.228   4.919   5.580
 8274SOL    HW225722   4.201   5.054   5.493
 8275SOL     OW25723   6.121   0.588   4.071
 8275SOL    HW125724   6.172   0.509   4.038
 8275SOL    HW225725   6.028   0.560   4.097
 8276SOL     OW25726   6.988   2.120   5.189
 8276SOL    HW125727   6.994   2.057   5.266
 8276SOL    HW225728   6.893   2.143   5.171
 8277SOL     OW25729   0.958   6.116   5.633
 8277SOL    HW125730   0.884   6.050   5.623
 8277SOL    HW225731   0.965   6.144   5.729
 8278SOL     OW25732   3.119   1.819   6.950
 8278SOL    HW125733   3.093   1.745   7.011
 8278SOL    HW225734   3.093   1.796   6.856
 8279SOL     OW25735   6.535   5.883   5.164
 8279SOL    HW125736   6.595   5.922   5.094
 8279SOL    HW225737   6.444   5.925   5.158
 8280SOL     OW25738   3.617   2.666   0.669
 8280SOL    HW125739   3.676   2.741   0.638
 8280SOL    HW225740   3.560   2.699   0.745
 8281SOL     OW25741   2.376   4.504   2.009
 8281SOL    HW125742   2.340   4.593   1.984
 8281SOL    HW225743   2.329   4.433   1.957
 8282SOL     OW25744   2.966   4.013   7.024
 8282SOL    HW125745   3.031   3.945   6.992
 8282SOL    HW225746   2.946   3.997   0.096
 8283SOL     OW25747   1.622   4.527   4.173
 8283SOL    HW125748   1.639   4.625   4.182
 8283SOL    HW225749   1.622   4.485   4.264
 8284SOL     OW25750   1.926   4.101   2.207
 8284SOL    HW125751   2.004   4.061   2.158
 8284SOL    HW225752   1.956   4.138   2.294
 8285SOL     OW25753   4.277   3.390   5.500
 8285SOL    HW125754   4.214   3.464   5.523
 8285SOL    HW225755   4.329   3.415   5.418
 8286SOL     OW25756   5.448   1.898   4.863
 8286SOL    HW125757   5.439   1.869   4.768
 8286SOL    HW225758   5.358   1.900   4.906
 8287SOL     OW25759   0.963   5.372   4.132
 8287SOL    HW125760   0.960   5.395   4.034
 8287SOL    HW225761   0.924   5.447   4.185
 8288SOL     OW25762   1.305   2.636   2.864
 8288SOL    HW125763   1.345   2.688   2.788
 8288SOL    HW225764   1.222   2.590   2.832
 8289SOL     OW25765   5.884   0.252   6.808
 8289SOL    HW125766   5.937   0.173   6.839
 8289SOL    HW225767   5.808   0.268   6.871
 8290SOL     OW25768   4.977   1.769   1.509
 8290SOL    HW125769   4.939   1.743   1.420
 8290SOL    HW225770   4.921   1.842   1.548
 8291SOL     OW25771   5.871   5.563   6.380
 8291SOL    HW125772   5.836   5.656   6.395
 8291SOL    HW225773   5.831   5.502   6.448
 8292SOL     OW25774   2.499   5.775   6.959
 8292SOL    HW125775   2.583   5.815   6.924
 8292SOL    HW225776   2.494   5.679   6.931
 8293SOL     OW25777   1.795   4.613   1.378
 8293SOL    HW125778   1.854   4.692   1.360
 8293SOL    HW225779   1.758   4.620   1.471
 8294SOL     OW25780   6.285   3.498   4.515
 8294SOL    HW125781   6.357   3.457   4.460
 8294SOL    HW225782   6.321   3.517   4.607
 8295SOL     OW25783   4.861   3.304   3.243
 8295SOL    HW125784   4.868   3.300   3.342
 8295SOL    HW225785   4.873   3.398   3.212
 8296SOL     OW25786   3.403   5.689   0.224
 8296SOL    HW125787   3.426   5.783   0.246
 8296SOL    HW225788   3.477   5.648   0.170
 8297SOL     OW25789   6.576   3.205   2.399
 8297SOL    HW125790   6.593   3.117   2.442
 8297SOL    HW225791   6.655   3.265   2.410
 8298SOL     OW25792   6.863   0.565   0.687
 8298SOL    HW125793   6.961   0.550   0.697
 8298SOL    HW225794   6.825   0.497   0.624
 8299SOL     OW25795   0.114   2.834   1.415
 8299SOL    HW125796   0.095   2.792   1.326
 8299SOL    HW225797   0.192   2.788   1.457
 8300SOL     OW25798   6.969   0.054   4.702
 8300SOL    HW125799   6.998   0.069   4.796
 8300SOL    HW225800   6.982   0.138   4.649
 8301SOL     OW25801   4.660   0.723   0.074
 8301SOL    HW125802   4.733   0.781   0.112
 8301SOL    HW225803   4.641   0.648   0.138
 8302SOL     OW25804   4.934   6.957   5.597
 8302SOL    HW125805   4.856   6.952   5.660
 8302SOL    HW225806   4.999   6.884   5.617
 8303SOL     OW25807   6.818   0.227   3.099
 8303SOL    HW125808   6.882   0.200   3.027
 8303SOL    HW225809   6.791   0.146   3.152
 8304SOL     OW25810   5.425   4.769   1.765
 8304SOL    HW125811   5.518   4.755   1.730
 8304SOL    HW225812   5.361   4.772   1.688
 8305SOL     OW25813   4.163   4.726   4.334
 8305SOL    HW125814   4.182   4.751   4.429
 8305SOL    HW225815   4.064   4.721   4.321
 8306SOL     OW25816   6.310   1.106   3.353
 8306SOL    HW125817   6.385   1.108   3.288
 8306SOL    HW225818   6.275   1.013   3.363
 8307SOL     OW25819   3.430   5.454   1.666
 8307SOL    HW125820   3.483   5.503   1.596
 8307SOL    HW225821   3.420   5.512   1.746
 8308SOL     OW25822   2.078   5.344   0.615
 8308SOL    HW125823   2.135   5.281   0.562
 8308SOL    HW225824   2.065   5.428   0.563
 8309SOL     OW25825   5.904   5.127   3.063
 8309SOL    HW125826   5.850   5.055   3.107
 8309SOL    HW225827   5.935   5.193   3.132
 8310SOL     OW25828   1.518   5.136   0.523
 8310SOL    HW125829   1.532   5.076   0.602
 8310SOL    HW225830   1.489   5.227   0.554
 8311SOL     OW25831   5.882   0.707   4.382
 8311SOL    HW125832   5.925   0.700   4.292
 8311SOL    HW225833   5.899   0.798   4.421
 8312SOL     OW25834   5.255   1.036   6.602
 8312SOL    HW125835   5.291   0.951   6.562
 8312SOL    HW225836   5.239   1.103   6.529
 8313SOL     OW25837   5.282   0.545   5.813
 8313SOL    HW125838   5.371   0.567   5.854
 8313SOL    HW225839   5.297   0.490   5.731
 8314SOL     OW25840   6.110   6.874   6.539
 8314SOL    HW125841   6.052   6.793   6.547
 8314SOL    HW225842   6.189   6.853   6.483
 8315SOL     OW25843   3.973   3.114   2.753
 8315SOL    HW125844   3.932   3.200   2.782
 8315SOL    HW225845   3.963   3.046   2.825
 8316SOL     OW25846   1.876   3.283   1.039
 8316SOL    HW125847   1.851   3.214   1.107
 8316SOL    HW225848   1.960   3.329   1.067
 8317SOL     OW25849   1.838   1.868   3.082
 8317SOL    HW125850   1.901   1.900   3.152
 8317SOL    HW225851   1.744   1.870   3.118
 8318SOL     OW25852   4.234   1.741   5.993
 8318SOL    HW125853   4.303   1.709   6.058
 8318SOL    HW225854   4.183   1.663   5.957
 8319SOL     OW25855   1.422   0.239   0.516
 8319SOL    HW125856   1.521   0.227   0.509
 8319SOL    HW225857   1.380   0.153   0.545
 8320SOL     OW25858   3.312   4.034   3.334
 8320SOL    HW125859   3.411   4.023   3.333
 8320SOL    HW225860   3.283   4.074   3.247
 8321SOL     OW25861   6.853   6.957   6.899
 8321SOL    HW125862   6.893   7.016   6.969
 8321SOL    HW225863   6.769   6.999   6.865
 8322SOL     OW25864   6.822   1.972   0.655
 8322SOL    HW125865   6.797   1.910   0.581
 8322SOL    HW225866   6.743   2.027   0.682
 8323SOL     OW25867   3.757   4.790   1.452
 8323SOL    HW125868   3.776   4.817   1.547
 8323SOL    HW225869   3.830   4.730   1.419
 8324SOL     OW25870   5.354   0.700   0.495
 8324SOL    HW125871   5.454   0.689   0.501
 8324SOL    HW225872   5.328   0.789   0.533
 8325SOL     OW25873   0.562   3.653   5.403
 8325SOL    HW125874   0.643   3.703   5.432
 8325SOL    HW225875   0.573   3.620   5.310
 8326SOL     OW25876   4.316   4.128   6.446
 8326SOL    HW125877   4.366   4.095   6.526
 8326SOL    HW225878   4.242   4.065   6.423
 8327SOL     OW25879   1.137   0.688   5.686
 8327SOL    HW125880   1.078   0.608   5.672
 8327SOL    HW225881   1.120   0.726   5.776
 8328SOL     OW25882   2.399   6.448   6.392
 8328SOL    HW125883   2.311   6.407   6.413
 8328SOL    HW225884   2.472   6.396   6.437
 8329SOL     OW25885   0.195   2.242   5.067
 8329SOL    HW125886   0.109   2.207   5.105
 8329SOL    HW225887   0.232   2.176   5.002
 8330SOL     OW25888   3.419   1.416   6.800
 8330SOL    HW125889   3.507   1.377   6.773
 8330SOL    HW225890   3.405   1.503   6.754
 8331SOL     OW25891   3.659   0.879   0.561
 8331SOL    HW125892   3.642   0.947   0.490
 8331SOL    HW225893   3.752   0.890   0.596
 8332SOL     OW25894   5.720   5.381   2.033
 8332SOL    HW125895   5.773   5.391   1.949
 8332SOL    HW225896   5.682   5.288   2.037
 8333SOL     OW25897   1.637   4.499   6.427
 8333SOL    HW125898   1.697   4.577   6.411
 8333SOL    HW225899   1.684   4.432   6.484
 8334SOL     OW25900   3.169   2.083   5.756
 8334SOL    HW125901   3.105   2.160   5.748
 8334SOL    HW225902   3.262   2.117   5.768
 8335SOL     OW25903   3.830   1.878   0.009
 8335SOL    HW125904   3.917   1.928   0.008
 8335SOL    HW225905   3.836   1.801   0.073
 8336SOL     OW25906   0.497   3.776   2.983
 8336SOL    HW125907   0.525   3.680   2.985
 8336SOL    HW225908   0.574   3.834   3.008
 8337SOL     OW25909   0.402   0.114   4.203
 8337SOL    HW125910   0.420   0.119   4.104
 8337SOL    HW225911   0.354   0.029   4.224
 8338SOL     OW25912   3.717   5.546   1.522
 8338SOL    HW125913   3.803   5.590   1.499
 8338SOL    HW225914   3.706   5.463   1.467
 8339SOL     OW25915   0.072   1.227   1.618
 8339SOL    HW125916   0.036   1.238   1.711
 8339SOL    HW225917   0.134   1.148   1.616
 8340SOL     OW25918   5.318   3.807   0.833
 8340SOL    HW125919   5.283   3.880   0.774
 8340SOL    HW225920   5.242   3.765   0.882
 8341SOL     OW25921   3.851   0.384   6.999
 8341SOL    HW125922   3.908   0.362   0.053
 8341SOL    HW225923   3.860   0.313   6.930
 8342SOL     OW25924   4.155   6.568   0.330
 8342SOL    HW125925   4.106   6.605   0.251
 8342SOL    HW225926   4.089   6.535   0.398
 8343SOL     OW25927   6.749   5.630   3.656
 8343SOL    HW125928   6.823   5.677   3.704
 8343SOL    HW225929   6.747   5.533   3.683
 8344SOL     OW25930   6.860   4.713   4.683
 8344SOL    HW125931   6.789   4.657   4.639
 8344SOL    HW225932   6.948   4.696   4.639
 8345SOL     OW25933   4.095   2.253   3.219
 8345SOL    HW125934   4.014   2.312   3.212
 8345SOL    HW225935   4.113   2.211   3.130
 8346SOL     OW25936   4.066   4.224   6.906
 8346SOL    HW125937   3.985   4.256   6.857
 8346SOL    HW225938   4.080   4.282   6.987
 8347SOL     OW25939   3.300   6.517   5.914
 8347SOL    HW125940   3.241   6.441   5.940
 8347SOL    HW225941   3.355   6.546   5.993
 8348SOL     OW25942   2.044   1.053   1.629
 8348SOL    HW125943   1.979   1.124   1.601
 8348SOL    HW225944   2.122   1.053   1.565
 8349SOL     OW25945   1.062   6.634   2.167
 8349SOL    HW125946   1.131   6.668   2.103
 8349SOL    HW225947   1.092   6.546   2.204
 8350SOL     OW25948   3.053   6.714   6.280
 8350SOL    HW125949   3.052   6.761   6.191
 8350SOL    HW225950   2.964   6.670   6.295
 8351SOL     OW25951   5.285   5.574   4.884
 8351SOL    HW125952   5.288   5.644   4.812
 8351SOL    HW225953   5.269   5.617   4.972
 8352SOL     OW25954   1.287   6.919   3.140
 8352SOL    HW125955   1.352   6.986   3.104
 8352SOL    HW225956   1.234   6.879   3.065
 8353SOL     OW25957   0.912   3.263   0.736
 8353SOL    HW125958   0.858   3.268   0.652
 8353SOL    HW225959   0.996   3.212   0.718
 8354SOL     OW25960   3.558   0.067   4.269
 8354SOL    HW125961   3.503   0.092   4.190
 8354SOL    HW225962   3.574   6.993   4.268
 8355SOL     OW25963   1.930   1.513   4.401
 8355SOL    HW125964   1.985   1.596   4.410
 8355SOL    HW225965   1.845   1.523   4.453
 8356SOL     OW25966   1.539   5.902   1.185
 8356SOL    HW125967   1.482   5.900   1.267
 8356SOL    HW225968   1.506   5.973   1.123
 8357SOL     OW25969   3.733   0.148   5.783
 8357SOL    HW125970   3.764   0.234   5.742
 8357SOL    HW225971   3.804   0.112   5.843
 8358SOL     OW25972   0.956   3.173   4.514
 8358SOL    HW125973   1.016   3.117   4.571
 8358SOL    HW225974   0.904   3.114   4.452
 8359SOL     OW25975   2.836   1.542   5.200
 8359SOL    HW125976   2.758   1.605   5.196
 8359SOL    HW225977   2.909   1.584   5.255
 8360SOL     OW25978   4.654   6.983   0.803
 8360SOL    HW125979   4.680   6.955   0.711
 8360SOL    HW225980   4.617   0.051   0.800
 8361SOL     OW25981   3.525   0.687   0.752
 8361SOL    HW125982   3.589   0.612   0.771
 8361SOL    HW225983   3.572   0.758   0.699
 8362SOL     OW25984   5.482   2.128   0.698
 8362SOL    HW125985   5.471   2.219   0.738
 8362SOL    HW225986   5.400   2.074   0.715
 8363SOL     OW25987   4.989   2.278   0.412
 8363SOL    HW125988   5.049   2.217   0.464
 8363SOL    HW225989   5.025   2.371   0.414
 8364SOL     OW25990   6.899   2.524   4.093
 8364SOL    HW125991   6.953   2.591   4.041
 8364SOL    HW225992   6.812   2.508   4.048
 8365SOL     OW25993   1.836   2.023   2.396
 8365SOL    HW125994   1.871   2.114   2.374
 8365SOL    HW225995   1.817   2.017   2.494
 8366SOL     OW25996   3.100   5.150   1.165
 8366SOL    HW125997   3.086   5.066   1.113
 8366SOL    HW225998   3.066   5.228   1.111
 8367SOL     OW25999   3.530   5.672   5.118
 8367SOL    HW126000   3.596   5.731   5.071
 8367SOL    HW226001   3.440   5.685   5.076
 8368SOL     OW26002   0.782   6.113   0.064
 8368SOL    HW126003   0.700   6.163   0.091
 8368SOL    HW226004   0.832   6.165   7.020
 8369SOL     OW26005   0.826   0.629   6.775
 8369SOL    HW126006   0.918   0.663   6.794
 8369SOL    HW226007   0.802   0.559   6.842
 8370SOL     OW26008   2.286   1.358   6.205
 8370SOL    HW126009   2.203   1.396   6.162
 8370SOL    HW226010   2.293   1.261   6.183
 8371SOL     OW26011   2.574   3.830   0.639
 8371SOL    HW126012   2.664   3.804   0.672
 8371SOL    HW226013   2.529   3.749   0.599
 8372SOL     OW26014   1.629   5.946   1.788
 8372SOL    HW126015   1.710   5.913   1.837
 8372SOL    HW226016   1.631   6.046   1.784
 8373SOL     OW26017   1.913   6.713   4.570
 8373SOL    HW126018   1.850   6.718   4.492
 8373SOL    HW226019   2.005   6.689   4.537
 8374SOL     OW26020   0.310   0.221   4.973
 8374SOL    HW126021   0.382   0.289   4.964
 8374SOL    HW226022   0.270   0.202   4.884
 8375SOL     OW26023   4.025   6.556   5.668
 8375SOL    HW126024   3.990   6.484   5.728
 8375SOL    HW226025   3.996   6.645   5.704
 8376SOL     OW26026   1.477   1.402   3.844
 8376SOL    HW126027   1.481   1.398   3.744
 8376SOL    HW226028   1.473   1.309   3.881
 8377SOL     OW26029   5.826   6.055   0.113
 8377SOL    HW126030   5.832   6.096   0.204
 8377SOL    HW226031   5.893   5.981   0.106
 8378SOL     OW26032   3.637   4.920   3.251
 8378SOL    HW126033   3.636   4.928   3.350
 8378SOL    HW226034   3.543   4.919   3.217
 8379SOL     OW26035   4.887   3.261   1.837
 8379SOL    HW126036   4.822   3.285   1.765
 8379SOL    HW226037   4.846   3.193   1.898
 8380SOL     OW26038   0.163   0.069   0.305
 8380SOL    HW126039   0.108   0.127   0.366
 8380SOL    HW226040   0.258   0.069   0.336
 8381SOL     OW26041   7.020   2.144   3.723
 8381SOL    HW126042   0.020   2.111   3.632
 8381SOL    HW226043   6.921   2.153   3.729
 8382SOL     OW26044   2.141   6.638   1.791
 8382SOL    HW126045   2.126   6.540   1.797
 8382SOL    HW226046   2.218   6.657   1.730
 8383SOL     OW26047   3.226   6.965   5.843
 8383SOL    HW126048   3.207   7.016   5.928
 8383SOL    HW226049   3.179   7.010   5.767
 8384SOL     OW26050   6.040   1.737   1.588
 8384SOL    HW126051   6.140   1.733   1.585
 8384SOL    HW226052   6.004   1.749   1.496
 8385SOL     OW26053   4.359   2.453   6.939
 8385SOL    HW126054   4.404   2.533   6.979
 8385SOL    HW226055   4.309   2.481   6.857
 8386SOL     OW26056   2.176   6.244   1.614
 8386SOL    HW126057   2.144   6.277   1.525
 8386SOL    HW226058   2.195   6.146   1.608
 8387SOL     OW26059   1.178   1.848   1.273
 8387SOL    HW126060   1.255   1.891   1.225
 8387SOL    HW226061   1.186   1.867   1.371
 8388SOL     OW26062   1.889   6.456   1.003
 8388SOL    HW126063   1.928   6.368   0.974
 8388SOL    HW226064   1.891   6.520   0.927
 8389SOL     OW26065   0.307   3.041   4.021
 8389SOL    HW126066   0.395   3.057   3.976
 8389SOL    HW226067   0.307   3.085   4.111
 8390SOL     OW26068   4.126   6.623   0.066
 8390SOL    HW126069   4.053   6.635   7.024
 8390SOL    HW226070   4.190   6.553   0.034
 8391SOL     OW26071   4.678   5.145   1.103
 8391SOL    HW126072   4.674   5.047   1.082
 8391SOL    HW226073   4.626   5.195   1.034
 8392SOL     OW26074   6.644   5.400   5.265
 8392SOL    HW126075   6.629   5.490   5.226
 8392SOL    HW226076   6.634   5.330   5.194
 8393SOL     OW26077   0.611   0.149   3.909
 8393SOL    HW126078   0.685   0.146   3.977
 8393SOL    HW226079   0.539   0.211   3.940
 8394SOL     OW26080   0.257   3.128   1.613
 8394SOL    HW126081   0.320   3.052   1.631
 8394SOL    HW226082   0.270   3.199   1.682
 8395SOL     OW26083   1.471   5.885   4.163
 8395SOL    HW126084   1.517   5.797   4.156
 8395SOL    HW226085   1.418   5.888   4.248
 8396SOL     OW26086   4.589   4.548   2.420
 8396SOL    HW126087   4.569   4.515   2.328
 8396SOL    HW226088   4.510   4.534   2.479
 8397SOL     OW26089   2.633   1.079   3.378
 8397SOL    HW126090   2.636   1.093   3.279
 8397SOL    HW226091   2.720   1.108   3.418
 8398SOL     OW26092   4.356   2.367   6.146
 8398SOL    HW126093   4.439   2.328   6.186
 8398SOL    HW226094   4.275   2.323   6.186
 8399SOL     OW26095   5.949   0.171   0.120
 8399SOL    HW126096   5.866   0.121   0.146
 8399SOL    HW226097   6.010   0.110   0.069
 8400SOL     OW26098   1.463   0.457   3.594
 8400SOL    HW126099   1.548   0.476   3.546
 8400SOL    HW226100   1.438   0.536   3.651
 8401SOL     OW26101   3.341   1.925   6.173
 8401SOL    HW126102   3.309   1.985   6.100
 8401SOL    HW226103   3.421   1.874   6.141
 8402SOL     OW26104   3.901   1.936   5.281
 8402SOL    HW126105   3.852   1.904   5.362
 8402SOL    HW226106   3.971   1.870   5.256
 8403SOL     OW26107   0.944   1.940   3.097
 8403SOL    HW126108   0.961   1.898   3.186
 8403SOL    HW226109   1.030   1.949   3.047
 8404SOL     OW26110   4.425   5.948   6.249
 8404SOL    HW126111   4.427   5.897   6.163
 8404SOL    HW226112   4.518   5.974   6.274
 8405SOL     OW26113   2.395   1.034   5.896
 8405SOL    HW126114   2.444   0.985   5.823
 8405SOL    HW226115   2.420   1.131   5.892
 8406SOL     OW26116   5.017   6.834   1.009
 8406SOL    HW126117   5.063   6.785   1.083
 8406SOL    HW226118   5.085   6.865   0.942
 8407SOL     OW26119   4.596   6.237   4.193
 8407SOL    HW126120   4.607   6.141   4.220
 8407SOL    HW226121   4.651   6.295   4.253
 8408SOL     OW26122   4.871   3.036   2.229
 8408SOL    HW126123   4.811   3.067   2.155
 8408SOL    HW226124   4.956   2.999   2.190
 8409SOL     OW26125   6.351   3.139   3.423
 8409SOL    HW126126   6.434   3.095   3.388
 8409SOL    HW226127   6.362   3.238   3.420
 8410SOL     OW26128   4.837   0.422   1.821
 8410SOL    HW126129   4.883   0.334   1.831
 8410SOL    HW226130   4.797   0.429   1.729
 8411SOL     OW26131   0.695   5.609   6.715
 8411SOL    HW126132   0.795   5.609   6.718
 8411SOL    HW226133   0.663   5.547   6.644
 8412SOL     OW26134   3.851   1.967   2.003
 8412SOL    HW126135   3.786   1.900   2.039
 8412SOL    HW226136   3.808   2.057   2.002
 8413SOL     OW26137   4.209   5.262   0.046
 8413SOL    HW126138   4.297   5.277   0.091
 8413SOL    HW226139   4.140   5.242   0.114
 8414SOL     OW26140   4.316   5.419   3.137
 8414SOL    HW126141   4.373   5.477   3.196
 8414SOL    HW226142   4.293   5.469   3.054
 8415SOL     OW26143   6.542   5.611   3.453
 8415SOL    HW126144   6.621   5.605   3.514
 8415SOL    HW226145   6.533   5.706   3.421
 8416SOL     OW26146   5.528   3.887   2.663
 8416SOL    HW126147   5.540   3.809   2.723
 8416SOL    HW226148   5.513   3.856   2.569
 8417SOL     OW26149   1.229   5.409   6.247
 8417SOL    HW126150   1.287   5.360   6.313
 8417SOL    HW226151   1.194   5.344   6.180
 8418SOL     OW26152   5.936   5.323   1.190
 8418SOL    HW126153   5.997   5.262   1.140
 8418SOL    HW226154   5.884   5.270   1.257
 8419SOL     OW26155   5.393   1.326   2.780
 8419SOL    HW126156   5.347   1.346   2.866
 8419SOL    HW226157   5.483   1.286   2.798
 8420SOL     OW26158   4.380   6.914   0.467
 8420SOL    HW126159   4.392   6.826   0.421
 8420SOL    HW226160   4.285   6.945   0.455
 8421SOL     OW26161   2.912   6.046   0.586
 8421SOL    HW126162   2.893   5.957   0.627
 8421SOL    HW226163   2.853   6.060   0.507
 8422SOL     OW26164   4.617   0.660   1.387
 8422SOL    HW126165   4.629   0.561   1.391
 8422SOL    HW226166   4.639   0.693   1.295
 8423SOL     OW26167   3.928   4.891   5.591
 8423SOL    HW126168   3.880   4.820   5.643
 8423SOL    HW226169   3.900   4.981   5.623
 8424SOL     OW26170   2.363   2.629   2.577
 8424SOL    HW126171   2.347   2.670   2.487
 8424SOL    HW226172   2.307   2.677   2.645
 8425SOL     OW26173   5.360   5.631   0.470
 8425SOL    HW126174   5.334   5.546   0.515
 8425SOL    HW226175   5.368   5.616   0.371
 8426SOL     OW26176   3.250   3.341   4.000
 8426SOL    HW126177   3.159   3.350   4.041
 8426SOL    HW226178   3.294   3.431   3.995
 8427SOL     OW26179   2.765   3.417   5.269
 8427SOL    HW126180   2.735   3.327   5.299
 8427SOL    HW226181   2.834   3.408   5.197
 8428SOL     OW26182   0.333   4.450   2.035
 8428SOL    HW126183   0.271   4.411   2.103
 8428SOL    HW226184   0.361   4.378   1.971
 8429SOL     OW26185   2.265   4.216   3.415
 8429SOL    HW126186   2.176   4.255   3.438
 8429SOL    HW226187   2.329   4.234   3.490
 8430SOL     OW26188   3.693   5.285   4.315
 8430SOL    HW126189   3.655   5.234   4.391
 8430SOL    HW226190   3.746   5.362   4.350
 8431SOL     OW26191   3.075   5.093   0.838
 8431SOL    HW126192   3.088   5.189   0.815
 8431SOL    HW226193   3.162   5.045   0.832
 8432SOL     OW26194   5.465   0.092   6.197
 8432SOL    HW126195   5.426   0.180   6.173
 8432SOL    HW226196   5.537   0.067   6.131
 8433SOL     OW26197   6.203   1.892   0.629
 8433SOL    HW126198   6.137   1.933   0.692
 8433SOL    HW226199   6.261   1.828   0.680
 8434SOL     OW26200   3.470   6.977   4.987
 8434SOL    HW126201   3.533   6.911   5.029
 8434SOL    HW226202   3.504   0.044   5.003
 8435SOL     OW26203   5.755   0.640   1.244
 8435SOL    HW126204   5.657   0.658   1.258
 8435SOL    HW226205   5.782   0.674   1.154
 8436SOL     OW26206   3.133   0.214   4.319
 8436SOL    HW126207   3.105   0.218   4.223
 8436SOL    HW226208   3.104   0.297   4.366
 8437SOL     OW26209   1.783   0.377   3.457
 8437SOL    HW126210   1.857   0.339   3.401
 8437SOL    HW226211   1.741   0.303   3.511
 8438SOL     OW26212   2.620   4.942   2.099
 8438SOL    HW126213   2.587   4.942   2.193
 8438SOL    HW226214   2.542   4.936   2.036
 8439SOL     OW26215   6.003   4.928   2.443
 8439SOL    HW126216   6.069   4.868   2.397
 8439SOL    HW226217   6.043   4.963   2.528
 8440SOL     OW26218   1.013   1.865   3.342
 8440SOL    HW126219   1.111   1.879   3.355
 8440SOL    HW226220   0.970   1.847   3.430
 8441SOL     OW26221   5.908   6.851   0.127
 8441SOL    HW126222   6.006   6.836   0.108
 8441SOL    HW226223   5.898   6.920   0.198
 8442SOL     OW26224   2.979   2.275   5.704
 8442SOL    HW126225   2.900   2.297   5.760
 8442SOL    HW226226   3.000   2.354   5.645
 8443SOL     OW26227   1.405   5.900   3.895
 8443SOL    HW126228   1.324   5.937   3.849
 8443SOL    HW226229   1.396   5.915   3.993
 8444SOL     OW26230   3.418   5.999   3.548
 8444SOL    HW126231   3.394   6.093   3.572
 8444SOL    HW226232   3.335   5.945   3.535
 8445SOL     OW26233   3.405   5.543   1.349
 8445SOL    HW126234   3.492   5.505   1.316
 8445SOL    HW226235   3.424   5.617   1.413
 8446SOL     OW26236   4.988   4.778   6.903
 8446SOL    HW126237   5.039   4.837   6.840
 8446SOL    HW226238   4.918   4.831   6.950
 8447SOL     OW26239   5.362   2.365   1.930
 8447SOL    HW126240   5.263   2.373   1.919
 8447SOL    HW226241   5.406   2.452   1.909
 8448SOL     OW26242   5.111   5.511   4.383
 8448SOL    HW126243   5.068   5.567   4.454
 8448SOL    HW226244   5.198   5.474   4.418
 8449SOL     OW26245   6.427   2.912   3.961
 8449SOL    HW126246   6.363   2.854   3.910
 8449SOL    HW226247   6.489   2.957   3.896
 8450SOL     OW26248   1.120   5.885   1.651
 8450SOL    HW126249   1.184   5.959   1.630
 8450SOL    HW226250   1.036   5.898   1.598
 8451SOL     OW26251   4.714   2.822   0.564
 8451SOL    HW126252   4.632   2.876   0.577
 8451SOL    HW226253   4.696   2.727   0.589
 8452SOL     OW26254   6.483   1.129   2.823
 8452SOL    HW126255   6.525   1.040   2.845
 8452SOL    HW226256   6.421   1.156   2.897
 8453SOL     OW26257   0.016   4.262   6.339
 8453SOL    HW126258   0.037   4.258   6.241
 8453SOL    HW226259   6.948   4.230   6.354
 8454SOL     OW26260   0.056   6.708   0.930
 8454SOL    HW126261   7.001   6.647   0.928
 8454SOL    HW226262   0.105   6.701   0.844
 8455SOL     OW26263   5.832   2.329   1.794
 8455SOL    HW126264   5.752   2.294   1.744
 8455SOL    HW226265   5.821   2.427   1.808
 8456SOL     OW26266   4.731   5.626   2.966
 8456SOL    HW126267   4.735   5.578   3.054
 8456SOL    HW226268   4.737   5.560   2.892
 8457SOL     OW26269   0.026   6.460   4.926
 8457SOL    HW126270   0.122   6.475   4.952
 8457SOL    HW226271   6.992   6.513   4.986
 8458SOL     OW26272   2.704   1.412   6.766
 8458SOL    HW126273   2.656   1.386   6.849
 8458SOL    HW226274   2.648   1.477   6.714
 8459SOL     OW26275   3.136   6.633   2.302
 8459SOL    HW126276   3.166   6.660   2.210
 8459SOL    HW226277   3.047   6.587   2.296
 8460SOL     OW26278   4.993   3.219   5.698
 8460SOL    HW126279   5.051   3.171   5.763
 8460SOL    HW226280   4.993   3.170   5.611
 8461SOL     OW26281   0.279   4.111   3.321
 8461SOL    HW126282   0.222   4.148   3.394
 8461SOL    HW226283   0.291   4.013   3.334
 8462SOL     OW26284   3.777   2.290   6.762
 8462SOL    HW126285   3.750   2.210   6.816
 8462SOL    HW226286   3.707   2.361   6.770
 8463SOL     OW26287   6.055   6.885   0.442
 8463SOL    HW126288   6.094   6.795   0.427
 8463SOL    HW226289   6.128   6.951   0.460
 8464SOL     OW26290   5.690   3.541   5.826
 8464SOL    HW126291   5.643   3.579   5.905
 8464SOL    HW226292   5.624   3.522   5.753
 8465SOL     OW26293   1.821   2.780   1.044
 8465SOL    HW126294   1.877   2.701   1.018
 8465SOL    HW226295   1.880   2.858   1.064
 8466SOL     OW26296   0.587   0.170   5.264
 8466SOL    HW126297   0.522   0.102   5.297
 8466SOL    HW226298   0.650   0.127   5.199
 8467SOL     OW26299   4.088   0.275   1.375
 8467SOL    HW126300   4.075   0.372   1.356
 8467SOL    HW226301   4.003   0.226   1.354
 8468SOL     OW26302   4.487   2.631   0.130
 8468SOL    HW126303   4.542   2.559   0.174
 8468SOL    HW226304   4.497   2.716   0.182
 8469SOL     OW26305   3.789   1.549   5.356
 8469SOL    HW126306   3.829   1.489   5.425
 8469SOL    HW226307   3.846   1.549   5.274
 8470SOL     OW26308   0.743   4.731   0.089
 8470SOL    HW126309   0.661   4.700   0.040
 8470SOL    HW226310   0.791   4.799   0.034
 8471SOL     OW26311   4.047   0.520   4.478
 8471SOL    HW126312   4.117   0.588   4.499
 8471SOL    HW226313   4.040   0.455   4.554
 8472SOL     OW26314   6.692   0.747   5.352
 8472SOL    HW126315   6.686   0.846   5.339
 8472SOL    HW226316   6.624   0.718   5.420
 8473SOL     OW26317   6.531   6.194   0.896
 8473SOL    HW126318   6.475   6.137   0.836
 8473SOL    HW226319   6.529   6.157   0.989
 8474SOL     OW26320   3.497   3.241   2.584
 8474SOL    HW126321   3.563   3.235   2.659
 8474SOL    HW226322   3.481   3.338   2.561
 8475SOL     OW26323   0.055   2.058   3.423
 8475SOL    HW126324   0.083   2.147   3.387
 8475SOL    HW226325   0.097   1.985   3.370
 8476SOL     OW26326   6.546   2.325   0.931
 8476SOL    HW126327   6.628   2.341   0.986
 8476SOL    HW226328   6.527   2.406   0.875
 8477SOL     OW26329   4.698   6.809   2.474
 8477SOL    HW126330   4.783   6.774   2.434
 8477SOL    HW226331   4.626   6.811   2.404
 8478SOL     OW26332   1.411   0.392   6.460
 8478SOL    HW126333   1.453   0.374   6.549
 8478SOL    HW226334   1.314   0.367   6.463
 8479SOL     OW26335   0.791   2.448   1.237
 8479SOL    HW126336   0.829   2.506   1.309
 8479SOL    HW226337   0.719   2.499   1.189
 8480SOL     OW26338   4.983   2.453   6.866
 8480SOL    HW126339   4.912   2.521   6.884
 8480SOL    HW226340   4.943   2.361   6.870
 8481SOL     OW26341   5.031   2.954   4.766
 8481SOL    HW126342   5.081   2.884   4.816
 8481SOL    HW226343   5.024   3.037   4.822
 8482SOL     OW26344   4.835   6.274   2.454
 8482SOL    HW126345   4.791   6.192   2.490
 8482SOL    HW226346   4.863   6.259   2.360
 8483SOL     OW26347   3.888   6.674   1.706
 8483SOL    HW126348   3.800   6.659   1.751
 8483SOL    HW226349   3.932   6.755   1.744
 8484SOL     OW26350   0.067   6.111   3.794
 8484SOL    HW126351   0.124   6.038   3.833
 8484SOL    HW226352   0.001   6.070   3.732
 8485SOL     OW26353   3.299   2.904   0.283
 8485SOL    HW126354   3.256   2.970   0.345
 8485SOL    HW226355   3.396   2.926   0.273
 8486SOL     OW26356   2.425   1.779   2.104
 8486SOL    HW126357   2.484   1.781   2.024
 8486SOL    HW226358   2.480   1.769   2.187
 8487SOL     OW26359   5.945   1.090   5.445
 8487SOL    HW126360   6.009   1.047   5.509
 8487SOL    HW226361   5.878   1.144   5.497
 8488SOL     OW26362   4.917   6.284   0.983
 8488SOL    HW126363   4.825   6.288   0.942
 8488SOL    HW226364   4.985   6.274   0.910
 8489SOL     OW26365   5.901   1.949   1.659
 8489SOL    HW126366   5.914   1.967   1.756
 8489SOL    HW226367   5.939   1.860   1.636
 8490SOL     OW26368   4.336   6.922   4.334
 8490SOL    HW126369   4.236   6.931   4.328
 8490SOL    HW226370   4.363   6.832   4.301
 8491SOL     OW26371   2.614   5.625   1.603
 8491SOL    HW126372   2.710   5.623   1.630
 8491SOL    HW226373   2.591   5.538   1.558
 8492SOL     OW26374   5.387   3.950   4.989
 8492SOL    HW126375   5.377   3.915   4.896
 8492SOL    HW226376   5.468   3.909   5.032
 8493SOL     OW26377   2.296   2.545   6.435
 8493SOL    HW126378   2.377   2.486   6.439
 8493SOL    HW226379   2.219   2.494   6.396
 8494SOL     OW26380   3.857   5.513   1.789
 8494SOL    HW126381   3.811   5.501   1.702
 8494SOL    HW226382   3.937   5.572   1.777
 8495SOL     OW26383   6.122   5.160   2.192
 8495SOL    HW126384   6.070   5.119   2.117
 8495SOL    HW226385   6.094   5.118   2.279
 8496SOL     OW26386   1.411   2.154   2.125
 8496SOL    HW126387   1.491   2.099   2.151
 8496SOL    HW226388   1.434   2.210   2.045
 8497SOL     OW26389   0.016   0.719   3.594
 8497SOL    HW126390   0.092   0.701   3.531
 8497SOL    HW226391   0.049   0.714   3.688
 8498SOL     OW26392   5.892   5.937   3.569
 8498SOL    HW126393   5.965   5.896   3.515
 8498SOL    HW226394   5.807   5.887   3.555
 8499SOL     OW26395   1.964   4.651   6.532
 8499SOL    HW126396   2.008   4.708   6.601
 8499SOL    HW226397   1.873   4.687   6.512
 8500SOL     OW26398   1.305   6.350   5.306
 8500SOL    HW126399   1.328   6.253   5.312
 8500SOL    HW226400   1.237   6.372   5.376
 8501SOL     OW26401   0.483   2.525   6.776
 8501SOL    HW126402   0.502   2.428   6.785
 8501SOL    HW226403   0.470   2.548   6.679
 8502SOL     OW26404   0.516   3.533   1.325
 8502SOL    HW126405   0.439   3.503   1.380
 8502SOL    HW226406   0.493   3.524   1.228
 8503SOL     OW26407   0.430   6.081   3.971
 8503SOL    HW126408   0.343   6.032   3.975
 8503SOL    HW226409   0.457   6.108   4.064
 8504SOL     OW26410   2.472   4.820   2.610
 8504SOL    HW126411   2.391   4.777   2.650
 8504SOL    HW226412   2.499   4.899   2.666
 8505SOL     OW26413   5.777   3.211   3.363
 8505SOL    HW126414   5.677   3.218   3.360
 8505SOL    HW226415   5.815   3.235   3.274
 8506SOL     OW26416   1.032   0.766   6.899
 8506SOL    HW126417   1.030   0.866   6.909
 8506SOL    HW226418   1.127   0.734   6.902
 8507SOL     OW26419   3.934   0.769   4.769
 8507SOL    HW126420   4.008   0.832   4.795
 8507SOL    HW226421   3.885   0.806   4.690
 8508SOL     OW26422   5.016   1.717   4.705
 8508SOL    HW126423   5.051   1.811   4.713
 8508SOL    HW226424   5.073   1.656   4.761
 8509SOL     OW26425   4.686   1.153   4.379
 8509SOL    HW126426   4.729   1.080   4.433
 8509SOL    HW226427   4.613   1.195   4.433
 8510SOL     OW26428   5.710   4.061   2.565
 8510SOL    HW126429   5.754   4.012   2.490
 8510SOL    HW226430   5.640   4.002   2.606
 8511SOL     OW26431   5.722   4.530   2.411
 8511SOL    HW126432   5.700   4.438   2.379
 8511SOL    HW226433   5.789   4.524   2.485
 8512SOL     OW26434   2.886   1.856   2.152
 8512SOL    HW126435   2.937   1.926   2.101
 8512SOL    HW226436   2.901   1.868   2.250
 8513SOL     OW26437   6.447   4.987   0.894
 8513SOL    HW126438   6.527   5.010   0.949
 8513SOL    HW226439   6.377   5.058   0.905
 8514SOL     OW26440   2.503   2.141   4.279
 8514SOL    HW126441   2.561   2.218   4.307
 8514SOL    HW226442   2.560   2.059   4.271
 8515SOL     OW26443   4.797   2.055   1.394
 8515SOL    HW126444   4.805   2.032   1.298
 8515SOL    HW226445   4.726   2.124   1.406
 8516SOL     OW26446   6.462   2.097   1.959
 8516SOL    HW126447   6.545   2.041   1.953
 8516SOL    HW226448   6.392   2.060   1.898
 8517SOL     OW26449   0.800   2.579   6.452
 8517SOL    HW126450   0.865   2.638   6.499
 8517SOL    HW226451   0.712   2.627   6.443
 8518SOL     OW26452   4.355   4.565   6.914
 8518SOL    HW126453   4.309   4.634   6.858
 8518SOL    HW226454   4.448   4.550   6.879
 8519SOL     OW26455   1.737   4.745   2.016
 8519SOL    HW126456   1.786   4.710   2.095
 8519SOL    HW226457   1.781   4.712   1.932
 8520SOL     OW26458   3.363   2.673   0.425
 8520SOL    HW126459   3.447   2.727   0.432
 8520SOL    HW226460   3.285   2.734   0.412
 8521SOL     OW26461   1.413   4.760   5.985
 8521SOL    HW126462   1.313   4.749   5.980
 8521SOL    HW226463   1.444   4.739   6.078
 8522SOL     OW26464   1.325   5.537   1.402
 8522SOL    HW126465   1.373   5.533   1.490
 8522SOL    HW226466   1.227   5.526   1.417
 8523SOL     OW26467   3.270   6.921   6.239
 8523SOL    HW126468   3.203   6.888   6.173
 8523SOL    HW226469   3.232   7.000   6.289
 8524SOL     OW26470   0.836   2.219   4.958
 8524SOL    HW126471   0.741   2.250   4.969
 8524SOL    HW226472   0.897   2.282   5.006
 8525SOL     OW26473   5.974   4.312   3.148
 8525SOL    HW126474   6.049   4.373   3.125
 8525SOL    HW226475   6.001   4.253   3.224
 8526SOL     OW26476   3.431   5.030   6.899
 8526SOL    HW126477   3.339   5.032   6.936
 8526SOL    HW226478   3.474   5.120   6.908
 8527SOL     OW26479   3.221   0.584   5.458
 8527SOL    HW126480   3.291   0.619   5.396
 8527SOL    HW226481   3.131   0.617   5.428
 8528SOL     OW26482   5.006   2.789   6.272
 8528SOL    HW126483   4.956   2.875   6.263
 8528SOL    HW226484   4.990   2.732   6.191
 8529SOL     OW26485   0.528   0.009   0.533
 8529SOL    HW126486   0.480   6.965   0.478
 8529SOL    HW226487   0.468   0.088   0.546
 8530SOL     OW26488   2.336   4.152   5.341
 8530SOL    HW126489   2.409   4.209   5.378
 8530SOL    HW226490   2.374   4.088   5.275
 8531SOL     OW26491   6.677   4.167   1.430
 8531SOL    HW126492   6.639   4.246   1.478
 8531SOL    HW226493   6.774   4.183   1.412
 8532SOL     OW26494   3.987   4.844   4.645
 8532SOL    HW126495   3.961   4.880   4.735
 8532SOL    HW226496   3.911   4.857   4.581
 8533SOL     OW26497   1.917   0.266   5.808
 8533SOL    HW126498   1.971   0.335   5.855
 8533SOL    HW226499   1.978   0.208   5.753
 8534SOL     OW26500   6.579   3.277   4.166
 8534SOL    HW126501   6.486   3.281   4.131
 8534SOL    HW226502   6.582   3.320   4.256
 8535SOL     OW26503   0.268   2.061   4.852
 8535SOL    HW126504   0.349   2.086   4.798
 8535SOL    HW226505   0.287   1.977   4.903
 8536SOL     OW26506   6.094   2.099   4.927
 8536SOL    HW126507   6.071   2.037   4.851
 8536SOL    HW226508   6.108   2.045   5.010
 8537SOL     OW26509   5.445   1.574   2.626
 8537SOL    HW126510   5.483   1.546   2.539
 8537SOL    HW226511   5.493   1.527   2.700
 8538SOL     OW26512   1.190   1.674   6.024
 8538SOL    HW126513   1.163   1.758   5.977
 8538SOL    HW226514   1.211   1.603   5.957
 8539SOL     OW26515   6.601   1.354   1.897
 8539SOL    HW126516   6.582   1.452   1.892
 8539SOL    HW226517   6.529   1.303   1.849
 8540SOL     OW26518   4.188   1.701   0.302
 8540SOL    HW126519   4.250   1.680   0.226
 8540SOL    HW226520   4.133   1.620   0.323
 8541SOL     OW26521   3.275   2.170   4.329
 8541SOL    HW126522   3.305   2.177   4.233
 8541SOL    HW226523   3.182   2.134   4.333
 8542SOL     OW26524   2.566   4.658   6.036
 8542SOL    HW126525   2.612   4.694   6.117
 8542SOL    HW226526   2.616   4.687   5.954
 8543SOL     OW26527   3.066   1.153   6.932
 8543SOL    HW126528   3.011   1.207   6.867
 8543SOL    HW226529   3.117   1.215   6.992
 8544SOL     OW26530   5.500   2.968   4.331
 8544SOL    HW126531   5.505   2.883   4.383
 8544SOL    HW226532   5.482   2.948   4.235
 8545SOL     OW26533   4.604   7.025   4.500
 8545SOL    HW126534   4.549   6.978   4.431
 8545SOL    HW226535   4.545   0.034   4.573
 8546SOL     OW26536   0.666   6.969   2.732
 8546SOL    HW126537   0.580   7.010   2.703
 8546SOL    HW226538   0.649   6.877   2.766
 8547SOL     OW26539   0.715   0.181   6.683
 8547SOL    HW126540   0.677   0.271   6.702
 8547SOL    HW226541   0.664   0.112   6.735
 8548SOL     OW26542   6.925   3.010   5.966
 8548SOL    HW126543   7.024   2.997   5.976
 8548SOL    HW226544   6.899   2.990   5.871
 8549SOL     OW26545   0.858   2.726   4.363
 8549SOL    HW126546   0.816   2.678   4.286
 8549SOL    HW226547   0.787   2.747   4.431
 8550SOL     OW26548   1.046   5.266   0.376
 8550SOL    HW126549   0.985   5.310   0.310
 8550SOL    HW226550   1.136   5.252   0.335
 8551SOL     OW26551   2.828   3.064   0.294
 8551SOL    HW126552   2.745   3.009   0.281
 8551SOL    HW226553   2.900   3.006   0.333
 8552SOL     OW26554   2.236   0.737   2.793
 8552SOL    HW126555   2.247   0.834   2.773
 8552SOL    HW226556   2.139   0.717   2.810
 8553SOL     OW26557   4.111   4.671   6.516
 8553SOL    HW126558   4.140   4.754   6.467
 8553SOL    HW226559   4.015   4.653   6.497
 8554SOL     OW26560   0.358   5.652   0.499
 8554SOL    HW126561   0.340   5.683   0.593
 8554SOL    HW226562   0.450   5.679   0.472
 8555SOL     OW26563   3.147   1.043   3.448
 8555SOL    HW126564   3.215   1.117   3.449
 8555SOL    HW226565   3.136   1.010   3.354
 8556SOL     OW26566   2.247   6.739   5.384
 8556SOL    HW126567   2.212   6.762   5.475
 8556SOL    HW226568   2.337   6.696   5.394
 8557SOL     OW26569   6.206   6.446   2.490
 8557SOL    HW126570   6.198   6.428   2.588
 8557SOL    HW226571   6.116   6.445   2.448
 8558SOL     OW26572   2.535   5.549   3.288
 8558SOL    HW126573   2.631   5.522   3.282
 8558SOL    HW226574   2.520   5.628   3.229
 8559SOL     OW26575   2.024   0.056   2.535
 8559SOL    HW126576   2.096   0.084   2.598
 8559SOL    HW226577   1.973   7.005   2.574
 8560SOL     OW26578   1.357   6.024   1.992
 8560SOL    HW126579   1.434   5.964   2.014
 8560SOL    HW226580   1.271   5.975   2.008
 8561SOL     OW26581   3.656   0.301   2.980
 8561SOL    HW126582   3.672   0.271   2.886
 8561SOL    HW226583   3.588   0.243   3.023
 8562SOL     OW26584   4.260   6.395   6.177
 8562SOL    HW126585   4.355   6.406   6.207
 8562SOL    HW226586   4.237   6.298   6.177
 8563SOL     OW26587   0.799   4.838   1.315
 8563SOL    HW126588   0.892   4.874   1.310
 8563SOL    HW226589   0.797   4.760   1.378
 8564SOL     OW26590   3.073   0.195   5.045
 8564SOL    HW126591   3.042   0.288   5.027
 8564SOL    HW226592   3.170   0.195   5.066
 8565SOL     OW26593   3.651   5.102   0.889
 8565SOL    HW126594   3.720   5.175   0.889
 8565SOL    HW226595   3.560   5.141   0.899
 8566SOL     OW26596   0.476   6.491   1.487
 8566SOL    HW126597   0.385   6.513   1.522
 8566SOL    HW226598   0.510   6.567   1.431
 8567SOL     OW26599   6.856   1.859   2.540
 8567SOL    HW126600   6.922   1.787   2.563
 8567SOL    HW226601   6.763   1.824   2.548
 8568SOL     OW26602   5.457   1.714   6.843
 8568SOL    HW126603   5.461   1.614   6.847
 8568SOL    HW226604   5.416   1.742   6.757
 8569SOL     OW26605   4.553   1.397   5.639
 8569SOL    HW126606   4.457   1.425   5.635
 8569SOL    HW226607   4.560   1.309   5.687
 8570SOL     OW26608   1.380   1.371   4.245
 8570SOL    HW126609   1.336   1.311   4.311
 8570SOL    HW226610   1.311   1.423   4.195
 8571SOL     OW26611   0.469   6.043   5.817
 8571SOL    HW126612   0.430   5.952   5.825
 8571SOL    HW226613   0.490   6.078   5.909
 8572SOL     OW26614   2.415   4.444   5.947
 8572SOL    HW126615   2.424   4.541   5.972
 8572SOL    HW226616   2.497   4.416   5.896
 8573SOL     OW26617   3.032   6.073   6.472
 8573SOL    HW126618   2.974   6.076   6.391
 8573SOL    HW226619   3.096   6.150   6.469
 8574SOL     OW26620   6.438   0.045   6.324
 8574SOL    HW126621   6.510   0.114   6.334
 8574SOL    HW226622   6.361   0.067   6.383
 8575SOL     OW26623   2.140   1.913   3.491
 8575SOL    HW126624   2.096   1.986   3.544
 8575SOL    HW226625   2.237   1.909   3.515
 8576SOL     OW26626   1.566   4.422   4.423
 8576SOL    HW126627   1.574   4.505   4.477
 8576SOL    HW226628   1.485   4.371   4.451
 8577SOL     OW26629   1.605   6.627   5.185
 8577SOL    HW126630   1.699   6.649   5.158
 8577SOL    HW226631   1.547   6.707   5.171
 8578SOL     OW26632   6.090   5.545   4.857
 8578SOL    HW126633   6.179   5.510   4.885
 8578SOL    HW226634   6.040   5.578   4.938
 8579SOL     OW26635   1.719   6.778   1.896
 8579SOL    HW126636   1.679   6.810   1.982
 8579SOL    HW226637   1.652   6.785   1.823
 8580SOL     OW26638   2.010   6.200   0.998
 8580SOL    HW126639   2.082   6.224   1.063
 8580SOL    HW226640   1.952   6.129   1.038
 8581SOL     OW26641   3.359   3.900   1.572
 8581SOL    HW126642   3.259   3.897   1.575
 8581SOL    HW226643   3.392   3.838   1.501
 8582SOL     OW26644   4.701   4.379   4.887
 8582SOL    HW126645   4.785   4.402   4.937
 8582SOL    HW226646   4.715   4.295   4.835
 8583SOL     OW26647   4.166   0.330   4.220
 8583SOL    HW126648   4.086   0.378   4.184
 8583SOL    HW226649   4.189   0.368   4.310
 8584SOL     OW26650   0.851   5.894   6.267
 8584SOL    HW126651   0.885   5.988   6.262
 8584SOL    HW226652   0.836   5.860   6.174
 8585SOL     OW26653   6.300   1.591   6.581
 8585SOL    HW126654   6.319   1.620   6.675
 8585SOL    HW226655   6.269   1.670   6.528
 8586SOL     OW26656   3.322   6.429   1.980
 8586SOL    HW126657   3.255   6.357   1.959
 8586SOL    HW226658   3.383   6.398   2.053
 8587SOL     OW26659   0.904   0.532   4.632
 8587SOL    HW126660   0.899   0.567   4.726
 8587SOL    HW226661   0.994   0.491   4.617
 8588SOL     OW26662   4.335   1.142   0.213
 8588SOL    HW126663   4.384   1.057   0.194
 8588SOL    HW226664   4.347   1.204   0.135
 8589SOL     OW26665   5.626   2.639   5.492
 8589SOL    HW126666   5.526   2.635   5.482
 8589SOL    HW226667   5.660   2.548   5.516
 8590SOL     OW26668   0.273   0.275   2.705
 8590SOL    HW126669   0.288   0.357   2.649
 8590SOL    HW226670   0.330   0.201   2.670
 8591SOL     OW26671   0.161   3.942   0.472
 8591SOL    HW126672   0.081   3.883   0.465
 8591SOL    HW226673   0.195   3.940   0.566
 8592SOL     OW26674   5.563   2.035   6.515
 8592SOL    HW126675   5.570   2.069   6.610
 8592SOL    HW226676   5.649   2.052   6.468
 8593SOL     OW26677   2.933   1.163   0.356
 8593SOL    HW126678   2.912   1.198   0.265
 8593SOL    HW226679   2.932   1.063   0.355
 8594SOL     OW26680   5.073   2.542   5.373
 8594SOL    HW126681   5.046   2.454   5.412
 8594SOL    HW226682   5.168   2.538   5.343
 8595SOL     OW26683   0.574   0.905   3.701
 8595SOL    HW126684   0.539   0.982   3.753
 8595SOL    HW226685   0.673   0.899   3.711
 8596SOL     OW26686   1.087   4.561   2.792
 8596SOL    HW126687   1.118   4.654   2.812
 8596SOL    HW226688   1.106   4.502   2.870
 8597SOL     OW26689   4.557   2.032   1.790
 8597SOL    HW126690   4.538   2.003   1.884
 8597SOL    HW226691   4.499   1.981   1.726
 8598SOL     OW26692   5.733   0.378   0.252
 8598SOL    HW126693   5.833   0.384   0.247
 8598SOL    HW226694   5.699   0.325   0.174
 8599SOL     OW26695   1.900   2.251   4.237
 8599SOL    HW126696   1.815   2.216   4.198
 8599SOL    HW226697   1.879   2.327   4.298
 8600SOL     OW26698   5.246   3.741   6.554
 8600SOL    HW126699   5.298   3.826   6.539
 8600SOL    HW226700   5.160   3.746   6.503
 8601SOL     OW26701   1.118   1.355   4.061
 8601SOL    HW126702   1.171   1.382   3.981
 8601SOL    HW226703   1.023   1.385   4.050
 8602SOL     OW26704   3.001   6.231   2.464
 8602SOL    HW126705   3.093   6.246   2.501
 8602SOL    HW226706   2.972   6.138   2.483
 8603SOL     OW26707   5.319   5.971   1.167
 8603SOL    HW126708   5.333   5.918   1.083
 8603SOL    HW226709   5.286   5.910   1.239
 8604SOL     OW26710   0.887   2.496   5.392
 8604SOL    HW126711   0.901   2.401   5.364
 8604SOL    HW226712   0.800   2.530   5.358
 8605SOL     OW26713   2.104   5.468   4.295
 8605SOL    HW126714   2.095   5.374   4.328
 8605SOL    HW226715   2.047   5.482   4.215
 8606SOL     OW26716   1.944   3.181   6.561
 8606SOL    HW126717   1.909   3.227   6.643
 8606SOL    HW226718   2.023   3.231   6.526
 8607SOL     OW26719   3.348   4.890   6.010
 8607SOL    HW126720   3.317   4.978   5.975
 8607SOL    HW226721   3.274   4.823   6.003
 8608SOL     OW26722   3.015   4.881   2.344
 8608SOL    HW126723   2.971   4.873   2.255
 8608SOL    HW226724   2.971   4.818   2.408
 8609SOL     OW26725   5.135   0.234   2.922
 8609SOL    HW126726   5.049   0.184   2.910
 8609SOL    HW226727   5.172   0.215   3.013
 8610SOL     OW26728   1.178   1.713   3.040
 8610SOL    HW126729   1.128   1.766   2.972
 8610SOL    HW226730   1.115   1.681   3.111
 8611SOL     OW26731   2.912   1.925   4.448
 8611SOL    HW126732   2.901   2.020   4.479
 8611SOL    HW226733   2.988   1.920   4.384
 8612SOL     OW26734   2.687   3.288   0.737
 8612SOL    HW126735   2.688   3.353   0.813
 8612SOL    HW226736   2.746   3.322   0.663
 8613SOL     OW26737   3.069   1.636   1.921
 8613SOL    HW126738   3.103   1.730   1.920
 8613SOL    HW226739   2.996   1.625   1.854
 8614SOL     OW26740   1.174   2.835   3.770
 8614SOL    HW126741   1.084   2.825   3.727
 8614SOL    HW226742   1.170   2.799   3.864
 8615SOL     OW26743   4.556   1.995   5.215
 8615SOL    HW126744   4.549   1.925   5.286
 8615SOL    HW226745   4.464   2.017   5.182
 8616SOL     OW26746   3.078   4.625   1.696
 8616SOL    HW126747   3.119   4.699   1.749
 8616SOL    HW226748   3.018   4.571   1.754
 8617SOL     OW26749   5.677   1.177   5.324
 8617SOL    HW126750   5.711   1.258   5.275
 8617SOL    HW226751   5.580   1.165   5.306
 8618SOL     OW26752   6.228   5.064   1.228
 8618SOL    HW126753   6.141   5.028   1.260
 8618SOL    HW226754   6.285   4.988   1.197
 8619SOL     OW26755   4.166   5.000   2.045
 8619SOL    HW126756   4.198   4.961   2.132
 8619SOL    HW226757   4.143   5.096   2.057
 8620SOL     OW26758   1.676   6.823   3.262
 8620SOL    HW126759   1.774   6.804   3.269
 8620SOL    HW226760   1.625   6.761   3.322
 8621SOL     OW26761   5.623   1.904   2.582
 8621SOL    HW126762   5.653   1.933   2.491
 8621SOL    HW226763   5.533   1.861   2.575
 8622SOL     OW26764   5.094   3.566   1.173
 8622SOL    HW126765   5.120   3.483   1.124
 8622SOL    HW226766   5.011   3.549   1.226
 8623SOL     OW26767   1.267   3.813   4.576
 8623SOL    HW126768   1.312   3.858   4.499
 8623SOL    HW226769   1.195   3.752   4.542
 8624SOL     OW26770   1.915   3.812   4.634
 8624SOL    HW126771   1.951   3.739   4.692
 8624SOL    HW226772   1.846   3.775   4.572
 8625SOL     OW26773   4.670   1.379   6.094
 8625SOL    HW126774   4.766   1.359   6.073
 8625SOL    HW226775   4.617   1.294   6.090
 8626SOL     OW26776   3.970   2.490   6.479
 8626SOL    HW126777   3.936   2.566   6.535
 8626SOL    HW226778   4.069   2.484   6.488
 8627SOL     OW26779   0.924   1.554   2.691
 8627SOL    HW126780   0.867   1.537   2.611
 8627SOL    HW226781   0.878   1.519   2.773
 8628SOL     OW26782   6.142   6.672   0.324
 8628SOL    HW126783   6.148   6.582   0.368
 8628SOL    HW226784   6.076   6.668   0.250
 8629SOL     OW26785   2.036   6.234   4.944
 8629SOL    HW126786   2.057   6.332   4.952
 8629SOL    HW226787   2.119   6.183   4.923
 8630SOL     OW26788   5.618   3.756   4.202
 8630SOL    HW126789   5.671   3.676   4.176
 8630SOL    HW226790   5.545   3.772   4.135
 8631SOL     OW26791   0.530   5.459   6.523
 8631SOL    HW126792   0.535   5.399   6.443
 8631SOL    HW226793   0.476   5.414   6.595
 8632SOL     OW26794   4.449   4.987   5.368
 8632SOL    HW126795   4.383   5.026   5.303
 8632SOL    HW226796   4.520   5.055   5.388
 8633SOL     OW26797   5.205   1.888   5.755
 8633SOL    HW126798   5.159   1.973   5.729
 8633SOL    HW226799   5.155   1.811   5.715
 8634SOL     OW26800   5.087   3.803   0.023
 8634SOL    HW126801   5.000   3.814   7.001
 8634SOL    HW226802   5.161   3.792   6.982
 8635SOL     OW26803   4.958   3.248   6.594
 8635SOL    HW126804   4.859   3.243   6.587
 8635SOL    HW226805   4.990   3.332   6.550
 8636SOL     OW26806   5.868   5.973   0.972
 8636SOL    HW126807   5.839   6.068   0.987
 8636SOL    HW226808   5.798   5.926   0.917
 8637SOL     OW26809   2.700   0.835   0.004
 8637SOL    HW126810   2.799   0.845   0.011
 8637SOL    HW226811   2.660   0.922   7.002
 8638SOL     OW26812   3.296   2.093   5.083
 8638SOL    HW126813   3.244   2.026   5.136
 8638SOL    HW226814   3.261   2.185   5.103
 8639SOL     OW26815   5.462   2.608   0.157
 8639SOL    HW126816   5.380   2.555   0.137
 8639SOL    HW226817   5.543   2.552   0.141
 8640SOL     OW26818   4.423   3.497   0.367
 8640SOL    HW126819   4.449   3.415   0.316
 8640SOL    HW226820   4.498   3.563   0.364
 8641SOL     OW26821   4.206   4.761   3.884
 8641SOL    HW126822   4.271   4.802   3.948
 8641SOL    HW226823   4.253   4.693   3.828
 8642SOL     OW26824   0.823   5.903   4.218
 8642SOL    HW126825   0.799   5.986   4.167
 8642SOL    HW226826   0.916   5.875   4.195
 8643SOL     OW26827   2.723   0.690   5.945
 8643SOL    HW126828   2.727   0.739   6.032
 8643SOL    HW226829   2.641   0.633   5.942
 8644SOL     OW26830   5.631   2.365   5.532
 8644SOL    HW126831   5.546   2.315   5.519
 8644SOL    HW226832   5.708   2.306   5.506
 8645SOL     OW26833   4.289   4.387   0.964
 8645SOL    HW126834   4.231   4.368   1.043
 8645SOL    HW226835   4.366   4.323   0.964
 8646SOL     OW26836   0.264   1.933   0.495
 8646SOL    HW126837   0.312   1.997   0.555
 8646SOL    HW226838   0.262   1.843   0.538
 8647SOL     OW26839   2.490   5.093   6.677
 8647SOL    HW126840   2.448   5.043   6.753
 8647SOL    HW226841   2.508   5.188   6.705
 8648SOL     OW26842   6.736   6.897   2.672
 8648SOL    HW126843   6.765   6.837   2.598
 8648SOL    HW226844   6.636   6.898   2.677
 8649SOL     OW26845   5.247   5.873   6.867
 8649SOL    HW126846   5.151   5.899   6.875
 8649SOL    HW226847   5.285   5.858   6.958
 8650SOL     OW26848   1.710   5.078   4.488
 8650SOL    HW126849   1.747   5.106   4.577
 8650SOL    HW226850   1.704   5.157   4.428
 8651SOL     OW26851   4.387   1.579   0.641
 8651SOL    HW126852   4.346   1.665   0.610
 8651SOL    HW226853   4.316   1.509   0.649
 8652SOL     OW26854   1.744   5.300   3.306
 8652SOL    HW126855   1.684   5.249   3.244
 8652SOL    HW226856   1.688   5.346   3.375
 8653SOL     OW26857   6.781   1.171   6.166
 8653SOL    HW126858   6.816   1.170   6.259
 8653SOL    HW226859   6.681   1.164   6.167
 8654SOL     OW26860   0.758   4.821   2.369
 8654SOL    HW126861   0.708   4.815   2.456
 8654SOL    HW226862   0.736   4.742   2.313
 8655SOL     OW26863   6.199   0.342   3.969
 8655SOL    HW126864   6.217   0.309   3.876
 8655SOL    HW226865   6.273   0.314   4.030
 8656SOL     OW26866   6.738   0.223   1.874
 8656SOL    HW126867   6.815   0.287   1.863
 8656SOL    HW226868   6.770   0.130   1.858
 8657SOL     OW26869   5.059   5.582   6.964
 8657SOL    HW126870   5.069   5.591   6.865
 8657SOL    HW226871   5.094   5.664   7.009
 8658SOL     OW26872   6.069   6.426   0.077
 8658SOL    HW126873   6.137   6.420   0.151
 8658SOL    HW226874   6.116   6.442   7.016
 8659SOL     OW26875   4.970   2.517   2.116
 8659SOL    HW126876   4.898   2.448   2.109
 8659SOL    HW226877   4.932   2.600   2.158
 8660SOL     OW26878   6.918   3.593   1.989
 8660SOL    HW126879   6.855   3.515   1.976
 8660SOL    HW226880   6.937   3.635   1.901
 8661SOL     OW26881   6.831   3.869   1.437
 8661SOL    HW126882   6.842   3.951   1.381
 8661SOL    HW226883   6.910   3.809   1.423
 8662SOL     OW26884   4.544   5.785   2.120
 8662SOL    HW126885   4.563   5.698   2.074
 8662SOL    HW226886   4.461   5.776   2.175
 8663SOL     OW26887   2.819   5.478   2.563
 8663SOL    HW126888   2.916   5.487   2.537
 8663SOL    HW226889   2.763   5.535   2.502
 8664SOL     OW26890   1.820   6.203   1.311
 8664SOL    HW126891   1.759   6.188   1.389
 8664SOL    HW226892   1.887   6.129   1.308
 8665SOL     OW26893   5.883   5.635   5.333
 8665SOL    HW126894   5.800   5.580   5.337
 8665SOL    HW226895   5.958   5.586   5.378
 8666SOL     OW26896   5.768   0.779   3.833
 8666SOL    HW126897   5.675   0.764   3.867
 8666SOL    HW226898   5.766   0.789   3.733
 8667SOL     OW26899   3.987   1.568   3.810
 8667SOL    HW126900   3.888   1.558   3.818
 8667SOL    HW226901   4.031   1.480   3.825
 8668SOL     OW26902   5.262   3.634   3.109
 8668SOL    HW126903   5.298   3.718   3.149
 8668SOL    HW226904   5.197   3.592   3.172
 8669SOL     OW26905   0.744   6.657   6.505
 8669SOL    HW126906   0.677   6.624   6.440
 8669SOL    HW226907   0.775   6.581   6.563
 8670SOL     OW26908   4.076   5.126   5.782
 8670SOL    HW126909   4.098   5.072   5.701
 8670SOL    HW226910   4.121   5.215   5.776
 8671SOL     OW26911   5.214   1.454   3.314
 8671SOL    HW126912   5.164   1.480   3.396
 8671SOL    HW226913   5.284   1.522   3.294
 8672SOL     OW26914   1.103   4.780   3.877
 8672SOL    HW126915   1.014   4.799   3.917
 8672SOL    HW226916   1.091   4.743   3.785
 8673SOL     OW26917   5.672   2.511   6.991
 8673SOL    HW126918   5.632   2.517   6.900
 8673SOL    HW226919   5.724   2.426   6.999
 8674SOL     OW26920   5.199   5.634   2.429
 8674SOL    HW126921   5.294   5.639   2.461
 8674SOL    HW226922   5.177   5.540   2.404
 8675SOL     OW26923   4.323   1.793   5.090
 8675SOL    HW126924   4.248   1.769   5.029
 8675SOL    HW226925   4.321   1.891   5.109
 8676SOL     OW26926   5.649   6.668   3.410
 8676SOL    HW126927   5.686   6.576   3.422
 8676SOL    HW226928   5.667   6.722   3.493
 8677SOL     OW26929   2.041   5.322   6.402
 8677SOL    HW126930   2.064   5.305   6.306
 8677SOL    HW226931   2.108   5.276   6.461
 8678SOL     OW26932   0.578   0.426   1.208
 8678SOL    HW126933   0.615   0.482   1.281
 8678SOL    HW226934   0.620   0.452   1.121
 8679SOL     OW26935   1.112   1.398   3.395
 8679SOL    HW126936   1.121   1.300   3.415
 8679SOL    HW226937   1.168   1.450   3.460
 8680SOL     OW26938   6.512   3.076   6.957
 8680SOL    HW126939   6.599   3.123   6.966
 8680SOL    HW226940   6.440   3.129   7.002
 8681SOL     OW26941   4.711   5.610   1.471
 8681SOL    HW126942   4.701   5.642   1.566
 8681SOL    HW226943   4.642   5.540   1.452
 8682SOL     OW26944   5.641   0.042   2.544
 8682SOL    HW126945   5.609   6.985   2.499
 8682SOL    HW226946   5.575   0.070   2.614
 8683SOL     OW26947   1.474   2.613   5.348
 8683SOL    HW126948   1.483   2.612   5.249
 8683SOL    HW226949   1.497   2.704   5.383
 8684SOL     OW26950   5.974   2.728   4.631
 8684SOL    HW126951   5.986   2.823   4.658
 8684SOL    HW226952   5.985   2.668   4.710
 8685SOL     OW26953   6.504   1.863   6.139
 8685SOL    HW126954   6.482   1.907   6.225
 8685SOL    HW226955   6.492   1.764   6.148
 8686SOL     OW26956   6.629   0.862   2.555
 8686SOL    HW126957   6.717   0.908   2.541
 8686SOL    HW226958   6.624   0.826   2.647
 8687SOL     OW26959   5.040   5.239   2.054
 8687SOL    HW126960   5.071   5.334   2.046
 8687SOL    HW226961   5.021   5.219   2.151
 8688SOL     OW26962   0.821   5.338   5.967
 8688SOL    HW126963   0.826   5.420   5.910
 8688SOL    HW226964   0.737   5.341   6.022
 8689SOL     OW26965   3.864   2.681   1.186
 8689SOL    HW126966   3.908   2.593   1.170
 8689SOL    HW226967   3.858   2.698   1.284
 8690SOL     OW26968   1.513   3.559   3.491
 8690SOL    HW126969   1.607   3.548   3.524
 8690SOL    HW226970   1.453   3.496   3.541
 8691SOL     OW26971   3.735   1.751   6.636
 8691SOL    HW126972   3.764   1.847   6.628
 8691SOL    HW226973   3.676   1.727   6.559
 8692SOL     OW26974   3.032   1.648   4.702
 8692SOL    HW126975   3.099   1.668   4.774
 8692SOL    HW226976   2.960   1.718   4.704
 8693SOL     OW26977   5.757   0.012   0.244
 8693SOL    HW126978   5.736   0.041   0.337
 8693SOL    HW226979   5.691   0.051   0.181
 8694SOL     OW26980   5.552   1.589   4.888
 8694SOL    HW126981   5.558   1.688   4.885
 8694SOL    HW226982   5.556   1.558   4.983
 8695SOL     OW26983   4.637   3.311   5.904
 8695SOL    HW126984   4.624   3.389   5.964
 8695SOL    HW226985   4.708   3.332   5.837
 8696SOL     OW26986   2.589   5.442   4.961
 8696SOL    HW126987   2.614   5.408   4.870
 8696SOL    HW226988   2.575   5.365   5.023
 8697SOL     OW26989   0.219   4.189   6.482
 8697SOL    HW126990   0.143   4.235   6.437
 8697SOL    HW226991   0.198   4.176   6.579
 8698SOL     OW26992   5.157   6.017   5.177
 8698SOL    HW126993   5.142   5.939   5.116
 8698SOL    HW226994   5.086   6.018   5.247
 8699SOL     OW26995   1.295   3.489   4.582
 8699SOL    HW126996   1.350   3.555   4.634
 8699SOL    HW226997   1.287   3.404   4.634
 8700SOL     OW26998   1.092   0.566   4.936
 8700SOL    HW126999   1.153   0.587   5.012
 8700SOL    HW227000   1.074   0.468   4.934
 8701SOL     OW27001   1.341   1.323   6.956
 8701SOL    HW127002   1.258   1.363   6.996
 8701SOL    HW227003   1.354   1.231   6.993
 8702SOL     OW27004   5.165   5.086   1.851
 8702SOL    HW127005   5.145   4.991   1.876
 8702SOL    HW227006   5.122   5.148   1.918
 8703SOL     OW27007   2.837   5.193   0.354
 8703SOL    HW127008   2.809   5.134   0.278
 8703SOL    HW227009   2.935   5.183   0.370
 8704SOL     OW27010   0.915   4.184   3.460
 8704SOL    HW127011   0.872   4.273   3.445
 8704SOL    HW227012   0.861   4.132   3.527
 8705SOL     OW27013   4.933   1.344   6.492
 8705SOL    HW127014   5.015   1.286   6.488
 8705SOL    HW227015   4.952   1.431   6.446
 8706SOL     OW27016   4.831   1.844   6.975
 8706SOL    HW127017   4.771   1.807   0.020
 8706SOL    HW227018   4.783   1.847   6.888
 8707SOL     OW27019   0.624   1.896   5.554
 8707SOL    HW127020   0.685   1.819   5.534
 8707SOL    HW227021   0.671   1.982   5.534
 8708SOL     OW27022   4.052   1.390   3.538
 8708SOL    HW127023   4.078   1.442   3.620
 8708SOL    HW227024   4.108   1.308   3.531
 8709SOL     OW27025   6.386   6.755   6.922
 8709SOL    HW127026   6.325   6.784   6.848
 8709SOL    HW227027   6.467   6.711   6.883
 8710SOL     OW27028   1.445   2.904   3.088
 8710SOL    HW127029   1.414   2.922   3.182
 8710SOL    HW227030   1.374   2.933   3.024
 8711SOL     OW27031   1.625   6.723   2.549
 8711SOL    HW127032   1.599   6.815   2.577
 8711SOL    HW227033   1.544   6.663   2.552
 8712SOL     OW27034   3.461   1.879   4.208
 8712SOL    HW127035   3.512   1.870   4.294
 8712SOL    HW227036   3.389   1.809   4.204
 8713SOL     OW27037   6.938   3.259   2.492
 8713SOL    HW127038   6.866   3.324   2.515
 8713SOL    HW227039   6.977   3.282   2.403
 8714SOL     OW27040   1.086   0.295   6.028
 8714SOL    HW127041   1.035   0.244   5.960
 8714SOL    HW227042   1.033   0.374   6.058
 8715SOL     OW27043   4.034   0.794   1.171
 8715SOL    HW127044   4.074   0.732   1.104
 8715SOL    HW227045   4.081   0.882   1.168
 8716SOL     OW27046   7.014   0.208   0.764
 8716SOL    HW127047   7.004   0.206   0.864
 8716SOL    HW227048   0.073   0.257   0.740
 8717SOL     OW27049   2.998   3.970   5.334
 8717SOL    HW127050   3.058   4.046   5.357
 8717SOL    HW227051   2.992   3.960   5.235
 8718SOL     OW27052   1.387   3.137   5.466
 8718SOL    HW127053   1.361   3.209   5.401
 8718SOL    HW227054   1.362   3.164   5.558
 8719SOL     OW27055   4.120   0.191   0.627
 8719SOL    HW127056   4.120   0.104   0.578
 8719SOL    HW227057   4.074   0.261   0.571
 8720SOL     OW27058   0.981   6.150   6.315
 8720SOL    HW127059   0.957   6.214   6.242
 8720SOL    HW227060   1.044   6.193   6.379
 8721SOL     OW27061   6.415   2.240   1.605
 8721SOL    HW127062   6.420   2.313   1.674
 8721SOL    HW227063   6.505   2.195   1.599
 8722SOL     OW27064   3.510   1.384   1.245
 8722SOL    HW127065   3.538   1.463   1.300
 8722SOL    HW227066   3.504   1.410   1.149
 8723SOL     OW27067   4.696   6.473   2.132
 8723SOL    HW127068   4.670   6.461   2.227
 8723SOL    HW227069   4.663   6.395   2.078
 8724SOL     OW27070   5.675   6.621   4.458
 8724SOL    HW127071   5.593   6.641   4.511
 8724SOL    HW227072   5.667   6.661   4.367
 8725SOL     OW27073   1.858   5.764   5.665
 8725SOL    HW127074   1.934   5.729   5.720
 8725SOL    HW227075   1.775   5.712   5.686
 8726SOL     OW27076   0.244   0.811   3.186
 8726SOL    HW127077   0.291   0.899   3.197
 8726SOL    HW227078   0.146   0.827   3.174
 8727SOL     OW27079   6.169   0.140   1.969
 8727SOL    HW127080   6.265   0.148   1.995
 8727SOL    HW227081   6.142   0.221   1.918
 8728SOL     OW27082   6.368   1.027   2.344
 8728SOL    HW127083   6.411   0.953   2.293
 8728SOL    HW227084   6.428   1.055   2.419
 8729SOL     OW27085   3.324   5.046   5.500
 8729SOL    HW127086   3.372   5.025   5.415
 8729SOL    HW227087   3.391   5.069   5.571
 8730SOL     OW27088   5.274   3.668   2.584
 8730SOL    HW127089   5.353   3.689   2.527
 8730SOL    HW227090   5.196   3.723   2.554
 8731SOL     OW27091   0.693   3.353   2.795
 8731SOL    HW127092   0.718   3.297   2.874
 8731SOL    HW227093   0.686   3.449   2.824
 8732SOL     OW27094   5.419   4.926   2.025
 8732SOL    HW127095   5.381   4.873   1.949
 8732SOL    HW227096   5.431   4.867   2.105
 8733SOL     OW27097   1.794   5.952   1.099
 8733SOL    HW127098   1.701   5.951   1.137
 8733SOL    HW227099   1.815   5.862   1.060
 8734SOL     OW27100   1.100   3.329   2.707
 8734SOL    HW127101   1.098   3.428   2.718
 8734SOL    HW227102   1.011   3.298   2.673
 8735SOL     OW27103   0.838   3.271   6.899
 8735SOL    HW127104   0.863   3.333   6.825
 8735SOL    HW227105   0.818   3.324   6.982
 8736SOL     OW27106   0.433   5.338   1.560
 8736SOL    HW127107   0.454   5.436   1.561
 8736SOL    HW227108   0.496   5.291   1.498
 8737SOL     OW27109   1.772   6.705   0.344
 8737SOL    HW127110   1.698   6.713   0.277
 8737SOL    HW227111   1.778   6.611   0.377
 8738SOL     OW27112   2.609   5.673   4.349
 8738SOL    HW127113   2.581   5.767   4.326
 8738SOL    HW227114   2.536   5.610   4.323
 8739SOL     OW27115   5.592   5.512   6.171
 8739SOL    HW127116   5.625   5.538   6.079
 8739SOL    HW227117   5.542   5.426   6.165
 8740SOL     OW27118   3.955   1.368   4.488
 8740SOL    HW127119   3.884   1.361   4.418
 8740SOL    HW227120   4.027   1.430   4.457
 8741SOL     OW27121   2.159   1.240   2.639
 8741SOL    HW127122   2.226   1.263   2.568
 8741SOL    HW227123   2.068   1.233   2.599
 8742SOL     OW27124   4.686   7.021   1.853
 8742SOL    HW127125   4.681   6.923   1.832
 8742SOL    HW227126   4.647   0.048   1.778
 8743SOL     OW27127   1.150   6.945   1.631
 8743SOL    HW127128   1.108   6.932   1.720
 8743SOL    HW227129   1.220   7.017   1.637
 8744SOL     OW27130   4.296   2.746   0.394
 8744SOL    HW127131   4.372   2.789   0.345
 8744SOL    HW227132   4.209   2.780   0.356
 8745SOL     OW27133   6.241   1.614   6.255
 8745SOL    HW127134   6.247   1.689   6.322
 8745SOL    HW227135   6.272   1.529   6.297
 8746SOL     OW27136   4.393   5.142   4.639
 8746SOL    HW127137   4.422   5.238   4.641
 8746SOL    HW227138   4.301   5.135   4.601
 8747SOL     OW27139   6.606   1.721   2.930
 8747SOL    HW127140   6.513   1.743   2.958
 8747SOL    HW227141   6.604   1.664   2.848
 8748SOL     OW27142   0.328   1.749   4.418
 8748SOL    HW127143   0.251   1.812   4.409
 8748SOL    HW227144   0.402   1.795   4.467
 8749SOL     OW27145   2.114   0.262   4.976
 8749SOL    HW127146   2.089   0.166   4.983
 8749SOL    HW227147   2.051   0.318   5.030
 8750SOL     OW27148   3.476   4.322   5.639
 8750SOL    HW127149   3.505   4.365   5.725
 8750SOL    HW227150   3.550   4.265   5.603
 8751SOL     OW27151   6.103   1.797   2.048
 8751SOL    HW127152   6.171   1.726   2.067
 8751SOL    HW227153   6.022   1.755   2.006
 8752SOL     OW27154   3.212   3.245   6.373
 8752SOL    HW127155   3.141   3.184   6.409
 8752SOL    HW227156   3.208   3.247   6.274
 8753SOL     OW27157   2.924   1.879   6.451
 8753SOL    HW127158   3.019   1.887   6.483
 8753SOL    HW227159   2.924   1.860   6.353
 8754SOL     OW27160   1.469   4.095   5.026
 8754SOL    HW127161   1.547   4.123   5.083
 8754SOL    HW227162   1.467   4.151   4.943
 8755SOL     OW27163   2.083   1.166   1.271
 8755SOL    HW127164   2.089   1.074   1.232
 8755SOL    HW227165   1.987   1.195   1.273
 8756SOL     OW27166   2.098   3.168   3.745
 8756SOL    HW127167   2.129   3.144   3.837
 8756SOL    HW227168   2.055   3.089   3.702
 8757SOL     OW27169   3.859   5.521   6.753
 8757SOL    HW127170   3.805   5.450   6.709
 8757SOL    HW227171   3.937   5.480   6.800
 8758SOL     OW27172   5.157   5.980   2.963
 8758SOL    HW127173   5.063   5.947   2.960
 8758SOL    HW227174   5.162   6.072   2.926
 8759SOL     OW27175   4.831   2.968   6.953
 8759SOL    HW127176   4.862   2.932   0.016
 8759SOL    HW227177   4.902   2.953   6.885
 8760SOL     OW27178   3.046   1.029   5.055
 8760SOL    HW127179   2.958   0.982   5.047
 8760SOL    HW227180   3.038   1.122   5.019
 8761SOL     OW27181   6.199   2.072   1.214
 8761SOL    HW127182   6.246   2.143   1.160
 8761SOL    HW227183   6.232   2.075   1.308
 8762SOL     OW27184   0.749   4.717   3.755
 8762SOL    HW127185   0.710   4.797   3.801
 8762SOL    HW227186   0.675   4.659   3.721
 8763SOL     OW27187   6.163   6.930   6.160
 8763SOL    HW127188   6.156   6.977   6.248
 8763SOL    HW227189   6.157   6.996   6.086
 8764SOL     OW27190   4.661   0.472   5.654
 8764SOL    HW127191   4.707   0.384   5.655
 8764SOL    HW227192   4.726   0.543   5.627
 8765SOL     OW27193   4.995   0.534   4.006
 8765SOL    HW127194   5.003   0.493   3.915
 8765SOL    HW227195   4.914   0.592   4.009
 8766SOL     OW27196   4.588   4.286   5.106
 8766SOL    HW127197   4.517   4.355   5.118
 8766SOL    HW227198   4.631   4.297   5.016
 8767SOL     OW27199   5.853   5.913   2.572
 8767SOL    HW127200   5.929   5.960   2.616
 8767SOL    HW227201   5.828   5.832   2.626
 8768SOL     OW27202   1.601   2.684   0.237
 8768SOL    HW127203   1.571   2.713   0.328
 8768SOL    HW227204   1.631   2.764   0.185
 8769SOL     OW27205   6.893   0.757   3.213
 8769SOL    HW127206   6.910   0.773   3.310
 8769SOL    HW227207   6.926   0.666   3.188
 8770SOL     OW27208   4.586   4.395   2.207
 8770SOL    HW127209   4.503   4.356   2.167
 8770SOL    HW227210   4.624   4.331   2.274
 8771SOL     OW27211   1.670   1.945   6.294
 8771SOL    HW127212   1.624   2.029   6.263
 8771SOL    HW227213   1.767   1.963   6.306
 8772SOL     OW27214   4.361   0.624   6.420
 8772SOL    HW127215   4.438   0.686   6.407
 8772SOL    HW227216   4.324   0.635   6.512
 8773SOL     OW27217   5.373   2.706   3.878
 8773SOL    HW127218   5.427   2.649   3.817
 8773SOL    HW227219   5.379   2.671   3.971
 8774SOL     OW27220   1.424   0.809   0.211
 8774SOL    HW127221   1.454   0.831   0.304
 8774SOL    HW227222   1.502   0.774   0.159
 8775SOL     OW27223   5.452   1.151   5.662
 8775SOL    HW127224   5.452   1.248   5.688
 8775SOL    HW227225   5.542   1.112   5.682
 8776SOL     OW27226   4.639   3.374   0.608
 8776SOL    HW127227   4.725   3.345   0.651
 8776SOL    HW227228   4.659   3.439   0.535
 8777SOL     OW27229   6.233   4.450   3.190
 8777SOL    HW127230   6.321   4.410   3.165
 8777SOL    HW227231   6.227   4.543   3.155
 8778SOL     OW27232   5.367   3.159   6.069
 8778SOL    HW127233   5.307   3.149   6.148
 8778SOL    HW227234   5.445   3.217   6.093
 8779SOL     OW27235   2.574   5.205   2.310
 8779SOL    HW127236   2.540   5.112   2.296
 8779SOL    HW227237   2.605   5.214   2.405
 8780SOL     OW27238   0.601   0.013   3.268
 8780SOL    HW127239   0.671   0.063   3.319
 8780SOL    HW227240   0.551   0.076   3.209
 8781SOL     OW27241   5.275   0.900   4.571
 8781SOL    HW127242   5.331   0.818   4.579
 8781SOL    HW227243   5.187   0.885   4.617
 8782SOL     OW27244   6.908   0.578   2.240
 8782SOL    HW127245   6.965   0.515   2.293
 8782SOL    HW227246   6.952   0.598   2.153
 8783SOL     OW27247   6.743   4.236   3.430
 8783SOL    HW127248   6.699   4.318   3.465
 8783SOL    HW227249   6.708   4.156   3.478
 8784SOL     OW27250   6.989   6.367   6.054
 8784SOL    HW127251   6.961   6.454   6.095
 8784SOL    HW227252   6.929   6.294   6.085
 8785SOL     OW27253   5.948   4.932   0.175
 8785SOL    HW127254   5.872   4.896   0.120
 8785SOL    HW227255   6.032   4.931   0.121
 8786SOL     OW27256   2.640   1.303   0.470
 8786SOL    HW127257   2.625   1.389   0.421
 8786SOL    HW227258   2.726   1.307   0.521
 8787SOL     OW27259   2.971   1.585   2.180
 8787SOL    HW127260   3.017   1.645   2.246
 8787SOL    HW227261   2.995   1.613   2.087
 8788SOL     OW27262   0.199   0.814   5.651
 8788SOL    HW127263   0.256   0.742   5.610
 8788SOL    HW227264   0.104   0.800   5.624
 8789SOL     OW27265   6.222   5.188   5.274
 8789SOL    HW127266   6.133   5.162   5.311
 8789SOL    HW227267   6.295   5.147   5.328
 8790SOL     OW27268   6.232   0.400   6.439
 8790SOL    HW127269   6.269   0.308   6.448
 8790SOL    HW227270   6.147   0.408   6.490
 8791SOL     OW27271   5.885   6.756   5.146
 8791SOL    HW127272   5.959   6.778   5.210
 8791SOL    HW227273   5.919   6.764   5.052
 8792SOL     OW27274   3.183   5.213   3.104
 8792SOL    HW127275   3.092   5.254   3.114
 8792SOL    HW227276   3.175   5.114   3.107
 8793SOL     OW27277   0.689   4.436   1.927
 8793SOL    HW127278   0.706   4.390   2.014
 8793SOL    HW227279   0.742   4.520   1.923
 8794SOL     OW27280   5.438   0.009   2.763
 8794SOL    HW127281   5.438   0.024   2.862
 8794SOL    HW227282   5.404   6.942   2.744
 8795SOL     OW27283   1.006   4.151   5.711
 8795SOL    HW127284   1.051   4.241   5.718
 8795SOL    HW227285   0.960   4.144   5.623
 8796SOL     OW27286   4.866   2.181   3.771
 8796SOL    HW127287   4.839   2.198   3.676
 8796SOL    HW227288   4.861   2.083   3.790
 8797SOL     OW27289   0.195   0.366   6.421
 8797SOL    HW127290   0.107   0.319   6.412
 8797SOL    HW227291   0.257   0.331   6.351
 8798SOL     OW27292   4.900   6.359   6.338
 8798SOL    HW127293   4.843   6.438   6.312
 8798SOL    HW227294   4.976   6.351   6.275
 8799SOL     OW27295   2.298   5.184   3.620
 8799SOL    HW127296   2.353   5.243   3.679
 8799SOL    HW227297   2.350   5.164   3.537
 8800SOL     OW27298   6.045   4.589   6.218
 8800SOL    HW127299   6.106   4.512   6.203
 8800SOL    HW227300   6.016   4.627   6.130
 8801SOL     OW27301   0.237   1.584   4.830
 8801SOL    HW127302   0.279   1.673   4.813
 8801SOL    HW227303   0.146   1.582   4.789
 8802SOL     OW27304   1.931   6.448   6.005
 8802SOL    HW127305   1.932   6.476   6.101
 8802SOL    HW227306   1.837   6.427   5.978
 8803SOL     OW27307   6.964   6.729   0.320
 8803SOL    HW127308   6.949   6.721   0.222
 8803SOL    HW227309   6.877   6.717   0.368
 8804SOL     OW27310   2.520   6.548   1.431
 8804SOL    HW127311   2.499   6.474   1.367
 8804SOL    HW227312   2.620   6.555   1.442
 8805SOL     OW27313   3.510   6.402   3.262
 8805SOL    HW127314   3.540   6.495   3.241
 8805SOL    HW227315   3.432   6.406   3.325
 8806SOL     OW27316   3.207   4.568   0.848
 8806SOL    HW127317   3.195   4.543   0.944
 8806SOL    HW227318   3.278   4.512   0.807
 8807SOL     OW27319   4.849   1.625   0.378
 8807SOL    HW127320   4.925   1.677   0.339
 8807SOL    HW227321   4.775   1.620   0.311
 8808SOL     OW27322   6.591   2.705   6.656
 8808SOL    HW127323   6.654   2.646   6.707
 8808SOL    HW227324   6.590   2.678   6.560
 8809SOL     OW27325   3.331   4.966   3.737
 8809SOL    HW127326   3.303   5.057   3.766
 8809SOL    HW227327   3.425   4.948   3.766
 8810SOL     OW27328   6.193   0.282   5.296
 8810SOL    HW127329   6.130   0.209   5.272
 8810SOL    HW227330   6.182   0.305   5.393
 8811SOL     OW27331   3.488   1.235   3.006
 8811SOL    HW127332   3.453   1.145   3.033
 8811SOL    HW227333   3.426   1.275   2.938
 8812SOL     OW27334   1.696   0.812   0.792
 8812SOL    HW127335   1.701   0.723   0.837
 8812SOL    HW227336   1.635   0.872   0.843
 8813SOL     OW27337   1.941   5.748   3.116
 8813SOL    HW127338   1.998   5.745   3.198
 8813SOL    HW227339   1.934   5.843   3.084
 8814SOL     OW27340   6.540   0.011   0.865
 8814SOL    HW127341   6.587   6.975   0.928
 8814SOL    HW227342   6.493   0.082   0.918
 8815SOL     OW27343   5.013   6.933   1.428
 8815SOL    HW127344   5.094   6.981   1.462
 8815SOL    HW227345   5.041   6.848   1.384
 8816SOL     OW27346   0.824   6.561   6.985
 8816SOL    HW127347   0.875   6.498   0.017
 8816SOL    HW227348   0.886   6.607   6.921
 8817SOL     OW27349   7.009   4.188   3.955
 8817SOL    HW127350   0.083   4.189   3.948
 8817SOL    HW227351   6.981   4.127   4.030
 8818SOL     OW27352   1.005   5.065   4.101
 8818SOL    HW127353   0.938   5.031   4.166
 8818SOL    HW227354   0.982   5.160   4.076
 8819SOL     OW27355   5.308   5.296   5.601
 8819SOL    HW127356   5.291   5.270   5.506
 8819SOL    HW227357   5.348   5.218   5.650
 8820SOL     OW27358   2.899   0.943   5.447
 8820SOL    HW127359   2.808   0.981   5.430
 8820SOL    HW227360   2.938   0.984   5.529
 8821SOL     OW27361   2.163   5.750   0.912
 8821SOL    HW127362   2.091   5.745   0.842
 8821SOL    HW227363   2.145   5.684   0.984
 8822SOL     OW27364   1.040   1.096   4.138
 8822SOL    HW127365   0.942   1.087   4.120
 8822SOL    HW227366   1.070   1.189   4.118
 8823SOL     OW27367   2.591   1.103   2.704
 8823SOL    HW127368   2.690   1.099   2.715
 8823SOL    HW227369   2.570   1.140   2.613
 8824SOL     OW27370   1.642   1.087   0.234
 8824SOL    HW127371   1.627   1.089   0.135
 8824SOL    HW227372   1.695   1.006   0.258
 8825SOL     OW27373   1.541   0.810   2.308
 8825SOL    HW127374   1.542   0.908   2.327
 8825SOL    HW227375   1.553   0.794   2.210
 8826SOL     OW27376   0.419   3.950   0.322
 8826SOL    HW127377   0.481   3.998   0.383
 8826SOL    HW227378   0.325   3.965   0.351
 8827SOL     OW27379   4.177   0.446   3.245
 8827SOL    HW127380   4.156   0.529   3.194
 8827SOL    HW227381   4.225   0.381   3.185
 8828SOL     OW27382   3.717   5.371   6.577
 8828SOL    HW127383   3.630   5.365   6.528
 8828SOL    HW227384   3.792   5.357   6.512
 8829SOL     OW27385   5.462   2.049   1.119
 8829SOL    HW127386   5.533   2.047   1.189
 8829SOL    HW227387   5.400   1.972   1.131
 8830SOL     OW27388   2.208   1.745   2.356
 8830SOL    HW127389   2.270   1.785   2.289
 8830SOL    HW227390   2.114   1.772   2.336
 8831SOL     OW27391   5.194   2.662   3.477
 8831SOL    HW127392   5.104   2.703   3.461
 8831SOL    HW227393   5.186   2.585   3.539
 8832SOL     OW27394   0.078   6.458   3.874
 8832SOL    HW127395   0.166   6.412   3.883
 8832SOL    HW227396   0.075   6.536   3.937
 8833SOL     OW27397   2.602   5.530   6.558
 8833SOL    HW127398   2.599   5.465   6.634
 8833SOL    HW227399   2.536   5.502   6.488
 8834SOL     OW27400   5.875   3.995   4.470
 8834SOL    HW127401   5.938   4.033   4.402
 8834SOL    HW227402   5.911   3.908   4.503
 8835SOL     OW27403   5.326   0.972   5.867
 8835SOL    HW127404   5.396   1.008   5.806
 8835SOL    HW227405   5.258   0.921   5.813
 8836SOL     OW27406   5.179   2.138   0.566
 8836SOL    HW127407   5.182   2.233   0.596
 8836SOL    HW227408   5.199   2.078   0.643
 8837SOL     OW27409   0.148   6.820   2.770
 8837SOL    HW127410   0.184   6.864   2.852
 8837SOL    HW227411   0.192   6.731   2.757
 8838SOL     OW27412   1.999   4.825   3.801
 8838SOL    HW127413   2.086   4.810   3.848
 8838SOL    HW227414   2.015   4.839   3.703
 8839SOL     OW27415   4.282   5.619   1.622
 8839SOL    HW127416   4.281   5.697   1.560
 8839SOL    HW227417   4.375   5.584   1.631
 8840SOL     OW27418   7.014   0.880   2.941
 8840SOL    HW127419   6.948   0.955   2.939
 8840SOL    HW227420   6.967   0.795   2.963
 8841SOL     OW27421   0.682   1.440   4.622
 8841SOL    HW127422   0.639   1.427   4.533
 8841SOL    HW227423   0.762   1.379   4.630
 8842SOL     OW27424   3.208   3.072   3.350
 8842SOL    HW127425   3.243   3.032   3.434
 8842SOL    HW227426   3.247   3.024   3.271
 8843SOL     OW27427   1.547   3.133   4.779
 8843SOL    HW127428   1.582   3.182   4.699
 8843SOL    HW227429   1.570   3.036   4.770
 8844SOL     OW27430   0.552   1.432   5.053
 8844SOL    HW127431   0.606   1.390   5.126
 8844SOL    HW227432   0.487   1.496   5.092
 8845SOL     OW27433   2.836   3.760   1.386
 8845SOL    HW127434   2.836   3.852   1.424
 8845SOL    HW227435   2.873   3.696   1.453
 8846SOL     OW27436   3.767   4.998   4.459
 8846SOL    HW127437   3.669   5.007   4.445
 8846SOL    HW227438   3.804   5.083   4.495
 8847SOL     OW27439   2.495   1.123   2.947
 8847SOL    HW127440   2.532   1.114   2.855
 8847SOL    HW227441   2.421   1.190   2.948
 8848SOL     OW27442   2.523   2.418   2.480
 8848SOL    HW127443   2.518   2.421   2.380
 8848SOL    HW227444   2.458   2.485   2.518
 8849SOL     OW27445   3.586   5.659   3.716
 8849SOL    HW127446   3.683   5.665   3.694
 8849SOL    HW227447   3.533   5.653   3.631
 8850SOL     OW27448   2.036   0.839   6.586
 8850SOL    HW127449   1.944   0.825   6.550
 8850SOL    HW227450   2.058   0.936   6.588
 8851SOL     OW27451   0.769   5.115   2.242
 8851SOL    HW127452   0.778   5.159   2.331
 8851SOL    HW227453   0.859   5.085   2.210
 8852SOL     OW27454   3.956   3.948   5.988
 8852SOL    HW127455   3.971   3.929   6.085
 8852SOL    HW227456   3.985   4.042   5.968
 8853SOL     OW27457   3.345   1.121   6.082
 8853SOL    HW127458   3.376   1.055   6.014
 8853SOL    HW227459   3.289   1.075   6.151
 8854SOL     OW27460   3.038   1.768   6.181
 8854SOL    HW127461   3.097   1.835   6.137
 8854SOL    HW227462   3.028   1.689   6.121
 8855SOL     OW27463   0.124   6.076   0.396
 8855SOL    HW127464   0.036   6.048   0.436
 8855SOL    HW227465   0.198   6.025   0.441
 8856SOL     OW27466   6.282   0.648   6.334
 8856SOL    HW127467   6.355   0.713   6.358
 8856SOL    HW227468   6.287   0.569   6.395
 8857SOL     OW27469   6.753   1.841   3.631
 8857SOL    HW127470   6.843   1.839   3.675
 8857SOL    HW227471   6.760   1.888   3.543
 8858SOL     OW27472   1.259   2.443   5.409
 8858SOL    HW127473   1.177   2.496   5.389
 8858SOL    HW227474   1.340   2.501   5.400
 8859SOL     OW27475   6.746   0.842   4.129
 8859SOL    HW127476   6.731   0.867   4.225
 8859SOL    HW227477   6.688   0.764   4.105
 8860SOL     OW27478   0.786   2.962   2.650
 8860SOL    HW127479   0.870   2.908   2.657
 8860SOL    HW227480   0.722   2.932   2.720
 8861SOL     OW27481   3.921   1.917   5.999
 8861SOL    HW127482   3.995   1.971   5.959
 8861SOL    HW227483   3.957   1.857   6.071
 8862SOL     OW27484   6.406   0.482   3.487
 8862SOL    HW127485   6.443   0.539   3.414
 8862SOL    HW227486   6.378   0.393   3.450
 8863SOL     OW27487   1.409   5.094   4.363
 8863SOL    HW127488   1.375   5.159   4.296
 8863SOL    HW227489   1.509   5.087   4.355
 8864SOL     OW27490   3.289   3.216   6.101
 8864SOL    HW127491   3.281   3.133   6.047
 8864SOL    HW227492   3.277   3.296   6.041
 8865SOL     OW27493   2.812   1.566   5.939
 8865SOL    HW127494   2.846   1.644   5.991
 8865SOL    HW227495   2.853   1.482   5.975
 8866SOL     OW27496   5.263   6.822   3.184
 8866SOL    HW127497   5.226   6.730   3.175
 8866SOL    HW227498   5.361   6.817   3.205
 8867SOL     OW27499   5.127   3.368   2.277
 8867SOL    HW127500   5.046   3.397   2.226
 8867SOL    HW227501   5.129   3.414   2.365
 8868SOL     OW27502   6.487   2.673   0.315
 8868SOL    HW127503   6.465   2.604   0.383
 8868SOL    HW227504   6.561   2.732   0.349
 8869SOL     OW27505   4.227   5.690   4.811
 8869SOL    HW127506   4.161   5.616   4.819
 8869SOL    HW227507   4.228   5.724   4.717
 8870SOL     OW27508   4.185   0.554   6.960
 8870SOL    HW127509   4.198   0.575   6.863
 8870SOL    HW227510   4.137   0.467   6.969
 8871SOL     OW27511   1.472   0.419   4.059
 8871SOL    HW127512   1.509   0.326   4.054
 8871SOL    HW227513   1.373   0.415   4.072
 8872SOL     OW27514   1.693   4.505   5.237
 8872SOL    HW127515   1.749   4.471   5.161
 8872SOL    HW227516   1.618   4.560   5.202
 8873SOL     OW27517   0.861   5.713   2.485
 8873SOL    HW127518   0.807   5.723   2.568
 8873SOL    HW227519   0.832   5.781   2.418
 8874SOL     OW27520   2.874   5.913   1.788
 8874SOL    HW127521   2.926   5.971   1.851
 8874SOL    HW227522   2.857   5.963   1.703
 8875SOL     OW27523   6.349   3.546   4.774
 8875SOL    HW127524   6.329   3.639   4.743
 8875SOL    HW227525   6.402   3.549   4.859
 8876SOL     OW27526   1.907   0.014   4.381
 8876SOL    HW127527   1.910   0.091   4.317
 8876SOL    HW227528   1.983   6.977   4.361
 8877SOL     OW27529   2.842   0.624   3.967
 8877SOL    HW127530   2.780   0.650   4.042
 8877SOL    HW227531   2.907   0.699   3.950
 8878SOL     OW27532   6.406   5.126   6.945
 8878SOL    HW127533   6.419   5.094   6.851
 8878SOL    HW227534   6.492   5.162   6.980
 8879SOL     OW27535   5.083   4.177   1.696
 8879SOL    HW127536   4.994   4.168   1.742
 8879SOL    HW227537   5.126   4.263   1.723
 8880SOL     OW27538   5.784   5.482   4.501
 8880SOL    HW127539   5.842   5.541   4.557
 8880SOL    HW227540   5.688   5.499   4.522
 8881SOL     OW27541   6.657   0.195   4.097
 8881SOL    HW127542   6.564   0.219   4.127
 8881SOL    HW227543   6.670   0.097   4.105
 8882SOL     OW27544   5.479   1.346   0.777
 8882SOL    HW127545   5.488   1.440   0.745
 8882SOL    HW227546   5.385   1.314   0.760
 8883SOL     OW27547   1.974   6.607   6.256
 8883SOL    HW127548   2.071   6.608   6.232
 8883SOL    HW227549   1.928   6.684   6.211
 8884SOL     OW27550   6.346   4.165   6.253
 8884SOL    HW127551   6.402   4.096   6.299
 8884SOL    HW227552   6.332   4.243   6.314
 8885SOL     OW27553   0.328   2.907   0.520
 8885SOL    HW127554   0.323   2.859   0.608
 8885SOL    HW227555   0.423   2.935   0.503
 8886SOL     OW27556   3.064   6.343   4.612
 8886SOL    HW127557   3.106   6.433   4.599
 8886SOL    HW227558   2.998   6.347   4.687
 8887SOL     OW27559   3.295   1.593   1.336
 8887SOL    HW127560   3.317   1.537   1.416
 8887SOL    HW227561   3.221   1.550   1.285
 8888SOL     OW27562   1.277   1.615   0.178
 8888SOL    HW127563   1.287   1.642   0.082
 8888SOL    HW227564   1.272   1.697   0.235
 8889SOL     OW27565   6.105   0.338   5.579
 8889SOL    HW127566   6.014   0.301   5.599
 8889SOL    HW227567   6.146   0.372   5.663
 8890SOL     OW27568   6.388   5.458   3.910
 8890SOL    HW127569   6.450   5.407   3.851
 8890SOL    HW227570   6.304   5.405   3.923
 8891SOL     OW27571   5.393   3.413   5.806
 8891SOL    HW127572   5.467   3.391   5.743
 8891SOL    HW227573   5.306   3.414   5.757
 8892SOL     OW27574   3.983   5.628   3.190
 8892SOL    HW127575   4.023   5.619   3.281
 8892SOL    HW227576   3.883   5.629   3.197
 8893SOL     OW27577   0.964   6.041   3.742
 8893SOL    HW127578   0.980   6.051   3.644
 8893SOL    HW227579   0.894   6.107   3.770
 8894SOL     OW27580   4.601   2.593   6.072
 8894SOL    HW127581   4.507   2.604   6.103
 8894SOL    HW227582   4.623   2.665   6.005
 8895SOL     OW27583   6.552   2.192   2.209
 8895SOL    HW127584   6.511   2.146   2.131
 8895SOL    HW227585   6.505   2.163   2.293
 8896SOL     OW27586   2.117   3.527   5.579
 8896SOL    HW127587   2.022   3.501   5.593
 8896SOL    HW227588   2.166   3.452   5.534
 8897SOL     OW27589   2.195   3.025   3.307
 8897SOL    HW127590   2.247   2.941   3.292
 8897SOL    HW227591   2.195   3.048   3.404
 8898SOL     OW27592   5.209   3.892   3.583
 8898SOL    HW127593   5.300   3.865   3.551
 8898SOL    HW227594   5.148   3.903   3.505
 8899SOL     OW27595   2.104   5.236   1.068
 8899SOL    HW127596   2.134   5.145   1.040
 8899SOL    HW227597   2.066   5.285   0.990
 8900SOL     OW27598   6.211   3.451   2.576
 8900SOL    HW127599   6.222   3.531   2.517
 8900SOL    HW227600   6.238   3.369   2.526
 8901SOL     OW27601   1.870   0.903   4.505
 8901SOL    HW127602   1.919   0.939   4.426
 8901SOL    HW227603   1.933   0.893   4.582
 8902SOL     OW27604   2.564   0.524   0.718
 8902SOL    HW127605   2.465   0.514   0.715
 8902SOL    HW227606   2.595   0.520   0.813
 8903SOL     OW27607   1.489   1.517   5.034
 8903SOL    HW127608   1.420   1.558   4.974
 8903SOL    HW227609   1.472   1.418   5.041
 8904SOL     OW27610   5.604   6.192   4.058
 8904SOL    HW127611   5.624   6.136   4.139
 8904SOL    HW227612   5.528   6.151   4.007
 8905SOL     OW27613   1.735   4.508   3.586
 8905SOL    HW127614   1.727   4.463   3.497
 8905SOL    HW227615   1.772   4.600   3.573
 8906SOL     OW27616   0.114   6.361   0.297
 8906SOL    HW127617   0.193   6.353   0.236
 8906SOL    HW227618   0.097   6.273   0.341
 8907SOL     OW27619   2.945   2.134   4.663
 8907SOL    HW127620   2.969   2.203   4.594
 8907SOL    HW227621   2.994   2.154   4.748
 8908SOL     OW27622   0.861   3.717   6.508
 8908SOL    HW127623   0.958   3.738   6.516
 8908SOL    HW227624   0.809   3.801   6.498
 8909SOL     OW27625   2.582   0.934   5.693
 8909SOL    HW127626   2.668   0.932   5.745
 8909SOL    HW227627   2.600   0.968   5.601
 8910SOL     OW27628   0.445   2.808   5.842
 8910SOL    HW127629   0.362   2.853   5.809
 8910SOL    HW227630   0.486   2.862   5.916
 8911SOL     OW27631   4.108   2.240   4.815
 8911SOL    HW127632   4.135   2.284   4.901
 8911SOL    HW227633   4.008   2.231   4.813
 8912SOL     OW27634   3.774   2.775   0.077
 8912SOL    HW127635   3.685   2.810   0.105
 8912SOL    HW227636   3.781   2.679   0.102
 8913SOL     OW27637   4.805   5.010   6.000
 8913SOL    HW127638   4.808   4.910   5.994
 8913SOL    HW227639   4.898   5.045   6.012
 8914SOL     OW27640   4.300   0.018   4.599
 8914SOL    HW127641   4.335   6.983   4.671
 8914SOL    HW227642   4.310   7.000   4.510
 8915SOL     OW27643   0.380   3.064   3.385
 8915SOL    HW127644   0.420   3.062   3.477
 8915SOL    HW227645   0.281   3.076   3.392
 8916SOL     OW27646   0.340   3.811   1.070
 8916SOL    HW127647   0.251   3.769   1.086
 8916SOL    HW227648   0.412   3.742   1.084
 8917SOL     OW27649   6.928   3.526   6.994
 8917SOL    HW127650   6.993   3.601   6.988
 8917SOL    HW227651   6.928   3.488   0.061
 8918SOL     OW27652   6.137   3.944   1.405
 8918SOL    HW127653   6.055   3.984   1.364
 8918SOL    HW227654   6.206   3.929   1.334
 8919SOL     OW27655   3.781   4.464   0.199
 8919SOL    HW127656   3.855   4.493   0.139
 8919SOL    HW227657   3.705   4.529   0.193
 8920SOL     OW27658   0.588   0.417   0.328
 8920SOL    HW127659   0.599   0.508   0.367
 8920SOL    HW227660   0.498   0.380   0.351
 8921SOL     OW27661   2.229   2.035   2.689
 8921SOL    HW127662   2.178   1.978   2.624
 8921SOL    HW227663   2.196   2.129   2.684
 8922SOL     OW27664   3.595   5.391   1.232
 8922SOL    HW127665   3.651   5.325   1.282
 8922SOL    HW227666   3.508   5.348   1.207
 8923SOL     OW27667   1.739   3.365   6.284
 8923SOL    HW127668   1.824   3.318   6.308
 8923SOL    HW227669   1.735   3.453   6.332
 8924SOL     OW27670   3.500   5.866   5.873
 8924SOL    HW127671   3.432   5.851   5.801
 8924SOL    HW227672   3.572   5.797   5.866
 8925SOL     OW27673   0.995   1.359   2.359
 8925SOL    HW127674   0.920   1.382   2.422
 8925SOL    HW227675   1.082   1.364   2.409
 8926SOL     OW27676   6.673   4.243   5.697
 8926SOL    HW127677   6.576   4.235   5.671
 8926SOL    HW227678   6.684   4.322   5.758
 8927SOL     OW27679   1.121   1.472   4.519
 8927SOL    HW127680   1.098   1.561   4.480
 8927SOL    HW227681   1.051   1.405   4.491
 8928SOL     OW27682   0.009   0.748   6.180
 8928SOL    HW127683   0.072   0.675   6.205
 8928SOL    HW227684   0.028   0.780   6.088
 8929SOL     OW27685   6.150   3.288   4.235
 8929SOL    HW127686   6.247   3.312   4.247
 8929SOL    HW227687   6.111   3.261   4.322
 8930SOL     OW27688   1.510   4.133   3.748
 8930SOL    HW127689   1.506   4.052   3.689
 8930SOL    HW227690   1.570   4.115   3.826
 8931SOL     OW27691   3.276   2.965   0.929
 8931SOL    HW127692   3.253   2.868   0.932
 8931SOL    HW227693   3.319   2.993   1.015
 8932SOL     OW27694   6.009   0.412   0.921
 8932SOL    HW127695   6.108   0.426   0.919
 8932SOL    HW227696   5.982   0.352   0.846
 8933SOL     OW27697   1.679   2.987   6.151
 8933SOL    HW127698   1.756   3.014   6.209
 8933SOL    HW227699   1.627   3.069   6.126
 8934SOL     OW27700   3.240   4.926   4.471
 8934SOL    HW127701   3.188   4.930   4.386
 8934SOL    HW227702   3.337   4.942   4.452
 8935SOL     OW27703   6.275   4.047   1.058
 8935SOL    HW127704   6.362   3.997   1.058
 8935SOL    HW227705   6.265   4.096   1.144
 8936SOL     OW27706   1.265   3.124   1.826
 8936SOL    HW127707   1.340   3.178   1.788
 8936SOL    HW227708   1.282   3.027   1.809
 8937SOL     OW27709   0.170   0.086   5.190
 8937SOL    HW127710   0.231   0.126   5.121
 8937SOL    HW227711   0.193   7.015   5.202
 8938SOL     OW27712   0.222   1.688   0.611
 8938SOL    HW127713   0.149   1.646   0.664
 8938SOL    HW227714   0.305   1.694   0.667
 8939SOL     OW27715   5.964   4.721   4.324
 8939SOL    HW127716   5.923   4.679   4.243
 8939SOL    HW227717   5.982   4.650   4.392
 8940SOL     OW27718   5.474   0.852   1.508
 8940SOL    HW127719   5.454   0.771   1.453
 8940SOL    HW227720   5.404   0.922   1.493
 8941SOL     OW27721   6.234   2.447   3.531
 8941SOL    HW127722   6.173   2.370   3.548
 8941SOL    HW227723   6.295   2.459   3.610
 8942SOL     OW27724   7.002   5.604   5.853
 8942SOL    HW127725   7.015   5.511   5.888
 8942SOL    HW227726   6.904   5.622   5.844
 8943SOL     OW27727   3.904   5.386   0.344
 8943SOL    HW127728   3.885   5.479   0.312
 8943SOL    HW227729   3.857   5.370   0.431
 8944SOL     OW27730   4.901   6.197   4.095
 8944SOL    HW127731   4.881   6.179   4.191
 8944SOL    HW227732   5.000   6.193   4.080
 8945SOL     OW27733   0.164   1.372   3.517
 8945SOL    HW127734   0.181   1.273   3.516
 8945SOL    HW227735   0.096   1.393   3.587
 8946SOL     OW27736   3.646   0.414   3.992
 8946SOL    HW127737   3.704   0.397   3.912
 8946SOL    HW227738   3.683   0.366   4.071
 8947SOL     OW27739   2.567   3.521   5.749
 8947SOL    HW127740   2.546   3.447   5.685
 8947SOL    HW227741   2.495   3.526   5.819
 8948SOL     OW27742   6.066   5.484   3.484
 8948SOL    HW127743   6.152   5.441   3.510
 8948SOL    HW227744   5.994   5.414   3.480
 8949SOL     OW27745   3.930   6.236   0.674
 8949SOL    HW127746   3.866   6.256   0.747
 8949SOL    HW227747   3.947   6.137   0.670
 8950SOL     OW27748   3.345   3.385   0.574
 8950SOL    HW127749   3.372   3.389   0.478
 8950SOL    HW227750   3.261   3.438   0.588
 8951SOL     OW27751   2.047   1.296   4.525
 8951SOL    HW127752   2.005   1.377   4.485
 8951SOL    HW227753   2.059   1.226   4.455
 8952SOL     OW27754   0.541   4.851   3.555
 8952SOL    HW127755   0.635   4.829   3.582
 8952SOL    HW227756   0.491   4.888   3.633
 8953SOL     OW27757   0.955   4.626   0.525
 8953SOL    HW127758   1.008   4.704   0.558
 8953SOL    HW227759   0.930   4.640   0.429
 8954SOL     OW27760   6.775   0.601   4.371
 8954SOL    HW127761   6.861   0.552   4.369
 8954SOL    HW227762   6.789   0.694   4.338
 8955SOL     OW27763   6.947   4.776   3.301
 8955SOL    HW127764   6.993   4.710   3.360
 8955SOL    HW227765   6.968   4.756   3.205
 8956SOL     OW27766   2.022   1.380   5.838
 8956SOL    HW127767   2.093   1.431   5.887
 8956SOL    HW227768   1.975   1.442   5.775
 8957SOL     OW27769   2.014   4.647   1.145
 8957SOL    HW127770   2.060   4.566   1.180
 8957SOL    HW227771   1.998   4.711   1.220
 8958SOL     OW27772   0.647   2.331   5.664
 8958SOL    HW127773   0.708   2.370   5.732
 8958SOL    HW227774   0.598   2.404   5.616
 8959SOL     OW27775   1.669   4.511   3.006
 8959SOL    HW127776   1.621   4.597   2.991
 8959SOL    HW227777   1.603   4.440   3.029
 8960SOL     OW27778   5.119   5.757   4.036
 8960SOL    HW127779   5.052   5.685   4.048
 8960SOL    HW227780   5.089   5.820   3.965
 8961SOL     OW27781   3.541   1.237   3.694
 8961SOL    HW127782   3.535   1.155   3.638
 8961SOL    HW227783   3.636   1.268   3.697
 8962SOL     OW27784   6.087   5.407   2.430
 8962SOL    HW127785   6.162   5.357   2.386
 8962SOL    HW227786   6.000   5.363   2.410
 8963SOL     OW27787   3.886   0.115   4.534
 8963SOL    HW127788   3.922   0.111   4.440
 8963SOL    HW227789   3.791   0.083   4.534
 8964SOL     OW27790   5.925   2.632   3.005
 8964SOL    HW127791   5.935   2.624   2.905
 8964SOL    HW227792   6.004   2.591   3.050
 8965SOL     OW27793   2.524   5.465   7.012
 8965SOL    HW127794   2.588   5.523   0.036
 8965SOL    HW227795   2.489   5.393   0.047
 8966SOL     OW27796   6.547   4.073   0.384
 8966SOL    HW127797   6.528   3.979   0.411
 8966SOL    HW227798   6.627   4.075   0.325
 8967SOL     OW27799   3.586   0.531   1.739
 8967SOL    HW127800   3.558   0.442   1.702
 8967SOL    HW227801   3.674   0.558   1.700
 8968SOL     OW27802   4.552   5.913   2.822
 8968SOL    HW127803   4.622   5.903   2.893
 8968SOL    HW227804   4.506   5.826   2.807
 8969SOL     OW27805   0.190   0.397   3.543
 8969SOL    HW127806   0.183   0.479   3.486
 8969SOL    HW227807   0.263   0.338   3.508
 8970SOL     OW27808   2.464   3.088   6.873
 8970SOL    HW127809   2.519   3.172   6.878
 8970SOL    HW227810   2.437   3.072   6.778
 8971SOL     OW27811   6.024   5.146   0.955
 8971SOL    HW127812   6.030   5.223   0.891
 8971SOL    HW227813   6.115   5.122   0.988
 8972SOL     OW27814   4.412   4.083   0.655
 8972SOL    HW127815   4.491   4.021   0.650
 8972SOL    HW227816   4.426   4.149   0.728
 8973SOL     OW27817   6.636   3.617   3.389
 8973SOL    HW127818   6.641   3.716   3.373
 8973SOL    HW227819   6.714   3.588   3.446
 8974SOL     OW27820   1.563   3.395   4.052
 8974SOL    HW127821   1.564   3.382   3.953
 8974SOL    HW227822   1.653   3.425   4.083
 8975SOL     OW27823   0.595   6.712   6.915
 8975SOL    HW127824   0.623   6.805   6.936
 8975SOL    HW227825   0.673   6.650   6.927
 8976SOL     OW27826   0.017   5.304   0.288
 8976SOL    HW127827   0.009   5.308   0.388
 8976SOL    HW227828   6.961   5.344   0.247
 8977SOL     OW27829   6.517   3.019   6.475
 8977SOL    HW127830   6.531   3.096   6.538
 8977SOL    HW227831   6.423   2.986   6.484
 8978SOL     OW27832   5.240   6.717   4.340
 8978SOL    HW127833   5.194   6.655   4.277
 8978SOL    HW227834   5.267   6.800   4.292
 8979SOL     OW27835   0.870   4.909   5.872
 8979SOL    HW127836   0.826   4.989   5.830
 8979SOL    HW227837   0.835   4.897   5.965
 8980SOL     OW27838   4.784   2.659   5.657
 8980SOL    HW127839   4.878   2.628   5.661
 8980SOL    HW227840   4.722   2.582   5.668
 8981SOL     OW27841   4.753   2.073   5.065
 8981SOL    HW127842   4.750   2.021   4.980
 8981SOL    HW227843   4.680   2.041   5.126
 8982SOL     OW27844   1.092   1.589   1.401
 8982SOL    HW127845   1.174   1.646   1.394
 8982SOL    HW227846   1.018   1.630   1.348
 8983SOL     OW27847   0.516   5.840   0.129
 8983SOL    HW127848   0.589   5.891   0.174
 8983SOL    HW227849   0.555   5.764   0.078
 8984SOL     OW27850   5.855   6.148   3.984
 8984SOL    HW127851   5.916   6.222   4.014
 8984SOL    HW227852   5.762   6.167   4.013
 8985SOL     OW27853   2.223   1.643   0.807
 8985SOL    HW127854   2.233   1.545   0.826
 8985SOL    HW227855   2.224   1.694   0.893
 8986SOL     OW27856   4.324   4.877   2.562
 8986SOL    HW127857   4.282   4.928   2.637
 8986SOL    HW227858   4.303   4.924   2.476
 8987SOL     OW27859   3.612   0.508   1.059
 8987SOL    HW127860   3.693   0.467   1.101
 8987SOL    HW227861   3.602   0.474   0.965
 8988SOL     OW27862   1.535   4.598   0.317
 8988SOL    HW127863   1.528   4.546   0.232
 8988SOL    HW227864   1.589   4.547   0.384
 8989SOL     OW27865   4.800   4.032   2.108
 8989SOL    HW127866   4.732   4.091   2.064
 8989SOL    HW227867   4.829   3.961   2.044
 8990SOL     OW27868   2.165   5.558   2.150
 8990SOL    HW127869   2.099   5.573   2.076
 8990SOL    HW227870   2.249   5.608   2.130
 8991SOL     OW27871   2.212   1.279   0.067
 8991SOL    HW127872   2.213   1.195   0.122
 8991SOL    HW227873   2.235   1.356   0.126
 8992SOL     OW27874   6.867   2.268   6.489
 8992SOL    HW127875   6.782   2.250   6.539
 8992SOL    HW227876   6.937   2.201   6.517
 8993SOL     OW27877   4.629   2.634   2.535
 8993SOL    HW127878   4.613   2.593   2.625
 8993SOL    HW227879   4.708   2.590   2.492
 8994SOL     OW27880   0.605   5.653   4.535
 8994SOL    HW127881   0.524   5.697   4.495
 8994SOL    HW227882   0.577   5.590   4.607
 8995SOL     OW27883   1.431   2.586   6.071
 8995SOL    HW127884   1.440   2.643   6.153
 8995SOL    HW227885   1.335   2.559   6.059
 8996SOL     OW27886   6.618   4.784   1.983
 8996SOL    HW127887   6.705   4.808   2.027
 8996SOL    HW227888   6.626   4.799   1.884
 8997SOL     OW27889   4.157   1.506   6.281
 8997SOL    HW127890   4.227   1.481   6.213
 8997SOL    HW227891   4.113   1.591   6.253
 8998SOL     OW27892   0.368   3.242   4.257
 8998SOL    HW127893   0.453   3.268   4.211
 8998SOL    HW227894   0.307   3.321   4.263
 8999SOL     OW27895   4.669   0.554   0.281
 8999SOL    HW127896   4.697   0.458   0.288
 8999SOL    HW227897   4.585   0.568   0.334
 9000SOL     OW27898   2.274   4.033   6.111
 9000SOL    HW127899   2.366   4.064   6.088
 9000SOL    HW227900   2.255   4.051   6.207
 9001SOL     OW27901   0.561   5.408   2.841
 9001SOL    HW127902   0.627   5.349   2.795
 9001SOL    HW227903   0.528   5.477   2.777
 9002SOL     OW27904   0.148   5.129   5.030
 9002SOL    HW127905   0.187   5.043   5.064
 9002SOL    HW227906   0.186   5.149   4.940
 9003SOL     OW27907   5.418   2.301   1.058
 9003SOL    HW127908   5.450   2.212   1.088
 9003SOL    HW227909   5.337   2.327   1.110
 9004SOL     OW27910   4.834   6.621   1.553
 9004SOL    HW127911   4.873   6.557   1.619
 9004SOL    HW227912   4.822   6.710   1.596
 9005SOL     OW27913   5.774   2.116   4.507
 9005SOL    HW127914   5.748   2.206   4.544
 9005SOL    HW227915   5.864   2.124   4.463
 9006SOL     OW27916   2.138   6.189   0.142
 9006SOL    HW127917   2.180   6.098   0.149
 9006SOL    HW227918   2.204   6.258   0.170
 9007SOL     OW27919   3.624   6.013   3.762
 9007SOL    HW127920   3.548   5.976   3.709
 9007SOL    HW227921   3.651   5.948   3.833
 9008SOL     OW27922   6.436   5.008   2.489
 9008SOL    HW127923   6.479   4.923   2.459
 9008SOL    HW227924   6.500   5.060   2.546
 9009SOL     OW27925   2.338   0.120   0.680
 9009SOL    HW127926   2.352   0.022   0.663
 9009SOL    HW227927   2.248   0.147   0.646
 9010SOL     OW27928   0.939   6.879   4.833
 9010SOL    HW127929   1.016   6.816   4.820
 9010SOL    HW227930   0.858   6.827   4.861
 9011SOL     OW27931   4.239   1.919   2.085
 9011SOL    HW127932   4.330   1.953   2.059
 9011SOL    HW227933   4.183   1.908   2.003
 9012SOL     OW27934   3.264   4.212   0.901
 9012SOL    HW127935   3.169   4.186   0.885
 9012SOL    HW227936   3.308   4.232   0.814
 9013SOL     OW27937   6.516   6.407   4.384
 9013SOL    HW127938   6.434   6.359   4.414
 9013SOL    HW227939   6.508   6.504   4.405
 9014SOL     OW27940   1.139   0.839   0.255
 9014SOL    HW127941   1.115   0.799   0.343
 9014SOL    HW227942   1.239   0.837   0.244
 9015SOL     OW27943   5.884   1.343   1.168
 9015SOL    HW127944   5.807   1.346   1.105
 9015SOL    HW227945   5.970   1.333   1.117
 9016SOL     OW27946   0.769   6.415   6.643
 9016SOL    HW127947   0.700   6.451   6.705
 9016SOL    HW227948   0.730   6.341   6.589
 9017SOL     OW27949   4.882   2.862   1.932
 9017SOL    HW127950   4.936   2.839   2.013
 9017SOL    HW227951   4.836   2.950   1.947
 9018SOL     OW27952   4.395   1.133   5.292
 9018SOL    HW127953   4.345   1.204   5.243
 9018SOL    HW227954   4.493   1.142   5.274
 9019SOL     OW27955   0.410   0.693   0.854
 9019SOL    HW127956   0.486   0.753   0.879
 9019SOL    HW227957   0.329   0.718   0.908
 9020SOL     OW27958   1.193   3.783   1.395
 9020SOL    HW127959   1.241   3.865   1.363
 9020SOL    HW227960   1.187   3.785   1.495
 9021SOL     OW27961   6.874   0.493   3.854
 9021SOL    HW127962   6.880   0.403   3.897
 9021SOL    HW227963   6.846   0.483   3.759
 9022SOL     OW27964   2.779   1.094   1.291
 9022SOL    HW127965   2.861   1.038   1.277
 9022SOL    HW227966   2.706   1.038   1.329
 9023SOL     OW27967   3.295   3.046   2.605
 9023SOL    HW127968   3.359   3.122   2.618
 9023SOL    HW227969   3.203   3.075   2.630
 9024SOL     OW27970   0.523   5.195   5.210
 9024SOL    HW127971   0.520   5.096   5.222
 9024SOL    HW227972   0.434   5.234   5.233
 9025SOL     OW27973   0.042   5.841   0.182
 9025SOL    HW127974   0.047   5.934   0.218
 9025SOL    HW227975   0.133   5.800   0.184
 9026SOL     OW27976   3.810   3.292   1.992
 9026SOL    HW127977   3.784   3.365   2.056
 9026SOL    HW227978   3.746   3.292   1.915
 9027SOL     OW27979   1.460   1.682   3.343
 9027SOL    HW127980   1.505   1.619   3.279
 9027SOL    HW227981   1.468   1.646   3.436
 9028SOL     OW27982   2.487   3.329   6.608
 9028SOL    HW127983   2.504   3.231   6.619
 9028SOL    HW227984   2.434   3.344   6.524
 9029SOL     OW27985   3.190   5.742   5.358
 9029SOL    HW127986   3.170   5.677   5.285
 9029SOL    HW227987   3.137   5.718   5.440
 9030SOL     OW27988   2.071   0.774   3.517
 9030SOL    HW127989   2.000   0.773   3.446
 9030SOL    HW227990   2.134   0.698   3.502
 9031SOL     OW27991   4.695   5.641   5.139
 9031SOL    HW127992   4.662   5.576   5.071
 9031SOL    HW227993   4.633   5.640   5.218
 9032SOL     OW27994   3.044   3.108   0.804
 9032SOL    HW127995   3.125   3.050   0.812
 9032SOL    HW227996   2.962   3.053   0.822
 9033SOL     OW27997   2.018   4.339   3.469
 9033SOL    HW127998   1.920   4.356   3.456
 9033SOL    HW227999   2.071   4.410   3.422
 9034SOL     OW28000   3.334   0.308   4.858
 9034SOL    HW128001   3.303   0.249   4.783
 9034SOL    HW228002   3.350   0.253   4.940
 9035SOL     OW28003   1.084   5.923   5.781
 9035SOL    HW128004   1.060   5.995   5.716
 9035SOL    HW228005   1.116   5.963   5.866
 9036SOL     OW28006   1.652   0.742   4.969
 9036SOL    HW128007   1.652   0.646   4.999
 9036SOL    HW228008   1.605   0.798   5.038
 9037SOL     OW28009   1.418   3.985   5.710
 9037SOL    HW128010   1.457   3.894   5.723
 9037SOL    HW228011   1.455   4.026   5.626
 9038SOL     OW28012   4.437   0.404   5.836
 9038SOL    HW128013   4.488   0.372   5.917
 9038SOL    HW228014   4.499   0.404   5.757
 9039SOL     OW28015   2.303   5.068   4.747
 9039SOL    HW128016   2.302   5.005   4.825
 9039SOL    HW228017   2.340   5.021   4.667
 9040SOL     OW28018   2.786   1.647   2.746
 9040SOL    HW128019   2.751   1.700   2.822
 9040SOL    HW228020   2.880   1.672   2.727
 9041SOL     OW28021   0.725   2.338   2.225
 9041SOL    HW128022   0.645   2.387   2.191
 9041SOL    HW228023   0.730   2.348   2.325
 9042SOL     OW28024   3.345   6.603   3.964
 9042SOL    HW128025   3.433   6.620   3.919
 9042SOL    HW228026   3.296   6.690   3.974
 9043SOL     OW28027   2.501   1.320   6.519
 9043SOL    HW128028   2.499   1.402   6.576
 9043SOL    HW228029   2.411   1.276   6.520
 9044SOL     OW28030   5.844   1.676   1.924
 9044SOL    HW128031   5.909   1.624   1.869
 9044SOL    HW228032   5.755   1.631   1.921
 9045SOL     OW28033   3.282   1.827   2.694
 9045SOL    HW128034   3.367   1.777   2.678
 9045SOL    HW228035   3.296   1.893   2.768
 9046SOL     OW28036   3.248   3.663   4.345
 9046SOL    HW128037   3.209   3.583   4.391
 9046SOL    HW228038   3.174   3.719   4.307
 9047SOL     OW28039   1.687   3.504   5.500
 9047SOL    HW128040   1.767   3.447   5.483
 9047SOL    HW228041   1.665   3.555   5.416
 9048SOL     OW28042   6.122   2.682   6.004
 9048SOL    HW128043   6.086   2.589   6.012
 9048SOL    HW228044   6.136   2.704   5.908
 9049SOL     OW28045   3.840   0.208   6.805
 9049SOL    HW128046   3.915   0.185   6.743
 9049SOL    HW228047   3.761   0.239   6.752
 9050SOL     OW28048   0.426   4.486   5.822
 9050SOL    HW128049   0.498   4.438   5.872
 9050SOL    HW228050   0.465   4.530   5.741
 9051SOL     OW28051   4.323   5.908   0.561
 9051SOL    HW128052   4.343   5.888   0.657
 9051SOL    HW228053   4.253   5.845   0.528
 9052SOL     OW28054   1.674   2.513   3.222
 9052SOL    HW128055   1.743   2.567   3.271
 9052SOL    HW228056   1.629   2.572   3.155
 9053SOL     OW28057   1.941   1.563   3.012
 9053SOL    HW128058   1.960   1.580   3.109
 9053SOL    HW228059   1.960   1.647   2.960
 9054SOL     OW28060   1.428   0.138   2.095
 9054SOL    HW128061   1.527   0.141   2.083
 9054SOL    HW228062   1.383   0.161   2.009
 9055SOL     OW28063   6.686   4.025   3.567
 9055SOL    HW128064   6.645   3.935   3.581
 9055SOL    HW228065   6.740   4.050   3.647
 9056SOL     OW28066   6.220   6.968   1.752
 9056SOL    HW128067   6.222   0.018   1.686
 9056SOL    HW228068   6.299   6.976   1.813
 9057SOL     OW28069   6.089   5.261   5.668
 9057SOL    HW128070   6.003   5.259   5.720
 9057SOL    HW228071   6.074   5.308   5.581
 9058SOL     OW28072   1.916   1.743   3.654
 9058SOL    HW128073   1.976   1.664   3.665
 9058SOL    HW228074   1.971   1.827   3.657
 9059SOL     OW28075   1.033   1.186   4.429
 9059SOL    HW128076   1.003   1.140   4.346
 9059SOL    HW228077   0.957   1.190   4.494
 9060SOL     OW28078   0.208   2.637   2.299
 9060SOL    HW128079   0.269   2.655   2.222
 9060SOL    HW228080   0.216   2.710   2.366
 9061SOL     OW28081   3.551   5.663   2.196
 9061SOL    HW128082   3.623   5.594   2.186
 9061SOL    HW228083   3.470   5.635   2.145
 9062SOL     OW28084   1.536   5.307   2.044
 9062SOL    HW128085   1.438   5.313   2.025
 9062SOL    HW228086   1.570   5.217   2.016
 9063SOL     OW28087   2.200   6.529   2.574
 9063SOL    HW128088   2.245   6.583   2.503
 9063SOL    HW228089   2.223   6.567   2.664
 9064SOL     OW28090   6.058   4.044   4.996
 9064SOL    HW128091   6.054   3.954   5.039
 9064SOL    HW228092   6.012   4.040   4.907
 9065SOL     OW28093   3.356   6.420   6.965
 9065SOL    HW128094   3.390   6.373   6.883
 9065SOL    HW228095   3.312   6.506   6.938
 9066SOL     OW28096   5.954   0.655   0.098
 9066SOL    HW128097   5.998   0.740   0.127
 9066SOL    HW228098   5.961   0.587   0.170
 9067SOL     OW28099   6.423   0.168   4.539
 9067SOL    HW128100   6.430   0.267   4.531
 9067SOL    HW228101   6.447   0.125   4.452
 9068SOL     OW28102   2.992   0.465   4.986
 9068SOL    HW128103   2.945   0.491   5.071
 9068SOL    HW228104   3.072   0.523   4.973
 9069SOL     OW28105   2.701   2.291   1.797
 9069SOL    HW128106   2.774   2.339   1.846
 9069SOL    HW228107   2.699   2.323   1.702
 9070SOL     OW28108   1.142   3.497   5.684
 9070SOL    HW128109   1.209   3.488   5.611
 9070SOL    HW228110   1.072   3.426   5.675
 9071SOL     OW28111   5.021   6.897   0.510
 9071SOL    HW128112   5.062   6.985   0.484
 9071SOL    HW228113   5.060   6.825   0.452
 9072SOL     OW28114   5.968   1.300   2.357
 9072SOL    HW128115   5.976   1.341   2.266
 9072SOL    HW228116   5.901   1.227   2.355
 9073SOL     OW28117   3.388   6.426   0.790
 9073SOL    HW128118   3.390   6.393   0.884
 9073SOL    HW228119   3.355   6.354   0.729
 9074SOL     OW28120   1.992   0.737   2.004
 9074SOL    HW128121   1.927   0.666   2.031
 9074SOL    HW228122   2.012   0.796   2.082
 9075SOL     OW28123   0.825   0.282   1.545
 9075SOL    HW128124   0.800   0.371   1.583
 9075SOL    HW228125   0.761   0.258   1.472
 9076SOL     OW28126   5.961   1.663   4.976
 9076SOL    HW128127   5.936   1.757   4.953
 9076SOL    HW228128   6.056   1.647   4.949
 9077SOL     OW28129   5.908   0.664   6.829
 9077SOL    HW128130   5.832   0.718   6.867
 9077SOL    HW228131   5.962   0.626   6.904
 9078SOL     OW28132   4.517   3.833   6.863
 9078SOL    HW128133   4.518   3.784   6.950
 9078SOL    HW228134   4.492   3.929   6.878
 9079SOL     OW28135   2.385   6.193   4.233
 9079SOL    HW128136   2.482   6.215   4.223
 9079SOL    HW228137   2.353   6.146   4.151
 9080SOL     OW28138   5.691   1.917   0.550
 9080SOL    HW128139   5.727   1.862   0.474
 9080SOL    HW228140   5.592   1.925   0.541
 9081SOL     OW28141   3.811   6.746   2.605
 9081SOL    HW128142   3.787   6.732   2.701
 9081SOL    HW228143   3.732   6.782   2.556
 9082SOL     OW28144   3.221   6.807   5.516
 9082SOL    HW128145   3.200   6.793   5.613
 9082SOL    HW228146   3.141   6.844   5.469
 9083SOL     OW28147   3.960   4.305   5.956
 9083SOL    HW128148   3.915   4.386   5.917
 9083SOL    HW228149   3.896   4.258   6.016
 9084SOL     OW28150   3.264   3.722   5.627
 9084SOL    HW128151   3.254   3.701   5.530
 9084SOL    HW228152   3.347   3.680   5.662
 9085SOL     OW28153   1.661   4.872   0.591
 9085SOL    HW128154   1.683   4.790   0.539
 9085SOL    HW228155   1.729   4.886   0.663
 9086SOL     OW28156   0.643   4.702   0.590
 9086SOL    HW128157   0.600   4.791   0.576
 9086SOL    HW228158   0.741   4.709   0.572
 9087SOL     OW28159   4.484   2.454   1.969
 9087SOL    HW128160   4.529   2.527   1.916
 9087SOL    HW228161   4.427   2.400   1.907
 9088SOL     OW28162   6.129   6.087   1.039
 9088SOL    HW128163   6.082   5.998   1.036
 9088SOL    HW228164   6.076   6.151   1.094
 9089SOL     OW28165   5.246   6.176   4.979
 9089SOL    HW128166   5.219   6.135   5.066
 9089SOL    HW228167   5.334   6.139   4.951
 9090SOL     OW28168   6.438   6.258   3.631
 9090SOL    HW128169   6.528   6.230   3.666
 9090SOL    HW228170   6.450   6.331   3.563
 9091SOL     OW28171   2.750   3.408   1.038
 9091SOL    HW128172   2.842   3.372   1.025
 9091SOL    HW228173   2.747   3.463   1.122
 9092SOL     OW28174   7.015   1.912   0.857
 9092SOL    HW128175   6.951   1.914   0.780
 9092SOL    HW228176   7.005   1.996   0.910
 9093SOL     OW28177   1.249   6.483   6.043
 9093SOL    HW128178   1.178   6.439   6.098
 9093SOL    HW228179   1.265   6.428   5.961
 9094SOL     OW28180   5.902   5.301   2.786
 9094SOL    HW128181   5.912   5.255   2.874
 9094SOL    HW228182   5.813   5.278   2.747
 9095SOL     OW28183   4.631   3.900   6.325
 9095SOL    HW128184   4.555   3.941   6.276
 9095SOL    HW228185   4.615   3.908   6.424
 9096SOL     OW28186   5.592   4.032   2.147
 9096SOL    HW128187   5.619   4.124   2.118
 9096SOL    HW228188   5.656   3.999   2.216
 9097SOL     OW28189   1.120   1.919   6.669
 9097SOL    HW128190   1.173   1.876   6.597
 9097SOL    HW228191   1.092   1.850   6.736
 9098SOL     OW28192   3.599   1.989   6.386
 9098SOL    HW128193   3.621   2.007   6.290
 9098SOL    HW228194   3.606   2.073   6.438
 9099SOL     OW28195   2.573   2.715   6.597
 9099SOL    HW128196   2.656   2.753   6.638
 9099SOL    HW228197   2.567   2.744   6.502
 9100SOL     OW28198   0.465   3.774   4.061
 9100SOL    HW128199   0.549   3.792   4.113
 9100SOL    HW228200   0.489   3.745   3.968
 9101SOL     OW28201   2.206   2.391   2.910
 9101SOL    HW128202   2.229   2.375   3.006
 9101SOL    HW228203   2.153   2.475   2.901
 9102SOL     OW28204   2.801   0.341   1.745
 9102SOL    HW128205   2.715   0.293   1.729
 9102SOL    HW228206   2.810   0.363   1.843
 9103SOL     OW28207   6.222   3.167   6.623
 9103SOL    HW128208   6.298   3.224   6.590
 9103SOL    HW228209   6.189   3.203   6.711
 9104SOL     OW28210   6.558   6.557   2.282
 9104SOL    HW128211   6.466   6.559   2.245
 9104SOL    HW228212   6.603   6.471   2.257
 9105SOL     OW28213   1.510   1.478   0.178
 9105SOL    HW128214   1.421   1.511   0.209
 9105SOL    HW228215   1.512   1.475   0.078
 9106SOL     OW28216   6.684   3.591   6.916
 9106SOL    HW128217   6.769   3.552   6.952
 9106SOL    HW228218   6.698   3.688   6.897
 9107SOL     OW28219   3.427   1.337   6.238
 9107SOL    HW128220   3.397   1.255   6.189
 9107SOL    HW228221   3.500   1.312   6.302
 9108SOL     OW28222   4.713   3.945   5.734
 9108SOL    HW128223   4.697   3.972   5.829
 9108SOL    HW228224   4.626   3.923   5.691
 9109SOL     OW28225   7.007   2.340   2.906
 9109SOL    HW128226   6.942   2.390   2.964
 9109SOL    HW228227   7.025   2.392   2.823
 9110SOL     OW28228   2.045   3.651   3.584
 9110SOL    HW128229   2.075   3.577   3.645
 9110SOL    HW228230   2.071   3.629   3.490
 9111SOL     OW28231   4.965   1.878   0.552
 9111SOL    HW128232   5.018   1.839   0.628
 9111SOL    HW228233   5.027   1.903   0.478
 9112SOL     OW28234   0.385   5.229   3.623
 9112SOL    HW128235   0.370   5.191   3.714
 9112SOL    HW228236   0.481   5.218   3.598
 9113SOL     OW28237   4.909   1.082   2.701
 9113SOL    HW128238   4.993   1.031   2.721
 9113SOL    HW228239   4.907   1.165   2.756
 9114SOL     OW28240   0.171   4.300   2.207
 9114SOL    HW128241   0.121   4.249   2.137
 9114SOL    HW228242   0.261   4.260   2.221
 9115SOL     OW28243   6.976   5.710   4.633
 9115SOL    HW128244   7.025   5.791   4.664
 9115SOL    HW228245   6.879   5.731   4.624
 9116SOL     OW28246   6.344   0.960   2.026
 9116SOL    HW128247   6.443   0.966   2.017
 9116SOL    HW228248   6.301   1.024   1.962
 9117SOL     OW28249   5.602   2.571   0.797
 9117SOL    HW128250   5.610   2.614   0.707
 9117SOL    HW228251   5.669   2.497   0.805
 9118SOL     OW28252   6.571   3.635   0.163
 9118SOL    HW128253   6.511   3.559   0.189
 9118SOL    HW228254   6.606   3.619   0.071
 9119SOL     OW28255   4.519   0.333   2.317
 9119SOL    HW128256   4.487   0.417   2.271
 9119SOL    HW228257   4.605   0.351   2.363
 9120SOL     OW28258   6.770   1.710   5.834
 9120SOL    HW128259   6.779   1.778   5.907
 9120SOL    HW228260   6.785   1.754   5.746
 9121SOL     OW28261   4.405   1.104   4.828
 9121SOL    HW128262   4.382   1.006   4.828
 9121SOL    HW228263   4.497   1.117   4.864
 9122SOL     OW28264   2.246   4.165   2.209
 9122SOL    HW128265   2.292   4.087   2.252
 9122SOL    HW228266   2.272   4.169   2.113
 9123SOL     OW28267   2.866   0.436   3.568
 9123SOL    HW128268   2.878   0.528   3.529
 9123SOL    HW228269   2.817   0.443   3.655
 9124SOL     OW28270   5.470   6.236   0.222
 9124SOL    HW128271   5.381   6.258   0.263
 9124SOL    HW228272   5.508   6.318   0.180
 9125SOL     OW28273   4.868   3.894   0.716
 9125SOL    HW128274   4.962   3.928   0.717
 9125SOL    HW228275   4.868   3.794   0.718
 9126SOL     OW28276   6.142   3.645   1.189
 9126SOL    HW128277   6.200   3.633   1.108
 9126SOL    HW228278   6.046   3.652   1.160
 9127SOL     OW28279   0.087   1.865   6.499
 9127SOL    HW128280   0.076   1.964   6.490
 9127SOL    HW228281   0.105   1.825   6.408
 9128SOL     OW28282   6.077   1.742   5.345
 9128SOL    HW128283   5.993   1.705   5.306
 9128SOL    HW228284   6.069   1.742   5.445
 9129SOL     OW28285   0.119   2.491   0.462
 9129SOL    HW128286   0.102   2.457   0.554
 9129SOL    HW228287   0.149   2.415   0.403
 9130SOL     OW28288   0.118   3.232   5.961
 9130SOL    HW128289   0.106   3.132   5.955
 9130SOL    HW228290   0.030   3.275   5.976
 9131SOL     OW28291   5.687   3.145   5.594
 9131SOL    HW128292   5.685   3.051   5.628
 9131SOL    HW228293   5.721   3.147   5.500
 9132SOL     OW28294   0.386   5.815   4.404
 9132SOL    HW128295   0.301   5.842   4.359
 9132SOL    HW228296   0.387   5.850   4.497
 9133SOL     OW28297   3.328   6.582   1.745
 9133SOL    HW128298   3.395   6.544   1.681
 9133SOL    HW228299   3.320   6.521   1.824
 9134SOL     OW28300   3.839   5.966   1.317
 9134SOL    HW128301   3.808   6.039   1.378
 9134SOL    HW228302   3.879   6.007   1.235
 9135SOL     OW28303   6.470   7.018   1.850
 9135SOL    HW128304   6.447   0.057   1.923
 9135SOL    HW228305   6.565   6.987   1.862
 9136SOL     OW28306   4.912   6.553   0.139
 9136SOL    HW128307   4.930   6.481   0.072
 9136SOL    HW228308   4.998   6.586   0.177
 9137SOL     OW28309   5.468   0.974   0.475
 9137SOL    HW128310   5.485   1.040   0.548
 9137SOL    HW228311   5.382   0.998   0.429
 9138SOL     OW28312   0.036   6.026   6.309
 9138SOL    HW128313   0.095   6.106   6.300
 9138SOL    HW228314   0.086   5.944   6.282
 9139SOL     OW28315   2.199   1.614   3.235
 9139SOL    HW128316   2.247   1.702   3.229
 9139SOL    HW228317   2.112   1.627   3.284
 9140SOL     OW28318   6.962   3.084   2.721
 9140SOL    HW128319   0.021   3.030   2.725
 9140SOL    HW228320   6.956   3.129   2.632
 9141SOL     OW28321   5.212   0.218   0.898
 9141SOL    HW128322   5.213   0.124   0.865
 9141SOL    HW228323   5.205   0.281   0.821
 9142SOL     OW28324   0.588   2.653   1.170
 9142SOL    HW128325   0.643   2.723   1.215
 9142SOL    HW228326   0.535   2.603   1.238
 9143SOL     OW28327   6.279   2.891   0.363
 9143SOL    HW128328   6.343   2.824   0.326
 9143SOL    HW228329   6.193   2.887   0.310
 9144SOL     OW28330   2.792   5.128   4.465
 9144SOL    HW128331   2.761   5.060   4.532
 9144SOL    HW228332   2.714   5.182   4.434
 9145SOL     OW28333   0.328   5.637   6.464
 9145SOL    HW128334   0.413   5.591   6.490
 9145SOL    HW228335   0.257   5.569   6.449
 9146SOL     OW28336   5.597   3.198   3.849
 9146SOL    HW128337   5.590   3.157   3.758
 9146SOL    HW228338   5.508   3.232   3.877
 9147SOL     OW28339   6.167   6.714   5.855
 9147SOL    HW128340   6.198   6.629   5.814
 9147SOL    HW228341   6.229   6.788   5.830
 9148SOL     OW28342   5.579   6.321   1.580
 9148SOL    HW128343   5.640   6.242   1.590
 9148SOL    HW228344   5.528   6.335   1.665
 9149SOL     OW28345   5.428   3.804   2.417
 9149SOL    HW128346   5.484   3.779   2.337
 9149SOL    HW228347   5.382   3.890   2.398
 9150SOL     OW28348   3.390   5.186   0.892
 9150SOL    HW128349   3.382   5.218   0.986
 9150SOL    HW228350   3.383   5.265   0.830
 9151SOL     OW28351   1.897   4.711   3.460
 9151SOL    HW128352   1.874   4.808   3.452
 9151SOL    HW228353   1.912   4.673   3.369
 9152SOL     OW28354   2.239   4.142   4.673
 9152SOL    HW128355   2.209   4.081   4.747
 9152SOL    HW228356   2.219   4.100   4.585
 9153SOL     OW28357   0.326   2.951   6.749
 9153SOL    HW128358   0.285   2.860   6.743
 9153SOL    HW228359   0.322   2.996   6.660
 9154SOL     OW28360   5.663   4.847   6.382
 9154SOL    HW128361   5.642   4.888   6.293
 9154SOL    HW228362   5.681   4.749   6.371
 9155SOL     OW28363   1.896   3.945   2.465
 9155SOL    HW128364   1.909   3.942   2.366
 9155SOL    HW228365   1.819   3.886   2.491
 9156SOL     OW28366   0.917   2.357   0.516
 9156SOL    HW128367   0.976   2.330   0.441
 9156SOL    HW228368   0.934   2.297   0.595
 9157SOL     OW28369   2.271   4.076   6.496
 9157SOL    HW128370   2.297   4.105   6.588
 9157SOL    HW228371   2.185   4.024   6.501
 9158SOL     OW28372   6.040   3.431   4.013
 9158SOL    HW128373   5.979   3.361   3.975
 9158SOL    HW228374   6.068   3.405   4.105
 9159SOL     OW28375   1.602   1.078   2.357
 9159SOL    HW128376   1.620   1.024   2.439
 9159SOL    HW228377   1.526   1.141   2.374
 9160SOL     OW28378   0.191   6.892   6.059
 9160SOL    HW128379   0.151   6.827   5.996
 9160SOL    HW228380   0.291   6.894   6.046
 9161SOL     OW28381   5.287   5.252   3.833
 9161SOL    HW128382   5.255   5.168   3.790
 9161SOL    HW228383   5.221   5.281   3.902
 9162SOL     OW28384   4.518   0.692   3.957
 9162SOL    HW128385   4.556   0.600   3.964
 9162SOL    HW228386   4.461   0.698   3.875
 9163SOL     OW28387   0.465   2.713   4.267
 9163SOL    HW128388   0.403   2.766   4.325
 9163SOL    HW228389   0.474   2.621   4.305
 9164SOL     OW28390   2.048   0.294   0.138
 9164SOL    HW128391   1.983   0.368   0.151
 9164SOL    HW228392   2.140   0.331   0.129
 9165SOL     OW28393   6.305   1.238   5.745
 9165SOL    HW128394   6.209   1.252   5.720
 9165SOL    HW228395   6.359   1.219   5.663
 9166SOL     OW28396   4.222   6.192   1.434
 9166SOL    HW128397   4.216   6.265   1.502
 9166SOL    HW228398   4.318   6.172   1.416
 9167SOL     OW28399   2.139   2.349   6.305
 9167SOL    HW128400   2.048   2.311   6.320
 9167SOL    HW228401   2.144   2.391   6.215
 9168SOL     OW28402   6.300   5.997   6.074
 9168SOL    HW128403   6.273   5.938   6.150
 9168SOL    HW228404   6.394   6.028   6.087
 9169SOL     OW28405   6.902   6.901   6.411
 9169SOL    HW128406   6.881   6.996   6.433
 9169SOL    HW228407   6.907   6.890   6.312
 9170SOL     OW28408   1.748   0.256   6.922
 9170SOL    HW128409   1.686   0.182   6.949
 9170SOL    HW228410   1.799   0.229   6.840
 9171SOL     OW28411   3.393   5.945   0.398
 9171SOL    HW128412   3.342   5.998   0.331
 9171SOL    HW228413   3.347   5.950   0.487
 9172SOL     OW28414   4.858   1.303   3.377
 9172SOL    HW128415   4.837   1.391   3.335
 9172SOL    HW228416   4.889   1.317   3.471
 9173SOL     OW28417   5.923   4.611   5.917
 9173SOL    HW128418   5.825   4.592   5.905
 9173SOL    HW228419   5.973   4.580   5.836
 9174SOL     OW28420   6.840   4.969   0.597
 9174SOL    HW128421   6.827   4.879   0.554
 9174SOL    HW228422   6.751   5.010   0.615
 9175SOL     OW28423   1.757   6.206   6.235
 9175SOL    HW128424   1.736   6.303   6.245
 9175SOL    HW228425   1.723   6.173   6.147
 9176SOL     OW28426   2.138   1.084   2.178
 9176SOL    HW128427   2.199   1.024   2.127
 9176SOL    HW228428   2.043   1.053   2.166
 9177SOL     OW28429   1.136   3.905   4.061
 9177SOL    HW128430   1.209   3.937   4.002
 9177SOL    HW228431   1.115   3.975   4.129
 9178SOL     OW28432   2.246   5.238   6.928
 9178SOL    HW128433   2.320   5.304   6.920
 9178SOL    HW228434   2.191   5.240   6.844
 9179SOL     OW28435   1.911   5.383   3.956
 9179SOL    HW128436   1.827   5.367   3.904
 9179SOL    HW228437   1.990   5.365   3.897
 9180SOL     OW28438   6.277   2.061   3.276
 9180SOL    HW128439   6.361   2.014   3.304
 9180SOL    HW228440   6.199   2.021   3.325
 9181SOL     OW28441   5.994   2.163   4.368
 9181SOL    HW128442   6.069   2.175   4.433
 9181SOL    HW228443   6.009   2.222   4.289
 9182SOL     OW28444   2.922   0.249   2.936
 9182SOL    HW128445   2.941   0.316   3.008
 9182SOL    HW228446   2.967   0.278   2.851
 9183SOL     OW28447   4.693   4.553   0.167
 9183SOL    HW128448   4.769   4.514   0.219
 9183SOL    HW228449   4.627   4.594   0.231
 9184SOL     OW28450   4.567   2.548   1.368
 9184SOL    HW128451   4.587   2.575   1.274
 9184SOL    HW228452   4.598   2.620   1.430
 9185SOL     OW28453   6.592   6.636   5.124
 9185SOL    HW128454   6.572   6.539   5.120
 9185SOL    HW228455   6.534   6.685   5.057
 9186SOL     OW28456   5.929   6.905   4.483
 9186SOL    HW128457   5.837   6.937   4.507
 9186SOL    HW228458   5.947   6.818   4.528
 9187SOL     OW28459   3.432   2.171   0.131
 9187SOL    HW128460   3.349   2.225   0.117
 9187SOL    HW228461   3.408   2.082   0.171
 9188SOL     OW28462   2.243   0.289   1.617
 9188SOL    HW128463   2.292   0.376   1.612
 9188SOL    HW228464   2.212   0.274   1.711
 9189SOL     OW28465   3.626   5.820   2.668
 9189SOL    HW128466   3.557   5.749   2.679
 9189SOL    HW228467   3.585   5.909   2.687
 9190SOL     OW28468   1.065   3.199   5.668
 9190SOL    HW128469   1.042   3.253   5.587
 9190SOL    HW228470   1.117   3.119   5.641
 9191SOL     OW28471   5.845   1.065   6.821
 9191SOL    HW128472   5.812   0.978   6.859
 9191SOL    HW228473   5.888   1.048   6.732
 9192SOL     OW28474   6.708   2.330   6.252
 9192SOL    HW128475   6.762   2.340   6.336
 9192SOL    HW228476   6.707   2.234   6.225
 9193SOL     OW28477   3.496   3.235   4.594
 9193SOL    HW128478   3.585   3.189   4.597
 9193SOL    HW228479   3.507   3.328   4.561
 9194SOL     OW28480   3.422   0.735   2.414
 9194SOL    HW128481   3.408   0.647   2.459
 9194SOL    HW228482   3.408   0.725   2.315
 9195SOL     OW28483   1.417   3.309   2.738
 9195SOL    HW128484   1.392   3.281   2.831
 9195SOL    HW228485   1.336   3.338   2.688
 9196SOL     OW28486   5.877   6.624   3.911
 9196SOL    HW128487   5.845   6.588   3.999
 9196SOL    HW228488   5.889   6.549   3.846
 9197SOL     OW28489   3.031   4.664   0.679
 9197SOL    HW128490   3.045   4.651   0.580
 9197SOL    HW228491   3.117   4.647   0.727
 9198SOL     OW28492   6.655   4.368   6.288
 9198SOL    HW128493   6.581   4.346   6.351
 9198SOL    HW228494   6.698   4.454   6.317
 9199SOL     OW28495   6.800   3.000   5.398
 9199SOL    HW128496   6.866   2.927   5.417
 9199SOL    HW228497   6.845   3.089   5.403
 9200SOL     OW28498   2.974   6.223   5.784
 9200SOL    HW128499   2.997   6.299   5.724
 9200SOL    HW228500   2.930   6.151   5.731
 9201SOL     OW28501   6.705   3.196   6.641
 9201SOL    HW128502   6.739   3.257   6.713
 9201SOL    HW228503   6.701   3.103   6.676
 9202SOL     OW28504   0.927   5.651   4.036
 9202SOL    HW128505   1.006   5.671   4.095
 9202SOL    HW228506   0.960   5.624   3.946
 9203SOL     OW28507   6.351   3.094   6.021
 9203SOL    HW128508   6.339   3.068   6.117
 9203SOL    HW228509   6.366   3.193   6.015
 9204SOL     OW28510   5.064   3.521   4.290
 9204SOL    HW128511   4.973   3.481   4.283
 9204SOL    HW228512   5.122   3.463   4.347
 9205SOL     OW28513   5.008   5.457   3.067
 9205SOL    HW128514   4.958   5.536   3.104
 9205SOL    HW228515   4.956   5.373   3.085
 9206SOL     OW28516   3.168   6.697   3.350
 9206SOL    HW128517   3.180   6.713   3.448
 9206SOL    HW228518   3.210   6.771   3.298
 9207SOL     OW28519   4.192   4.426   0.021
 9207SOL    HW128520   4.260   4.475   6.992
 9207SOL    HW228521   4.187   4.465   0.112
 9208SOL     OW28522   5.406   4.107   2.752
 9208SOL    HW128523   5.354   4.129   2.669
 9208SOL    HW228524   5.476   4.040   2.731
 9209SOL     OW28525   4.779   1.117   1.285
 9209SOL    HW128526   4.819   1.125   1.377
 9209SOL    HW228527   4.700   1.177   1.277
 9210SOL     OW28528   1.365   1.490   0.774
 9210SOL    HW128529   1.360   1.534   0.685
 9210SOL    HW228530   1.420   1.546   0.836
 9211SOL     OW28531   6.277   2.880   6.197
 9211SOL    HW128532   6.333   2.802   6.225
 9211SOL    HW228533   6.203   2.848   6.138
 9212SOL     OW28534   5.667   4.020   4.182
 9212SOL    HW128535   5.659   3.922   4.203
 9212SOL    HW228536   5.577   4.063   4.188
 9213SOL     OW28537   4.867   4.975   4.354
 9213SOL    HW128538   4.792   4.913   4.330
 9213SOL    HW228539   4.829   5.063   4.382
 9214SOL     OW28540   0.007   3.078   4.665
 9214SOL    HW128541   6.940   3.050   4.689
 9214SOL    HW228542   0.020   3.070   4.566
 9215SOL     OW28543   1.183   4.633   2.161
 9215SOL    HW128544   1.132   4.694   2.222
 9215SOL    HW228545   1.175   4.539   2.194
 9216SOL     OW28546   2.179   6.723   3.460
 9216SOL    HW128547   2.259   6.781   3.449
 9216SOL    HW228548   2.172   6.692   3.555
 9217SOL     OW28549   6.670   2.958   6.730
 9217SOL    HW128550   6.632   2.874   6.691
 9217SOL    HW228551   6.603   2.999   6.792
 9218SOL     OW28552   3.772   0.985   0.028
 9218SOL    HW128553   3.748   1.078   0.001
 9218SOL    HW228554   3.871   0.975   0.029
 9219SOL     OW28555   4.984   3.939   6.666
 9219SOL    HW128556   5.000   3.876   6.589
 9219SOL    HW228557   4.915   3.901   6.727
 9220SOL     OW28558   1.243   6.684   1.951
 9220SOL    HW128559   1.248   6.598   1.901
 9220SOL    HW228560   1.181   6.747   1.904
 9221SOL     OW28561   1.953   0.082   3.539
 9221SOL    HW128562   2.045   0.098   3.504
 9221SOL    HW228563   1.939   0.136   3.622
 9222SOL     OW28564   2.522   5.962   5.247
 9222SOL    HW128565   2.581   6.040   5.267
 9222SOL    HW228566   2.427   5.985   5.269
 9223SOL     OW28567   1.296   2.672   4.114
 9223SOL    HW128568   1.315   2.612   4.192
 9223SOL    HW228569   1.229   2.742   4.141
 9224SOL     OW28570   0.892   5.138   3.555
 9224SOL    HW128571   0.898   5.052   3.505
 9224SOL    HW228572   0.955   5.135   3.633
 9225SOL     OW28573   3.264   6.242   6.030
 9225SOL    HW128574   3.236   6.301   6.106
 9225SOL    HW228575   3.285   6.151   6.064
 9226SOL     OW28576   0.537   6.732   1.374
 9226SOL    HW128577   0.516   6.825   1.404
 9226SOL    HW228578   0.637   6.722   1.368
 9227SOL     OW28579   2.390   5.908   1.053
 9227SOL    HW128580   2.485   5.886   1.029
 9227SOL    HW228581   2.335   5.913   0.970
 9228SOL     OW28582   2.959   1.479   6.843
 9228SOL    HW128583   2.981   1.561   6.789
 9228SOL    HW228584   2.869   1.445   6.817
 9229SOL     OW28585   0.591   4.839   5.256
 9229SOL    HW128586   0.577   4.741   5.245
 9229SOL    HW228587   0.680   4.856   5.297
 9230SOL     OW28588   5.092   3.017   3.731
 9230SOL    HW128589   5.180   2.981   3.763
 9230SOL    HW228590   5.095   3.025   3.631
 9231SOL     OW28591   1.326   3.468   5.486
 9231SOL    HW128592   1.326   3.566   5.464
 9231SOL    HW228593   1.343   3.415   5.403
 9232SOL     OW28594   3.084   5.584   6.518
 9232SOL    HW128595   2.988   5.592   6.492
 9232SOL    HW228596   3.127   5.674   6.515
 9233SOL     OW28597   6.191   6.513   1.175
 9233SOL    HW128598   6.280   6.490   1.213
 9233SOL    HW228599   6.155   6.595   1.221
 9234SOL     OW28600   3.295   5.928   0.644
 9234SOL    HW128601   3.248   5.864   0.583
 9234SOL    HW228602   3.369   5.881   0.691
 9235SOL     OW28603   2.188   2.505   3.640
 9235SOL    HW128604   2.162   2.525   3.545
 9235SOL    HW228605   2.107   2.516   3.699
 9236SOL     OW28606   2.083   4.448   6.402
 9236SOL    HW128607   2.031   4.524   6.439
 9236SOL    HW228608   2.024   4.391   6.344
 9237SOL     OW28609   0.632   6.000   2.723
 9237SOL    HW128610   0.576   5.995   2.806
 9237SOL    HW228611   0.710   6.060   2.739
 9238SOL     OW28612   2.443   3.105   6.152
 9238SOL    HW128613   2.413   3.137   6.062
 9238SOL    HW228614   2.541   3.124   6.163
 9239SOL     OW28615   0.199   3.521   5.907
 9239SOL    HW128616   0.151   3.594   5.956
 9239SOL    HW228617   0.147   3.436   5.915
 9240SOL     OW28618   4.852   2.744   2.208
 9240SOL    HW128619   4.770   2.688   2.208
 9240SOL    HW228620   4.828   2.839   2.225
 9241SOL     OW28621   0.263   5.087   6.802
 9241SOL    HW128622   0.331   5.053   6.866
 9241SOL    HW228623   0.186   5.127   6.852
 9242SOL     OW28624   1.334   4.123   0.699
 9242SOL    HW128625   1.240   4.114   0.666
 9242SOL    HW228626   1.386   4.041   0.676
 9243SOL     OW28627   0.354   0.286   1.251
 9243SOL    HW128628   0.388   0.201   1.210
 9243SOL    HW228629   0.424   0.357   1.242
 9244SOL     OW28630   3.370   5.445   6.070
 9244SOL    HW128631   3.398   5.496   5.989
 9244SOL    HW228632   3.413   5.484   6.151
 9245SOL     OW28633   0.647   5.675   4.006
 9245SOL    HW128634   0.746   5.672   4.013
 9245SOL    HW228635   0.610   5.736   4.076
 9246SOL     OW28636   6.491   6.930   3.039
 9246SOL    HW128637   6.429   6.965   2.970
 9246SOL    HW228638   6.488   6.830   3.040
 9247SOL     OW28639   2.656   5.964   3.104
 9247SOL    HW128640   2.563   5.931   3.092
 9247SOL    HW228641   2.657   6.064   3.099
 9248SOL     OW28642   3.094   1.855   4.275
 9248SOL    HW128643   3.159   1.778   4.279
 9248SOL    HW228644   3.044   1.851   4.189
 9249SOL     OW28645   3.659   4.999   1.287
 9249SOL    HW128646   3.687   4.924   1.347
 9249SOL    HW228647   3.674   4.972   1.192
 9250SOL     OW28648   5.465   2.758   4.503
 9250SOL    HW128649   5.497   2.746   4.597
 9250SOL    HW228650   5.391   2.694   4.485
 9251SOL     OW28651   4.054   1.952   3.095
 9251SOL    HW128652   4.115   1.932   3.019
 9251SOL    HW228653   4.107   1.959   3.180
 9252SOL     OW28654   5.670   0.978   4.793
 9252SOL    HW128655   5.717   1.044   4.853
 9252SOL    HW228656   5.595   1.024   4.746
 9253SOL     OW28657   5.390   5.544   5.653
 9253SOL    HW128658   5.487   5.525   5.640
 9253SOL    HW228659   5.337   5.460   5.636
 9254SOL     OW28660   5.250   4.881   3.076
 9254SOL    HW128661   5.246   4.936   2.992
 9254SOL    HW228662   5.211   4.932   3.152
 9255SOL     OW28663   4.636   3.807   0.325
 9255SOL    HW128664   4.569   3.824   0.397
 9255SOL    HW228665   4.691   3.889   0.311
 9256SOL     OW28666   3.350   0.214   2.750
 9256SOL    HW128667   3.389   0.302   2.720
 9256SOL    HW228668   3.252   0.213   2.731
 9257SOL     OW28669   0.111   4.440   3.636
 9257SOL    HW128670   0.165   4.358   3.613
 9257SOL    HW228671   0.028   4.412   3.684
 9258SOL     OW28672   3.833   3.996   2.531
 9258SOL    HW128673   3.885   4.033   2.608
 9258SOL    HW228674   3.817   3.898   2.546
 9259SOL     OW28675   0.409   2.097   0.743
 9259SOL    HW128676   0.364   2.027   0.799
 9259SOL    HW228677   0.352   2.179   0.740
 9260SOL     OW28678   6.193   1.404   5.523
 9260SOL    HW128679   6.278   1.444   5.556
 9260SOL    HW228680   6.116   1.461   5.553
 9261SOL     OW28681   3.345   1.696   0.599
 9261SOL    HW128682   3.262   1.642   0.613
 9261SOL    HW228683   3.341   1.779   0.653
 9262SOL     OW28684   6.630   4.825   4.846
 9262SOL    HW128685   6.720   4.810   4.805
 9262SOL    HW228686   6.619   4.922   4.866
 9263SOL     OW28687   4.538   0.537   1.911
 9263SOL    HW128688   4.509   0.442   1.906
 9263SOL    HW228689   4.598   0.557   1.833
 9264SOL     OW28690   4.984   4.460   0.631
 9264SOL    HW128691   5.047   4.384   0.643
 9264SOL    HW228692   4.993   4.497   0.538
 9265SOL     OW28693   3.973   2.434   6.976
 9265SOL    HW128694   4.023   2.515   6.945
 9265SOL    HW228695   3.926   2.393   6.898
 9266SOL     OW28696   1.053   6.085   0.625
 9266SOL    HW128697   0.975   6.093   0.563
 9266SOL    HW228698   1.128   6.039   0.577
 9267SOL     OW28699   0.349   2.203   4.475
 9267SOL    HW128700   0.384   2.111   4.491
 9267SOL    HW228701   0.251   2.199   4.457
 9268SOL     OW28702   1.048   5.888   2.614
 9268SOL    HW128703   1.057   5.803   2.665
 9268SOL    HW228704   0.995   5.954   2.668
 9269SOL     OW28705   4.070   1.006   6.152
 9269SOL    HW128706   4.073   0.910   6.123
 9269SOL    HW228707   4.157   1.031   6.193
 9270SOL     OW28708   4.513   6.399   6.265
 9270SOL    HW128709   4.551   6.325   6.210
 9270SOL    HW228710   4.580   6.473   6.272
 9271SOL     OW28711   6.009   0.308   1.187
 9271SOL    HW128712   6.105   0.285   1.174
 9271SOL    HW228713   5.971   0.344   1.102
 9272SOL     OW28714   0.598   5.962   5.178
 9272SOL    HW128715   0.667   5.924   5.116
 9272SOL    HW228716   0.521   5.898   5.186
 9273SOL     OW28717   6.193   6.472   2.779
 9273SOL    HW128718   6.270   6.528   2.811
 9273SOL    HW228719   6.110   6.528   2.778
 9274SOL     OW28720   6.518   1.543   0.431
 9274SOL    HW128721   6.553   1.453   0.458
 9274SOL    HW228722   6.588   1.613   0.446
 9275SOL     OW28723   6.353   1.164   6.858
 9275SOL    HW128724   6.256   1.179   6.839
 9275SOL    HW228725   6.405   1.170   6.772
 9276SOL     OW28726   1.605   3.909   1.519
 9276SOL    HW128727   1.583   3.843   1.448
 9276SOL    HW228728   1.694   3.889   1.558
 9277SOL     OW28729   3.929   4.289   0.499
 9277SOL    HW128730   4.012   4.243   0.529
 9277SOL    HW228731   3.867   4.222   0.458
 9278SOL     OW28732   2.105   0.416   5.928
 9278SOL    HW128733   2.156   0.349   5.982
 9278SOL    HW228734   2.159   0.500   5.919
 9279SOL     OW28735   3.316   0.412   1.856
 9279SOL    HW128736   3.408   0.453   1.858
 9279SOL    HW228737   3.281   0.413   1.763
 9280SOL     OW28738   2.390   1.954   2.907
 9280SOL    HW128739   2.486   1.975   2.885
 9280SOL    HW228740   2.330   2.010   2.849
 9281SOL     OW28741   2.788   3.860   6.781
 9281SOL    HW128742   2.733   3.807   6.847
 9281SOL    HW228743   2.864   3.803   6.749
 9282SOL     OW28744   5.912   0.540   3.574
 9282SOL    HW128745   5.919   0.485   3.490
 9282SOL    HW228746   6.004   0.553   3.612
 9283SOL     OW28747   5.230   0.722   4.072
 9283SOL    HW128748   5.233   0.687   3.978
 9283SOL    HW228749   5.158   0.791   4.080
 9284SOL     OW28750   2.894   3.332   5.707
 9284SOL    HW128751   2.898   3.415   5.652
 9284SOL    HW228752   2.803   3.291   5.700
 9285SOL     OW28753   5.229   2.962   0.941
 9285SOL    HW128754   5.318   3.003   0.960
 9285SOL    HW228755   5.197   2.912   1.022
 9286SOL     OW28756   5.950   5.909   0.665
 9286SOL    HW128757   5.851   5.908   0.677
 9286SOL    HW228758   5.992   5.965   0.737
 9287SOL     OW28759   3.229   5.172   6.696
 9287SOL    HW128760   3.171   5.250   6.671
 9287SOL    HW228761   3.209   5.143   6.789
 9288SOL     OW28762   4.466   1.643   2.721
 9288SOL    HW128763   4.551   1.679   2.682
 9288SOL    HW228764   4.393   1.710   2.707
 9289SOL     OW28765   3.834   0.609   1.615
 9289SOL    HW128766   3.877   0.650   1.695
 9289SOL    HW228767   3.863   0.659   1.533
 9290SOL     OW28768   5.524   0.242   3.074
 9290SOL    HW128769   5.482   0.330   3.095
 9290SOL    HW228770   5.569   0.247   2.985
 9291SOL     OW28771   1.192   4.824   5.783
 9291SOL    HW128772   1.132   4.886   5.833
 9291SOL    HW228773   1.272   4.874   5.749
 9292SOL     OW28774   1.867   3.034   6.349
 9292SOL    HW128775   1.948   3.011   6.295
 9292SOL    HW228776   1.895   3.080   6.433
 9293SOL     OW28777   6.158   3.107   6.374
 9293SOL    HW128778   6.189   3.113   6.469
 9293SOL    HW228779   6.205   3.033   6.328
 9294SOL     OW28780   4.783   0.150   5.969
 9294SOL    HW128781   4.830   0.237   5.954
 9294SOL    HW228782   4.806   0.087   5.895
 9295SOL     OW28783   6.043   1.046   4.883
 9295SOL    HW128784   6.017   1.027   4.978
 9295SOL    HW228785   6.081   0.963   4.841
 9296SOL     OW28786   0.921   5.441   6.456
 9296SOL    HW128787   0.970   5.506   6.514
 9296SOL    HW228788   0.844   5.487   6.413
 9297SOL     OW28789   1.038   6.506   3.141
 9297SOL    HW128790   1.067   6.582   3.084
 9297SOL    HW228791   0.944   6.521   3.172
 9298SOL     OW28792   1.280   6.477   6.830
 9298SOL    HW128793   1.195   6.457   6.781
 9298SOL    HW228794   1.260   6.525   6.915
 9299SOL     OW28795   0.468   2.452   4.386
 9299SOL    HW128796   0.408   2.372   4.382
 9299SOL    HW228797   0.560   2.423   4.413
 9300SOL     OW28798   0.604   4.295   5.904
 9300SOL    HW128799   0.639   4.276   5.995
 9300SOL    HW228800   0.636   4.226   5.840
 9301SOL     OW28801   5.645   5.530   5.239
 9301SOL    HW128802   5.651   5.489   5.148
 9301SOL    HW228803   5.549   5.534   5.268
 9302SOL     OW28804   2.032   2.761   4.012
 9302SOL    HW128805   2.022   2.808   4.099
 9302SOL    HW228806   2.018   2.663   4.024
 9303SOL     OW28807   2.814   3.770   0.792
 9303SOL    HW128808   2.816   3.739   0.887
 9303SOL    HW228809   2.901   3.749   0.748
 9304SOL     OW28810   3.981   4.548   1.714
 9304SOL    HW128811   4.045   4.475   1.740
 9304SOL    HW228812   3.888   4.511   1.710
 9305SOL     OW28813   3.693   1.421   0.774
 9305SOL    HW128814   3.626   1.442   0.845
 9305SOL    HW228815   3.724   1.327   0.784
 9306SOL     OW28816   1.029   3.881   5.290
 9306SOL    HW128817   1.106   3.944   5.297
 9306SOL    HW228818   1.019   3.832   5.376
 9307SOL     OW28819   0.724   3.743   0.755
 9307SOL    HW128820   0.673   3.818   0.797
 9307SOL    HW228821   0.799   3.716   0.815
 9308SOL     OW28822   1.244   3.862   0.411
 9308SOL    HW128823   1.191   3.840   0.492
 9308SOL    HW228824   1.331   3.903   0.438
 9309SOL     OW28825   3.626   5.300   6.108
 9309SOL    HW128826   3.671   5.390   6.108
 9309SOL    HW228827   3.539   5.307   6.059
 9310SOL     OW28828   5.688   5.809   5.552
 9310SOL    HW128829   5.669   5.711   5.546
 9310SOL    HW228830   5.720   5.842   5.463
 9311SOL     OW28831   4.450   4.781   1.330
 9311SOL    HW128832   4.404   4.850   1.274
 9311SOL    HW228833   4.400   4.694   1.322
 9312SOL     OW28834   1.203   3.506   1.314
 9312SOL    HW128835   1.238   3.501   1.221
 9312SOL    HW228836   1.196   3.602   1.342
 9313SOL     OW28837   0.167   0.548   1.605
 9313SOL    HW128838   0.076   0.581   1.581
 9313SOL    HW228839   0.163   0.497   1.690
 9314SOL     OW28840   6.738   4.163   6.834
 9314SOL    HW128841   6.807   4.146   6.763
 9314SOL    HW228842   6.669   4.091   6.831
 9315SOL     OW28843   6.942   0.162   5.831
 9315SOL    HW128844   7.009   0.231   5.805
 9315SOL    HW228845   6.989   0.084   5.872
 9316SOL     OW28846   5.535   6.685   6.041
 9316SOL    HW128847   5.587   6.651   5.963
 9316SOL    HW228848   5.487   6.769   6.015
 9317SOL     OW28849   4.918   5.501   4.012
 9317SOL    HW128850   4.949   5.417   3.966
 9317SOL    HW228851   4.895   5.570   3.944
 9318SOL     OW28852   6.102   1.284   6.319
 9318SOL    HW128853   6.090   1.187   6.300
 9318SOL    HW228854   6.131   1.296   6.414
 9319SOL     OW28855   2.263   2.932   0.071
 9319SOL    HW128856   2.318   2.919   7.015
 9319SOL    HW228857   2.211   3.017   0.064
 9320SOL     OW28858   3.689   0.804   4.959
 9320SOL    HW128859   3.622   0.878   4.960
 9320SOL    HW228860   3.752   0.818   4.883
 9321SOL     OW28861   1.007   0.293   4.899
 9321SOL    HW128862   1.067   0.216   4.879
 9321SOL    HW228863   0.919   0.279   4.854
 9322SOL     OW28864   6.832   3.587   5.983
 9322SOL    HW128865   6.899   3.661   5.991
 9322SOL    HW228866   6.761   3.599   6.052
 9323SOL     OW28867   1.235   1.358   5.403
 9323SOL    HW128868   1.291   1.407   5.470
 9323SOL    HW228869   1.224   1.263   5.432
 9324SOL     OW28870   1.107   4.756   1.895
 9324SOL    HW128871   1.147   4.724   1.981
 9324SOL    HW228872   1.165   4.727   1.819
 9325SOL     OW28873   6.062   1.256   6.881
 9325SOL    HW128874   6.027   1.347   6.903
 9325SOL    HW228875   5.985   1.195   6.861
 9326SOL     OW28876   2.463   4.758   0.078
 9326SOL    HW128877   2.484   4.717   7.014
 9326SOL    HW228878   2.367   4.783   0.081
 9327SOL     OW28879   4.658   0.286   2.717
 9327SOL    HW128880   4.688   0.356   2.782
 9327SOL    HW228881   4.701   0.303   2.628
 9328SOL     OW28882   2.435   0.797   4.285
 9328SOL    HW128883   2.390   0.788   4.195
 9328SOL    HW228884   2.429   0.893   4.314
 9329SOL     OW28885   5.775   3.687   0.860
 9329SOL    HW128886   5.802   3.615   0.924
 9329SOL    HW228887   5.849   3.703   0.795
 9330SOL     OW28888   6.901   0.465   5.356
 9330SOL    HW128889   6.955   0.382   5.372
 9330SOL    HW228890   6.880   0.508   5.444
 9331SOL     OW28891   2.653   0.560   6.487
 9331SOL    HW128892   2.700   0.574   6.400
 9331SOL    HW228893   2.705   0.604   6.560
 9332SOL     OW28894   3.598   4.795   0.364
 9332SOL    HW128895   3.515   4.832   0.406
 9332SOL    HW228896   3.574   4.735   0.288
 9333SOL     OW28897   3.897   5.072   6.505
 9333SOL    HW128898   3.841   5.091   6.586
 9333SOL    HW228899   3.839   5.075   6.423
 9334SOL     OW28900   4.853   6.632   4.300
 9334SOL    HW128901   4.873   6.679   4.387
 9334SOL    HW228902   4.924   6.655   4.234
 9335SOL     OW28903   1.315   1.221   6.691
 9335SOL    HW128904   1.317   1.277   6.774
 9335SOL    HW228905   1.222   1.220   6.654
 9336SOL     OW28906   3.818   0.077   4.872
 9336SOL    HW128907   3.741   0.126   4.834
 9336SOL    HW228908   3.875   0.041   4.798
 9337SOL     OW28909   4.315   0.639   5.157
 9337SOL    HW128910   4.352   0.576   5.225
 9337SOL    HW228911   4.217   0.620   5.144
 9338SOL     OW28912   6.273   0.033   1.121
 9338SOL    HW128913   6.341   7.025   1.186
 9338SOL    HW228914   6.232   6.981   1.072
 9339SOL     OW28915   5.808   6.774   6.871
 9339SOL    HW128916   5.798   6.823   6.785
 9339SOL    HW228917   5.782   6.834   6.947
 9340SOL     OW28918   3.931   5.001   3.789
 9340SOL    HW128919   3.941   4.953   3.702
 9340SOL    HW228920   3.967   4.945   3.863
 9341SOL     OW28921   6.068   4.991   1.457
 9341SOL    HW128922   6.154   4.985   1.507
 9341SOL    HW228923   5.992   4.977   1.521
 9342SOL     OW28924   2.912   0.016   4.273
 9342SOL    HW128925   2.972   0.094   4.291
 9342SOL    HW228926   2.840   0.044   4.209
 9343SOL     OW28927   4.836   4.275   1.874
 9343SOL    HW128928   4.878   4.346   1.931
 9343SOL    HW228929   4.738   4.273   1.890
 9344SOL     OW28930   5.276   6.717   1.738
 9344SOL    HW128931   5.294   6.794   1.799
 9344SOL    HW228932   5.341   6.719   1.662
 9345SOL     OW28933   6.813   5.272   1.234
 9345SOL    HW128934   6.869   5.198   1.271
 9345SOL    HW228935   6.748   5.235   1.169
 9346SOL     OW28936   4.852   1.148   2.012
 9346SOL    HW128937   4.923   1.198   2.062
 9346SOL    HW228938   4.793   1.101   2.077
 9347SOL     OW28939   3.730   4.091   0.426
 9347SOL    HW128940   3.763   4.095   0.332
 9347SOL    HW228941   3.630   4.090   0.426
 9348SOL     OW28942   2.850   5.644   2.153
 9348SOL    HW128943   2.768   5.701   2.145
 9348SOL    HW228944   2.826   5.557   2.196
 9349SOL     OW28945   5.612   5.112   2.059
 9349SOL    HW128946   5.590   5.130   2.155
 9349SOL    HW228947   5.547   5.046   2.021
 9350SOL     OW28948   6.713   2.192   5.054
 9350SOL    HW128949   6.751   2.277   5.091
 9350SOL    HW228950   6.671   2.210   4.965
 9351SOL     OW28951   3.511   6.918   6.093
 9351SOL    HW128952   3.446   6.896   6.166
 9351SOL    HW228953   3.540   7.014   6.102
 9352SOL     OW28954   3.202   1.611   6.368
 9352SOL    HW128955   3.298   1.623   6.342
 9352SOL    HW228956   3.146   1.677   6.317
 9353SOL     OW28957   0.473   4.675   0.807
 9353SOL    HW128958   0.543   4.716   0.748
 9353SOL    HW228959   0.382   4.707   0.778
 9354SOL     OW28960   0.231   2.102   6.032
 9354SOL    HW128961   0.238   2.019   5.977
 9354SOL    HW228962   0.150   2.096   6.090
 9355SOL     OW28963   0.752   1.615   4.388
 9355SOL    HW128964   0.712   1.686   4.329
 9355SOL    HW228965   0.784   1.657   4.473
 9356SOL     OW28966   4.689   6.067   2.505
 9356SOL    HW128967   4.643   6.059   2.416
 9356SOL    HW228968   4.620   6.073   2.577
 9357SOL     OW28969   2.068   3.832   6.412
 9357SOL    HW128970   2.085   3.775   6.332
 9357SOL    HW228971   1.991   3.893   6.395
 9358SOL     OW28972   6.727   3.445   2.466
 9358SOL    HW128973   6.699   3.519   2.404
 9358SOL    HW228974   6.732   3.481   2.560
 9359SOL     OW28975   1.525   3.886   5.368
 9359SOL    HW128976   1.536   3.973   5.417
 9359SOL    HW228977   1.614   3.840   5.362
 9360SOL     OW28978   1.114   5.464   6.969
 9360SOL    HW128979   1.127   5.555   6.930
 9360SOL    HW228980   1.126   5.468   0.043
 9361SOL     OW28981   1.804   5.571   2.305
 9361SOL    HW128982   1.806   5.609   2.398
 9361SOL    HW228983   1.753   5.633   2.245
 9362SOL     OW28984   2.072   3.690   2.972
 9362SOL    HW128985   2.098   3.679   2.876
 9362SOL    HW228986   2.099   3.608   3.023
 9363SOL     OW28987   3.570   0.018   2.427
 9363SOL    HW128988   3.546   0.113   2.408
 9363SOL    HW228989   3.547   6.986   2.348
 9364SOL     OW28990   4.356   3.217   6.216
 9364SOL    HW128991   4.299   3.287   6.258
 9364SOL    HW228992   4.297   3.143   6.182
 9365SOL     OW28993   2.509   2.002   4.915
 9365SOL    HW128994   2.527   1.959   4.827
 9365SOL    HW228995   2.583   1.980   4.979
 9366SOL     OW28996   3.192   6.415   6.231
 9366SOL    HW128997   3.201   6.510   6.259
 9366SOL    HW228998   3.234   6.356   6.300
 9367SOL     OW28999   0.419   6.914   3.055
 9367SOL    HW129000   0.339   6.856   3.064
 9367SOL    HW229001   0.502   6.860   3.071
 9368SOL     OW29002   2.865   1.113   2.679
 9368SOL    HW129003   2.932   1.160   2.737
 9368SOL    HW229004   2.863   1.157   2.589
 9369SOL     OW29005   0.066   5.980   4.680
 9369SOL    HW129006   0.161   5.996   4.653
 9369SOL    HW229007   0.018   6.068   4.684
 9370SOL     OW29008   4.909   0.331   3.402
 9370SOL    HW129009   4.816   0.293   3.400
 9370SOL    HW229010   4.908   0.422   3.361
 9371SOL     OW29011   2.758   5.370   0.553
 9371SOL    HW129012   2.785   5.306   0.481
 9371SOL    HW229013   2.839   5.417   0.588
 9372SOL     OW29014   5.828   6.936   2.916
 9372SOL    HW129015   5.841   6.987   2.831
 9372SOL    HW229016   5.748   6.877   2.908
 9373SOL     OW29017   4.963   2.087   2.750
 9373SOL    HW129018   4.980   2.097   2.848
 9373SOL    HW229019   4.879   2.035   2.736
 9374SOL     OW29020   0.571   3.711   0.358
 9374SOL    HW129021   0.573   3.657   0.442
 9374SOL    HW229022   0.514   3.792   0.372
 9375SOL     OW29023   0.381   1.187   1.767
 9375SOL    HW129024   0.334   1.210   1.852
 9375SOL    HW229025   0.385   1.088   1.758
 9376SOL     OW29026   2.758   4.012   1.435
 9376SOL    HW129027   2.724   4.106   1.428
 9376SOL    HW229028   2.711   3.965   1.509
 9377SOL     OW29029   1.671   5.499   4.323
 9377SOL    HW129030   1.571   5.503   4.328
 9377SOL    HW229031   1.709   5.568   4.385
 9378SOL     OW29032   1.872   1.487   4.127
 9378SOL    HW129033   1.895   1.505   4.223
 9378SOL    HW229034   1.782   1.444   4.122
 9379SOL     OW29035   4.887   6.200   5.986
 9379SOL    HW129036   4.933   6.192   5.897
 9379SOL    HW229037   4.949   6.171   6.059
 9380SOL     OW29038   4.834   5.688   4.901
 9380SOL    HW129039   4.845   5.656   4.995
 9380SOL    HW229040   4.840   5.788   4.900
 9381SOL     OW29041   3.774   2.573   6.183
 9381SOL    HW129042   3.737   2.480   6.190
 9381SOL    HW229043   3.792   2.609   6.275
 9382SOL     OW29044   3.814   0.839   3.597
 9382SOL    HW129045   3.845   0.805   3.509
 9382SOL    HW229046   3.794   0.761   3.658
 9383SOL     OW29047   0.104   5.431   4.442
 9383SOL    HW129048   0.080   5.528   4.430
 9383SOL    HW229049   0.197   5.416   4.406
 9384SOL     OW29050   4.150   0.631   2.001
 9384SOL    HW129051   4.155   0.701   2.072
 9384SOL    HW229052   4.152   0.541   2.043
 9385SOL     OW29053   4.214   0.811   3.364
 9385SOL    HW129054   4.257   0.896   3.333
 9385SOL    HW229055   4.201   0.815   3.463
 9386SOL     OW29056   1.619   5.968   5.095
 9386SOL    HW129057   1.686   6.028   5.140
 9386SOL    HW229058   1.534   5.967   5.148
 9387SOL     OW29059   3.015   1.694   6.669
 9387SOL    HW129060   2.945   1.763   6.653
 9387SOL    HW229061   3.010   1.624   6.598
 9388SOL     OW29062   3.334   6.156   3.135
 9388SOL    HW129063   3.381   6.243   3.151
 9388SOL    HW229064   3.341   6.131   3.038
 9389SOL     OW29065   2.174   0.217   3.449
 9389SOL    HW129066   2.269   0.189   3.437
 9389SOL    HW229067   2.144   0.272   3.371
 9390SOL     OW29068   4.818   4.730   6.013
 9390SOL    HW129069   4.830   4.657   5.946
 9390SOL    HW229070   4.721   4.751   6.023
 9391SOL     OW29071   2.142   1.712   5.449
 9391SOL    HW129072   2.203   1.706   5.370
 9391SOL    HW229073   2.145   1.805   5.487
 9392SOL     OW29074   5.762   6.058   5.213
 9392SOL    HW129075   5.724   6.150   5.215
 9392SOL    HW229076   5.827   6.047   5.289
 9393SOL     OW29077   2.949   6.679   0.032
 9393SOL    HW129078   3.042   6.648   0.014
 9393SOL    HW229079   2.950   6.777   0.053
 9394SOL     OW29080   6.421   0.668   1.684
 9394SOL    HW129081   6.385   0.576   1.673
 9394SOL    HW229082   6.366   0.733   1.632
 9395SOL     OW29083   3.143   1.830   1.420
 9395SOL    HW129084   3.157   1.903   1.487
 9395SOL    HW229085   3.217   1.763   1.428
 9396SOL     OW29086   2.224   3.989   4.093
 9396SOL    HW129087   2.205   3.925   4.167
 9396SOL    HW229088   2.249   4.078   4.132
 9397SOL     OW29089   4.429   0.203   6.520
 9397SOL    HW129090   4.344   0.241   6.484
 9397SOL    HW229091   4.506   0.257   6.486
 9398SOL     OW29092   6.752   1.202   4.929
 9398SOL    HW129093   6.715   1.240   4.843
 9398SOL    HW229094   6.796   1.275   4.981
 9399SOL     OW29095   0.827   2.885   5.476
 9399SOL    HW129096   0.862   2.798   5.512
 9399SOL    HW229097   0.747   2.912   5.529
 9400SOL     OW29098   4.517   0.925   1.497
 9400SOL    HW129099   4.582   0.993   1.532
 9400SOL    HW229100   4.567   0.844   1.467
 9401SOL     OW29101   6.623   0.739   3.490
 9401SOL    HW129102   6.598   0.674   3.419
 9401SOL    HW229103   6.642   0.690   3.575
 9402SOL     OW29104   1.014   5.034   2.926
 9402SOL    HW129105   1.048   5.095   2.855
 9402SOL    HW229106   0.917   5.015   2.910
 9403SOL     OW29107   6.555   1.206   2.546
 9403SOL    HW129108   6.551   1.157   2.633
 9403SOL    HW229109   6.649   1.207   2.512
 9404SOL     OW29110   1.029   3.085   0.467
 9404SOL    HW129111   1.123   3.060   0.442
 9404SOL    HW229112   0.996   3.021   0.537
 9405SOL     OW29113   2.243   4.322   3.769
 9405SOL    HW129114   2.241   4.224   3.787
 9405SOL    HW229115   2.149   4.356   3.760
 9406SOL     OW29116   6.788   2.705   6.060
 9406SOL    HW129117   6.759   2.651   5.981
 9406SOL    HW229118   6.811   2.798   6.030
 9407SOL     OW29119   2.886   4.763   3.571
 9407SOL    HW129120   2.961   4.783   3.633
 9407SOL    HW229121   2.799   4.784   3.616
 9408SOL     OW29122   6.816   2.983   5.721
 9408SOL    HW129123   6.800   3.082   5.727
 9408SOL    HW229124   6.728   2.936   5.720
 9409SOL     OW29125   5.846   5.612   0.505
 9409SOL    HW129126   5.778   5.622   0.433
 9409SOL    HW229127   5.924   5.560   0.470
 9410SOL     OW29128   2.420   0.578   2.233
 9410SOL    HW129129   2.422   0.604   2.136
 9410SOL    HW229130   2.409   0.479   2.240
 9411SOL     OW29131   3.592   3.503   2.488
 9411SOL    HW129132   3.513   3.476   2.433
 9411SOL    HW229133   3.672   3.451   2.459
 9412SOL     OW29134   0.861   1.093   2.718
 9412SOL    HW129135   0.908   1.084   2.806
 9412SOL    HW229136   0.927   1.084   2.644
 9413SOL     OW29137   3.983   5.983   3.827
 9413SOL    HW129138   3.990   5.961   3.729
 9413SOL    HW229139   3.920   6.059   3.840
 9414SOL     OW29140   3.008   1.272   2.863
 9414SOL    HW129141   3.022   1.259   2.961
 9414SOL    HW229142   2.925   1.326   2.848
 9415SOL     OW29143   2.659   6.929   2.665
 9415SOL    HW129144   2.642   7.025   2.641
 9415SOL    HW229145   2.742   6.923   2.721
 9416SOL     OW29146   0.007   2.049   6.856
 9416SOL    HW129147   6.952   1.993   6.835
 9416SOL    HW229148   7.005   2.128   6.910
 9417SOL     OW29149   4.356   0.503   0.923
 9417SOL    HW129150   4.324   0.412   0.898
 9417SOL    HW229151   4.444   0.497   0.970
 9418SOL     OW29152   3.223   0.708   1.324
 9418SOL    HW129153   3.267   0.625   1.290
 9418SOL    HW229154   3.293   0.772   1.355
 9419SOL     OW29155   2.929   4.319   5.612
 9419SOL    HW129156   2.867   4.242   5.603
 9419SOL    HW229157   3.021   4.286   5.631
 9420SOL     OW29158   5.587   4.143   6.026
 9420SOL    HW129159   5.571   4.218   6.090
 9420SOL    HW229160   5.681   4.149   5.991
 9421SOL     OW29161   2.549   6.248   4.514
 9421SOL    HW129162   2.615   6.177   4.487
 9421SOL    HW229163   2.583   6.337   4.485
 9422SOL     OW29164   2.825   5.329   2.791
 9422SOL    HW129165   2.918   5.302   2.765
 9422SOL    HW229166   2.782   5.378   2.715
 9423SOL     OW29167   2.780   6.564   3.689
 9423SOL    HW129168   2.747   6.599   3.602
 9423SOL    HW229169   2.865   6.513   3.675
 9424SOL     OW29170   5.218   2.334   5.022
 9424SOL    HW129171   5.143   2.401   5.026
 9424SOL    HW229172   5.256   2.322   5.114
 9425SOL     OW29173   5.373   3.924   1.177
 9425SOL    HW129174   5.295   3.968   1.223
 9425SOL    HW229175   5.411   3.986   1.108
 9426SOL     OW29176   3.522   1.756   6.049
 9426SOL    HW129177   3.496   1.805   5.966
 9426SOL    HW229178   3.484   1.664   6.047
 9427SOL     OW29179   2.312   5.364   3.271
 9427SOL    HW129180   2.376   5.431   3.308
 9427SOL    HW229181   2.242   5.343   3.339
 9428SOL     OW29182   6.614   1.119   1.624
 9428SOL    HW129183   6.521   1.134   1.659
 9428SOL    HW229184   6.617   1.033   1.574
 9429SOL     OW29185   2.104   4.223   3.072
 9429SOL    HW129186   2.169   4.291   3.107
 9429SOL    HW229187   2.039   4.268   3.012
 9430SOL     OW29188   0.478   3.411   4.822
 9430SOL    HW129189   0.567   3.367   4.827
 9430SOL    HW229190   0.430   3.379   4.740
 9431SOL     OW29191   6.530   4.212   0.659
 9431SOL    HW129192   6.542   4.223   0.560
 9431SOL    HW229193   6.596   4.146   0.693
 9432SOL     OW29194   5.692   0.270   3.532
 9432SOL    HW129195   5.680   0.227   3.621
 9432SOL    HW229196   5.630   0.349   3.524
 9433SOL     OW29197   2.982   6.036   3.279
 9433SOL    HW129198   3.038   5.955   3.297
 9433SOL    HW229199   2.928   6.057   3.361
 9434SOL     OW29200   5.349   5.390   2.118
 9434SOL    HW129201   5.380   5.486   2.116
 9434SOL    HW229202   5.383   5.343   2.037
 9435SOL     OW29203   0.883   2.589   4.127
 9435SOL    HW129204   0.964   2.618   4.076
 9435SOL    HW229205   0.801   2.600   4.070
 9436SOL     OW29206   1.896   3.051   1.200
 9436SOL    HW129207   1.920   2.989   1.275
 9436SOL    HW229208   1.969   3.051   1.131
 9437SOL     OW29209   1.118   5.935   3.070
 9437SOL    HW129210   1.025   5.972   3.070
 9437SOL    HW229211   1.114   5.835   3.075
 9438SOL     OW29212   0.688   6.827   1.593
 9438SOL    HW129213   0.730   6.738   1.577
 9438SOL    HW229214   0.595   6.814   1.626
 9439SOL     OW29215   0.265   3.073   0.228
 9439SOL    HW129216   0.173   3.036   0.211
 9439SOL    HW229217   0.333   3.004   0.203
 9440SOL     OW29218   4.080   4.774   3.396
 9440SOL    HW129219   4.168   4.739   3.361
 9440SOL    HW229220   4.094   4.814   3.486
 9441SOL     OW29221   6.074   4.276   5.827
 9441SOL    HW129222   6.135   4.269   5.907
 9441SOL    HW229223   6.101   4.354   5.771
 9442SOL     OW29224   4.416   3.507   1.234
 9442SOL    HW129225   4.469   3.426   1.259
 9442SOL    HW229226   4.416   3.572   1.310
 9443SOL     OW29227   2.603   4.868   1.124
 9443SOL    HW129228   2.611   4.967   1.135
 9443SOL    HW229229   2.661   4.822   1.191
 9444SOL     OW29230   1.544   3.631   0.895
 9444SOL    HW129231   1.559   3.722   0.932
 9444SOL    HW229232   1.448   3.604   0.910
 9445SOL     OW29233   6.199   3.042   2.793
 9445SOL    HW129234   6.179   3.039   2.890
 9445SOL    HW229235   6.296   3.061   2.779
 9446SOL     OW29236   5.958   5.655   4.656
 9446SOL    HW129237   5.998   5.601   4.730
 9446SOL    HW229238   6.019   5.652   4.576
 9447SOL     OW29239   5.945   4.880   3.672
 9447SOL    HW129240   5.896   4.886   3.759
 9447SOL    HW229241   6.020   4.814   3.680
 9448SOL     OW29242   0.021   0.173   6.322
 9448SOL    HW129243   6.948   0.156   6.324
 9448SOL    HW229244   0.056   0.153   6.231
 9449SOL     OW29245   5.449   0.445   0.087
 9449SOL    HW129246   5.458   0.394   0.173
 9449SOL    HW229247   5.352   0.456   0.065
 9450SOL     OW29248   2.081   5.722   4.390
 9450SOL    HW129249   2.091   5.627   4.361
 9450SOL    HW229250   2.040   5.775   4.315
 9451SOL     OW29251   4.629   7.013   5.534
 9451SOL    HW129252   4.725   0.011   5.517
 9451SOL    HW229253   4.623   6.950   5.612
 9452SOL     OW29254   2.200   3.867   0.008
 9452SOL    HW129255   2.235   3.849   6.941
 9452SOL    HW229256   2.149   3.953   0.008
 9453SOL     OW29257   2.678   4.687   2.794
 9453SOL    HW129258   2.615   4.711   2.721
 9453SOL    HW229259   2.627   4.651   2.872
 9454SOL     OW29260   3.598   4.095   6.449
 9454SOL    HW129261   3.533   4.049   6.388
 9454SOL    HW229262   3.687   4.101   6.405
 9455SOL     OW29263   2.511   1.891   3.990
 9455SOL    HW129264   2.475   1.982   4.007
 9455SOL    HW229265   2.585   1.896   3.923
 9456SOL     OW29266   6.974   3.465   0.981
 9456SOL    HW129267   7.002   3.380   1.027
 9456SOL    HW229268   6.886   3.495   1.017
 9457SOL     OW29269   1.736   3.854   3.974
 9457SOL    HW129270   1.822   3.825   3.934
 9457SOL    HW229271   1.720   3.951   3.953
 9458SOL     OW29272   0.767   3.495   6.640
 9458SOL    HW129273   0.813   3.569   6.591
 9458SOL    HW229274   0.682   3.529   6.680
 9459SOL     OW29275   5.447   4.523   3.786
 9459SOL    HW129276   5.509   4.460   3.833
 9459SOL    HW229277   5.500   4.598   3.747
 9460SOL     OW29278   1.763   3.384   3.594
 9460SOL    HW129279   1.756   3.465   3.652
 9460SOL    HW229280   1.843   3.330   3.622
 9461SOL     OW29281   0.134   1.815   1.433
 9461SOL    HW129282   0.070   1.773   1.496
 9461SOL    HW229283   0.192   1.881   1.482
 9462SOL     OW29284   1.859   3.553   3.187
 9462SOL    HW129285   1.872   3.545   3.088
 9462SOL    HW229286   1.879   3.647   3.215
 9463SOL     OW29287   6.111   0.456   1.412
 9463SOL    HW129288   6.179   0.526   1.393
 9463SOL    HW229289   6.084   0.411   1.327
 9464SOL     OW29290   6.271   0.666   1.341
 9464SOL    HW129291   6.252   0.708   1.252
 9464SOL    HW229292   6.294   0.737   1.407
 9465SOL     OW29293   0.448   4.245   1.903
 9465SOL    HW129294   0.484   4.153   1.890
 9465SOL    HW229295   0.523   4.307   1.929
 9466SOL     OW29296   3.737   4.802   5.266
 9466SOL    HW129297   3.824   4.819   5.221
 9466SOL    HW229298   3.737   4.711   5.307
 9467SOL     OW29299   1.616   2.525   1.462
 9467SOL    HW129300   1.574   2.446   1.419
 9467SOL    HW229301   1.572   2.609   1.428
 9468SOL     OW29302   5.838   3.655   6.369
 9468SOL    HW129303   5.880   3.588   6.307
 9468SOL    HW229304   5.792   3.725   6.315
 9469SOL     OW29305   6.555   5.103   1.981
 9469SOL    HW129306   6.475   5.054   1.948
 9469SOL    HW229307   6.572   5.079   2.076
 9470SOL     OW29308   5.163   3.421   6.350
 9470SOL    HW129309   5.122   3.488   6.288
 9470SOL    HW229310   5.197   3.344   6.297
 9471SOL     OW29311   6.518   2.312   4.014
 9471SOL    HW129312   6.425   2.279   4.026
 9471SOL    HW229313   6.582   2.235   4.019
 9472SOL     OW29314   6.297   3.056   5.098
 9472SOL    HW129315   6.382   3.102   5.072
 9472SOL    HW229316   6.313   2.957   5.103
 9473SOL     OW29317   2.744   4.974   0.140
 9473SOL    HW129318   2.742   4.875   0.152
 9473SOL    HW229319   2.776   4.996   0.048
 9474SOL     OW29320   6.785   3.167   6.982
 9474SOL    HW129321   6.843   3.229   6.930
 9474SOL    HW229322   6.841   3.100   0.004
 9475SOL     OW29323   3.507   3.188   6.710
 9475SOL    HW129324   3.477   3.210   6.802
 9475SOL    HW229325   3.607   3.177   6.709
 9476SOL     OW29326   3.938   3.681   4.259
 9476SOL    HW129327   3.866   3.634   4.310
 9476SOL    HW229328   4.020   3.624   4.257
 9477SOL     OW29329   1.012   2.721   0.435
 9477SOL    HW129330   1.111   2.713   0.423
 9477SOL    HW229331   0.974   2.773   0.359
 9478SOL     OW29332   5.251   3.346   1.088
 9478SOL    HW129333   5.200   3.277   1.140
 9478SOL    HW229334   5.341   3.359   1.130
 9479SOL     OW29335   4.623   6.476   0.281
 9479SOL    HW129336   4.722   6.469   0.272
 9479SOL    HW229337   4.581   6.389   0.252
 9480SOL     OW29338   5.738   4.604   0.895
 9480SOL    HW129339   5.794   4.528   0.926
 9480SOL    HW229340   5.736   4.606   0.795
 9481SOL     OW29341   4.992   3.092   2.788
 9481SOL    HW129342   4.960   3.151   2.863
 9481SOL    HW229343   4.928   3.099   2.712
 9482SOL     OW29344   0.515   1.191   2.413
 9482SOL    HW129345   0.450   1.267   2.408
 9482SOL    HW229346   0.569   1.188   2.329
 9483SOL     OW29347   1.786   0.637   1.167
 9483SOL    HW129348   1.850   0.570   1.205
 9483SOL    HW229349   1.831   0.725   1.158
 9484SOL     OW29350   4.471   0.498   4.200
 9484SOL    HW129351   4.469   0.419   4.260
 9484SOL    HW229352   4.382   0.543   4.200
 9485SOL     OW29353   0.588   0.871   0.948
 9485SOL    HW129354   0.557   0.966   0.940
 9485SOL    HW229355   0.688   0.869   0.951
 9486SOL     OW29356   3.776   6.513   0.899
 9486SOL    HW129357   3.757   6.415   0.889
 9486SOL    HW229358   3.721   6.564   0.833
 9487SOL     OW29359   3.443   3.859   4.073
 9487SOL    HW129360   3.478   3.830   4.162
 9487SOL    HW229361   3.429   3.958   4.073
 9488SOL     OW29362   2.980   0.269   1.395
 9488SOL    HW129363   3.010   0.216   1.474
 9488SOL    HW229364   3.016   0.228   1.311
 9489SOL     OW29365   4.504   4.233   0.882
 9489SOL    HW129366   4.567   4.188   0.819
 9489SOL    HW229367   4.555   4.271   0.959
 9490SOL     OW29368   5.498   5.067   2.364
 9490SOL    HW129369   5.449   5.116   2.437
 9490SOL    HW229370   5.593   5.051   2.391
 9491SOL     OW29371   5.713   4.636   3.777
 9491SOL    HW129372   5.719   4.708   3.846
 9491SOL    HW229373   5.748   4.671   3.690
 9492SOL     OW29374   3.329   2.958   4.658
 9492SOL    HW129375   3.354   3.051   4.631
 9492SOL    HW229376   3.274   2.916   4.586
 9493SOL     OW29377   2.736   5.695   4.585
 9493SOL    HW129378   2.689   5.758   4.647
 9493SOL    HW229379   2.680   5.680   4.504
 9494SOL     OW29380   5.066   2.781   2.580
 9494SOL    HW129381   5.052   2.720   2.501
 9494SOL    HW229382   4.977   2.810   2.615
 9495SOL     OW29383   6.301   1.818   3.033
 9495SOL    HW129384   6.201   1.825   3.028
 9495SOL    HW229385   6.341   1.909   3.021
 9496SOL     OW29386   5.734   3.674   1.401
 9496SOL    HW129387   5.688   3.762   1.388
 9496SOL    HW229388   5.701   3.609   1.332
 9497SOL     OW29389   5.801   0.036   6.343
 9497SOL    HW129390   5.772   6.966   6.341
 9497SOL    HW229391   5.832   0.061   6.435
 9498SOL     OW29392   4.916   6.482   4.658
 9498SOL    HW129393   4.961   6.561   4.617
 9498SOL    HW229394   4.863   6.434   4.588
 9499SOL     OW29395   2.263   4.954   6.354
 9499SOL    HW129396   2.314   4.945   6.269
 9499SOL    HW229397   2.291   4.883   6.418
 9500SOL     OW29398   4.792   6.992   1.051
 9500SOL    HW129399   4.880   6.950   1.031
 9500SOL    HW229400   4.727   6.973   0.978
 9501SOL     OW29401   2.717   1.290   5.243
 9501SOL    HW129402   2.714   1.259   5.148
 9501SOL    HW229403   2.729   1.389   5.245
 9502SOL     OW29404   5.729   2.704   5.248
 9502SOL    HW129405   5.688   2.704   5.339
 9502SOL    HW229406   5.814   2.652   5.249
 9503SOL     OW29407   0.933   1.976   1.662
 9503SOL    HW129408   0.949   2.068   1.699
 9503SOL    HW229409   1.008   1.951   1.601
 9504SOL     OW29410   0.039   2.728   0.646
 9504SOL    HW129411   6.982   2.676   0.668
 9504SOL    HW229412   0.114   2.698   0.705
 9505SOL     OW29413   5.229   4.192   4.543
 9505SOL    HW129414   5.212   4.104   4.499
 9505SOL    HW229415   5.210   4.266   4.478
 9506SOL     OW29416   1.365   2.567   6.586
 9506SOL    HW129417   1.360   2.485   6.643
 9506SOL    HW229418   1.277   2.614   6.589
 9507SOL     OW29419   0.716   1.332   2.742
 9507SOL    HW129420   0.764   1.251   2.708
 9507SOL    HW229421   0.749   1.354   2.834
 9508SOL     OW29422   5.894   1.767   1.355
 9508SOL    HW129423   5.831   1.690   1.370
 9508SOL    HW229424   5.847   1.838   1.302
 9509SOL     OW29425   0.813   1.012   3.783
 9509SOL    HW129426   0.908   0.985   3.771
 9509SOL    HW229427   0.800   1.104   3.746
 9510SOL     OW29428   1.948   3.828   3.248
 9510SOL    HW129429   2.021   3.852   3.312
 9510SOL    HW229430   1.922   3.908   3.195
 9511SOL     OW29431   1.442   0.366   1.028
 9511SOL    HW129432   1.442   0.392   0.931
 9511SOL    HW229433   1.533   0.381   1.066
 9512SOL     OW29434   5.929   1.506   1.709
 9512SOL    HW129435   5.970   1.577   1.652
 9512SOL    HW229436   5.895   1.432   1.651
 9513SOL     OW29437   2.174   3.750   6.148
 9513SOL    HW129438   2.087   3.774   6.106
 9513SOL    HW229439   2.231   3.832   6.158
 9514SOL     OW29440   1.714   5.362   5.729
 9514SOL    HW129441   1.687   5.276   5.686
 9514SOL    HW229442   1.718   5.351   5.828
 9515SOL     OW29443   1.959   5.683   0.745
 9515SOL    HW129444   1.881   5.659   0.802
 9515SOL    HW229445   1.952   5.636   0.657
 9516SOL     OW29446   6.246   4.663   6.760
 9516SOL    HW129447   6.295   4.613   6.832
 9516SOL    HW229448   6.162   4.614   6.737
 9517SOL     OW29449   1.881   4.774   0.937
 9517SOL    HW129450   1.872   4.874   0.941
 9517SOL    HW229451   1.944   4.744   1.009
 9518SOL     OW29452   1.624   1.727   0.286
 9518SOL    HW129453   1.587   1.683   0.204
 9518SOL    HW229454   1.710   1.682   0.311
 9519SOL     OW29455   3.738   3.762   4.639
 9519SOL    HW129456   3.732   3.737   4.543
 9519SOL    HW229457   3.663   3.825   4.661
 9520SOL     OW29458   1.960   1.624   3.372
 9520SOL    HW129459   1.922   1.536   3.403
 9520SOL    HW229460   1.963   1.687   3.449
 9521SOL     OW29461   4.776   5.680   1.781
 9521SOL    HW129462   4.851   5.618   1.758
 9521SOL    HW229463   4.812   5.771   1.802
 9522SOL     OW29464   2.707   5.572   1.291
 9522SOL    HW129465   2.803   5.586   1.270
 9522SOL    HW229466   2.664   5.659   1.313
 9523SOL     OW29467   2.691   4.654   4.760
 9523SOL    HW129468   2.760   4.719   4.731
 9523SOL    HW229469   2.710   4.626   4.855
 9524SOL     OW29470   3.618   2.972   1.685
 9524SOL    HW129471   3.642   2.910   1.761
 9524SOL    HW229472   3.534   2.940   1.642
 9525SOL     OW29473   2.491   3.349   5.552
 9525SOL    HW129474   2.544   3.295   5.487
 9525SOL    HW229475   2.398   3.313   5.559
 9526SOL     OW29476   5.214   5.679   1.715
 9526SOL    HW129477   5.291   5.734   1.747
 9526SOL    HW229478   5.226   5.658   1.618
 9527SOL     OW29479   1.084   0.446   3.127
 9527SOL    HW129480   1.171   0.493   3.143
 9527SOL    HW229481   1.043   0.423   3.215
 9528SOL     OW29482   0.376   1.404   6.988
 9528SOL    HW129483   0.282   1.373   6.971
 9528SOL    HW229484   0.394   1.488   6.937
 9529SOL     OW29485   6.111   3.195   5.251
 9529SOL    HW129486   6.148   3.151   5.169
 9529SOL    HW229487   6.186   3.224   5.310
 9530SOL     OW29488   1.716   3.701   2.197
 9530SOL    HW129489   1.689   3.605   2.190
 9530SOL    HW229490   1.816   3.708   2.200
 9531SOL     OW29491   4.914   5.208   3.077
 9531SOL    HW129492   4.835   5.148   3.090
 9531SOL    HW229493   4.990   5.156   3.038
 9532SOL     OW29494   0.217   6.866   2.266
 9532SOL    HW129495   0.292   6.804   2.292
 9532SOL    HW229496   0.255   6.950   2.228
 9533SOL     OW29497   6.644   6.999   5.671
 9533SOL    HW129498   6.607   0.033   5.598
 9533SOL    HW229499   6.593   6.913   5.672
 9534SOL     OW29500   6.915   3.240   5.449
 9534SOL    HW129501   6.875   3.254   5.540
 9534SOL    HW229502   6.864   3.294   5.382
 9535SOL     OW29503   2.770   1.589   5.688
 9535SOL    HW129504   2.675   1.593   5.658
 9535SOL    HW229505   2.773   1.577   5.787
 9536SOL     OW29506   2.622   4.867   5.419
 9536SOL    HW129507   2.682   4.790   5.399
 9536SOL    HW229508   2.629   4.935   5.345
 9537SOL     OW29509   2.753   6.407   2.597
 9537SOL    HW129510   2.841   6.364   2.577
 9537SOL    HW229511   2.767   6.500   2.632
 9538SOL     OW29512   6.368   1.703   3.272
 9538SOL    HW129513   6.449   1.761   3.268
 9538SOL    HW229514   6.305   1.727   3.198
 9539SOL     OW29515   2.405   3.787   5.370
 9539SOL    HW129516   2.448   3.697   5.367
 9539SOL    HW229517   2.455   3.849   5.309
 9540SOL     OW29518   6.068   4.161   4.213
 9540SOL    HW129519   5.970   4.176   4.225
 9540SOL    HW229520   6.107   4.234   4.158
 9541SOL     OW29521   3.200   1.365   5.402
 9541SOL    HW129522   3.219   1.461   5.422
 9541SOL    HW229523   3.108   1.342   5.434
 9542SOL     OW29524   5.327   3.885   4.690
 9542SOL    HW129525   5.352   3.886   4.593
 9542SOL    HW229526   5.286   3.797   4.713
 9543SOL     OW29527   3.489   0.986   5.011
 9543SOL    HW129528   3.498   1.033   5.098
 9543SOL    HW229529   3.395   0.952   5.000
 9544SOL     OW29530   0.645   1.085   3.470
 9544SOL    HW129531   0.659   1.161   3.406
 9544SOL    HW229532   0.699   1.006   3.441
 9545SOL     OW29533   6.026   5.165   3.924
 9545SOL    HW129534   5.983   5.076   3.907
 9545SOL    HW229535   6.117   5.151   3.963
 9546SOL     OW29536   3.109   2.731   5.565
 9546SOL    HW129537   3.094   2.755   5.469
 9546SOL    HW229538   3.206   2.742   5.587
 9547SOL     OW29539   2.681   6.229   4.195
 9547SOL    HW129540   2.704   6.206   4.101
 9547SOL    HW229541   2.762   6.266   4.241
 9548SOL     OW29542   5.943   6.311   5.490
 9548SOL    HW129543   5.918   6.355   5.403
 9548SOL    HW229544   5.863   6.266   5.529
 9549SOL     OW29545   2.760   3.008   1.143
 9549SOL    HW129546   2.838   3.058   1.181
 9549SOL    HW229547   2.786   2.913   1.126
 9550SOL     OW29548   0.387   1.462   0.455
 9550SOL    HW129549   0.402   1.372   0.414
 9550SOL    HW229550   0.389   1.532   0.383
 9551SOL     OW29551   6.390   1.281   3.762
 9551SOL    HW129552   6.333   1.282   3.680
 9551SOL    HW229553   6.335   1.248   3.840
 9552SOL     OW29554   1.301   5.979   2.585
 9552SOL    HW129555   1.218   5.924   2.592
 9552SOL    HW229556   1.283   6.059   2.527
 9553SOL     OW29557   6.233   4.008   6.703
 9553SOL    HW129558   6.138   4.037   6.690
 9553SOL    HW229559   6.291   4.088   6.716
 9554SOL     OW29560   2.176   0.671   1.775
 9554SOL    HW129561   2.223   0.759   1.780
 9554SOL    HW229562   2.091   0.675   1.826
 9555SOL     OW29563   1.032   1.132   2.515
 9555SOL    HW129564   1.050   1.070   2.439
 9555SOL    HW229565   0.996   1.218   2.480
 9556SOL     OW29566   2.304   2.342   1.236
 9556SOL    HW129567   2.290   2.424   1.180
 9556SOL    HW229568   2.355   2.275   1.183
 9557SOL     OW29569   6.954   0.490   3.165
 9557SOL    HW129570   0.024   0.471   3.189
 9557SOL    HW229571   6.904   0.404   3.154
 9558SOL     OW29572   6.682   6.284   4.570
 9558SOL    HW129573   6.624   6.350   4.521
 9558SOL    HW229574   6.699   6.205   4.512
 9559SOL     OW29575   0.356   3.893   1.355
 9559SOL    HW129576   0.420   3.970   1.359
 9559SOL    HW229577   0.315   3.888   1.264
 9560SOL     OW29578   1.513   1.511   3.116
 9560SOL    HW129579   1.440   1.461   3.070
 9560SOL    HW229580   1.569   1.559   3.049
 9561SOL     OW29581   1.032   6.402   0.059
 9561SOL    HW129582   1.106   6.468   0.077
 9561SOL    HW229583   1.068   6.309   0.069
 9562SOL     OW29584   3.337   0.196   5.130
 9562SOL    HW129585   3.334   0.295   5.128
 9562SOL    HW229586   3.364   0.164   5.221
 9563SOL     OW29587   6.566   0.034   0.531
 9563SOL    HW129588   6.543   6.962   0.519
 9563SOL    HW229589   6.636   0.043   0.602
 9564SOL     OW29590   2.698   6.954   6.774
 9564SOL    HW129591   2.619   6.897   6.796
 9564SOL    HW229592   2.674   0.025   6.785
 9565SOL     OW29593   4.335   6.038   5.327
 9565SOL    HW129594   4.272   6.104   5.366
 9565SOL    HW229595   4.302   5.945   5.347
 9566SOL     OW29596   2.817   5.258   6.707
 9566SOL    HW129597   2.827   5.176   6.651
 9566SOL    HW229598   2.749   5.241   6.779
 9567SOL     OW29599   6.409   4.381   6.483
 9567SOL    HW129600   6.378   4.402   6.575
 9567SOL    HW229601   6.429   4.467   6.434
 9568SOL     OW29602   4.506   2.730   6.672
 9568SOL    HW129603   4.558   2.793   6.615
 9568SOL    HW229604   4.524   2.749   6.769
 9569SOL     OW29605   0.315   0.538   2.561
 9569SOL    HW129606   0.300   0.623   2.611
 9569SOL    HW229607   0.411   0.530   2.535
 9570SOL     OW29608   0.826   2.653   2.091
 9570SOL    HW129609   0.821   2.723   2.163
 9570SOL    HW229610   0.876   2.573   2.126
 9571SOL     OW29611   2.592   3.709   6.897
 9571SOL    HW129612   2.520   3.777   6.887
 9571SOL    HW229613   2.561   3.638   6.961
 9572SOL     OW29614   1.713   5.578   0.665
 9572SOL    HW129615   1.730   5.550   0.571
 9572SOL    HW229616   1.668   5.504   0.715
 9573SOL     OW29617   0.766   1.539   6.633
 9573SOL    HW129618   0.815   1.503   6.712
 9573SOL    HW229619   0.802   1.629   6.609
 9574SOL     OW29620   3.793   3.049   4.048
 9574SOL    HW129621   3.851   3.012   4.120
 9574SOL    HW229622   3.813   3.146   4.034
 9575SOL     OW29623   5.998   1.098   0.721
 9575SOL    HW129624   5.980   1.171   0.788
 9575SOL    HW229625   5.952   1.015   0.750
 9576SOL     OW29626   3.174   0.555   2.500
 9576SOL    HW129627   3.186   0.485   2.571
 9576SOL    HW229628   3.081   0.591   2.504
 9577SOL     OW29629   1.373   1.143   3.940
 9577SOL    HW129630   1.387   1.072   4.009
 9577SOL    HW229631   1.319   1.106   3.865
 9578SOL     OW29632   0.058   3.510   3.496
 9578SOL    HW129633   0.132   3.500   3.429
 9578SOL    HW229634   0.029   3.606   3.499
 9579SOL     OW29635   1.945   5.339   2.776
 9579SOL    HW129636   2.022   5.372   2.720
 9579SOL    HW229637   1.941   5.391   2.861
 9580SOL     OW29638   4.528   3.094   0.550
 9580SOL    HW129639   4.579   3.162   0.602
 9580SOL    HW229640   4.430   3.103   0.571
 9581SOL     OW29641   1.457   5.291   6.348
 9581SOL    HW129642   1.449   5.216   6.283
 9581SOL    HW229643   1.553   5.309   6.367
 9582SOL     OW29644   4.395   4.667   4.802
 9582SOL    HW129645   4.351   4.633   4.885
 9582SOL    HW229646   4.494   4.665   4.813
 9583SOL     OW29647   2.881   3.733   1.080
 9583SOL    HW129648   2.932   3.669   1.138
 9583SOL    HW229649   2.938   3.811   1.058
 9584SOL     OW29650   6.161   6.831   0.091
 9584SOL    HW129651   6.231   6.827   0.020
 9584SOL    HW229652   6.198   6.793   0.176
 9585SOL     OW29653   6.262   0.651   3.216
 9585SOL    HW129654   6.182   0.623   3.164
 9585SOL    HW229655   6.233   0.691   3.304
 9586SOL     OW29656   5.946   3.881   1.997
 9586SOL    HW129657   6.029   3.845   1.956
 9586SOL    HW229658   5.866   3.844   1.949
 9587SOL     OW29659   6.231   0.672   2.221
 9587SOL    HW129660   6.189   0.629   2.141
 9587SOL    HW229661   6.330   0.676   2.208
 9588SOL     OW29662   0.644   1.763   2.162
 9588SOL    HW129663   0.672   1.847   2.208
 9588SOL    HW229664   0.654   1.686   2.225
 9589SOL     OW29665   2.820   5.958   6.271
 9589SOL    HW129666   2.824   5.873   6.323
 9589SOL    HW229667   2.726   5.976   6.243
 9590SOL     OW29668   0.291   5.014   2.308
 9590SOL    HW129669   0.383   5.048   2.293
 9590SOL    HW229670   0.294   4.915   2.323
 9591SOL     OW29671   3.020   6.268   0.150
 9591SOL    HW129672   3.109   6.312   0.165
 9591SOL    HW229673   2.949   6.339   0.144
 9592SOL     OW29674   3.824   4.801   1.719
 9592SOL    HW129675   3.884   4.725   1.695
 9592SOL    HW229676   3.772   4.777   1.801
 9593SOL     OW29677   6.302   1.227   4.569
 9593SOL    HW129678   6.391   1.237   4.612
 9593SOL    HW229679   6.254   1.315   4.570
 9594SOL     OW29680   1.041   5.704   3.420
 9594SOL    HW129681   1.032   5.682   3.322
 9594SOL    HW229682   0.950   5.701   3.462
 9595SOL     OW29683   2.172   4.485   4.358
 9595SOL    HW129684   2.099   4.483   4.290
 9595SOL    HW229685   2.141   4.533   4.440
 9596SOL     OW29686   0.001   5.616   0.339
 9596SOL    HW129687   0.088   5.664   0.345
 9596SOL    HW229688   6.980   5.641   0.254
 9597SOL     OW29689   0.194   4.437   1.056
 9597SOL    HW129690   0.215   4.535   1.062
 9597SOL    HW229691   0.156   4.417   0.966
 9598SOL     OW29692   0.833   3.969   4.927
 9598SOL    HW129693   0.911   3.985   4.988
 9598SOL    HW229694   0.824   4.045   4.863
 9599SOL     OW29695   3.436   0.693   5.325
 9599SOL    HW129696   3.524   0.707   5.280
 9599SOL    HW229697   3.376   0.771   5.308
 9600SOL     OW29698   1.909   6.874   6.228
 9600SOL    HW129699   1.971   6.907   6.157
 9600SOL    HW229700   1.833   6.939   6.239
 9601SOL     OW29701   6.365   4.279   0.024
 9601SOL    HW129702   6.453   4.321   0.045
 9601SOL    HW229703   6.292   4.327   0.073
 9602SOL     OW29704   5.995   4.879   6.222
 9602SOL    HW129705   6.047   4.819   6.283
 9602SOL    HW229706   6.052   4.902   6.143
 9603SOL     OW29707   2.999   0.032   4.803
 9603SOL    HW129708   3.037   0.045   4.895
 9603SOL    HW229709   2.987   0.120   4.759
 9604SOL     OW29710   4.885   0.277   0.772
 9604SOL    HW129711   4.966   0.230   0.736
 9604SOL    HW229712   4.840   0.219   0.840
 9605SOL     OW29713   0.103   4.691   5.287
 9605SOL    HW129714   0.150   4.719   5.371
 9605SOL    HW229715   0.028   4.755   5.268
 9606SOL     OW29716   0.810   6.581   4.801
 9606SOL    HW129717   0.749   6.511   4.839
 9606SOL    HW229718   0.905   6.558   4.824
 9607SOL     OW29719   1.043   2.481   2.243
 9607SOL    HW129720   1.092   2.435   2.169
 9607SOL    HW229721   1.064   2.579   2.241
 9608SOL     OW29722   0.049   6.373   2.833
 9608SOL    HW129723   0.060   6.430   2.915
 9608SOL    HW229724   0.137   6.365   2.787
 9609SOL     OW29725   1.385   3.851   4.999
 9609SOL    HW129726   1.313   3.839   4.930
 9609SOL    HW229727   1.407   3.948   5.008
 9610SOL     OW29728   1.660   4.091   4.377
 9610SOL    HW129729   1.561   4.100   4.365
 9610SOL    HW229730   1.694   4.163   4.437
 9611SOL     OW29731   0.249   6.459   1.021
 9611SOL    HW129732   0.211   6.489   1.109
 9611SOL    HW229733   0.214   6.369   0.998
 9612SOL     OW29734   6.117   3.380   1.611
 9612SOL    HW129735   6.194   3.337   1.659
 9612SOL    HW229736   6.084   3.319   1.539
 9613SOL     OW29737   4.586   5.944   3.691
 9613SOL    HW129738   4.590   6.012   3.763
 9613SOL    HW229739   4.676   5.935   3.648
 9614SOL     OW29740   3.832   3.603   1.282
 9614SOL    HW129741   3.738   3.637   1.290
 9614SOL    HW229742   3.889   3.674   1.239
 9615SOL     OW29743   0.921   6.766   2.446
 9615SOL    HW129744   0.969   6.721   2.370
 9615SOL    HW229745   0.958   6.732   2.533
 9616SOL     OW29746   4.041   4.052   0.308
 9616SOL    HW129747   4.048   4.066   0.407
 9616SOL    HW229748   4.114   4.102   0.262
 9617SOL     OW29749   0.858   3.858   3.994
 9617SOL    HW129750   0.954   3.866   4.021
 9617SOL    HW229751   0.851   3.800   3.913
 9618SOL     OW29752   4.199   6.653   6.024
 9618SOL    HW129753   4.280   6.603   6.054
 9618SOL    HW229754   4.125   6.638   6.089
 9619SOL     OW29755   1.414   0.394   0.751
 9619SOL    HW129756   1.427   0.312   0.695
 9619SOL    HW229757   1.418   0.475   0.693
 9620SOL     OW29758   5.243   1.580   6.593
 9620SOL    HW129759   5.186   1.593   6.674
 9620SOL    HW229760   5.202   1.627   6.515
 9621SOL     OW29761   1.368   1.231   2.514
 9621SOL    HW129762   1.331   1.251   2.423
 9621SOL    HW229763   1.366   1.314   2.570
 9622SOL     OW29764   5.928   1.704   6.226
 9622SOL    HW129765   5.923   1.785   6.168
 9622SOL    HW229766   6.022   1.668   6.225
 9623SOL     OW29767   4.218   5.370   5.745
 9623SOL    HW129768   4.157   5.440   5.707
 9623SOL    HW229769   4.268   5.408   5.823
 9624SOL     OW29770   5.277   4.142   4.806
 9624SOL    HW129771   5.364   4.094   4.809
 9624SOL    HW229772   5.245   4.147   4.711
 9625SOL     OW29773   5.502   4.233   0.185
 9625SOL    HW129774   5.451   4.319   0.181
 9625SOL    HW229775   5.473   4.182   0.267
 9626SOL     OW29776   2.439   6.101   5.734
 9626SOL    HW129777   2.517   6.135   5.787
 9626SOL    HW229778   2.432   6.152   5.648
 9627SOL     OW29779   7.015   3.971   4.965
 9627SOL    HW129780   0.077   3.943   5.004
 9627SOL    HW229781   6.995   3.914   4.885
 9628SOL     OW29782   5.996   3.770   0.716
 9628SOL    HW129783   6.026   3.820   0.797
 9628SOL    HW229784   6.075   3.729   0.671
 9629SOL     OW29785   6.460   5.938   2.857
 9629SOL    HW129786   6.380   5.878   2.853
 9629SOL    HW229787   6.454   5.996   2.938
 9630SOL     OW29788   6.274   6.109   5.504
 9630SOL    HW129789   6.354   6.099   5.563
 9630SOL    HW229790   6.299   6.160   5.422
 9631SOL     OW29791   4.466   1.918   0.848
 9631SOL    HW129792   4.497   1.992   0.907
 9631SOL    HW229793   4.462   1.949   0.753
 9632SOL     OW29794   2.285   5.248   2.247
 9632SOL    HW129795   2.227   5.325   2.272
 9632SOL    HW229796   2.366   5.246   2.306
 9633SOL     OW29797   3.835   3.960   0.021
 9633SOL    HW129798   3.736   3.970   0.012
 9633SOL    HW229799   3.870   4.032   0.080
 9634SOL     OW29800   0.231   5.519   3.322
 9634SOL    HW129801   0.261   5.563   3.407
 9634SOL    HW229802   0.208   5.589   3.255
 9635SOL     OW29803   1.379   4.450   5.449
 9635SOL    HW129804   1.475   4.424   5.460
 9635SOL    HW229805   1.372   4.547   5.426
 9636SOL     OW29806   4.116   1.503   5.779
 9636SOL    HW129807   4.051   1.570   5.744
 9636SOL    HW229808   4.071   1.446   5.848
 9637SOL     OW29809   3.764   2.931   1.318
 9637SOL    HW129810   3.819   2.879   1.253
 9637SOL    HW229811   3.736   2.872   1.394
 9638SOL     OW29812   6.792   3.262   5.700
 9638SOL    HW129813   6.828   3.278   5.792
 9638SOL    HW229814   6.693   3.269   5.701
 9639SOL     OW29815   4.270   2.152   1.885
 9639SOL    HW129816   4.236   2.170   1.792
 9639SOL    HW229817   4.194   2.162   1.950
 9640SOL     OW29818   3.252   0.427   2.250
 9640SOL    HW129819   3.334   0.374   2.269
 9640SOL    HW229820   3.217   0.467   2.335
 9641SOL     OW29821   6.015   6.036   1.950
 9641SOL    HW129822   6.001   5.993   1.861
 9641SOL    HW229823   6.064   5.972   2.010
 9642SOL     OW29824   1.404   6.524   4.272
 9642SOL    HW129825   1.364   6.433   4.275
 9642SOL    HW229826   1.356   6.583   4.337
 9643SOL     OW29827   5.199   4.162   3.970
 9643SOL    HW129828   5.225   4.174   3.874
 9643SOL    HW229829   5.152   4.074   3.981
 9644SOL     OW29830   1.206   6.061   5.551
 9644SOL    HW129831   1.110   6.088   5.540
 9644SOL    HW229832   1.212   5.975   5.601
 9645SOL     OW29833   2.579   4.582   4.498
 9645SOL    HW129834   2.635   4.572   4.580
 9645SOL    HW229835   2.497   4.526   4.508
 9646SOL     OW29836   2.574   5.190   1.928
 9646SOL    HW129837   2.501   5.129   1.898
 9646SOL    HW229838   2.636   5.141   1.988
 9647SOL     OW29839   0.144   6.617   3.396
 9647SOL    HW129840   0.084   6.537   3.396
 9647SOL    HW229841   0.162   6.646   3.490
 9648SOL     OW29842   4.008   2.629   0.253
 9648SOL    HW129843   4.088   2.569   0.257
 9648SOL    HW229844   3.938   2.595   0.315
 9649SOL     OW29845   2.089   4.399   0.057
 9649SOL    HW129846   1.993   4.420   0.077
 9649SOL    HW229847   2.109   4.418   6.987
 9650SOL     OW29848   4.691   4.370   2.701
 9650SOL    HW129849   4.680   4.338   2.607
 9650SOL    HW229850   4.722   4.295   2.759
 9651SOL     OW29851   5.389   1.279   1.225
 9651SOL    HW129852   5.384   1.374   1.196
 9651SOL    HW229853   5.437   1.225   1.155
 9652SOL     OW29854   1.033   4.861   1.581
 9652SOL    HW129855   1.023   4.766   1.611
 9652SOL    HW229856   1.038   4.921   1.661
 9653SOL     OW29857   4.515   4.755   4.477
 9653SOL    HW129858   4.582   4.717   4.541
 9653SOL    HW229859   4.424   4.753   4.520
 9654SOL     OW29860   3.112   3.416   3.074
 9654SOL    HW129861   3.103   3.502   3.124
 9654SOL    HW229862   3.070   3.342   3.126
 9655SOL     OW29863   7.014   2.237   0.544
 9655SOL    HW129864   7.018   2.161   0.478
 9655SOL    HW229865   6.922   2.241   0.584
 9656SOL     OW29866   4.462   2.863   1.152
 9656SOL    HW129867   4.391   2.859   1.083
 9656SOL    HW229868   4.522   2.783   1.143
 9657SOL     OW29869   5.447   3.339   2.675
 9657SOL    HW129870   5.422   3.348   2.579
 9657SOL    HW229871   5.367   3.313   2.729
 9658SOL     OW29872   5.542   1.476   2.373
 9658SOL    HW129873   5.510   1.382   2.376
 9658SOL    HW229874   5.473   1.533   2.328
 9659SOL     OW29875   0.900   3.253   0.312
 9659SOL    HW129876   0.968   3.307   0.261
 9659SOL    HW229877   0.947   3.196   0.379
 9660SOL     OW29878   0.777   6.888   3.165
 9660SOL    HW129879   0.870   6.899   3.202
 9660SOL    HW229880   0.717   6.958   3.204
 9661SOL     OW29881   3.609   6.399   1.713
 9661SOL    HW129882   3.663   6.324   1.751
 9661SOL    HW229883   3.647   6.426   1.625
 9662SOL     OW29884   4.376   3.760   6.657
 9662SOL    HW129885   4.364   3.661   6.656
 9662SOL    HW229886   4.414   3.788   6.746
 9663SOL     OW29887   0.126   5.661   2.711
 9663SOL    HW129888   0.061   5.737   2.713
 9663SOL    HW229889   0.105   5.601   2.634
 9664SOL     OW29890   5.845   5.089   4.196
 9664SOL    HW129891   5.907   5.117   4.123
 9664SOL    HW229892   5.752   5.080   4.158
 9665SOL     OW29893   5.865   6.705   6.507
 9665SOL    HW129894   5.888   6.694   6.410
 9665SOL    HW229895   5.818   6.623   6.539
 9666SOL     OW29896   6.519   3.841   1.834
 9666SOL    HW129897   6.441   3.816   1.777
 9666SOL    HW229898   6.512   3.938   1.859
 9667SOL     OW29899   3.841   3.714   0.168
 9667SOL    HW129900   3.784   3.723   0.250
 9667SOL    HW229901   3.863   3.805   0.133
 9668SOL     OW29902   0.543   0.733   6.286
 9668SOL    HW129903   0.549   0.654   6.348
 9668SOL    HW229904   0.636   0.763   6.262
 9669SOL     OW29905   2.096   6.573   2.192
 9669SOL    HW129906   2.024   6.618   2.139
 9669SOL    HW229907   2.107   6.621   2.279
 9670SOL     OW29908   0.556   4.837   5.974
 9670SOL    HW129909   0.598   4.835   5.883
 9670SOL    HW229910   0.492   4.914   5.979
 9671SOL     OW29911   6.825   4.387   0.621
 9671SOL    HW129912   6.745   4.387   0.561
 9671SOL    HW229913   6.878   4.304   0.605
 9672SOL     OW29914   1.830   5.056   3.446
 9672SOL    HW129915   1.808   5.145   3.406
 9672SOL    HW229916   1.911   5.064   3.503
 9673SOL     OW29917   3.649   3.709   0.749
 9673SOL    HW129918   3.643   3.651   0.667
 9673SOL    HW229919   3.566   3.764   0.757
 9674SOL     OW29920   3.954   6.657   3.638
 9674SOL    HW129921   4.053   6.652   3.650
 9674SOL    HW229922   3.931   6.740   3.587
 9675SOL     OW29923   5.561   2.208   6.181
 9675SOL    HW129924   5.535   2.295   6.224
 9675SOL    HW229925   5.540   2.212   6.083
 9676SOL     OW29926   1.217   3.184   5.907
 9676SOL    HW129927   1.126   3.180   5.867
 9676SOL    HW229928   1.285   3.192   5.835
 9677SOL     OW29929   6.493   5.058   4.847
 9677SOL    HW129930   6.459   5.001   4.772
 9677SOL    HW229931   6.442   5.036   4.931
 9678SOL     OW29932   2.948   3.647   3.999
 9678SOL    HW129933   2.908   3.649   3.908
 9678SOL    HW229934   3.044   3.676   3.993
 9679SOL     OW29935   2.598   0.031   3.592
 9679SOL    HW129936   2.551   0.062   3.674
 9679SOL    HW229937   2.696   0.046   3.601
 9680SOL     OW29938   4.332   0.311   3.781
 9680SOL    HW129939   4.405   0.315   3.849
 9680SOL    HW229940   4.361   0.252   3.705
 9681SOL     OW29941   2.679   2.382   0.738
 9681SOL    HW129942   2.716   2.366   0.830
 9681SOL    HW229943   2.685   2.298   0.684
 9682SOL     OW29944   4.866   4.125   3.991
 9682SOL    HW129945   4.860   4.081   4.081
 9682SOL    HW229946   4.915   4.066   3.928
 9683SOL     OW29947   3.155   6.668   2.022
 9683SOL    HW129948   3.133   6.733   1.950
 9683SOL    HW229949   3.148   6.575   1.986
 9684SOL     OW29950   0.884   3.619   5.834
 9684SOL    HW129951   0.794   3.579   5.850
 9684SOL    HW229952   0.950   3.546   5.817
 9685SOL     OW29953   4.711   4.104   0.742
 9685SOL    HW129954   4.785   4.037   0.731
 9685SOL    HW229955   4.745   4.194   0.717
 9686SOL     OW29956   0.445   3.358   6.022
 9686SOL    HW129957   0.360   3.352   5.970
 9686SOL    HW229958   0.427   3.402   6.110
 9687SOL     OW29959   1.084   0.984   3.871
 9687SOL    HW129960   1.137   0.904   3.899
 9687SOL    HW229961   1.063   1.040   3.951
 9688SOL     OW29962   1.007   3.051   1.227
 9688SOL    HW129963   0.934   3.071   1.292
 9688SOL    HW229964   0.978   3.076   1.135
 9689SOL     OW29965   1.116   4.608   6.358
 9689SOL    HW129966   1.040   4.655   6.315
 9689SOL    HW229967   1.128   4.642   6.452
 9690SOL     OW29968   5.812   5.779   6.683
 9690SOL    HW129969   5.723   5.786   6.729
 9690SOL    HW229970   5.871   5.716   6.734
 9691SOL     OW29971   3.029   3.965   1.028
 9691SOL    HW129972   3.019   4.024   1.109
 9691SOL    HW229973   3.005   4.017   0.946
 9692SOL     OW29974   3.797   6.200   1.916
 9692SOL    HW129975   3.847   6.177   1.999
 9692SOL    HW229976   3.749   6.119   1.882
 9693SOL     OW29977   5.884   4.115   2.779
 9693SOL    HW129978   5.840   4.109   2.689
 9693SOL    HW229979   5.950   4.040   2.789
 9694SOL     OW29980   3.395   1.266   1.451
 9694SOL    HW129981   3.429   1.315   1.371
 9694SOL    HW229982   3.449   1.183   1.464
 9695SOL     OW29983   6.877   2.528   3.783
 9695SOL    HW129984   6.822   2.612   3.788
 9695SOL    HW229985   6.946   2.530   3.856
 9696SOL     OW29986   5.393   2.681   1.236
 9696SOL    HW129987   5.428   2.713   1.148
 9696SOL    HW229988   5.355   2.589   1.224
 9697SOL     OW29989   0.263   5.661   6.922
 9697SOL    HW129990   0.350   5.613   6.934
 9697SOL    HW229991   0.238   5.705   7.008
 9698SOL     OW29992   5.511   2.194   5.917
 9698SOL    HW129993   5.567   2.254   5.859
 9698SOL    HW229994   5.505   2.104   5.875
 9699SOL     OW29995   6.299   5.912   6.811
 9699SOL    HW129996   6.267   5.883   6.901
 9699SOL    HW229997   6.229   5.971   6.768
 9700SOL     OW29998   5.635   5.820   5.252
 9700SOL    HW129999   5.680   5.898   5.208
 9700SOL    HW230000   5.679   5.735   5.222
 9701SOL     OW30001   4.777   4.846   5.326
 9701SOL    HW130002   4.793   4.771   5.391
 9701SOL    HW230003   4.854   4.909   5.328
 9702SOL     OW30004   3.898   1.605   0.121
 9702SOL    HW130005   3.851   1.526   0.081
 9702SOL    HW230006   3.935   1.579   0.210
 9703SOL     OW30007   5.011   3.606   3.827
 9703SOL    HW130008   5.110   3.608   3.819
 9703SOL    HW230009   4.983   3.522   3.873
 9704SOL     OW30010   3.252   6.812   1.375
 9704SOL    HW130011   3.270   6.836   1.470
 9704SOL    HW230012   3.170   6.861   1.343
 9705SOL     OW30013   5.536   4.012   6.292
 9705SOL    HW130014   5.593   3.932   6.272
 9705SOL    HW230015   5.537   4.074   6.214
 9706SOL     OW30016   2.254   2.763   0.894
 9706SOL    HW130017   2.308   2.724   0.820
 9706SOL    HW230018   2.307   2.834   0.940
 9707SOL     OW30019   6.305   4.571   2.361
 9707SOL    HW130020   6.270   4.522   2.440
 9707SOL    HW230021   6.230   4.621   2.317
 9708SOL     OW30022   1.115   1.659   3.581
 9708SOL    HW130023   1.202   1.611   3.587
 9708SOL    HW230024   1.044   1.605   3.626
 9709SOL     OW30025   5.433   6.030   2.594
 9709SOL    HW130026   5.426   5.975   2.677
 9709SOL    HW230027   5.341   6.052   2.561
 9710SOL     OW30028   6.432   1.295   1.399
 9710SOL    HW130029   6.531   1.309   1.391
 9710SOL    HW230030   6.384   1.376   1.365
 9711SOL     OW30031   3.272   5.334   5.296
 9711SOL    HW130032   3.199   5.381   5.247
 9711SOL    HW230033   3.310   5.395   5.365
 9712SOL     OW30034   5.616   3.608   6.511
 9712SOL    HW130035   5.702   3.596   6.462
 9712SOL    HW230036   5.620   3.692   6.565
 9713SOL     OW30037   1.755   4.354   3.348
 9713SOL    HW130038   1.669   4.332   3.303
 9713SOL    HW230039   1.814   4.405   3.286
 9714SOL     OW30040   4.392   6.486   6.568
 9714SOL    HW130041   4.449   6.410   6.538
 9714SOL    HW230042   4.335   6.518   6.492
 9715SOL     OW30043   5.944   3.947   6.849
 9715SOL    HW130044   5.863   3.892   6.866
 9715SOL    HW230045   5.936   3.992   6.760
 9716SOL     OW30046   3.618   4.696   6.625
 9716SOL    HW130047   3.604   4.793   6.642
 9716SOL    HW230048   3.545   4.660   6.567
 9717SOL     OW30049   5.015   6.865   5.895
 9717SOL    HW130050   5.091   6.882   5.832
 9717SOL    HW230051   5.034   6.783   5.948
 9718SOL     OW30052   5.312   3.054   0.553
 9718SOL    HW130053   5.306   3.143   0.597
 9718SOL    HW230054   5.329   3.066   0.455
 9719SOL     OW30055   6.232   0.937   5.838
 9719SOL    HW130056   6.236   1.033   5.867
 9719SOL    HW230057   6.250   0.878   5.917
 9720SOL     OW30058   1.049   4.400   1.929
 9720SOL    HW130059   1.000   4.319   1.960
 9720SOL    HW230060   1.054   4.467   2.003
 9721SOL     OW30061   0.484   1.714   0.720
 9721SOL    HW130062   0.491   1.789   0.785
 9721SOL    HW230063   0.543   1.732   0.642
 9722SOL     OW30064   4.670   1.401   4.697
 9722SOL    HW130065   4.758   1.373   4.659
 9722SOL    HW230066   4.669   1.384   4.795
 9723SOL     OW30067   3.598   6.665   3.251
 9723SOL    HW130068   3.606   6.765   3.257
 9723SOL    HW230069   3.669   6.630   3.190
 9724SOL     OW30070   1.405   4.781   6.952
 9724SOL    HW130071   1.392   4.797   6.854
 9724SOL    HW230072   1.405   4.682   6.970
 9725SOL     OW30073   4.747   5.746   6.236
 9725SOL    HW130074   4.720   5.833   6.277
 9725SOL    HW230075   4.781   5.762   6.143
 9726SOL     OW30076   4.770   1.417   3.900
 9726SOL    HW130077   4.680   1.428   3.857
 9726SOL    HW230078   4.771   1.465   3.988
 9727SOL     OW30079   1.455   2.452   0.307
 9727SOL    HW130080   1.458   2.362   0.264
 9727SOL    HW230081   1.521   2.512   0.263
 9728SOL     OW30082   0.847   0.451   6.099
 9728SOL    HW130083   0.785   0.389   6.050
 9728SOL    HW230084   0.840   0.542   6.059
 9729SOL     OW30085   1.220   3.887   3.236
 9729SOL    HW130086   1.170   3.881   3.150
 9729SOL    HW230087   1.155   3.905   3.311
 9730SOL     OW30088   1.982   4.714   2.892
 9730SOL    HW130089   1.981   4.741   2.988
 9730SOL    HW230090   1.893   4.736   2.851
 9731SOL     OW30091   5.110   4.819   1.153
 9731SOL    HW130092   5.042   4.746   1.164
 9731SOL    HW230093   5.178   4.813   1.225
 9732SOL     OW30094   0.137   5.139   2.095
 9732SOL    HW130095   0.173   5.083   2.170
 9732SOL    HW230096   0.170   5.233   2.106
 9733SOL     OW30097   4.914   5.116   0.383
 9733SOL    HW130098   4.978   5.105   0.459
 9733SOL    HW230099   4.843   5.182   0.409
 9734SOL     OW30100   6.268   1.488   0.524
 9734SOL    HW130101   6.350   1.503   0.469
 9734SOL    HW230102   6.253   1.389   0.535
 9735SOL     OW30103   2.083   3.521   3.350
 9735SOL    HW130104   2.123   3.439   3.308
 9735SOL    HW230105   2.017   3.562   3.288
 9736SOL     OW30106   6.010   1.574   5.672
 9736SOL    HW130107   5.929   1.549   5.619
 9736SOL    HW230108   6.028   1.503   5.741
 9737SOL     OW30109   5.258   2.496   3.050
 9737SOL    HW130110   5.346   2.475   3.091
 9737SOL    HW230111   5.248   2.596   3.043
 9738SOL     OW30112   2.270   0.002   0.376
 9738SOL    HW130113   2.292   6.987   0.287
 9738SOL    HW230114   2.181   0.049   0.370
 9739SOL     OW30115   5.109   5.774   0.921
 9739SOL    HW130116   5.203   5.743   0.910
 9739SOL    HW230117   5.098   5.864   0.878
 9740SOL     OW30118   0.313   1.169   3.526
 9740SOL    HW130119   0.389   1.131   3.579
 9740SOL    HW230120   0.320   1.137   3.431
 9741SOL     OW30121   3.532   1.942   2.463
 9741SOL    HW130122   3.457   1.985   2.413
 9741SOL    HW230123   3.582   2.012   2.515
 9742SOL     OW30124   4.039   1.503   0.326
 9742SOL    HW130125   4.032   1.420   0.270
 9742SOL    HW230126   3.987   1.491   0.411
 9743SOL     OW30127   6.793   3.510   4.261
 9743SOL    HW130128   6.775   3.438   4.194
 9743SOL    HW230129   6.727   3.584   4.249
 9744SOL     OW30130   1.430   6.688   2.154
 9744SOL    HW130131   1.431   6.590   2.172
 9744SOL    HW230132   1.405   6.704   2.059
 9745SOL     OW30133   5.208   2.459   6.374
 9745SOL    HW130134   5.144   2.390   6.340
 9745SOL    HW230135   5.299   2.441   6.338
 9746SOL     OW30136   6.208   0.487   5.770
 9746SOL    HW130137   6.293   0.473   5.821
 9746SOL    HW230138   6.212   0.573   5.719
 9747SOL     OW30139   2.691   1.744   1.964
 9747SOL    HW130140   2.766   1.752   2.029
 9747SOL    HW230141   2.683   1.828   1.910
 9748SOL     OW30142   6.758   6.842   3.697
 9748SOL    HW130143   6.686   6.786   3.739
 9748SOL    HW230144   6.724   6.936   3.686
 9749SOL     OW30145   1.979   0.219   4.225
 9749SOL    HW130146   2.060   0.229   4.283
 9749SOL    HW230147   1.954   0.308   4.187
 9750SOL     OW30148   6.087   4.638   3.421
 9750SOL    HW130149   6.138   4.672   3.343
 9750SOL    HW230150   6.019   4.571   3.390
 9751SOL     OW30151   2.576   0.951   0.895
 9751SOL    HW130152   2.635   0.902   0.959
 9751SOL    HW230153   2.607   0.935   0.802
 9752SOL     OW30154   3.845   2.215   5.093
 9752SOL    HW130155   3.795   2.177   5.171
 9752SOL    HW230156   3.796   2.194   5.008
 9753SOL     OW30157   6.954   5.663   6.551
 9753SOL    HW130158   6.937   5.618   6.463
 9753SOL    HW230159   6.983   5.595   6.618
 9754SOL     OW30160   1.989   0.268   0.811
 9754SOL    HW130161   2.018   0.226   0.725
 9754SOL    HW230162   1.907   0.220   0.845
 9755SOL     OW30163   3.502   3.600   4.297
 9755SOL    HW130164   3.526   3.697   4.299
 9755SOL    HW230165   3.404   3.590   4.277
 9756SOL     OW30166   6.000   2.758   6.663
 9756SOL    HW130167   5.995   2.857   6.655
 9756SOL    HW230168   5.951   2.716   6.587
 9757SOL     OW30169   6.120   4.424   4.069
 9757SOL    HW130170   6.038   4.434   4.013
 9757SOL    HW230171   6.128   4.502   4.131
 9758SOL     OW30172   2.699   0.308   6.492
 9758SOL    HW130173   2.618   0.251   6.503
 9758SOL    HW230174   2.672   0.403   6.483
 9759SOL     OW30175   1.278   0.544   0.193
 9759SOL    HW130176   1.182   0.522   0.178
 9759SOL    HW230177   1.290   0.644   0.190
 9760SOL     OW30178   5.180   3.099   5.868
 9760SOL    HW130179   5.229   3.016   5.839
 9760SOL    HW230180   5.236   3.151   5.932
 9761SOL     OW30181   0.339   1.640   2.159
 9761SOL    HW130182   0.433   1.672   2.167
 9761SOL    HW230183   0.295   1.642   2.249
 9762SOL     OW30184   2.968   2.005   4.928
 9762SOL    HW130185   2.965   1.943   5.006
 9762SOL    HW230186   2.941   1.957   4.845
 9763SOL     OW30187   4.999   1.848   2.529
 9763SOL    HW130188   5.025   1.942   2.509
 9763SOL    HW230189   5.061   1.785   2.481
 9764SOL     OW30190   6.948   2.777   3.312
 9764SOL    HW130191   6.880   2.777   3.239
 9764SOL    HW230192   6.902   2.779   3.401
 9765SOL     OW30193   6.905   6.344   3.666
 9765SOL    HW130194   6.979   6.386   3.718
 9765SOL    HW230195   6.922   6.356   3.568
 9766SOL     OW30196   2.702   0.539   2.229
 9766SOL    HW130197   2.748   0.620   2.264
 9766SOL    HW230198   2.605   0.557   2.219
 9767SOL     OW30199   3.860   1.401   5.567
 9767SOL    HW130200   3.851   1.383   5.664
 9767SOL    HW230201   3.931   1.342   5.528
 9768SOL     OW30202   5.691   0.857   1.946
 9768SOL    HW130203   5.774   0.856   2.002
 9768SOL    HW230204   5.711   0.819   1.856
 9769SOL     OW30205   4.236   0.785   4.513
 9769SOL    HW130206   4.285   0.872   4.520
 9769SOL    HW230207   4.274   0.720   4.579
 9770SOL     OW30208   3.964   1.233   5.810
 9770SOL    HW130209   3.965   1.298   5.886
 9770SOL    HW230210   3.912   1.151   5.838
 9771SOL     OW30211   2.559   6.232   0.566
 9771SOL    HW130212   2.463   6.215   0.589
 9771SOL    HW230213   2.568   6.241   0.467
 9772SOL     OW30214   1.596   5.821   1.520
 9772SOL    HW130215   1.692   5.807   1.496
 9772SOL    HW230216   1.589   5.840   1.618
 9773SOL     OW30217   4.876   5.457   4.267
 9773SOL    HW130218   4.971   5.470   4.294
 9773SOL    HW230219   4.868   5.466   4.167
 9774SOL     OW30220   0.097   5.454   1.688
 9774SOL    HW130221   0.028   5.382   1.679
 9774SOL    HW230222   0.061   5.529   1.744
 9775SOL     OW30223   3.213   0.615   3.234
 9775SOL    HW130224   3.284   0.633   3.302
 9775SOL    HW230225   3.255   0.579   3.151
 9776SOL     OW30226   1.050   4.480   5.221
 9776SOL    HW130227   1.085   4.573   5.205
 9776SOL    HW230228   1.119   4.413   5.193
 9777SOL     OW30229   6.032   6.103   6.937
 9777SOL    HW130230   6.100   6.036   6.965
 9777SOL    HW230231   5.966   6.116   7.010
 9778SOL     OW30232   0.579   1.483   3.909
 9778SOL    HW130233   0.522   1.441   3.839
 9778SOL    HW230234   0.520   1.523   3.980
 9779SOL     OW30235   1.202   1.762   4.006
 9779SOL    HW130236   1.106   1.777   4.030
 9779SOL    HW230237   1.218   1.665   3.989
 9780SOL     OW30238   2.417   2.342   0.671
 9780SOL    HW130239   2.416   2.309   0.577
 9780SOL    HW230240   2.511   2.365   0.698
 9781SOL     OW30241   2.036   2.794   4.688
 9781SOL    HW130242   2.025   2.767   4.783
 9781SOL    HW230243   2.090   2.879   4.684
 9782SOL     OW30244   0.259   0.877   1.287
 9782SOL    HW130245   0.339   0.932   1.309
 9782SOL    HW230246   0.268   0.786   1.329
 9783SOL     OW30247   4.337   2.392   3.324
 9783SOL    HW130248   4.270   2.346   3.265
 9783SOL    HW230249   4.339   2.346   3.413
 9784SOL     OW30250   2.732   2.331   5.802
 9784SOL    HW130251   2.684   2.375   5.726
 9784SOL    HW230252   2.699   2.237   5.813
 9785SOL     OW30253   1.128   2.268   5.939
 9785SOL    HW130254   1.224   2.247   5.920
 9785SOL    HW230255   1.095   2.210   6.014
 9786SOL     OW30256   2.727   4.279   0.137
 9786SOL    HW130257   2.685   4.370   0.143
 9786SOL    HW230258   2.659   4.209   0.159
 9787SOL     OW30259   3.273   3.834   2.824
 9787SOL    HW130260   3.174   3.830   2.811
 9787SOL    HW230261   3.300   3.769   2.894
 9788SOL     OW30262   1.009   0.194   3.556
 9788SOL    HW130263   1.043   0.241   3.637
 9788SOL    HW230264   1.077   0.127   3.525
 9789SOL     OW30265   2.062   5.921   0.614
 9789SOL    HW130266   2.046   5.830   0.652
 9789SOL    HW230267   2.052   5.919   0.515
 9790SOL     OW30268   6.467   4.721   6.615
 9790SOL    HW130269   6.386   4.696   6.667
 9790SOL    HW230270   6.490   4.816   6.632
 9791SOL     OW30271   0.069   0.807   0.780
 9791SOL    HW130272   0.045   0.893   0.825
 9791SOL    HW230273   0.131   0.754   0.838
 9792SOL     OW30274   3.702   4.177   0.168
 9792SOL    HW130275   3.743   4.267   0.183
 9792SOL    HW230276   3.676   4.167   0.072
 9793SOL     OW30277   4.016   0.013   2.759
 9793SOL    HW130278   4.069   6.954   2.765
 9793SOL    HW230279   4.077   0.089   2.741
 9794SOL     OW30280   0.145   4.196   6.956
 9794SOL    HW130281   0.188   4.235   6.874
 9794SOL    HW230282   0.213   4.145   7.008
 9795SOL     OW30283   1.873   1.846   4.630
 9795SOL    HW130284   1.852   1.941   4.605
 9795SOL    HW230285   1.911   1.844   4.722
 9796SOL     OW30286   3.075   3.082   2.386
 9796SOL    HW130287   3.033   2.992   2.402
 9796SOL    HW230288   3.170   3.069   2.361
 9797SOL     OW30289   1.805   5.751   0.085
 9797SOL    HW130290   1.732   5.735   0.018
 9797SOL    HW230291   1.780   5.710   0.172
 9798SOL     OW30292   2.951   0.284   2.652
 9798SOL    HW130293   2.945   0.185   2.637
 9798SOL    HW230294   2.870   0.328   2.613
 9799SOL     OW30295   3.158   3.721   5.362
 9799SOL    HW130296   3.156   3.673   5.274
 9799SOL    HW230297   3.080   3.782   5.368
 9800SOL     OW30298   4.140   5.071   4.566
 9800SOL    HW130299   4.137   5.123   4.481
 9800SOL    HW230300   4.125   4.974   4.547
 9801SOL     OW30301   4.520   4.229   0.249
 9801SOL    HW130302   4.421   4.239   0.261
 9801SOL    HW230303   4.561   4.199   0.335
 9802SOL     OW30304   6.970   4.350   1.893
 9802SOL    HW130305   6.990   4.304   1.806
 9802SOL    HW230306   7.000   4.446   1.887
 9803SOL     OW30307   1.484   2.116   6.546
 9803SOL    HW130308   1.461   2.200   6.497
 9803SOL    HW230309   1.414   2.098   6.615
 9804SOL     OW30310   1.218   5.934   3.456
 9804SOL    HW130311   1.156   5.857   3.442
 9804SOL    HW230312   1.260   5.959   3.368
 9805SOL     OW30313   1.094   6.585   3.999
 9805SOL    HW130314   1.190   6.555   4.002
 9805SOL    HW230315   1.073   6.617   3.907
 9806SOL     OW30316   1.042   1.279   6.622
 9806SOL    HW130317   0.975   1.325   6.682
 9806SOL    HW230318   1.017   1.183   6.612
 9807SOL     OW30319   3.056   4.587   0.137
 9807SOL    HW130320   3.106   4.605   0.222
 9807SOL    HW230321   3.032   4.490   0.133
 9808SOL     OW30322   3.857   0.340   5.325
 9808SOL    HW130323   3.779   0.306   5.271
 9808SOL    HW230324   3.837   0.432   5.359
 9809SOL     OW30325   1.236   2.936   6.591
 9809SOL    HW130326   1.310   2.909   6.652
 9809SOL    HW230327   1.263   3.017   6.538
 9810SOL     OW30328   1.941   2.896   3.794
 9810SOL    HW130329   1.951   2.868   3.699
 9810SOL    HW230330   1.994   2.834   3.853
 9811SOL     OW30331   5.481   4.767   3.179
 9811SOL    HW130332   5.424   4.845   3.154
 9811SOL    HW230333   5.431   4.682   3.163
 9812SOL     OW30334   3.311   2.726   5.749
 9812SOL    HW130335   3.391   2.709   5.691
 9812SOL    HW230336   3.309   2.661   5.824
 9813SOL     OW30337   5.196   1.365   0.726
 9813SOL    HW130338   5.174   1.348   0.630
 9813SOL    HW230339   5.138   1.439   0.761
 9814SOL     OW30340   6.632   0.095   0.101
 9814SOL    HW130341   6.647   0.005   0.060
 9814SOL    HW230342   6.694   0.107   0.178
 9815SOL     OW30343   5.778   4.308   4.534
 9815SOL    HW130344   5.827   4.221   4.529
 9815SOL    HW230345   5.702   4.300   4.597
 9816SOL     OW30346   0.750   1.406   6.360
 9816SOL    HW130347   0.687   1.331   6.380
 9816SOL    HW230348   0.731   1.483   6.423
 9817SOL     OW30349   3.339   6.883   3.512
 9817SOL    HW130350   3.344   6.936   3.427
 9817SOL    HW230351   3.269   6.924   3.572
 9818SOL     OW30352   1.291   0.608   3.749
 9818SOL    HW130353   1.302   0.684   3.812
 9818SOL    HW230354   1.223   0.544   3.786
 9819SOL     OW30355   4.842   3.128   3.824
 9819SOL    HW130356   4.868   3.201   3.887
 9819SOL    HW230357   4.925   3.086   3.786
 9820SOL     OW30358   4.245   3.267   6.795
 9820SOL    HW130359   4.328   3.313   6.829
 9820SOL    HW230360   4.271   3.189   6.738
 9821SOL     OW30361   4.986   0.919   6.219
 9821SOL    HW130362   5.013   0.954   6.309
 9821SOL    HW230363   4.934   0.834   6.231
 9822SOL     OW30364   2.387   6.062   3.613
 9822SOL    HW130365   2.419   6.043   3.706
 9822SOL    HW230366   2.450   6.125   3.568
 9823SOL     OW30367   2.543   1.335   6.986
 9823SOL    HW130368   2.592   1.266   0.013
 9823SOL    HW230369   2.459   1.296   6.949
 9824SOL     OW30370   1.660   4.826   4.625
 9824SOL    HW130371   1.691   4.887   4.552
 9824SOL    HW230372   1.674   4.871   4.713
 9825SOL     OW30373   5.001   5.622   5.140
 9825SOL    HW130374   4.928   5.553   5.145
 9825SOL    HW230375   5.086   5.577   5.112
 9826SOL     OW30376   4.440   5.235   5.625
 9826SOL    HW130377   4.464   5.296   5.550
 9826SOL    HW230378   4.355   5.265   5.668
 9827SOL     OW30379   2.048   3.440   3.759
 9827SOL    HW130380   2.078   3.471   3.849
 9827SOL    HW230381   2.075   3.344   3.747
 9828SOL     OW30382   2.478   2.544   5.841
 9828SOL    HW130383   2.525   2.533   5.753
 9828SOL    HW230384   2.435   2.457   5.866
 9829SOL     OW30385   3.788   5.524   6.122
 9829SOL    HW130386   3.836   5.606   6.091
 9829SOL    HW230387   3.730   5.547   6.200
 9830SOL     OW30388   5.887   2.619   2.284
 9830SOL    HW130389   5.914   2.575   2.199
 9830SOL    HW230390   5.814   2.685   2.266
 9831SOL     OW30391   2.597   5.370   1.448
 9831SOL    HW130392   2.677   5.342   1.501
 9831SOL    HW230393   2.623   5.444   1.385
 9832SOL     OW30394   4.998   5.817   2.377
 9832SOL    HW130395   5.065   5.744   2.388
 9832SOL    HW230396   4.907   5.777   2.363
 9833SOL     OW30397   2.912   3.758   4.812
 9833SOL    HW130398   2.930   3.682   4.874
 9833SOL    HW230399   2.816   3.786   4.820
 9834SOL     OW30400   2.517   4.465   5.286
 9834SOL    HW130401   2.528   4.367   5.268
 9834SOL    HW230402   2.500   4.480   5.383
 9835SOL     OW30403   4.061   3.273   5.069
 9835SOL    HW130404   4.118   3.292   4.989
 9835SOL    HW230405   4.035   3.359   5.113
 9836SOL     OW30406   6.617   4.396   3.758
 9836SOL    HW130407   6.595   4.310   3.803
 9836SOL    HW230408   6.533   4.450   3.746
 9837SOL     OW30409   3.422   6.994   2.647
 9837SOL    HW130410   3.493   7.012   2.578
 9837SOL    HW230411   3.394   0.055   2.689
 9838SOL     OW30412   1.564   6.933   0.101
 9838SOL    HW130413   1.623   6.857   0.074
 9838SOL    HW230414   1.500   6.902   0.171
 9839SOL     OW30415   5.164   0.191   3.944
 9839SOL    HW130416   5.151   0.244   4.028
 9839SOL    HW230417   5.254   0.209   3.906
 9840SOL     OW30418   5.543   1.601   0.689
 9840SOL    HW130419   5.615   1.653   0.736
 9840SOL    HW230420   5.570   1.586   0.594
 9841SOL     OW30421   1.503   4.662   5.102
 9841SOL    HW130422   1.545   4.747   5.070
 9841SOL    HW230423   1.431   4.683   5.168
 9842SOL     OW30424   3.340   3.333   1.720
 9842SOL    HW130425   3.311   3.373   1.807
 9842SOL    HW230426   3.341   3.403   1.649
 9843SOL     OW30427   6.105   1.084   1.560
 9843SOL    HW130428   6.111   1.072   1.461
 9843SOL    HW230429   6.059   1.005   1.600
 9844SOL     OW30430   6.338   0.782   2.526
 9844SOL    HW130431   6.438   0.780   2.525
 9844SOL    HW230432   6.307   0.858   2.582
 9845SOL     OW30433   2.143   2.934   3.055
 9845SOL    HW130434   2.069   2.972   3.000
 9845SOL    HW230435   2.144   2.978   3.145
 9846SOL     OW30436   3.847   3.004   2.044
 9846SOL    HW130437   3.882   3.011   2.138
 9846SOL    HW230438   3.832   3.096   2.007
 9847SOL     OW30439   3.600   2.873   3.606
 9847SOL    HW130440   3.667   2.930   3.557
 9847SOL    HW230441   3.618   2.880   3.705
 9848SOL     OW30442   4.062   3.047   5.236
 9848SOL    HW130443   4.021   3.069   5.325
 9848SOL    HW230444   4.055   3.126   5.176
 9849SOL     OW30445   0.951   6.742   6.828
 9849SOL    HW130446   0.987   6.750   6.736
 9849SOL    HW230447   1.003   6.800   6.890
 9850SOL     OW30448   6.179   6.934   4.387
 9850SOL    HW130449   6.254   6.978   4.436
 9850SOL    HW230450   6.093   6.951   4.436
 9851SOL     OW30451   6.593   0.581   4.560
 9851SOL    HW130452   6.668   0.616   4.616
 9851SOL    HW230453   6.626   0.564   4.467
 9852SOL     OW30454   3.725   1.565   3.771
 9852SOL    HW130455   3.709   1.660   3.745
 9852SOL    HW230456   3.694   1.550   3.864
 9853SOL     OW30457   4.878   3.631   4.484
 9853SOL    HW130458   4.960   3.592   4.442
 9853SOL    HW230459   4.857   3.582   4.569
 9854SOL     OW30460   6.613   5.613   5.118
 9854SOL    HW130461   6.564   5.697   5.141
 9854SOL    HW230462   6.574   5.574   5.034
 9855SOL     OW30463   1.852   3.802   0.814
 9855SOL    HW130464   1.854   3.706   0.842
 9855SOL    HW230465   1.946   3.837   0.810
 9856SOL     OW30466   4.873   3.972   4.534
 9856SOL    HW130467   4.820   4.018   4.604
 9856SOL    HW230468   4.821   3.895   4.497
 9857SOL     OW30469   4.956   2.441   2.640
 9857SOL    HW130470   4.943   2.469   2.545
 9857SOL    HW230471   5.048   2.465   2.670
 9858SOL     OW30472   0.139   0.957   1.634
 9858SOL    HW130473   0.105   0.880   1.579
 9858SOL    HW230474   0.231   0.936   1.666
 9859SOL     OW30475   6.480   6.471   3.104
 9859SOL    HW130476   6.565   6.505   3.144
 9859SOL    HW230477   6.462   6.517   3.017
 9860SOL     OW30478   1.716   1.609   3.773
 9860SOL    HW130479   1.784   1.652   3.713
 9860SOL    HW230480   1.687   1.675   3.843
 9861SOL     OW30481   3.149   0.241   3.554
 9861SOL    HW130482   3.181   0.254   3.460
 9861SOL    HW230483   3.090   0.318   3.579
 9862SOL     OW30484   3.607   2.834   6.592
 9862SOL    HW130485   3.531   2.893   6.564
 9862SOL    HW230486   3.619   2.839   6.691
 9863SOL     OW30487   3.468   6.702   2.652
 9863SOL    HW130488   3.446   6.798   2.665
 9863SOL    HW230489   3.466   6.681   2.554
 9864SOL     OW30490   3.823   6.435   3.751
 9864SOL    HW130491   3.888   6.507   3.725
 9864SOL    HW230492   3.773   6.406   3.670
 9865SOL     OW30493   1.550   0.208   4.439
 9865SOL    HW130494   1.452   0.211   4.458
 9865SOL    HW230495   1.600   0.204   4.526
 9866SOL     OW30496   4.773   4.308   6.274
 9866SOL    HW130497   4.799   4.219   6.312
 9866SOL    HW230498   4.677   4.305   6.246
 9867SOL     OW30499   6.623   1.808   0.824
 9867SOL    HW130500   6.556   1.817   0.750
 9867SOL    HW230501   6.702   1.756   0.791
 9868SOL     OW30502   0.867   3.610   5.371
 9868SOL    HW130503   0.845   3.703   5.401
 9868SOL    HW230504   0.900   3.612   5.277
 9869SOL     OW30505   1.038   2.446   1.590
 9869SOL    HW130506   0.985   2.399   1.660
 9869SOL    HW230507   1.114   2.387   1.561
 9870SOL     OW30508   3.866   5.679   2.574
 9870SOL    HW130509   3.884   5.709   2.480
 9870SOL    HW230510   3.795   5.738   2.614
 9871SOL     OW30511   6.752   5.664   6.177
 9871SOL    HW130512   6.661   5.689   6.211
 9871SOL    HW230513   6.744   5.590   6.111
 9872SOL     OW30514   2.639   5.329   4.731
 9872SOL    HW130515   2.724   5.370   4.697
 9872SOL    HW230516   2.652   5.231   4.745
 9873SOL     OW30517   2.316   2.657   0.214
 9873SOL    HW130518   2.300   2.756   0.211
 9873SOL    HW230519   2.281   2.620   0.301
 9874SOL     OW30520   5.470   3.296   4.978
 9874SOL    HW130521   5.382   3.309   5.023
 9874SOL    HW230522   5.508   3.385   4.953
 9875SOL     OW30523   5.926   5.905   1.709
 9875SOL    HW130524   6.003   5.909   1.645
 9875SOL    HW230525   5.912   5.811   1.738
 9876SOL     OW30526   6.050   0.763   3.831
 9876SOL    HW130527   6.054   0.698   3.907
 9876SOL    HW230528   5.955   0.790   3.815
 9877SOL     OW30529   6.421   5.240   4.327
 9877SOL    HW130530   6.508   5.193   4.341
 9877SOL    HW230531   6.346   5.175   4.338
 9878SOL     OW30532   2.629   4.053   5.827
 9878SOL    HW130533   2.603   4.031   5.732
 9878SOL    HW230534   2.704   3.993   5.855
 9879SOL     OW30535   5.212   5.766   5.625
 9879SOL    HW130536   5.269   5.685   5.640
 9879SOL    HW230537   5.185   5.770   5.529
 9880SOL     OW30538   3.765   0.770   0.232
 9880SOL    HW130539   3.723   0.861   0.230
 9880SOL    HW230540   3.773   0.735   0.139
 9881SOL     OW30541   1.692   1.479   4.530
 9881SOL    HW130542   1.599   1.512   4.545
 9881SOL    HW230543   1.694   1.379   4.536
 9882SOL     OW30544   1.692   3.905   4.781
 9882SOL    HW130545   1.699   3.920   4.880
 9882SOL    HW230546   1.778   3.868   4.746
 9883SOL     OW30547   1.100   6.177   0.872
 9883SOL    HW130548   1.185   6.172   0.925
 9883SOL    HW230549   1.118   6.151   0.777
 9884SOL     OW30550   4.700   2.330   1.473
 9884SOL    HW130551   4.663   2.307   1.563
 9884SOL    HW230552   4.654   2.412   1.439
 9885SOL     OW30553   0.055   1.843   4.866
 9885SOL    HW130554   0.145   1.821   4.903
 9885SOL    HW230555   0.065   1.880   4.774
 9886SOL     OW30556   1.282   5.329   1.940
 9886SOL    HW130557   1.223   5.376   1.875
 9886SOL    HW230558   1.285   5.231   1.918
 9887SOL     OW30559   4.237   0.753   0.158
 9887SOL    HW130560   4.224   0.711   0.069
 9887SOL    HW230561   4.147   0.768   0.201
 9888SOL     OW30562   5.417   4.807   2.473
 9888SOL    HW130563   5.505   4.810   2.519
 9888SOL    HW230564   5.346   4.780   2.538
 9889SOL     OW30565   5.971   4.903   0.687
 9889SOL    HW130566   6.056   4.858   0.713
 9889SOL    HW230567   5.923   4.935   0.768
 9890SOL     OW30568   0.686   2.737   1.517
 9890SOL    HW130569   0.631   2.676   1.574
 9890SOL    HW230570   0.774   2.694   1.498
 9891SOL     OW30571   5.710   3.098   1.481
 9891SOL    HW130572   5.737   3.193   1.492
 9891SOL    HW230573   5.791   3.040   1.471
 9892SOL     OW30574   1.482   4.712   2.452
 9892SOL    HW130575   1.532   4.653   2.388
 9892SOL    HW230576   1.516   4.806   2.444
 9893SOL     OW30577   6.949   0.614   2.582
 9893SOL    HW130578   6.990   0.577   2.499
 9893SOL    HW230579   6.865   0.563   2.603
 9894SOL     OW30580   3.258   2.250   6.968
 9894SOL    HW130581   3.191   2.186   7.007
 9894SOL    HW230582   3.323   2.199   6.912
 9895SOL     OW30583   5.136   3.979   5.150
 9895SOL    HW130584   5.067   3.907   5.150
 9895SOL    HW230585   5.217   3.948   5.101
 9896SOL     OW30586   5.694   1.187   1.313
 9896SOL    HW130587   5.602   1.225   1.303
 9896SOL    HW230588   5.761   1.262   1.306
 9897SOL     OW30589   6.137   6.938   2.087
 9897SOL    HW130590   6.137   7.024   2.036
 9897SOL    HW230591   6.056   6.885   2.062
 9898SOL     OW30592   0.887   4.707   6.240
 9898SOL    HW130593   0.793   4.673   6.235
 9898SOL    HW230594   0.891   4.798   6.199
 9899SOL     OW30595   1.061   5.011   1.840
 9899SOL    HW130596   1.058   4.918   1.877
 9899SOL    HW230597   1.156   5.043   1.838
 9900SOL     OW30598   1.689   3.095   2.222
 9900SOL    HW130599   1.602   3.048   2.209
 9900SOL    HW230600   1.712   3.148   2.141
 9901SOL     OW30601   3.027   0.739   6.804
 9901SOL    HW130602   3.110   0.790   6.785
 9901SOL    HW230603   3.008   0.676   6.729
 9902SOL     OW30604   3.683   4.378   1.423
 9902SOL    HW130605   3.719   4.410   1.511
 9902SOL    HW230606   3.718   4.286   1.404
 9903SOL     OW30607   5.625   1.572   1.646
 9903SOL    HW130608   5.613   1.669   1.669
 9903SOL    HW230609   5.663   1.524   1.725
 9904SOL     OW30610   0.319   3.772   6.268
 9904SOL    HW130611   0.330   3.679   6.233
 9904SOL    HW230612   0.222   3.796   6.269
 9905SOL     OW30613   2.469   0.558   5.964
 9905SOL    HW130614   2.409   0.527   5.890
 9905SOL    HW230615   2.515   0.480   6.006
 9906SOL     OW30616   1.907   3.531   0.853
 9906SOL    HW130617   1.837   3.480   0.903
 9906SOL    HW230618   1.994   3.483   0.859
 9907SOL     OW30619   1.362   0.510   1.538
 9907SOL    HW130620   1.357   0.412   1.556
 9907SOL    HW230621   1.426   0.528   1.464
 9908SOL     OW30622   6.500   2.652   5.134
 9908SOL    HW130623   6.572   2.618   5.195
 9908SOL    HW230624   6.505   2.752   5.130
 9909SOL     OW30625   4.057   1.223   2.506
 9909SOL    HW130626   4.074   1.297   2.441
 9909SOL    HW230627   4.096   1.138   2.471
 9910SOL     OW30628   1.479   5.309   1.344
 9910SOL    HW130629   1.429   5.395   1.356
 9910SOL    HW230630   1.439   5.239   1.403
 9911SOL     OW30631   2.410   5.766   1.723
 9911SOL    HW130632   2.448   5.801   1.809
 9911SOL    HW230633   2.480   5.713   1.675
 9912SOL     OW30634   3.783   1.156   0.847
 9912SOL    HW130635   3.779   1.058   0.829
 9912SOL    HW230636   3.867   1.178   0.896
 9913SOL     OW30637   6.300   3.027   0.802
 9913SOL    HW130638   6.214   3.076   0.805
 9913SOL    HW230639   6.336   3.028   0.709
 9914SOL     OW30640   6.794   6.921   5.897
 9914SOL    HW130641   6.840   6.849   5.846
 9914SOL    HW230642   6.758   6.989   5.832
 9915SOL     OW30643   5.798   0.811   3.541
 9915SOL    HW130644   5.853   0.889   3.513
 9915SOL    HW230645   5.858   0.731   3.553
 9916SOL     OW30646   2.046   2.288   3.267
 9916SOL    HW130647   2.072   2.385   3.271
 9916SOL    HW230648   1.976   2.275   3.197
 9917SOL     OW30649   3.804   3.842   5.677
 9917SOL    HW130650   3.898   3.875   5.685
 9917SOL    HW230651   3.740   3.919   5.676
 9918SOL     OW30652   1.399   2.928   2.748
 9918SOL    HW130653   1.404   2.993   2.672
 9918SOL    HW230654   1.481   2.938   2.806
 9919SOL     OW30655   2.540   5.475   1.977
 9919SOL    HW130656   2.595   5.451   1.897
 9919SOL    HW230657   2.584   5.441   2.060
 9920SOL     OW30658   4.752   0.410   2.441
 9920SOL    HW130659   4.741   0.507   2.466
 9920SOL    HW230660   4.850   0.387   2.441
 9921SOL     OW30661   4.409   6.570   4.515
 9921SOL    HW130662   4.350   6.499   4.476
 9921SOL    HW230663   4.464   6.611   4.443
 9922SOL     OW30664   3.896   4.324   1.014
 9922SOL    HW130665   3.917   4.334   0.917
 9922SOL    HW230666   3.858   4.409   1.049
 9923SOL     OW30667   6.127   3.685   0.136
 9923SOL    HW130668   6.035   3.670   0.171
 9923SOL    HW230669   6.138   3.780   0.108
 9924SOL     OW30670   5.390   1.658   3.209
 9924SOL    HW130671   5.318   1.719   3.242
 9924SOL    HW230672   5.397   1.668   3.109
 9925SOL     OW30673   0.360   4.882   3.764
 9925SOL    HW130674   0.352   4.789   3.727
 9925SOL    HW230675   0.279   4.904   3.817
 9926SOL     OW30676   4.005   2.746   0.716
 9926SOL    HW130677   3.998   2.754   0.815
 9926SOL    HW230678   4.099   2.765   0.687
 9927SOL     OW30679   0.853   1.216   0.341
 9927SOL    HW130680   0.866   1.220   0.440
 9927SOL    HW230681   0.811   1.300   0.309
 9928SOL     OW30682   5.418   4.255   3.286
 9928SOL    HW130683   5.344   4.236   3.222
 9928SOL    HW230684   5.386   4.319   3.356
 9929SOL     OW30685   3.715   4.104   4.331
 9929SOL    HW130686   3.707   4.097   4.430
 9929SOL    HW230687   3.726   4.200   4.304
 9930SOL     OW30688   0.522   6.788   6.182
 9930SOL    HW130689   0.477   6.704   6.212
 9930SOL    HW230690   0.620   6.770   6.169
 9931SOL     OW30691   6.536   5.671   4.344
 9931SOL    HW130692   6.513   5.606   4.271
 9931SOL    HW230693   6.461   5.675   4.410
 9932SOL     OW30694   2.682   2.763   5.741
 9932SOL    HW130695   2.774   2.791   5.714
 9932SOL    HW230696   2.665   2.790   5.836
 9933SOL     OW30697   1.763   6.612   3.916
 9933SOL    HW130698   1.831   6.650   3.979
 9933SOL    HW230699   1.746   6.516   3.938
 9934SOL     OW30700   7.022   2.141   6.193
 9934SOL    HW130701   0.006   2.238   6.212
 9934SOL    HW230702   6.927   2.113   6.206
 9935SOL     OW30703   2.680   0.224   1.400
 9935SOL    HW130704   2.776   0.249   1.387
 9935SOL    HW230705   2.627   0.250   1.319
 9936SOL     OW30706   6.644   4.765   0.509
 9936SOL    HW130707   6.586   4.689   0.478
 9936SOL    HW230708   6.587   4.839   0.544
 9937SOL     OW30709   0.149   1.521   1.692
 9937SOL    HW130710   0.074   1.573   1.733
 9937SOL    HW230711   0.121   1.426   1.679
 9938SOL     OW30712   5.565   4.994   4.046
 9938SOL    HW130713   5.504   5.012   4.123
 9938SOL    HW230714   5.511   4.978   3.964
 9939SOL     OW30715   3.388   2.887   1.193
 9939SOL    HW130716   3.444   2.807   1.216
 9939SOL    HW230717   3.423   2.966   1.243
 9940SOL     OW30718   1.129   7.025   2.130
 9940SOL    HW130719   1.219   6.997   2.164
 9940SOL    HW230720   1.104   0.088   2.168
 9941SOL     OW30721   3.281   4.355   6.115
 9941SOL    HW130722   3.247   4.432   6.168
 9941SOL    HW230723   3.244   4.358   6.022
 9942SOL     OW30724   3.887   5.209   2.405
 9942SOL    HW130725   3.844   5.187   2.492
 9942SOL    HW230726   3.832   5.172   2.330
 9943SOL     OW30727   0.944   4.827   6.691
 9943SOL    HW130728   0.880   4.824   6.614
 9943SOL    HW230729   1.025   4.879   6.664
 9944SOL     OW30730   0.889   4.403   6.621
 9944SOL    HW130731   0.937   4.432   6.538
 9944SOL    HW230732   0.804   4.357   6.596
 9945SOL     OW30733   4.535   5.952   0.140
 9945SOL    HW130734   4.575   5.874   0.093
 9945SOL    HW230735   4.438   5.960   0.115
 9946SOL     OW30736   6.904   6.796   3.469
 9946SOL    HW130737   6.972   6.723   3.473
 9946SOL    HW230738   6.850   6.796   3.553
 9947SOL     OW30739   2.658   2.171   4.673
 9947SOL    HW130740   2.755   2.147   4.670
 9947SOL    HW230741   2.614   2.121   4.747
 9948SOL     OW30742   6.708   5.236   4.847
 9948SOL    HW130743   6.783   5.184   4.888
 9948SOL    HW230744   6.622   5.187   4.860
 9949SOL     OW30745   0.122   4.960   3.888
 9949SOL    HW130746   0.093   5.055   3.901
 9949SOL    HW230747   0.042   4.903   3.870
 9950SOL     OW30748   5.915   5.869   6.456
 9950SOL    HW130749   5.900   5.966   6.477
 9950SOL    HW230750   5.880   5.813   6.531
 9951SOL     OW30751   0.924   2.667   3.366
 9951SOL    HW130752   0.863   2.745   3.373
 9951SOL    HW230753   0.934   2.624   3.456
 9952SOL     OW30754   1.624   4.319   0.459
 9952SOL    HW130755   1.684   4.240   0.448
 9952SOL    HW230756   1.649   4.369   0.542
 9953SOL     OW30757   6.132   1.841   4.032
 9953SOL    HW130758   6.121   1.751   4.073
 9953SOL    HW230759   6.229   1.856   4.011
 9954SOL     OW30760   1.380   0.033   4.978
 9954SOL    HW130761   1.348   0.035   5.073
 9954SOL    HW230762   1.302   0.031   4.916
 9955SOL     OW30763   4.478   4.119   6.858
 9955SOL    HW130764   4.530   4.154   6.935
 9955SOL    HW230765   4.442   4.195   6.804
 9956SOL     OW30766   0.309   5.274   4.091
 9956SOL    HW130767   0.271   5.308   4.004
 9956SOL    HW230768   0.404   5.247   4.077
 9957SOL     OW30769   6.300   0.143   1.580
 9957SOL    HW130770   6.347   0.223   1.542
 9957SOL    HW230771   6.219   0.122   1.524
 9958SOL     OW30772   2.863   6.037   0.141
 9958SOL    HW130773   2.905   6.127   0.134
 9958SOL    HW230774   2.772   6.038   0.100
 9959SOL     OW30775   4.142   3.564   3.528
 9959SOL    HW130776   4.115   3.611   3.444
 9959SOL    HW230777   4.196   3.483   3.505
 9960SOL     OW30778   0.415   0.017   2.533
 9960SOL    HW130779   0.321   7.018   2.508
 9960SOL    HW230780   0.475   0.002   2.454
 9961SOL     OW30781   1.232   4.907   4.409
 9961SOL    HW130782   1.138   4.940   4.416
 9961SOL    HW230783   1.293   4.984   4.389
 9962SOL     OW30784   4.721   0.631   2.845
 9962SOL    HW130785   4.778   0.551   2.861
 9962SOL    HW230786   4.747   0.703   2.909
 9963SOL     OW30787   2.335   2.149   6.284
 9963SOL    HW130788   2.392   2.183   6.209
 9963SOL    HW230789   2.262   2.215   6.302
 9964SOL     OW30790   4.180   4.140   5.910
 9964SOL    HW130791   4.136   4.229   5.917
 9964SOL    HW230792   4.258   4.146   5.848
 9965SOL     OW30793   4.242   5.103   5.224
 9965SOL    HW130794   4.220   5.020   5.172
 9965SOL    HW230795   4.157   5.146   5.254
 9966SOL     OW30796   2.731   5.366   2.155
 9966SOL    HW130797   2.818   5.316   2.150
 9966SOL    HW230798   2.671   5.321   2.221
 9967SOL     OW30799   5.802   5.734   1.442
 9967SOL    HW130800   5.715   5.754   1.487
 9967SOL    HW230801   5.837   5.817   1.398
 9968SOL     OW30802   3.297   5.071   5.822
 9968SOL    HW130803   3.391   5.089   5.792
 9968SOL    HW230804   3.252   5.010   5.757
 9969SOL     OW30805   0.833   2.341   4.237
 9969SOL    HW130806   0.850   2.430   4.196
 9969SOL    HW230807   0.810   2.353   4.334
 9970SOL     OW30808   6.300   4.384   1.951
 9970SOL    HW130809   6.216   4.335   1.927
 9970SOL    HW230810   6.359   4.390   1.870
 9971SOL     OW30811   2.494   4.107   0.260
 9971SOL    HW130812   2.436   4.188   0.247
 9971SOL    HW230813   2.459   4.053   0.337
 9972SOL     OW30814   3.539   4.601   0.176
 9972SOL    HW130815   3.497   4.515   0.148
 9972SOL    HW230816   3.539   4.665   0.099
 9973SOL     OW30817   4.412   2.132   4.888
 9973SOL    HW130818   4.370   2.145   4.799
 9973SOL    HW230819   4.483   2.062   4.882
 9974SOL     OW30820   5.921   3.164   3.620
 9974SOL    HW130821   5.873   3.175   3.534
 9974SOL    HW230822   6.007   3.115   3.604
 9975SOL     OW30823   0.074   4.593   0.343
 9975SOL    HW130824   0.001   4.617   0.408
 9975SOL    HW230825   0.036   4.590   0.251
 9976SOL     OW30826   6.879   5.093   5.568
 9976SOL    HW130827   6.957   5.133   5.617
 9976SOL    HW230828   6.856   5.005   5.609
 9977SOL     OW30829   6.772   4.998   6.087
 9977SOL    HW130830   6.713   4.922   6.112
 9977SOL    HW230831   6.761   5.018   5.989
 9978SOL     OW30832   6.050   1.959   3.386
 9978SOL    HW130833   6.052   1.866   3.423
 9978SOL    HW230834   5.972   1.969   3.324
 9979SOL     OW30835   6.402   4.981   6.158
 9979SOL    HW130836   6.326   5.046   6.165
 9979SOL    HW230837   6.470   5.002   6.229
 9980SOL     OW30838   1.598   1.427   6.780
 9980SOL    HW130839   1.543   1.367   6.838
 9980SOL    HW230840   1.548   1.512   6.763
 9981SOL     OW30841   2.510   1.698   1.120
 9981SOL    HW130842   2.577   1.627   1.098
 9981SOL    HW230843   2.429   1.657   1.160
 9982SOL     OW30844   0.766   0.860   3.361
 9982SOL    HW130845   0.737   0.767   3.341
 9982SOL    HW230846   0.866   0.863   3.369
 9983SOL     OW30847   1.306   1.884   1.806
 9983SOL    HW130848   1.276   1.841   1.891
 9983SOL    HW230849   1.397   1.924   1.819
 9984SOL     OW30850   1.108   7.016   0.434
 9984SOL    HW130851   1.013   0.018   0.451
 9984SOL    HW230852   1.165   0.019   0.511
 9985SOL     OW30853   2.686   0.645   1.648
 9985SOL    HW130854   2.767   0.643   1.590
 9985SOL    HW230855   2.696   0.577   1.721
 9986SOL     OW30856   5.325   4.002   6.640
 9986SOL    HW130857   5.295   4.051   6.558
 9986SOL    HW230858   5.422   4.020   6.655
 9987SOL     OW30859   5.236   1.598   2.824
 9987SOL    HW130860   5.319   1.620   2.876
 9987SOL    HW230861   5.261   1.549   2.740
 9988SOL     OW30862   0.197   5.333   5.222
 9988SOL    HW130863   0.237   5.414   5.181
 9988SOL    HW230864   0.172   5.268   5.150
 9989SOL     OW30865   5.529   3.656   2.936
 9989SOL    HW130866   5.524   3.741   2.988
 9989SOL    HW230867   5.481   3.584   2.986
 9990SOL     OW30868   2.525   6.744   2.951
 9990SOL    HW130869   2.608   6.797   2.935
 9990SOL    HW230870   2.478   6.780   3.032
 9991SOL     OW30871   1.487   3.362   5.278
 9991SOL    HW130872   1.521   3.453   5.253
 9991SOL    HW230873   1.561   3.310   5.319
 9992SOL     OW30874   4.905   3.615   0.705
 9992SOL    HW130875   4.883   3.521   0.732
 9992SOL    HW230876   5.001   3.620   0.679
 9993SOL     OW30877   4.473   0.069   2.423
 9993SOL    HW130878   4.436   0.075   2.516
 9993SOL    HW230879   4.474   0.160   2.382
 9994SOL     OW30880   0.008   3.626   4.202
 9994SOL    HW130881   6.946   3.577   4.197
 9994SOL    HW230882   0.005   3.692   4.277
 9995SOL     OW30883   3.062   6.886   2.847
 9995SOL    HW130884   3.110   6.804   2.817
 9995SOL    HW230885   3.043   6.944   2.767
 9996SOL     OW30886   2.724   2.547   1.084
 9996SOL    HW130887   2.782   2.476   1.045
 9996SOL    HW230888   2.678   2.512   1.166
 9997SOL     OW30889   3.986   2.298   1.042
 9997SOL    HW130890   3.902   2.305   0.989
 9997SOL    HW230891   3.966   2.317   1.139
 9998SOL     OW30892   6.816   3.883   2.322
 9998SOL    HW130893   6.811   3.957   2.255
 9998SOL    HW230894   6.874   3.912   2.399
 9999SOL     OW30895   6.499   4.539   4.901
 9999SOL    HW130896   6.420   4.552   4.841
 9999SOL    HW230897   6.578   4.511   4.847
10000SOL     OW30898   5.714   2.761   0.059
10000SOL    HW130899   5.717   2.662   0.043
10000SOL    HW230900   5.658   2.804   7.014
10001SOL     OW30901   4.707   1.268   1.817
10001SOL    HW130902   4.753   1.338   1.762
10001SOL    HW230903   4.767   1.240   1.892
10002SOL     OW30904   1.370   0.640   1.184
10002SOL    HW130905   1.352   0.563   1.122
10002SOL    HW230906   1.429   0.610   1.258
10003SOL     OW30907   4.307   1.839   3.572
10003SOL    HW130908   4.320   1.746   3.538
10003SOL    HW230909   4.303   1.837   3.672
10004SOL     OW30910   4.775   2.807   4.437
10004SOL    HW130911   4.757   2.829   4.533
10004SOL    HW230912   4.777   2.708   4.426
10005SOL     OW30913   4.865   6.132   3.617
10005SOL    HW130914   4.944   6.166   3.667
10005SOL    HW230915   4.857   6.033   3.630
10006SOL     OW30916   5.454   0.661   4.551
10006SOL    HW130917   5.472   0.563   4.562
10006SOL    HW230918   5.524   0.703   4.494
10007SOL     OW30919   0.589   4.317   4.975
10007SOL    HW130920   0.684   4.334   5.000
10007SOL    HW230921   0.579   4.323   4.875
10008SOL     OW30922   4.301   1.498   3.981
10008SOL    HW130923   4.254   1.432   3.922
10008SOL    HW230924   4.399   1.498   3.961
10009SOL     OW30925   1.912   4.033   1.805
10009SOL    HW130926   1.922   4.108   1.739
10009SOL    HW230927   1.882   3.950   1.757
10010SOL     OW30928   2.290   0.052   6.853
10010SOL    HW130929   2.257   0.000   6.774
10010SOL    HW230930   2.224   0.123   6.877
10011SOL     OW30931   6.495   2.450   4.975
10011SOL    HW130932   6.584   2.435   4.933
10011SOL    HW230933   6.500   2.528   5.037
10012SOL     OW30934   4.873   0.123   2.919
10012SOL    HW130935   4.863   0.126   2.820
10012SOL    HW230936   4.819   0.047   2.956
10013SOL     OW30937   2.037   1.773   4.421
10013SOL    HW130938   2.023   1.854   4.363
10013SOL    HW230939   1.985   1.783   4.506
10014SOL     OW30940   6.225   2.949   0.026
10014SOL    HW130941   6.174   2.863   0.037
10014SOL    HW230942   6.320   2.935   0.055
10015SOL     OW30943   3.000   4.329   0.181
10015SOL    HW130944   2.919   4.278   0.153
10015SOL    HW230945   3.051   4.276   0.249
10016SOL     OW30946   2.407   0.221   4.967
10016SOL    HW130947   2.312   0.249   4.982
10016SOL    HW230948   2.410   0.147   4.900
10017SOL     OW30949   2.104   2.594   2.190
10017SOL    HW130950   2.179   2.653   2.219
10017SOL    HW230951   2.081   2.529   2.263
10018SOL     OW30952   5.202   6.833   5.683
10018SOL    HW130953   5.196   6.832   5.583
10018SOL    HW230954   5.182   6.742   5.718
10019SOL     OW30955   1.416   1.835   2.961
10019SOL    HW130956   1.342   1.776   2.993
10019SOL    HW230957   1.492   1.778   2.929
10020SOL     OW30958   0.573   2.496   1.656
10020SOL    HW130959   0.590   2.398   1.645
10020SOL    HW230960   0.641   2.536   1.716
10021SOL     OW30961   0.660   3.248   1.682
10021SOL    HW130962   0.724   3.181   1.644
10021SOL    HW230963   0.575   3.245   1.629
10022SOL     OW30964   3.330   6.835   0.559
10022SOL    HW130965   3.406   6.846   0.622
10022SOL    HW230966   3.365   6.810   0.468
10023SOL     OW30967   1.707   5.278   5.985
10023SOL    HW130968   1.668   5.186   5.990
10023SOL    HW230969   1.701   5.321   6.075
10024SOL     OW30970   2.432   6.967   2.071
10024SOL    HW130971   2.492   6.999   1.999
10024SOL    HW230972   2.345   6.938   2.032
10025SOL     OW30973   1.356   0.963   1.782
10025SOL    HW130974   1.425   1.017   1.830
10025SOL    HW230975   1.359   0.985   1.684
10026SOL     OW30976   4.668   6.428   3.673
10026SOL    HW130977   4.599   6.356   3.678
10026SOL    HW230978   4.732   6.419   3.750
10027SOL     OW30979   0.436   4.033   4.999
10027SOL    HW130980   0.422   4.048   5.097
10027SOL    HW230981   0.507   4.095   4.966
10028SOL     OW30982   1.200   1.926   1.564
10028SOL    HW130983   1.237   2.006   1.517
10028SOL    HW230984   1.243   1.916   1.653
10029SOL     OW30985   3.411   1.914   3.751
10029SOL    HW130986   3.322   1.943   3.716
10029SOL    HW230987   3.428   1.956   3.840
10030SOL     OW30988   2.122   6.230   3.927
10030SOL    HW130989   2.115   6.330   3.926
10030SOL    HW230990   2.079   6.193   3.845
10031SOL     OW30991   6.011   5.116   3.551
10031SOL    HW130992   5.987   5.031   3.597
10031SOL    HW230993   5.933   5.178   3.552
10032SOL     OW30994   3.170   1.708   5.357
10032SOL    HW130995   3.186   1.803   5.386
10032SOL    HW230996   3.083   1.676   5.394
10033SOL     OW30997   4.565   2.116   4.033
10033SOL    HW130998   4.587   2.023   4.063
10033SOL    HW230999   4.598   2.182   4.100
10034SOL     OW31000   3.065   0.278   4.038
10034SOL    HW131001   3.027   0.230   3.959
10034SOL    HW231002   3.161   0.300   4.020
10035SOL     OW31003   6.627   4.346   1.964
10035SOL    HW131004   6.668   4.421   1.913
10035SOL    HW231005   6.626   4.368   2.062
10036SOL     OW31006   5.582   1.717   1.083
10036SOL    HW131007   5.657   1.750   1.141
10036SOL    HW231008   5.592   1.756   0.991
10037SOL     OW31009   6.001   0.887   1.313
10037SOL    HW131010   5.978   0.801   1.357
10037SOL    HW231011   6.092   0.880   1.271
10038SOL     OW31012   4.433   0.906   0.151
10038SOL    HW131013   4.348   0.853   0.154
10038SOL    HW231014   4.511   0.843   0.156
10039SOL     OW31015   3.460   0.216   3.580
10039SOL    HW131016   3.490   0.163   3.500
10039SOL    HW231017   3.360   0.219   3.583
10040SOL     OW31018   4.415   5.526   6.379
10040SOL    HW131019   4.414   5.613   6.429
10040SOL    HW231020   4.485   5.530   6.308
10041SOL     OW31021   4.106   6.168   6.420
10041SOL    HW131022   4.097   6.140   6.324
10041SOL    HW231023   4.054   6.252   6.435
10042SOL     OW31024   1.553   1.808   4.751
10042SOL    HW131025   1.589   1.876   4.686
10042SOL    HW231026   1.504   1.737   4.701
10043SOL     OW31027   6.896   1.746   5.078
10043SOL    HW131028   6.970   1.751   5.011
10043SOL    HW231029   6.905   1.822   5.143
10044SOL     OW31030   2.653   1.707   5.384
10044SOL    HW131031   2.588   1.781   5.370
10044SOL    HW231032   2.605   1.622   5.403
10045SOL     OW31033   3.547   0.859   3.307
10045SOL    HW131034   3.632   0.843   3.258
10045SOL    HW231035   3.483   0.907   3.248
10046SOL     OW31036   2.215   4.009   0.653
10046SOL    HW131037   2.192   3.951   0.731
10046SOL    HW231038   2.279   4.080   0.683
10047SOL     OW31039   1.074   3.620   4.485
10047SOL    HW131040   1.113   3.629   4.394
10047SOL    HW231041   1.138   3.571   4.545
10048SOL     OW31042   6.368   0.660   2.808
10048SOL    HW131043   6.323   0.719   2.741
10048SOL    HW231044   6.384   0.712   2.893
10049SOL     OW31045   1.161   1.920   6.274
10049SOL    HW131046   1.214   1.888   6.353
10049SOL    HW231047   1.087   1.856   6.255
10050SOL     OW31048   5.492   3.533   4.579
10050SOL    HW131049   5.585   3.549   4.612
10050SOL    HW231050   5.427   3.557   4.651
10051SOL     OW31051   6.314   3.785   5.583
10051SOL    HW131052   6.356   3.868   5.546
10051SOL    HW231053   6.342   3.707   5.528
10052SOL     OW31054   1.963   1.346   2.883
10052SOL    HW131055   2.059   1.328   2.900
10052SOL    HW231056   1.935   1.428   2.933
10053SOL     OW31057   4.025   5.397   3.047
10053SOL    HW131058   4.085   5.414   2.969
10053SOL    HW231059   4.022   5.478   3.106
10054SOL     OW31060   5.333   6.341   6.355
10054SOL    HW131061   5.433   6.341   6.357
10054SOL    HW231062   5.299   6.422   6.403
10055SOL     OW31063   6.145   1.291   4.994
10055SOL    HW131064   6.131   1.204   4.947
10055SOL    HW231065   6.191   1.275   5.081
10056SOL     OW31066   5.500   4.355   2.816
10056SOL    HW131067   5.466   4.262   2.805
10056SOL    HW231068   5.490   4.404   2.729
10057SOL     OW31069   4.145   2.630   5.698
10057SOL    HW131070   4.133   2.594   5.791
10057SOL    HW231071   4.092   2.575   5.634
10058SOL     OW31072   6.442   3.702   5.222
10058SOL    HW131073   6.459   3.641   5.300
10058SOL    HW231074   6.496   3.785   5.233
10059SOL     OW31075   0.095   1.307   6.981
10059SOL    HW131076   0.005   1.338   6.952
10059SOL    HW231077   0.096   1.298   0.055
10060SOL     OW31078   2.337   2.741   2.296
10060SOL    HW131079   2.362   2.730   2.200
10060SOL    HW231080   2.269   2.815   2.305
10061SOL     OW31081   4.954   1.676   4.051
10061SOL    HW131082   4.868   1.658   4.099
10061SOL    HW231083   5.002   1.751   4.096
10062SOL     OW31084   5.669   0.199   3.887
10062SOL    HW131085   5.632   0.226   3.976
10062SOL    HW231086   5.711   0.279   3.844
10063SOL     OW31087   2.771   1.239   4.590
10063SOL    HW131088   2.794   1.183   4.669
10063SOL    HW231089   2.747   1.332   4.620
10064SOL     OW31090   4.885   6.369   0.356
10064SOL    HW131091   4.867   6.333   0.264
10064SOL    HW231092   4.818   6.333   0.420
10065SOL     OW31093   2.663   0.498   3.033
10065SOL    HW131094   2.591   0.563   3.010
10065SOL    HW231095   2.743   0.547   3.068
10066SOL     OW31096   0.768   2.352   4.503
10066SOL    HW131097   0.739   2.414   4.576
10066SOL    HW231098   0.742   2.258   4.526
10067SOL     OW31099   0.614   3.337   5.329
10067SOL    HW131100   0.519   3.367   5.335
10067SOL    HW231101   0.672   3.399   5.382
10068SOL     OW31102   0.764   3.520   3.618
10068SOL    HW131103   0.838   3.512   3.551
10068SOL    HW231104   0.793   3.582   3.691
10069SOL     OW31105   3.397   5.081   1.404
10069SOL    HW131106   3.371   5.115   1.494
10069SOL    HW231107   3.478   5.023   1.412
10070SOL     OW31108   0.047   6.218   5.201
10070SOL    HW131109   0.018   6.304   5.243
10070SOL    HW231110   7.005   6.147   5.220
10071SOL     OW31111   6.752   6.066   4.436
10071SOL    HW131112   6.754   6.029   4.343
10071SOL    HW231113   6.759   5.991   4.502
10072SOL     OW31114   0.299   0.335   4.302
10072SOL    HW131115   0.347   0.248   4.283
10072SOL    HW231116   0.245   0.360   4.222
10073SOL     OW31117   0.007   3.935   4.152
10073SOL    HW131118   0.056   3.898   4.231
10073SOL    HW231119   6.940   3.898   4.150
10074SOL     OW31120   1.996   0.208   6.342
10074SOL    HW131121   1.925   0.152   6.299
10074SOL    HW231122   1.986   0.303   6.312
10075SOL     OW31123   1.624   2.499   1.893
10075SOL    HW131124   1.639   2.499   1.794
10075SOL    HW231125   1.710   2.475   1.939
10076SOL     OW31126   5.826   6.307   3.111
10076SOL    HW131127   5.925   6.318   3.104
10076SOL    HW231128   5.785   6.314   3.020
10077SOL     OW31129   4.278   3.575   0.577
10077SOL    HW131130   4.317   3.519   0.505
10077SOL    HW231131   4.276   3.671   0.548
10078SOL     OW31132   6.373   6.097   4.288
10078SOL    HW131133   6.306   6.023   4.278
10078SOL    HW231134   6.337   6.166   4.351
10079SOL     OW31135   5.970   3.453   3.104
10079SOL    HW131136   6.053   3.398   3.112
10079SOL    HW231137   5.890   3.393   3.102
10080SOL     OW31138   5.257   1.241   5.943
10080SOL    HW131139   5.265   1.142   5.945
10080SOL    HW231140   5.200   1.272   6.019
10081SOL     OW31141   0.528   1.789   7.025
10081SOL    HW131142   0.498   1.742   6.942
10081SOL    HW231143   0.587   1.867   7.000
10082SOL     OW31144   0.806   5.317   1.962
10082SOL    HW131145   0.712   5.310   1.996
10082SOL    HW231146   0.818   5.259   1.882
10083SOL     OW31147   3.758   0.076   3.752
10083SOL    HW131148   3.771   0.171   3.781
10083SOL    HW231149   3.661   0.055   3.747
10084SOL     OW31150   1.236   0.540   5.472
10084SOL    HW131151   1.219   0.622   5.526
10084SOL    HW231152   1.271   0.565   5.381
10085SOL     OW31153   3.549   0.158   0.683
10085SOL    HW131154   3.481   0.210   0.735
10085SOL    HW231155   3.573   0.075   0.734
10086SOL     OW31156   5.879   5.763   3.112
10086SOL    HW131157   5.928   5.685   3.072
10086SOL    HW231158   5.922   5.848   3.085
10087SOL     OW31159   6.407   5.754   4.011
10087SOL    HW131160   6.388   5.658   3.994
10087SOL    HW231161   6.506   5.768   4.013
10088SOL     OW31162   0.102   0.209   2.403
10088SOL    HW131163   0.035   0.159   2.347
10088SOL    HW231164   0.096   0.178   2.498
10089SOL     OW31165   2.757   2.263   3.309
10089SOL    HW131166   2.833   2.201   3.324
10089SOL    HW231167   2.671   2.212   3.308
10090SOL     OW31168   0.176   5.042   1.768
10090SOL    HW131169   0.105   5.015   1.833
10090SOL    HW231170   0.233   5.113   1.808
10091SOL     OW31171   6.225   5.708   6.582
10091SOL    HW131172   6.184   5.765   6.511
10091SOL    HW231173   6.284   5.764   6.639
10092SOL     OW31174   1.677   2.797   6.457
10092SOL    HW131175   1.717   2.887   6.440
10092SOL    HW231176   1.678   2.777   6.555
10093SOL     OW31177   4.716   3.442   5.384
10093SOL    HW131178   4.679   3.351   5.369
10093SOL    HW231179   4.738   3.484   5.296
10094SOL     OW31180   2.736   6.277   1.620
10094SOL    HW131181   2.639   6.261   1.603
10094SOL    HW231182   2.762   6.367   1.583
10095SOL     OW31183   5.441   1.714   4.309
10095SOL    HW131184   5.456   1.688   4.214
10095SOL    HW231185   5.378   1.650   4.352
10096SOL     OW31186   4.965   6.546   2.807
10096SOL    HW131187   4.872   6.548   2.845
10096SOL    HW231188   4.967   6.487   2.727
10097SOL     OW31189   1.507   1.956   6.976
10097SOL    HW131190   1.495   1.989   0.044
10097SOL    HW231191   1.459   1.869   6.965
10098SOL     OW31192   2.729   6.766   5.083
10098SOL    HW131193   2.690   6.763   5.175
10098SOL    HW231194   2.656   6.787   5.017
10099SOL     OW31195   0.687   4.808   1.069
10099SOL    HW131196   0.649   4.717   1.052
10099SOL    HW231197   0.720   4.814   1.163
10100SOL     OW31198   5.206   5.986   5.778
10100SOL    HW131199   5.212   5.913   5.710
10100SOL    HW231200   5.286   6.046   5.772
10101SOL     OW31201   0.019   2.975   1.686
10101SOL    HW131202   0.114   2.998   1.664
10101SOL    HW231203   6.993   2.962   1.601
10102SOL     OW31204   6.613   0.915   1.475
10102SOL    HW131205   6.710   0.903   1.454
10102SOL    HW231206   6.559   0.890   1.395
10103SOL     OW31207   2.407   0.467   5.472
10103SOL    HW131208   2.407   0.550   5.527
10103SOL    HW231209   2.500   0.431   5.465
10104SOL     OW31210   1.546   2.104   5.546
10104SOL    HW131211   1.516   2.016   5.582
10104SOL    HW231212   1.603   2.150   5.614
10105SOL     OW31213   2.276   0.677   6.304
10105SOL    HW131214   2.180   0.654   6.291
10105SOL    HW231215   2.303   0.745   6.236
10106SOL     OW31216   3.993   6.467   0.560
10106SOL    HW131217   3.900   6.466   0.524
10106SOL    HW231218   4.001   6.399   0.633
10107SOL     OW31219   5.137   1.396   6.205
10107SOL    HW131220   5.142   1.348   6.292
10107SOL    HW231221   5.207   1.467   6.201
10108SOL     OW31222   0.085   1.707   6.955
10108SOL    HW131223   7.024   1.720   7.002
10108SOL    HW231224   0.142   1.789   6.965
10109SOL     OW31225   0.621   1.213   0.942
10109SOL    HW131226   0.536   1.258   0.970
10109SOL    HW231227   0.666   1.268   0.871
10110SOL     OW31228   4.746   4.599   4.104
10110SOL    HW131229   4.822   4.574   4.164
10110SOL    HW231230   4.779   4.609   4.010
10111SOL     OW31231   6.988   3.731   3.617
10111SOL    HW131232   6.934   3.720   3.701
10111SOL    HW231233   0.014   3.817   3.622
10112SOL     OW31234   6.110   3.349   2.809
10112SOL    HW131235   6.069   3.266   2.770
10112SOL    HW231236   6.141   3.408   2.735
10113SOL     OW31237   4.701   0.245   0.992
10113SOL    HW131238   4.744   0.160   1.022
10113SOL    HW231239   4.629   0.224   0.927
10114SOL     OW31240   4.296   2.157   2.368
10114SOL    HW131241   4.239   2.092   2.317
10114SOL    HW231242   4.299   2.244   2.319
10115SOL     OW31243   4.324   2.067   5.125
10115SOL    HW131244   4.345   2.090   5.030
10115SOL    HW231245   4.226   2.080   5.142
10116SOL     OW31246   0.519   6.495   6.773
10116SOL    HW131247   0.500   6.509   6.676
10116SOL    HW231248   0.539   6.583   6.816
10117SOL     OW31249   6.881   6.410   5.797
10117SOL    HW131250   6.949   6.373   5.734
10117SOL    HW231251   6.894   6.371   5.888
10118SOL     OW31252   2.395   4.415   3.557
10118SOL    HW131253   2.481   4.460   3.585
10118SOL    HW231254   2.337   4.403   3.637
10119SOL     OW31255   6.656   4.786   3.868
10119SOL    HW131256   6.666   4.750   3.960
10119SOL    HW231257   6.613   4.717   3.809
10120SOL     OW31258   1.813   3.482   4.082
10120SOL    HW131259   1.891   3.421   4.065
10120SOL    HW231260   1.832   3.571   4.041
10121SOL     OW31261   5.828   3.348   6.819
10121SOL    HW131262   5.758   3.322   6.753
10121SOL    HW231263   5.800   3.320   6.911
10122SOL     OW31264   5.308   2.013   3.522
10122SOL    HW131265   5.244   1.979   3.592
10122SOL    HW231266   5.289   1.968   3.435
10123SOL     OW31267   5.770   6.233   1.042
10123SOL    HW131268   5.838   6.266   1.107
10123SOL    HW231269   5.681   6.271   1.066
10124SOL     OW31270   1.244   5.050   0.533
10124SOL    HW131271   1.329   5.084   0.494
10124SOL    HW231272   1.189   5.128   0.566
10125SOL     OW31273   2.296   1.017   0.578
10125SOL    HW131274   2.357   0.940   0.592
10125SOL    HW231275   2.290   1.071   0.662
10126SOL     OW31276   6.868   0.113   6.633
10126SOL    HW131277   6.937   0.176   6.669
10126SOL    HW231278   6.777   0.144   6.661
10127SOL     OW31279   2.157   3.612   0.605
10127SOL    HW131280   2.202   3.529   0.638
10127SOL    HW231281   2.119   3.662   0.683
10128SOL     OW31282   3.011   1.130   5.625
10128SOL    HW131283   2.976   1.141   5.718
10128SOL    HW231284   2.985   1.210   5.570
10129SOL     OW31285   6.760   1.625   2.226
10129SOL    HW131286   6.706   1.541   2.233
10129SOL    HW231287   6.854   1.603   2.198
10130SOL     OW31288   0.321   3.265   1.968
10130SOL    HW131289   0.253   3.191   1.966
10130SOL    HW231290   0.291   3.336   2.031
10131SOL     OW31291   1.530   0.158   4.047
10131SOL    HW131292   1.564   0.134   3.956
10131SOL    HW231293   1.569   0.096   4.115
10132SOL     OW31294   1.520   0.689   3.021
10132SOL    HW131295   1.543   0.786   3.022
10132SOL    HW231296   1.601   0.635   3.044
10133SOL     OW31297   4.487   6.532   0.728
10133SOL    HW131298   4.490   6.620   0.775
10133SOL    HW231299   4.411   6.477   0.763
10134SOL     OW31300   5.574   0.877   3.054
10134SOL    HW131301   5.501   0.857   3.119
10134SOL    HW231302   5.662   0.872   3.101
10135SOL     OW31303   5.063   2.340   3.911
10135SOL    HW131304   5.003   2.274   3.866
10135SOL    HW231305   5.140   2.361   3.851
10136SOL     OW31306   5.351   1.653   2.301
10136SOL    HW131307   5.326   1.626   2.208
10136SOL    HW231308   5.271   1.645   2.361
10137SOL     OW31309   0.594   4.549   5.314
10137SOL    HW131310   0.519   4.503   5.266
10137SOL    HW231311   0.675   4.490   5.312
10138SOL     OW31312   5.857   3.164   0.274
10138SOL    HW131313   5.773   3.144   0.325
10138SOL    HW231314   5.936   3.152   0.335
10139SOL     OW31315   3.280   4.123   4.753
10139SOL    HW131316   3.215   4.197   4.766
10139SOL    HW231317   3.236   4.048   4.704
10140SOL     OW31318   0.049   6.624   6.369
10140SOL    HW131319   0.062   6.559   6.444
10140SOL    HW231320   0.079   6.715   6.399
10141SOL     OW31321   4.643   1.105   4.939
10141SOL    HW131322   4.633   1.085   5.037
10141SOL    HW231323   4.694   1.190   4.928
10142SOL     OW31324   5.950   6.616   5.991
10142SOL    HW131325   5.901   6.564   5.922
10142SOL    HW231326   6.020   6.673   5.947
10143SOL     OW31327   5.567   2.675   0.556
10143SOL    HW131328   5.482   2.669   0.505
10143SOL    HW231329   5.630   2.737   0.509
10144SOL     OW31330   4.893   6.204   5.426
10144SOL    HW131331   4.869   6.109   5.447
10144SOL    HW231332   4.887   6.219   5.328
10145SOL     OW31333   3.797   5.350   2.911
10145SOL    HW131334   3.761   5.260   2.936
10145SOL    HW231335   3.877   5.371   2.967
10146SOL     OW31336   6.663   3.657   4.586
10146SOL    HW131337   6.686   3.588   4.654
10146SOL    HW231338   6.617   3.614   4.509
10147SOL     OW31339   5.292   3.814   6.868
10147SOL    HW131340   5.293   3.747   6.794
10147SOL    HW231341   5.283   3.906   6.829
10148SOL     OW31342   5.849   4.167   0.586
10148SOL    HW131343   5.855   4.076   0.544
10148SOL    HW231344   5.892   4.234   0.527
10149SOL     OW31345   5.210   4.424   1.392
10149SOL    HW131346   5.160   4.509   1.409
10149SOL    HW231347   5.304   4.434   1.427
10150SOL     OW31348   4.354   3.326   1.561
10150SOL    HW131349   4.329   3.421   1.542
10150SOL    HW231350   4.453   3.316   1.553
10151SOL     OW31351   1.020   0.168   6.711
10151SOL    HW131352   1.084   0.219   6.653
10151SOL    HW231353   0.927   0.193   6.687
10152SOL     OW31354   6.612   5.898   3.679
10152SOL    HW131355   6.606   5.799   3.684
10152SOL    HW231356   6.615   5.936   3.772
10153SOL     OW31357   4.776   5.745   4.248
10153SOL    HW131358   4.801   5.652   4.278
10153SOL    HW231359   4.712   5.739   4.171
10154SOL     OW31360   3.927   6.390   5.467
10154SOL    HW131361   3.899   6.444   5.388
10154SOL    HW231362   3.964   6.451   5.538
10155SOL     OW31363   5.029   2.825   5.346
10155SOL    HW131364   5.037   2.726   5.341
10155SOL    HW231365   5.082   2.867   5.271
10156SOL     OW31366   5.425   0.522   1.602
10156SOL    HW131367   5.404   0.559   1.511
10156SOL    HW231368   5.420   0.422   1.600
10157SOL     OW31369   6.907   2.592   0.382
10157SOL    HW131370   6.995   2.570   0.423
10157SOL    HW231371   6.920   2.620   0.287
10158SOL     OW31372   6.437   6.490   1.256
10158SOL    HW131373   6.472   6.564   1.313
10158SOL    HW231374   6.479   6.403   1.283
10159SOL     OW31375   3.769   3.334   2.397
10159SOL    HW131376   3.864   3.349   2.367
10159SOL    HW231377   3.764   3.247   2.447
10160SOL     OW31378   1.626   4.083   3.111
10160SOL    HW131379   1.711   4.092   3.163
10160SOL    HW231380   1.555   4.044   3.169
10161SOL     OW31381   3.428   5.092   6.520
10161SOL    HW131382   3.489   5.075   6.597
10161SOL    HW231383   3.339   5.124   6.554
10162SOL     OW31384   2.569   4.629   0.437
10162SOL    HW131385   2.621   4.666   0.515
10162SOL    HW231386   2.480   4.674   0.432
10163SOL     OW31387   0.454   4.860   6.577
10163SOL    HW131388   0.526   4.793   6.595
10163SOL    HW231389   0.367   4.826   6.613
10164SOL     OW31390   5.760   3.517   4.667
10164SOL    HW131391   5.821   3.464   4.725
10164SOL    HW231392   5.813   3.557   4.591
10165SOL     OW31393   6.714   2.344   3.445
10165SOL    HW131394   6.800   2.394   3.437
10165SOL    HW231395   6.703   2.283   3.366
10166SOL     OW31396   1.540   1.705   1.609
10166SOL    HW131397   1.525   1.791   1.561
10166SOL    HW231398   1.581   1.724   1.699
10167SOL     OW31399   6.751   6.027   6.852
10167SOL    HW131400   6.825   5.963   6.834
10167SOL    HW231401   6.735   6.084   6.772
10168SOL     OW31402   6.653   1.980   5.950
10168SOL    HW131403   6.599   1.929   6.016
10168SOL    HW231404   6.592   2.034   5.891
10169SOL     OW31405   6.245   3.895   3.075
10169SOL    HW131406   6.335   3.862   3.103
10169SOL    HW231407   6.250   3.932   2.982
10170SOL     OW31408   6.266   5.702   6.223
10170SOL    HW131409   6.223   5.617   6.252
10170SOL    HW231410   6.196   5.770   6.200
10171SOL     OW31411   0.395   2.540   3.981
10171SOL    HW131412   0.360   2.461   4.033
10171SOL    HW231413   0.349   2.623   4.013
10172SOL     OW31414   0.393   6.794   4.563
10172SOL    HW131415   0.398   6.716   4.626
10172SOL    HW231416   0.303   6.796   4.520
10173SOL     OW31417   1.882   3.680   6.598
10173SOL    HW131418   1.956   3.698   6.533
10173SOL    HW231419   1.920   3.651   6.685
10174SOL     OW31420   4.799   4.591   3.601
10174SOL    HW131421   4.861   4.557   3.530
10174SOL    HW231422   4.760   4.678   3.571
10175SOL     OW31423   6.179   1.787   3.630
10175SOL    HW131424   6.274   1.803   3.658
10175SOL    HW231425   6.125   1.759   3.710
10176SOL     OW31426   6.432   2.811   5.413
10176SOL    HW131427   6.400   2.896   5.455
10176SOL    HW231428   6.504   2.832   5.346
10177SOL     OW31429   1.786   0.085   0.862
10177SOL    HW131430   1.789   7.017   0.895
10177SOL    HW231431   1.696   0.104   0.822
10178SOL     OW31432   1.475   0.894   0.477
10178SOL    HW131433   1.521   0.877   0.564
10178SOL    HW231434   1.457   0.992   0.467
10179SOL     OW31435   0.246   3.434   6.534
10179SOL    HW131436   0.335   3.388   6.543
10179SOL    HW231437   0.232   3.493   6.614
10180SOL     OW31438   4.646   0.496   1.072
10180SOL    HW131439   4.727   0.553   1.057
10180SOL    HW231440   4.651   0.415   1.013
10181SOL     OW31441   0.637   2.939   1.307
10181SOL    HW131442   0.583   3.016   1.276
10181SOL    HW231443   0.620   2.923   1.404
10182SOL     OW31444   5.050   1.520   0.022
10182SOL    HW131445   4.980   1.451   0.041
10182SOL    HW231446   5.051   1.587   0.097
10183SOL     OW31447   5.733   2.760   6.021
10183SOL    HW131448   5.660   2.801   5.966
10183SOL    HW231449   5.820   2.768   5.972
10184SOL     OW31450   5.093   2.650   0.068
10184SOL    HW131451   5.157   2.582   0.104
10184SOL    HW231452   5.143   2.720   0.017
10185SOL     OW31453   6.140   5.842   2.132
10185SOL    HW131454   6.088   5.773   2.183
10185SOL    HW231455   6.177   5.801   2.049
10186SOL     OW31456   4.895   3.561   4.747
10186SOL    HW131457   4.875   3.607   4.833
10186SOL    HW231458   4.911   3.463   4.764
10187SOL     OW31459   1.546   4.114   5.498
10187SOL    HW131460   1.533   4.199   5.447
10187SOL    HW231461   1.625   4.123   5.559
10188SOL     OW31462   2.890   4.917   6.636
10188SOL    HW131463   2.976   4.889   6.593
10188SOL    HW231464   2.908   4.950   6.729
10189SOL     OW31465   1.129   0.660   5.951
10189SOL    HW131466   1.030   0.646   5.943
10189SOL    HW231467   1.157   0.646   6.046
10190SOL     OW31468   4.205   3.171   1.854
10190SOL    HW131469   4.264   3.101   1.894
10190SOL    HW231470   4.186   3.242   1.922
10191SOL     OW31471   5.260   5.371   0.543
10191SOL    HW131472   5.233   5.303   0.474
10191SOL    HW231473   5.300   5.324   0.622
10192SOL     OW31474   3.361   1.690   5.155
10192SOL    HW131475   3.290   1.706   5.224
10192SOL    HW231476   3.397   1.597   5.164
10193SOL     OW31477   3.080   3.803   2.183
10193SOL    HW131478   3.076   3.831   2.279
10193SOL    HW231479   3.113   3.880   2.128
10194SOL     OW31480   4.671   0.633   4.383
10194SOL    HW131481   4.593   0.601   4.330
10194SOL    HW231482   4.754   0.585   4.352
10195SOL     OW31483   6.883   0.486   1.864
10195SOL    HW131484   6.982   0.492   1.851
10195SOL    HW231485   6.838   0.556   1.809
10196SOL     OW31486   4.997   2.101   3.454
10196SOL    HW131487   4.957   2.081   3.365
10196SOL    HW231488   5.021   2.015   3.500
10197SOL     OW31489   4.751   1.623   4.221
10197SOL    HW131490   4.675   1.642   4.284
10197SOL    HW231491   4.781   1.529   4.232
10198SOL     OW31492   3.830   6.804   0.749
10198SOL    HW131493   3.867   6.896   0.734
10198SOL    HW231494   3.903   6.737   0.737
10199SOL     OW31495   0.814   2.352   6.836
10199SOL    HW131496   0.736   2.301   6.872
10199SOL    HW231497   0.847   2.417   6.904
10200SOL     OW31498   5.152   3.638   5.286
10200SOL    HW131499   5.069   3.692   5.267
10200SOL    HW231500   5.193   3.670   5.371
10201SOL     OW31501   0.211   6.107   1.274
10201SOL    HW131502   0.223   6.008   1.281
10201SOL    HW231503   0.301   6.151   1.271
10202SOL     OW31504   1.034   4.363   0.362
10202SOL    HW131505   1.106   4.408   0.309
10202SOL    HW231506   1.044   4.386   0.459
10203SOL     OW31507   1.270   2.868   1.747
10203SOL    HW131508   1.186   2.823   1.719
10203SOL    HW231509   1.330   2.803   1.794
10204SOL     OW31510   3.101   5.701   6.039
10204SOL    HW131511   3.005   5.705   6.066
10204SOL    HW231512   3.109   5.716   5.940
10205SOL     OW31513   3.378   1.365   2.204
10205SOL    HW131514   3.340   1.376   2.112
10205SOL    HW231515   3.353   1.275   2.240
10206SOL     OW31516   5.077   6.671   6.114
10206SOL    HW131517   5.090   6.574   6.132
10206SOL    HW231518   5.066   6.720   6.200
10207SOL     OW31519   2.332   1.459   0.261
10207SOL    HW131520   2.407   1.524   0.269
10207SOL    HW231521   2.356   1.375   0.310
10208SOL     OW31522   6.388   4.539   3.754
10208SOL    HW131523   6.379   4.492   3.842
10208SOL    HW231524   6.315   4.606   3.744
10209SOL     OW31525   0.392   0.611   5.607
10209SOL    HW131526   0.354   0.563   5.528
10209SOL    HW231527   0.472   0.665   5.579
10210SOL     OW31528   5.189   0.072   1.792
10210SOL    HW131529   5.105   0.113   1.830
10210SOL    HW231530   5.191   0.085   1.693
10211SOL     OW31531   4.196   6.768   5.247
10211SOL    HW131532   4.108   6.806   5.275
10211SOL    HW231533   4.269   6.815   5.296
10212SOL     OW31534   0.464   0.712   4.699
10212SOL    HW131535   0.409   0.678   4.623
10212SOL    HW231536   0.539   0.768   4.663
10213SOL     OW31537   5.579   2.696   2.495
10213SOL    HW131538   5.599   2.637   2.417
10213SOL    HW231539   5.495   2.666   2.540
10214SOL     OW31540   1.169   2.035   2.186
10214SOL    HW131541   1.202   1.946   2.152
10214SOL    HW231542   1.244   2.100   2.186
10215SOL     OW31543   3.661   2.893   3.868
10215SOL    HW131544   3.563   2.916   3.865
10215SOL    HW231545   3.708   2.953   3.932
10216SOL     OW31546   0.875   0.352   0.915
10216SOL    HW131547   0.820   0.430   0.883
10216SOL    HW231548   0.878   0.282   0.843
10217SOL     OW31549   2.696   1.688   3.517
10217SOL    HW131550   2.618   1.645   3.563
10217SOL    HW231551   2.734   1.759   3.576
10218SOL     OW31552   1.771   0.560   1.977
10218SOL    HW131553   1.689   0.502   1.980
10218SOL    HW231554   1.816   0.549   1.889
10219SOL     OW31555   0.209   3.452   2.128
10219SOL    HW131556   0.292   3.462   2.182
10219SOL    HW231557   0.190   3.536   2.079
10220SOL     OW31558   4.304   1.721   1.848
10220SOL    HW131559   4.209   1.754   1.847
10220SOL    HW231560   4.323   1.678   1.936
10221SOL     OW31561   1.731   3.058   4.261
10221SOL    HW131562   1.646   3.021   4.298
10221SOL    HW231563   1.722   3.072   4.163
10222SOL     OW31564   2.547   3.458   6.167
10222SOL    HW131565   2.552   3.553   6.137
10222SOL    HW231566   2.624   3.406   6.128
10223SOL     OW31567   1.643   5.903   6.667
10223SOL    HW131568   1.570   5.939   6.726
10223SOL    HW231569   1.720   5.966   6.667
10224SOL     OW31570   0.141   1.749   5.180
10224SOL    HW131571   0.132   1.780   5.274
10224SOL    HW231572   0.212   1.679   5.174
10225SOL     OW31573   2.139   6.142   6.044
10225SOL    HW131574   2.059   6.084   6.060
10225SOL    HW231575   2.193   6.148   6.127
10226SOL     OW31576   2.546   0.146   6.855
10226SOL    HW131577   2.537   0.245   6.844
10226SOL    HW231578   2.462   0.110   6.895
10227SOL     OW31579   4.938   5.000   1.050
10227SOL    HW131580   5.014   4.942   1.081
10227SOL    HW231581   4.854   4.946   1.049
10228SOL     OW31582   0.957   5.420   2.164
10228SOL    HW131583   1.037   5.480   2.148
10228SOL    HW231584   0.907   5.409   2.078
10229SOL     OW31585   0.471   1.802   3.728
10229SOL    HW131586   0.423   1.843   3.650
10229SOL    HW231587   0.569   1.816   3.717
10230SOL     OW31588   6.308   6.256   3.233
10230SOL    HW131589   6.242   6.299   3.294
10230SOL    HW231590   6.375   6.323   3.202
10231SOL     OW31591   6.293   5.481   5.477
10231SOL    HW131592   6.362   5.409   5.486
10231SOL    HW231593   6.319   5.543   5.403
10232SOL     OW31594   2.779   0.541   4.513
10232SOL    HW131595   2.858   0.592   4.477
10232SOL    HW231596   2.812   0.465   4.569
10233SOL     OW31597   4.916   3.802   5.198
10233SOL    HW131598   4.885   3.749   5.119
10233SOL    HW231599   4.842   3.808   5.265
10234SOL     OW31600   5.149   1.339   0.431
10234SOL    HW131601   5.198   1.426   0.423
10234SOL    HW231602   5.051   1.356   0.431
10235SOL     OW31603   4.612   2.769   6.918
10235SOL    HW131604   4.690   2.831   6.933
10235SOL    HW231605   4.588   2.725   7.005
10236SOL     OW31606   2.493   0.130   2.269
10236SOL    HW131607   2.449   0.213   2.236
10236SOL    HW231608   2.485   0.058   2.199
10237SOL     OW31609   6.284   4.126   0.787
10237SOL    HW131610   6.305   4.102   0.882
10237SOL    HW231611   6.359   4.179   0.748
10238SOL     OW31612   3.183   4.056   3.571
10238SOL    HW131613   3.237   4.042   3.487
10238SOL    HW231614   3.245   4.069   3.648
10239SOL     OW31615   1.288   4.018   5.232
10239SOL    HW131616   1.312   4.108   5.197
10239SOL    HW231617   1.371   3.965   5.247
10240SOL     OW31618   2.082   4.829   3.134
10240SOL    HW131619   2.152   4.791   3.194
10240SOL    HW231620   2.125   4.875   3.056
10241SOL     OW31621   6.716   0.346   2.111
10241SOL    HW131622   6.788   0.415   2.115
10241SOL    HW231623   6.723   0.294   2.026
10242SOL     OW31624   6.728   0.902   6.840
10242SOL    HW131625   6.815   0.878   6.797
10242SOL    HW231626   6.672   0.819   6.850
10243SOL     OW31627   0.998   5.199   1.313
10243SOL    HW131628   0.994   5.231   1.218
10243SOL    HW231629   0.910   5.214   1.357
10244SOL     OW31630   0.839   4.474   0.198
10244SOL    HW131631   0.898   4.468   0.279
10244SOL    HW231632   0.812   4.569   0.184
10245SOL     OW31633   2.768   4.679   6.609
10245SOL    HW131634   2.812   4.767   6.596
10245SOL    HW231635   2.770   4.654   6.706
10246SOL     OW31636   3.065   3.927   3.892
10246SOL    HW131637   3.003   3.992   3.847
10246SOL    HW231638   3.053   3.934   3.991
10247SOL     OW31639   0.129   5.442   5.475
10247SOL    HW131640   0.153   5.441   5.378
10247SOL    HW231641   0.032   5.424   5.486
10248SOL     OW31642   3.534   6.916   2.141
10248SOL    HW131643   3.438   6.944   2.133
10248SOL    HW231644   3.577   6.921   2.051
10249SOL     OW31645   3.393   1.506   6.036
10249SOL    HW131646   3.423   1.449   6.112
10249SOL    HW231647   3.420   1.464   5.950
10250SOL     OW31648   6.897   2.684   1.221
10250SOL    HW131649   6.871   2.780   1.231
10250SOL    HW231650   6.814   2.627   1.217
10251SOL     OW31651   2.404   2.327   5.463
10251SOL    HW131652   2.437   2.382   5.386
10251SOL    HW231653   2.326   2.372   5.506
10252SOL     OW31654   5.152   5.334   6.955
10252SOL    HW131655   5.115   5.426   6.959
10252SOL    HW231656   5.097   5.273   7.012
10253SOL     OW31657   4.557   5.669   0.011
10253SOL    HW131658   4.523   5.626   6.953
10253SOL    HW231659   4.480   5.692   0.071
10254SOL     OW31660   4.739   1.671   5.374
10254SOL    HW131661   4.763   1.678   5.471
10254SOL    HW231662   4.642   1.695   5.362
10255SOL     OW31663   1.604   6.408   1.581
10255SOL    HW131664   1.684   6.410   1.640
10255SOL    HW231665   1.521   6.406   1.637
10256SOL     OW31666   6.219   0.379   1.788
10256SOL    HW131667   6.310   0.337   1.782
10256SOL    HW231668   6.163   0.347   1.711
10257SOL     OW31669   1.687   5.235   4.259
10257SOL    HW131670   1.682   5.333   4.280
10257SOL    HW231671   1.777   5.215   4.221
10258SOL     OW31672   4.003   1.117   4.614
10258SOL    HW131673   3.992   1.209   4.577
10258SOL    HW231674   3.995   1.050   4.540
10259SOL     OW31675   0.335   4.462   3.012
10259SOL    HW131676   0.280   4.395   2.962
10259SOL    HW231677   0.404   4.501   2.952
10260SOL     OW31678   0.607   0.260   3.657
10260SOL    HW131679   0.624   0.203   3.737
10260SOL    HW231680   0.613   0.357   3.682
10261SOL     OW31681   6.525   5.167   3.326
10261SOL    HW131682   6.484   5.254   3.297
10261SOL    HW231683   6.460   5.093   3.311
10262SOL     OW31684   2.276   6.604   4.813
10262SOL    HW131685   2.226   6.560   4.738
10262SOL    HW231686   2.367   6.565   4.821
10263SOL     OW31687   4.946   0.652   6.325
10263SOL    HW131688   5.027   0.600   6.352
10263SOL    HW231689   4.921   0.629   6.231
10264SOL     OW31690   5.829   2.539   6.264
10264SOL    HW131691   5.864   2.509   6.175
10264SOL    HW231692   5.829   2.639   6.267
10265SOL     OW31693   3.227   2.082   3.125
10265SOL    HW131694   3.247   2.115   3.218
10265SOL    HW231695   3.128   2.080   3.112
10266SOL     OW31696   2.911   3.300   5.044
10266SOL    HW131697   2.982   3.229   5.050
10266SOL    HW231698   2.834   3.266   4.990
10267SOL     OW31699   6.239   1.427   0.019
10267SOL    HW131700   6.291   1.475   0.090
10267SOL    HW231701   6.227   1.331   0.047
10268SOL     OW31702   4.948   5.049   1.661
10268SOL    HW131703   5.015   5.066   1.733
10268SOL    HW231704   4.875   4.990   1.697
10269SOL     OW31705   0.739   2.630   4.966
10269SOL    HW131706   0.639   2.625   4.974
10269SOL    HW231707   0.774   2.697   5.031
10270SOL     OW31708   2.723   5.318   3.875
10270SOL    HW131709   2.724   5.304   3.776
10270SOL    HW231710   2.758   5.237   3.921
10271SOL     OW31711   3.594   2.852   0.394
10271SOL    HW131712   3.630   2.934   0.349
10271SOL    HW231713   3.670   2.801   0.436
10272SOL     OW31714   0.777   0.092   5.059
10272SOL    HW131715   0.722   0.151   5.001
10272SOL    HW231716   0.766   7.022   5.030
10273SOL     OW31717   4.227   5.132   3.574
10273SOL    HW131718   4.245   5.109   3.478
10273SOL    HW231719   4.164   5.209   3.578
10274SOL     OW31720   0.420   4.505   4.428
10274SOL    HW131721   0.361   4.498   4.508
10274SOL    HW231722   0.438   4.602   4.409
10275SOL     OW31723   0.857   6.566   1.797
10275SOL    HW131724   0.782   6.516   1.753
10275SOL    HW231725   0.913   6.610   1.727
10276SOL     OW31726   6.076   5.889   5.789
10276SOL    HW131727   6.092   5.855   5.697
10276SOL    HW231728   6.154   5.944   5.819
10277SOL     OW31729   2.249   5.571   3.923
10277SOL    HW131730   2.341   5.533   3.935
10277SOL    HW231731   2.194   5.506   3.870
10278SOL     OW31732   6.549   1.290   4.712
10278SOL    HW131733   6.492   1.302   4.793
10278SOL    HW231734   6.579   1.380   4.679
10279SOL     OW31735   1.992   5.919   4.747
10279SOL    HW131736   1.934   5.841   4.772
10279SOL    HW231737   2.081   5.886   4.716
10280SOL     OW31738   1.203   4.044   1.041
10280SOL    HW131739   1.247   4.054   1.130
10280SOL    HW231740   1.136   4.116   1.029
10281SOL     OW31741   5.995   0.960   3.158
10281SOL    HW131742   5.927   0.932   3.090
10281SOL    HW231743   6.086   0.957   3.117
10282SOL     OW31744   6.355   4.226   4.265
10282SOL    HW131745   6.319   4.169   4.191
10282SOL    HW231746   6.293   4.303   4.281
10283SOL     OW31747   0.518   3.325   0.725
10283SOL    HW131748   0.419   3.312   0.729
10283SOL    HW231749   0.557   3.267   0.653
10284SOL     OW31750   5.245   3.635   5.027
10284SOL    HW131751   5.337   3.672   5.012
10284SOL    HW231752   5.216   3.656   5.120
10285SOL     OW31753   4.930   1.224   1.067
10285SOL    HW131754   4.900   1.319   1.068
10285SOL    HW231755   4.895   1.177   1.148
10286SOL     OW31756   3.109   1.941   3.803
10286SOL    HW131757   3.079   1.901   3.889
10286SOL    HW231758   3.140   1.869   3.741
10287SOL     OW31759   2.752   6.042   1.336
10287SOL    HW131760   2.766   6.116   1.270
10287SOL    HW231761   2.654   6.031   1.352
10288SOL     OW31762   5.335   5.976   2.126
10288SOL    HW131763   5.238   5.953   2.122
10288SOL    HW231764   5.348   6.053   2.188
10289SOL     OW31765   3.400   0.635   2.146
10289SOL    HW131766   3.356   0.724   2.132
10289SOL    HW231767   3.331   0.567   2.170
10290SOL     OW31768   3.067   4.004   1.945
10290SOL    HW131769   3.148   4.021   1.889
10290SOL    HW231770   3.005   3.943   1.896
10291SOL     OW31771   3.898   1.076   3.729
10291SOL    HW131772   3.860   1.007   3.668
10291SOL    HW231773   3.836   1.154   3.734
10292SOL     OW31774   1.981   0.635   4.366
10292SOL    HW131775   2.019   0.723   4.335
10292SOL    HW231776   1.917   0.651   4.441
10293SOL     OW31777   1.632   5.386   3.569
10293SOL    HW131778   1.557   5.323   3.590
10293SOL    HW231779   1.595   5.467   3.524
10294SOL     OW31780   5.105   3.884   2.532
10294SOL    HW131781   5.027   3.905   2.473
10294SOL    HW231782   5.106   3.947   2.609
10295SOL     OW31783   5.784   5.870   5.794
10295SOL    HW131784   5.884   5.875   5.790
10295SOL    HW231785   5.749   5.848   5.703
10296SOL     OW31786   4.917   3.378   0.256
10296SOL    HW131787   4.920   3.314   0.333
10296SOL    HW231788   4.842   3.352   0.194
10297SOL     OW31789   1.736   6.470   6.351
10297SOL    HW131790   1.663   6.538   6.343
10297SOL    HW231791   1.819   6.504   6.307
10298SOL     OW31792   3.612   4.993   1.828
10298SOL    HW131793   3.642   4.912   1.879
10298SOL    HW231794   3.692   5.044   1.797
10299SOL     OW31795   4.987   4.726   2.811
10299SOL    HW131796   4.929   4.802   2.840
10299SOL    HW231797   4.932   4.658   2.763
10300SOL     OW31798   1.690   5.055   3.092
10300SOL    HW131799   1.672   4.982   3.159
10300SOL    HW231800   1.721   5.014   3.006
10301SOL     OW31801   5.810   2.213   3.527
10301SOL    HW131802   5.748   2.171   3.461
10301SOL    HW231803   5.815   2.156   3.609
10302SOL     OW31804   0.478   5.633   3.784
10302SOL    HW131805   0.449   5.726   3.763
10302SOL    HW231806   0.533   5.634   3.868
10303SOL     OW31807   2.004   5.324   1.977
10303SOL    HW131808   2.096   5.339   2.015
10303SOL    HW231809   1.952   5.409   1.981
10304SOL     OW31810   5.122   0.964   2.795
10304SOL    HW131811   5.140   0.868   2.817
10304SOL    HW231812   5.178   0.991   2.716
10305SOL     OW31813   0.367   4.733   6.928
10305SOL    HW131814   0.417   4.819   6.930
10305SOL    HW231815   0.431   4.658   6.913
10306SOL     OW31816   4.430   6.581   6.849
10306SOL    HW131817   4.356   6.534   6.898
10306SOL    HW231818   4.414   6.574   6.751
10307SOL     OW31819   2.052   2.453   4.635
10307SOL    HW131820   2.096   2.528   4.585
10307SOL    HW231821   2.117   2.377   4.645
10308SOL     OW31822   2.589   5.327   4.383
10308SOL    HW131823   2.505   5.360   4.426
10308SOL    HW231824   2.663   5.392   4.400
10309SOL     OW31825   5.962   1.316   3.835
10309SOL    HW131826   5.906   1.348   3.759
10309SOL    HW231827   6.005   1.229   3.811
10310SOL     OW31828   4.247   2.710   1.641
10310SOL    HW131829   4.258   2.665   1.730
10310SOL    HW231830   4.300   2.795   1.640
10311SOL     OW31831   0.452   5.894   1.039
10311SOL    HW131832   0.435   5.939   0.952
10311SOL    HW231833   0.545   5.916   1.070
10312SOL     OW31834   2.320   6.503   0.994
10312SOL    HW131835   2.339   6.587   0.944
10312SOL    HW231836   2.235   6.463   0.960
10313SOL     OW31837   4.162   6.958   1.431
10313SOL    HW131838   4.072   6.980   1.468
10313SOL    HW231839   4.155   6.941   1.333
10314SOL     OW31840   0.099   0.472   2.408
10314SOL    HW131841   0.101   0.372   2.408
10314SOL    HW231842   0.179   0.507   2.458
10315SOL     OW31843   6.143   5.414   4.316
10315SOL    HW131844   6.074   5.361   4.364
10315SOL    HW231845   6.208   5.352   4.272
10316SOL     OW31846   6.644   2.439   4.556
10316SOL    HW131847   6.558   2.396   4.583
10316SOL    HW231848   6.668   2.509   4.623
10317SOL     OW31849   3.681   6.055   6.066
10317SOL    HW131850   3.685   6.142   6.017
10317SOL    HW231851   3.640   5.985   6.007
10318SOL     OW31852   5.000   6.360   6.914
10318SOL    HW131853   4.928   6.295   6.888
10318SOL    HW231854   5.052   6.387   6.834
10319SOL     OW31855   2.232   2.801   5.795
10319SOL    HW131856   2.301   2.804   5.722
10319SOL    HW231857   2.277   2.805   5.884
10320SOL     OW31858   0.661   0.582   1.414
10320SOL    HW131859   0.653   0.541   1.504
10320SOL    HW231860   0.752   0.621   1.403
10321SOL     OW31861   4.394   0.593   3.341
10321SOL    HW131862   4.349   0.681   3.345
10321SOL    HW231863   4.328   0.522   3.314
10322SOL     OW31864   6.078   5.880   6.220
10322SOL    HW131865   6.006   5.879   6.289
10322SOL    HW231866   6.099   5.975   6.195
10323SOL     OW31867   6.834   4.067   5.855
10323SOL    HW131868   6.756   4.054   5.915
10323SOL    HW231869   6.805   4.115   5.772
10324SOL     OW31870   3.023   3.197   3.198
10324SOL    HW131871   2.940   3.190   3.253
10324SOL    HW231872   3.099   3.155   3.248
10325SOL     OW31873   6.407   4.047   3.355
10325SOL    HW131874   6.387   4.097   3.271
10325SOL    HW231875   6.420   4.111   3.430
10326SOL     OW31876   3.948   3.080   0.025
10326SOL    HW131877   4.037   3.079   0.069
10326SOL    HW231878   3.937   2.999   6.994
10327SOL     OW31879   2.540   1.523   1.856
10327SOL    HW131880   2.589   1.606   1.883
10327SOL    HW231881   2.442   1.537   1.871
10328SOL     OW31882   6.226   3.576   1.442
10328SOL    HW131883   6.181   3.617   1.362
10328SOL    HW231884   6.162   3.513   1.487
10329SOL     OW31885   3.565   0.115   4.641
10329SOL    HW131886   3.500   0.151   4.573
10329SOL    HW231887   3.601   0.191   4.695
10330SOL     OW31888   3.675   5.152   2.626
10330SOL    HW131889   3.642   5.230   2.680
10330SOL    HW231890   3.597   5.098   2.594
10331SOL     OW31891   6.884   0.502   3.487
10331SOL    HW131892   6.921   0.481   3.397
10331SOL    HW231893   6.939   0.573   3.531
10332SOL     OW31894   5.941   1.560   0.117
10332SOL    HW131895   5.985   1.572   0.206
10332SOL    HW231896   5.972   1.632   0.055
10333SOL     OW31897   6.573   4.461   4.359
10333SOL    HW131898   6.492   4.443   4.303
10333SOL    HW231899   6.640   4.388   4.344
10334SOL     OW31900   1.897   5.594   4.150
10334SOL    HW131901   1.880   5.521   4.083
10334SOL    HW231902   1.824   5.593   4.218
10335SOL     OW31903   2.422   4.968   6.905
10335SOL    HW131904   2.450   4.912   6.983
10335SOL    HW231905   2.325   4.990   6.914
10336SOL     OW31906   6.117   6.374   3.458
10336SOL    HW131907   6.147   6.320   3.537
10336SOL    HW231908   6.112   6.471   3.484
10337SOL     OW31909   6.549   6.770   5.911
10337SOL    HW131910   6.625   6.833   5.926
10337SOL    HW231911   6.473   6.820   5.869
10338SOL     OW31912   2.743   6.309   1.904
10338SOL    HW131913   2.732   6.229   1.963
10338SOL    HW231914   2.754   6.279   1.809
10339SOL     OW31915   3.394   5.541   0.469
10339SOL    HW131916   3.459   5.470   0.443
10339SOL    HW231917   3.386   5.607   0.395
10340SOL     OW31918   1.740   5.409   0.453
10340SOL    HW131919   1.664   5.383   0.512
10340SOL    HW231920   1.801   5.331   0.440
10341SOL     OW31921   2.264   3.227   1.798
10341SOL    HW131922   2.266   3.315   1.845
10341SOL    HW231923   2.225   3.158   1.859
10342SOL     OW31924   2.097   5.923   5.587
10342SOL    HW131925   2.112   6.010   5.635
10342SOL    HW231926   2.014   5.879   5.622
10343SOL     OW31927   2.092   4.104   0.114
10343SOL    HW131928   2.116   4.201   0.115
10343SOL    HW231929   2.026   4.086   0.187
10344SOL     OW31930   4.052   3.628   1.861
10344SOL    HW131931   4.114   3.692   1.906
10344SOL    HW231932   3.964   3.673   1.844
10345SOL     OW31933   1.370   0.675   6.061
10345SOL    HW131934   1.344   0.585   6.096
10345SOL    HW231935   1.443   0.665   5.994
10346SOL     OW31936   6.169   1.114   1.046
10346SOL    HW131937   6.070   1.110   1.033
10346SOL    HW231938   6.204   1.200   1.009
10347SOL     OW31939   5.582   2.496   2.286
10347SOL    HW131940   5.510   2.438   2.326
10347SOL    HW231941   5.647   2.438   2.238
10348SOL     OW31942   6.601   1.428   6.742
10348SOL    HW131943   6.505   1.445   6.720
10348SOL    HW231944   6.620   1.330   6.733
10349SOL     OW31945   6.818   1.641   6.822
10349SOL    HW131946   6.903   1.590   6.832
10349SOL    HW231947   6.741   1.577   6.813
10350SOL     OW31948   2.739   6.607   4.693
10350SOL    HW131949   2.809   6.541   4.718
10350SOL    HW231950   2.776   6.700   4.703
10351SOL     OW31951   5.654   5.087   6.124
10351SOL    HW131952   5.731   5.149   6.137
10351SOL    HW231953   5.576   5.139   6.089
10352SOL     OW31954   5.491   1.650   6.442
10352SOL    HW131955   5.590   1.637   6.435
10352SOL    HW231956   5.459   1.616   6.531
10353SOL     OW31957   6.844   2.768   4.320
10353SOL    HW131958   6.852   2.771   4.220
10353SOL    HW231959   6.811   2.856   4.353
10354SOL     OW31960   0.480   2.234   1.860
10354SOL    HW131961   0.557   2.172   1.877
10354SOL    HW231962   0.447   2.221   1.767
10355SOL     OW31963   1.142   0.486   0.871
10355SOL    HW131964   1.063   0.446   0.918
10355SOL    HW231965   1.210   0.414   0.854
10356SOL     OW31966   6.974   3.879   5.732
10356SOL    HW131967   6.920   3.954   5.771
10356SOL    HW231968   6.924   3.793   5.743
10357SOL     OW31969   4.373   2.747   6.289
10357SOL    HW131970   4.361   2.727   6.192
10357SOL    HW231971   4.425   2.674   6.332
10358SOL     OW31972   0.700   2.862   3.883
10358SOL    HW131973   0.683   2.768   3.911
10358SOL    HW231974   0.654   2.925   3.946
10359SOL     OW31975   5.017   1.960   1.818
10359SOL    HW131976   5.003   1.970   1.917
10359SOL    HW231977   4.931   1.977   1.770
10360SOL     OW31978   5.408   5.655   2.174
10360SOL    HW131979   5.403   5.697   2.265
10360SOL    HW231980   5.439   5.723   2.108
10361SOL     OW31981   2.275   0.997   2.765
10361SOL    HW131982   2.369   1.025   2.780
10361SOL    HW231983   2.213   1.073   2.783
10362SOL     OW31984   0.665   4.773   2.948
10362SOL    HW131985   0.746   4.750   3.001
10362SOL    HW231986   0.625   4.858   2.984
10363SOL     OW31987   5.658   2.375   1.429
10363SOL    HW131988   5.563   2.378   1.459
10363SOL    HW231989   5.691   2.281   1.435
10364SOL     OW31990   4.553   4.207   1.394
10364SOL    HW131991   4.625   4.138   1.404
10364SOL    HW231992   4.495   4.183   1.316
10365SOL     OW31993   5.936   4.090   6.601
10365SOL    HW131994   5.931   3.998   6.561
10365SOL    HW231995   5.851   4.139   6.581
10366SOL     OW31996   3.090   6.713   3.621
10366SOL    HW131997   3.022   6.774   3.662
10366SOL    HW231998   3.133   6.658   3.692
10367SOL     OW31999   6.958   1.738   1.593
10367SOL    HW132000   6.943   1.680   1.673
10367SOL    HW232001   6.887   1.720   1.525
10368SOL     OW32002   1.613   1.514   2.187
10368SOL    HW132003   1.642   1.431   2.236
10368SOL    HW232004   1.568   1.488   2.102
10369SOL     OW32005   2.910   6.645   5.870
10369SOL    HW132006   3.005   6.630   5.840
10369SOL    HW232007   2.863   6.702   5.803
10370SOL     OW32008   6.654   1.291   5.342
10370SOL    HW132009   6.648   1.214   5.280
10370SOL    HW232010   6.657   1.376   5.289
10371SOL     OW32011   2.073   6.405   4.653
10371SOL    HW132012   2.051   6.313   4.682
10371SOL    HW232013   1.995   6.445   4.605
10372SOL     OW32014   1.914   1.094   0.481
10372SOL    HW132015   1.936   1.104   0.383
10372SOL    HW232016   1.872   1.005   0.496
10373SOL     OW32017   0.992   6.893   5.213
10373SOL    HW132018   0.987   6.882   5.114
10373SOL    HW232019   1.048   6.973   5.235
10374SOL     OW32020   3.607   0.434   3.511
10374SOL    HW132021   3.572   0.353   3.558
10374SOL    HW232022   3.694   0.461   3.551
10375SOL     OW32023   2.567   2.458   6.195
10375SOL    HW132024   2.595   2.554   6.190
10375SOL    HW232025   2.546   2.436   6.290
10376SOL     OW32026   1.235   6.150   4.483
10376SOL    HW132027   1.285   6.139   4.569
10376SOL    HW232028   1.137   6.157   4.502
10377SOL     OW32029   0.409   0.902   1.749
10377SOL    HW132030   0.463   0.879   1.830
10377SOL    HW232031   0.434   0.841   1.674
10378SOL     OW32032   5.938   6.035   5.409
10378SOL    HW132033   5.981   6.125   5.400
10378SOL    HW232034   6.007   5.968   5.437
10379SOL     OW32035   3.381   5.830   4.550
10379SOL    HW132036   3.374   5.842   4.649
10379SOL    HW232037   3.412   5.737   4.530
10380SOL     OW32038   1.076   2.881   4.823
10380SOL    HW132039   1.059   2.900   4.920
10380SOL    HW232040   1.051   2.786   4.803
10381SOL     OW32041   4.560   3.908   0.931
10381SOL    HW132042   4.660   3.910   0.922
10381SOL    HW232043   4.518   3.949   0.850
10382SOL     OW32044   2.776   5.204   1.584
10382SOL    HW132045   2.732   5.119   1.555
10382SOL    HW232046   2.868   5.210   1.544
10383SOL     OW32047   1.360   4.363   0.825
10383SOL    HW132048   1.358   4.276   0.776
10383SOL    HW232049   1.383   4.346   0.921
10384SOL     OW32050   6.751   6.836   0.782
10384SOL    HW132051   6.683   6.832   0.709
10384SOL    HW232052   6.828   6.893   0.753
10385SOL     OW32053   3.799   5.826   6.515
10385SOL    HW132054   3.796   5.880   6.431
10385SOL    HW232055   3.709   5.787   6.533
10386SOL     OW32056   0.478   1.295   5.840
10386SOL    HW132057   0.538   1.311   5.918
10386SOL    HW232058   0.427   1.210   5.854
10387SOL     OW32059   4.603   2.637   3.301
10387SOL    HW132060   4.518   2.584   3.293
10387SOL    HW232061   4.637   2.630   3.395
10388SOL     OW32062   2.079   5.874   1.976
10388SOL    HW132063   2.158   5.925   2.009
10388SOL    HW232064   2.101   5.829   1.889
10389SOL     OW32065   6.648   4.653   1.140
10389SOL    HW132066   6.590   4.586   1.094
10389SOL    HW232067   6.711   4.693   1.074
10390SOL     OW32068   2.354   3.675   0.437
10390SOL    HW132069   2.346   3.758   0.381
10390SOL    HW232070   2.273   3.667   0.496
10391SOL     OW32071   6.962   6.176   4.048
10391SOL    HW132072   6.881   6.231   4.027
10391SOL    HW232073   7.006   6.146   3.963
10392SOL     OW32074   6.226   4.669   5.687
10392SOL    HW132075   6.263   4.616   5.763
10392SOL    HW232076   6.137   4.632   5.660
10393SOL     OW32077   2.327   2.716   2.965
10393SOL    HW132078   2.290   2.782   3.031
10393SOL    HW232079   2.271   2.717   2.882
10394SOL     OW32080   2.190   5.468   5.574
10394SOL    HW132081   2.281   5.437   5.601
10394SOL    HW232082   2.137   5.391   5.539
10395SOL     OW32083   0.911   0.783   1.681
10395SOL    HW132084   0.921   0.819   1.589
10395SOL    HW232085   0.998   0.790   1.730
10396SOL     OW32086   3.503   1.229   4.202
10396SOL    HW132087   3.482   1.193   4.293
10396SOL    HW232088   3.544   1.156   4.146
10397SOL     OW32089   3.411   1.036   4.664
10397SOL    HW132090   3.389   1.001   4.755
10397SOL    HW232091   3.508   1.060   4.659
10398SOL     OW32092   5.907   2.129   0.875
10398SOL    HW132093   5.825   2.072   0.867
10398SOL    HW232094   5.883   2.225   0.863
10399SOL     OW32095   4.813   1.816   3.454
10399SOL    HW132096   4.788   1.913   3.460
10399SOL    HW232097   4.875   1.802   3.376
10400SOL     OW32098   4.598   5.688   6.704
10400SOL    HW132099   4.561   5.709   6.613
10400SOL    HW232100   4.539   5.621   6.749
10401SOL     OW32101   0.270   6.320   2.278
10401SOL    HW132102   0.281   6.276   2.188
10401SOL    HW232103   0.273   6.419   2.268
10402SOL     OW32104   0.536   1.617   6.133
10402SOL    HW132105   0.463   1.631   6.067
10402SOL    HW232106   0.590   1.536   6.108
10403SOL     OW32107   4.367   2.457   2.990
10403SOL    HW132108   4.424   2.474   2.909
10403SOL    HW232109   4.424   2.458   3.072
10404SOL     OW32110   6.224   5.865   4.238
10404SOL    HW132111   6.137   5.891   4.195
10404SOL    HW232112   6.275   5.804   4.177
10405SOL     OW32113   1.104   6.147   4.881
10405SOL    HW132114   1.188   6.110   4.842
10405SOL    HW232115   1.126   6.210   4.955
10406SOL     OW32116   1.665   3.241   4.545
10406SOL    HW132117   1.631   3.326   4.506
10406SOL    HW232118   1.763   3.231   4.527
10407SOL     OW32119   2.775   6.961   6.145
10407SOL    HW132120   2.758   7.000   6.236
10407SOL    HW232121   2.751   6.864   6.146
10408SOL     OW32122   4.539   0.093   1.300
10408SOL    HW132123   4.499   0.132   1.217
10408SOL    HW232124   4.639   0.101   1.295
10409SOL     OW32125   6.675   4.750   1.376
10409SOL    HW132126   6.684   4.716   1.282
10409SOL    HW232127   6.756   4.725   1.428
10410SOL     OW32128   4.818   1.773   1.888
10410SOL    HW132129   4.898   1.822   1.854
10410SOL    HW232130   4.743   1.783   1.822
10411SOL     OW32131   2.577   6.395   3.769
10411SOL    HW132132   2.629   6.313   3.795
10411SOL    HW232133   2.639   6.465   3.734
10412SOL     OW32134   0.460   1.452   0.706
10412SOL    HW132135   0.427   1.442   0.613
10412SOL    HW232136   0.494   1.546   0.720
10413SOL     OW32137   6.406   2.958   1.525
10413SOL    HW132138   6.481   2.902   1.490
10413SOL    HW232139   6.407   3.047   1.480
10414SOL     OW32140   3.769   4.720   5.696
10414SOL    HW132141   3.760   4.696   5.792
10414SOL    HW232142   3.677   4.735   5.657
10415SOL     OW32143   1.705   4.129   3.924
10415SOL    HW132144   1.802   4.146   3.909
10415SOL    HW232145   1.673   4.184   4.001
10416SOL     OW32146   6.085   0.039   5.230
10416SOL    HW132147   6.001   0.018   5.281
10416SOL    HW232148   6.163   7.020   5.275
10417SOL     OW32149   3.614   4.963   3.801
10417SOL    HW132150   3.681   5.014   3.855
10417SOL    HW232151   3.656   4.934   3.715
10418SOL     OW32152   6.718   4.539   5.797
10418SOL    HW132153   6.772   4.489   5.865
10418SOL    HW232154   6.767   4.622   5.770
10419SOL     OW32155   3.244   6.831   6.537
10419SOL    HW132156   3.197   6.758   6.488
10419SOL    HW232157   3.342   6.826   6.518
10420SOL     OW32158   0.466   3.424   4.016
10420SOL    HW132159   0.395   3.478   4.063
10420SOL    HW232160   0.556   3.460   4.040
10421SOL     OW32161   1.201   3.070   4.028
10421SOL    HW132162   1.122   3.094   3.972
10421SOL    HW232163   1.174   3.001   4.096
10422SOL     OW32164   6.162   3.122   4.625
10422SOL    HW132165   6.154   3.218   4.652
10422SOL    HW232166   6.122   3.064   4.696
10423SOL     OW32167   5.807   4.889   6.038
10423SOL    HW132168   5.749   4.965   6.067
10423SOL    HW232169   5.880   4.875   6.105
10424SOL     OW32170   4.120   3.083   0.931
10424SOL    HW132171   4.101   2.985   0.939
10424SOL    HW232172   4.211   3.102   0.968
10425SOL     OW32173   1.450   6.513   2.536
10425SOL    HW132174   1.448   6.431   2.594
10425SOL    HW232175   1.511   6.497   2.458
10426SOL     OW32176   5.341   4.403   0.445
10426SOL    HW132177   5.273   4.423   0.374
10426SOL    HW232178   5.409   4.476   0.447
10427SOL     OW32179   4.042   0.993   0.014
10427SOL    HW132180   4.080   1.083   7.018
10427SOL    HW232181   4.084   0.957   0.097
10428SOL     OW32182   3.459   0.923   3.825
10428SOL    HW132183   3.397   0.894   3.752
10428SOL    HW232184   3.534   0.976   3.786
10429SOL     OW32185   6.791   4.027   2.085
10429SOL    HW132186   6.758   3.950   2.030
10429SOL    HW232187   6.732   4.106   2.070
10430SOL     OW32188   5.336   7.000   4.801
10430SOL    HW132189   5.292   6.973   4.887
10430SOL    HW232190   5.335   6.923   4.737
10431SOL     OW32191   2.697   5.991   4.528
10431SOL    HW132192   2.630   5.971   4.599
10431SOL    HW232193   2.654   5.982   4.438
10432SOL     OW32194   6.106   0.263   4.460
10432SOL    HW132195   6.177   0.323   4.424
10432SOL    HW232196   6.096   0.278   4.558
10433SOL     OW32197   1.129   5.787   2.316
10433SOL    HW132198   1.152   5.719   2.246
10433SOL    HW232199   1.069   5.744   2.384
10434SOL     OW32200   3.827   5.865   2.898
10434SOL    HW132201   3.767   5.821   2.831
10434SOL    HW232202   3.888   5.929   2.852
10435SOL     OW32203   0.939   1.431   5.476
10435SOL    HW132204   1.032   1.410   5.444
10435SOL    HW232205   0.873   1.383   5.419
10436SOL     OW32206   6.128   4.612   5.388
10436SOL    HW132207   6.198   4.592   5.320
10436SOL    HW232208   6.130   4.709   5.412
10437SOL     OW32209   4.499   4.079   6.078
10437SOL    HW132210   4.546   4.072   5.990
10437SOL    HW232211   4.521   4.166   6.121
10438SOL     OW32212   6.987   6.496   6.942
10438SOL    HW132213   0.060   6.516   6.942
10438SOL    HW232214   6.953   6.499   6.848
10439SOL     OW32215   4.171   1.963   4.671
10439SOL    HW132216   4.188   2.058   4.697
10439SOL    HW232217   4.072   1.946   4.673
10440SOL     OW32218   0.413   6.578   0.684
10440SOL    HW132219   0.494   6.632   0.660
10440SOL    HW232220   0.336   6.639   0.700
10441SOL     OW32221   4.216   1.576   1.284
10441SOL    HW132222   4.141   1.639   1.301
10441SOL    HW232223   4.188   1.509   1.215
10442SOL     OW32224   4.036   6.644   6.573
10442SOL    HW132225   4.022   6.743   6.567
10442SOL    HW232226   4.085   6.612   6.492
10443SOL     OW32227   4.929   3.387   3.981
10443SOL    HW132228   5.013   3.335   3.968
10443SOL    HW232229   4.894   3.372   4.074
10444SOL     OW32230   4.377   5.917   3.518
10444SOL    HW132231   4.452   5.933   3.582
10444SOL    HW232232   4.293   5.899   3.570
10445SOL     OW32233   0.879   4.293   4.196
10445SOL    HW132234   0.925   4.372   4.157
10445SOL    HW232235   0.793   4.322   4.238
10446SOL     OW32236   2.142   3.107   5.764
10446SOL    HW132237   2.200   3.026   5.753
10446SOL    HW232238   2.060   3.098   5.708
10447SOL     OW32239   0.389   1.000   2.170
10447SOL    HW132240   0.327   1.058   2.118
10447SOL    HW232241   0.423   1.050   2.249
10448SOL     OW32242   4.732   0.678   2.456
10448SOL    HW132243   4.737   0.757   2.517
10448SOL    HW232244   4.750   0.707   2.362
10449SOL     OW32245   1.636   5.279   5.151
10449SOL    HW132246   1.553   5.334   5.160
10449SOL    HW232247   1.716   5.339   5.155
10450SOL     OW32248   0.729   1.367   0.721
10450SOL    HW132249   0.752   1.464   0.714
10450SOL    HW232250   0.631   1.355   0.708
10451SOL     OW32251   2.430   5.408   2.491
10451SOL    HW132252   2.492   5.487   2.491
10451SOL    HW232253   2.353   5.426   2.552
10452SOL     OW32254   6.753   3.370   1.946
10452SOL    HW132255   6.738   3.273   1.966
10452SOL    HW232256   6.701   3.395   1.864
10453SOL     OW32257   4.591   6.738   1.264
10453SOL    HW132258   4.533   6.811   1.231
10453SOL    HW232259   4.575   6.723   1.362
10454SOL     OW32260   5.264   3.461   0.374
10454SOL    HW132261   5.268   3.407   0.290
10454SOL    HW232262   5.232   3.554   0.353
10455SOL     OW32263   6.139   6.213   3.673
10455SOL    HW132264   6.235   6.188   3.680
10455SOL    HW232265   6.083   6.149   3.727
10456SOL     OW32266   1.770   5.654   0.332
10456SOL    HW132267   1.691   5.710   0.359
10456SOL    HW232268   1.764   5.565   0.377
10457SOL     OW32269   3.682   3.279   1.370
10457SOL    HW132270   3.760   3.291   1.308
10457SOL    HW232271   3.714   3.282   1.465
10458SOL     OW32272   6.232   0.629   6.739
10458SOL    HW132273   6.153   0.688   6.723
10458SOL    HW232274   6.313   0.685   6.753
10459SOL     OW32275   4.536   5.937   1.875
10459SOL    HW132276   4.530   5.893   1.965
10459SOL    HW232277   4.631   5.933   1.843
10460SOL     OW32278   0.690   4.209   2.132
10460SOL    HW132279   0.756   4.169   2.068
10460SOL    HW232280   0.714   4.182   2.225
10461SOL     OW32281   6.661   5.020   5.823
10461SOL    HW132282   6.651   5.116   5.796
10461SOL    HW232283   6.623   4.962   5.751
10462SOL     OW32284   5.577   1.292   3.704
10462SOL    HW132285   5.578   1.254   3.796
10462SOL    HW232286   5.506   1.248   3.650
10463SOL     OW32287   4.597   2.945   6.308
10463SOL    HW132288   4.627   2.923   6.401
10463SOL    HW232289   4.508   2.904   6.291
10464SOL     OW32290   6.524   6.697   1.417
10464SOL    HW132291   6.487   6.789   1.427
10464SOL    HW232292   6.581   6.674   1.496
10465SOL     OW32293   6.070   5.636   0.726
10465SOL    HW132294   6.092   5.594   0.637
10465SOL    HW232295   6.002   5.708   0.712
10466SOL     OW32296   4.565   5.225   5.853
10466SOL    HW132297   4.567   5.126   5.860
10466SOL    HW232298   4.528   5.252   5.764
10467SOL     OW32299   2.990   0.862   0.002
10467SOL    HW132300   2.996   0.795   6.953
10467SOL    HW232301   2.983   0.954   6.989
10468SOL     OW32302   3.903   5.214   3.327
10468SOL    HW132303   3.919   5.135   3.267
10468SOL    HW232304   3.828   5.269   3.290
10469SOL     OW32305   4.139   4.319   5.685
10469SOL    HW132306   4.140   4.404   5.738
10469SOL    HW232307   4.162   4.340   5.589
10470SOL     OW32308   2.321   2.803   3.531
10470SOL    HW132309   2.397   2.778   3.590
10470SOL    HW232310   2.237   2.811   3.585
10471SOL     OW32311   2.628   1.421   0.786
10471SOL    HW132312   2.651   1.493   0.720
10471SOL    HW232313   2.639   1.455   0.879
10472SOL     OW32314   4.149   5.450   0.417
10472SOL    HW132315   4.198   5.384   0.475
10472SOL    HW232316   4.060   5.413   0.393
10473SOL     OW32317   6.619   0.230   6.753
10473SOL    HW132318   6.572   0.144   6.773
10473SOL    HW232319   6.552   0.299   6.727
10474SOL     OW32320   3.425   2.121   4.621
10474SOL    HW132321   3.355   2.150   4.686
10474SOL    HW232322   3.390   2.131   4.528
10475SOL     OW32323   4.852   6.611   1.290
10475SOL    HW132324   4.840   6.609   1.389
10475SOL    HW232325   4.771   6.653   1.248
10476SOL     OW32326   6.804   5.791   0.052
10476SOL    HW132327   6.884   5.745   0.093
10476SOL    HW232328   6.808   5.889   0.074
10477SOL     OW32329   0.649   1.603   4.835
10477SOL    HW132330   0.626   1.534   4.903
10477SOL    HW232331   0.639   1.564   4.743
10478SOL     OW32332   6.903   0.625   1.131
10478SOL    HW132333   6.982   0.569   1.106
10478SOL    HW232334   6.934   0.714   1.165
10479SOL     OW32335   0.092   2.183   2.418
10479SOL    HW132336   0.099   2.264   2.360
10479SOL    HW232337   7.021   2.158   2.430
10480SOL     OW32338   6.420   0.185   2.037
10480SOL    HW132339   6.492   0.138   2.088
10480SOL    HW232340   6.385   0.261   2.092
10481SOL     OW32341   2.745   6.961   4.497
10481SOL    HW132342   2.801   6.921   4.569
10481SOL    HW232343   2.803   6.986   4.419
10482SOL     OW32344   5.972   5.014   4.696
10482SOL    HW132345   5.924   5.015   4.609
10482SOL    HW232346   6.017   5.103   4.711
10483SOL     OW32347   6.590   4.853   0.045
10483SOL    HW132348   6.628   4.791   0.114
10483SOL    HW232349   6.539   4.800   7.003
10484SOL     OW32350   5.770   1.122   2.235
10484SOL    HW132351   5.823   1.046   2.195
10484SOL    HW232352   5.752   1.190   2.164
10485SOL     OW32353   3.189   3.740   1.052
10485SOL    HW132354   3.161   3.834   1.069
10485SOL    HW232355   3.271   3.739   0.995
10486SOL     OW32356   6.822   0.845   0.127
10486SOL    HW132357   6.828   0.832   0.028
10486SOL    HW232358   6.781   0.934   0.147
10487SOL     OW32359   4.788   1.743   2.201
10487SOL    HW132360   4.786   1.750   2.102
10487SOL    HW232361   4.780   1.647   2.228
10488SOL     OW32362   3.085   1.913   5.547
10488SOL    HW132363   3.120   1.970   5.622
10488SOL    HW232364   2.988   1.895   5.562
10489SOL     OW32365   0.316   0.279   4.577
10489SOL    HW132366   0.230   0.297   4.624
10489SOL    HW232367   0.306   0.300   4.479
10490SOL     OW32368   5.772   1.765   0.762
10490SOL    HW132369   5.717   1.811   0.831
10490SOL    HW232370   5.767   1.815   0.676
10491SOL     OW32371   2.646   2.165   6.039
10491SOL    HW132372   2.674   2.140   6.131
10491SOL    HW232373   2.628   2.083   5.985
10492SOL     OW32374   5.545   5.668   0.743
10492SOL    HW132375   5.544   5.570   0.765
10492SOL    HW232376   5.491   5.684   0.661
10493SOL     OW32377   3.268   6.932   2.153
10493SOL    HW132378   3.219   6.855   2.111
10493SOL    HW232379   3.210   7.014   2.149
10494SOL     OW32380   5.678   4.472   5.776
10494SOL    HW132381   5.639   4.386   5.806
10494SOL    HW232382   5.670   4.480   5.676
10495SOL     OW32383   0.898   6.233   1.024
10495SOL    HW132384   0.810   6.258   0.984
10495SOL    HW232385   0.966   6.222   0.951
10496SOL     OW32386   6.055   3.575   6.194
10496SOL    HW132387   6.105   3.550   6.277
10496SOL    HW232388   6.050   3.495   6.133
10497SOL     OW32389   2.176   6.874   1.933
10497SOL    HW132390   2.085   6.912   1.913
10497SOL    HW232391   2.178   6.777   1.909
10498SOL     OW32392   4.818   5.382   0.447
10498SOL    HW132393   4.741   5.328   0.482
10498SOL    HW232394   4.788   5.477   0.434
10499SOL     OW32395   4.717   0.037   2.305
10499SOL    HW132396   4.638   0.043   2.365
10499SOL    HW232397   4.761   6.973   2.315
10500SOL     OW32398   6.070   1.443   5.908
10500SOL    HW132399   6.142   1.414   5.971
10500SOL    HW232400   5.981   1.430   5.951
10501SOL     OW32401   2.050   5.511   2.387
10501SOL    HW132402   2.113   5.535   2.313
10501SOL    HW232403   1.956   5.522   2.355
10502SOL     OW32404   2.646   2.018   1.854
10502SOL    HW132405   2.669   2.113   1.875
10502SOL    HW232406   2.548   2.010   1.837
10503SOL     OW32407   5.135   2.822   1.167
10503SOL    HW132408   5.218   2.779   1.203
10503SOL    HW232409   5.057   2.763   1.184
10504SOL     OW32410   1.331   2.495   5.705
10504SOL    HW132411   1.281   2.445   5.634
10504SOL    HW232412   1.274   2.569   5.740
10505SOL     OW32413   5.470   5.221   0.971
10505SOL    HW132414   5.441   5.168   0.891
10505SOL    HW232415   5.422   5.187   1.052
10506SOL     OW32416   0.240   3.533   0.025
10506SOL    HW132417   0.294   3.614   0.050
10506SOL    HW232418   0.214   3.484   0.108
10507SOL     OW32419   1.596   6.420   0.808
10507SOL    HW132420   1.633   6.332   0.837
10507SOL    HW232421   1.665   6.491   0.820
10508SOL     OW32422   6.561   5.745   4.800
10508SOL    HW132423   6.619   5.674   4.839
10508SOL    HW232424   6.561   5.825   4.861
10509SOL     OW32425   6.882   5.399   5.424
10509SOL    HW132426   6.809   5.361   5.367
10509SOL    HW232427   6.866   5.497   5.437
10510SOL     OW32428   4.812   6.432   6.622
10510SOL    HW132429   4.895   6.431   6.567
10510SOL    HW232430   4.775   6.339   6.628
10511SOL     OW32431   2.641   1.075   2.150
10511SOL    HW132432   2.723   1.094   2.204
10511SOL    HW232433   2.588   1.160   2.141
10512SOL     OW32434   4.510   0.670   5.515
10512SOL    HW132435   4.497   0.724   5.599
10512SOL    HW232436   4.545   0.579   5.539
10513SOL     OW32437   6.350   2.618   3.777
10513SOL    HW132438   6.254   2.601   3.797
10513SOL    HW232439   6.403   2.609   3.862
10514SOL     OW32440   0.621   3.276   1.353
10514SOL    HW132441   0.600   3.371   1.375
10514SOL    HW232442   0.541   3.232   1.313
10515SOL     OW32443   1.058   3.465   3.958
10515SOL    HW132444   1.036   3.484   4.054
10515SOL    HW232445   1.148   3.503   3.937
10516SOL     OW32446   3.604   1.959   0.644
10516SOL    HW132447   3.638   1.968   0.551
10516SOL    HW232448   3.679   1.974   0.709
10517SOL     OW32449   0.668   2.956   1.040
10517SOL    HW132450   0.589   3.012   1.017
10517SOL    HW232451   0.669   2.938   1.139
10518SOL     OW32452   6.824   5.732   0.779
10518SOL    HW132453   6.865   5.769   0.695
10518SOL    HW232454   6.850   5.789   0.857
10519SOL     OW32455   3.043   3.605   0.832
10519SOL    HW132456   3.068   3.640   0.922
10519SOL    HW232457   3.015   3.509   0.839
10520SOL     OW32458   0.723   2.317   6.138
10520SOL    HW132459   0.682   2.316   6.229
10520SOL    HW232460   0.730   2.223   6.104
10521SOL     OW32461   6.781   5.513   1.358
10521SOL    HW132462   6.836   5.550   1.282
10521SOL    HW232463   6.771   5.414   1.346
10522SOL     OW32464   0.490   0.982   4.313
10522SOL    HW132465   0.415   1.045   4.293
10522SOL    HW232466   0.495   0.913   4.240
10523SOL     OW32467   0.566   4.551   2.857
10523SOL    HW132468   0.612   4.633   2.889
10523SOL    HW232469   0.628   4.498   2.799
10524SOL     OW32470   0.871   6.383   3.861
10524SOL    HW132471   0.942   6.427   3.805
10524SOL    HW232472   0.804   6.452   3.890
10525SOL     OW32473   4.083   0.434   5.442
10525SOL    HW132474   4.172   0.439   5.397
10525SOL    HW232475   4.014   0.403   5.375
10526SOL     OW32476   1.063   6.282   2.875
10526SOL    HW132477   1.136   6.217   2.856
10526SOL    HW232478   1.087   6.371   2.837
10527SOL     OW32479   1.206   0.910   5.537
10527SOL    HW132480   1.225   0.995   5.585
10527SOL    HW232481   1.190   0.837   5.603
10528SOL     OW32482   1.528   3.514   5.987
10528SOL    HW132483   1.572   3.424   5.991
10528SOL    HW232484   1.480   3.523   5.900
10529SOL     OW32485   3.055   6.537   4.273
10529SOL    HW132486   3.078   6.626   4.233
10529SOL    HW232487   3.078   6.537   4.370
10530SOL     OW32488   1.166   0.269   6.421
10530SOL    HW132489   1.164   0.182   6.371
10530SOL    HW232490   1.080   0.318   6.406
10531SOL     OW32491   1.557   2.674   4.009
10531SOL    HW132492   1.466   2.633   4.022
10531SOL    HW232493   1.548   2.773   4.003
10532SOL     OW32494   0.978   7.011   6.225
10532SOL    HW132495   0.908   0.031   6.169
10532SOL    HW232496   1.069   0.017   6.197
10533SOL     OW32497   2.949   6.652   3.169
10533SOL    HW132498   3.014   6.616   3.237
10533SOL    HW232499   2.945   6.589   3.091
10534SOL     OW32500   6.351   5.592   2.189
10534SOL    HW132501   6.375   5.687   2.170
10534SOL    HW232502   6.330   5.582   2.286
10535SOL     OW32503   1.634   2.012   2.194
10535SOL    HW132504   1.606   1.921   2.224
10535SOL    HW232505   1.673   2.063   2.270
10536SOL     OW32506   4.240   0.657   4.270
10536SOL    HW132507   4.159   0.619   4.226
10536SOL    HW232508   4.211   0.720   4.343
10537SOL     OW32509   4.357   6.111   4.501
10537SOL    HW132510   4.278   6.141   4.448
10537SOL    HW232511   4.345   6.139   4.597
10538SOL     OW32512   6.487   3.440   0.970
10538SOL    HW132513   6.418   3.495   0.924
10538SOL    HW232514   6.491   3.350   0.928
10539SOL     OW32515   0.475   4.961   0.254
10539SOL    HW132516   0.432   4.871   0.246
10539SOL    HW232517   0.487   4.983   0.351
10540SOL     OW32518   1.679   3.196   5.882
10540SOL    HW132519   1.704   3.100   5.875
10540SOL    HW232520   1.634   3.213   5.970
10541SOL     OW32521   3.539   3.915   1.938
10541SOL    HW132522   3.598   3.970   1.998
10541SOL    HW232523   3.547   3.819   1.964
10542SOL     OW32524   0.420   1.030   5.714
10542SOL    HW132525   0.325   1.006   5.700
10542SOL    HW232526   0.469   1.024   5.627
10543SOL     OW32527   0.440   1.787   4.737
10543SOL    HW132528   0.484   1.846   4.669
10543SOL    HW232529   0.510   1.744   4.794
10544SOL     OW32530   2.773   0.004   1.879
10544SOL    HW132531   2.730   0.047   1.958
10544SOL    HW232532   2.716   0.018   1.798
10545SOL     OW32533   0.561   2.094   1.152
10545SOL    HW132534   0.601   2.014   1.108
10545SOL    HW232535   0.462   2.095   1.137
10546SOL     OW32536   1.405   6.853   0.728
10546SOL    HW132537   1.436   6.818   0.817
10546SOL    HW232538   1.479   6.905   0.685
10547SOL     OW32539   5.120   2.953   3.325
10547SOL    HW132540   5.068   2.867   3.327
10547SOL    HW232541   5.214   2.935   3.357
10548SOL     OW32542   5.942   4.519   4.513
10548SOL    HW132543   5.881   4.453   4.557
10548SOL    HW232544   5.952   4.599   4.572
10549SOL     OW32545   0.796   0.541   1.674
10549SOL    HW132546   0.854   0.620   1.654
10549SOL    HW232547   0.715   0.572   1.724
10550SOL     OW32548   5.048   6.853   3.694
10550SOL    HW132549   5.014   6.923   3.758
10550SOL    HW232550   5.033   6.762   3.732
10551SOL     OW32551   1.695   2.360   6.813
10551SOL    HW132552   1.768   2.349   6.746
10551SOL    HW232553   1.679   2.458   6.829
10552SOL     OW32554   2.480   1.280   5.792
10552SOL    HW132555   2.404   1.276   5.728
10552SOL    HW232556   2.469   1.361   5.850
10553SOL     OW32557   0.529   4.501   1.326
10553SOL    HW132558   0.444   4.497   1.379
10553SOL    HW232559   0.512   4.546   1.239
10554SOL     OW32560   5.060   4.559   0.929
10554SOL    HW132561   5.132   4.625   0.904
10554SOL    HW232562   5.052   4.490   0.857
10555SOL     OW32563   2.507   1.963   0.858
10555SOL    HW132564   2.418   1.990   0.821
10555SOL    HW232565   2.511   1.987   0.955
10556SOL     OW32566   1.604   1.697   4.371
10556SOL    HW132567   1.674   1.631   4.397
10556SOL    HW232568   1.642   1.790   4.377
10557SOL     OW32569   1.940   3.038   2.914
10557SOL    HW132570   1.862   3.093   2.944
10557SOL    HW232571   1.938   3.028   2.815
10558SOL     OW32572   4.068   6.761   4.827
10558SOL    HW132573   4.094   6.669   4.856
10558SOL    HW232574   4.150   6.817   4.818
10559SOL     OW32575   4.716   1.068   1.601
10559SOL    HW132576   4.770   1.013   1.664
10559SOL    HW232577   4.711   1.162   1.634
10560SOL     OW32578   5.019   6.602   2.089
10560SOL    HW132579   5.080   6.523   2.092
10560SOL    HW232580   4.946   6.584   2.023
10561SOL     OW32581   3.744   4.445   1.689
10561SOL    HW132582   3.718   4.358   1.732
10561SOL    HW232583   3.681   4.517   1.719
10562SOL     OW32584   4.047   5.116   0.261
10562SOL    HW132585   3.990   5.196   0.278
10562SOL    HW232586   4.099   5.094   0.343
10563SOL     OW32587   0.109   1.440   2.871
10563SOL    HW132588   0.183   1.460   2.936
10563SOL    HW232589   0.148   1.399   2.788
10564SOL     OW32590   5.625   5.694   2.908
10564SOL    HW132591   5.634   5.791   2.886
10564SOL    HW232592   5.629   5.681   3.007
10565SOL     OW32593   0.417   6.837   5.925
10565SOL    HW132594   0.454   6.858   5.834
10565SOL    HW232595   0.491   6.835   5.992
10566SOL     OW32596   3.586   1.826   6.896
10566SOL    HW132597   3.592   1.774   6.810
10566SOL    HW232598   3.678   1.856   6.922
10567SOL     OW32599   2.403   2.419   5.180
10567SOL    HW132600   2.348   2.422   5.096
10567SOL    HW232601   2.481   2.358   5.166
10568SOL     OW32602   6.606   3.007   1.224
10568SOL    HW132603   6.623   2.926   1.282
10568SOL    HW232604   6.511   3.007   1.194
10569SOL     OW32605   5.317   1.223   2.126
10569SOL    HW132606   5.290   1.212   2.221
10569SOL    HW232607   5.315   1.133   2.081
10570SOL     OW32608   1.308   4.284   3.288
10570SOL    HW132609   1.299   4.187   3.264
10570SOL    HW232610   1.340   4.292   3.382
10571SOL     OW32611   6.920   4.254   5.203
10571SOL    HW132612   6.971   4.193   5.264
10571SOL    HW232613   6.884   4.331   5.256
10572SOL     OW32614   6.553   4.304   2.645
10572SOL    HW132615   6.489   4.245   2.694
10572SOL    HW232616   6.636   4.314   2.699
10573SOL     OW32617   5.565   0.530   5.106
10573SOL    HW132618   5.659   0.567   5.105
10573SOL    HW232619   5.519   0.556   5.022
10574SOL     OW32620   0.930   1.740   4.114
10574SOL    HW132621   0.858   1.808   4.100
10574SOL    HW232622   0.897   1.650   4.085
10575SOL     OW32623   0.046   1.082   3.646
10575SOL    HW132624   0.074   1.173   3.676
10575SOL    HW232625   0.116   1.044   3.585
10576SOL     OW32626   0.215   5.504   4.963
10576SOL    HW132627   0.155   5.577   4.995
10576SOL    HW232628   0.179   5.466   4.878
10577SOL     OW32629   1.946   4.814   0.165
10577SOL    HW132630   1.926   4.717   0.145
10577SOL    HW232631   1.874   4.871   0.126
10578SOL     OW32632   4.879   1.345   2.765
10578SOL    HW132633   4.913   1.435   2.738
10578SOL    HW232634   4.782   1.338   2.744
10579SOL     OW32635   4.401   2.936   1.636
10579SOL    HW132636   4.335   3.009   1.618
10579SOL    HW232637   4.454   2.957   1.718
10580SOL     OW32638   6.687   0.535   6.601
10580SOL    HW132639   6.643   0.539   6.691
10580SOL    HW232640   6.786   0.525   6.612
10581SOL     OW32641   6.041   0.122   3.264
10581SOL    HW132642   5.982   0.192   3.303
10581SOL    HW232643   6.137   0.145   3.281
10582SOL     OW32644   4.642   4.118   5.461
10582SOL    HW132645   4.686   4.201   5.496
10582SOL    HW232646   4.708   4.043   5.460
10583SOL     OW32647   3.421   1.346   3.888
10583SOL    HW132648   3.462   1.293   3.813
10583SOL    HW232649   3.473   1.331   3.971
10584SOL     OW32650   6.926   0.654   0.283
10584SOL    HW132651   6.901   0.732   0.227
10584SOL    HW232652   6.865   0.577   0.264
10585SOL     OW32653   2.672   2.166   5.392
10585SOL    HW132654   2.680   2.233   5.319
10585SOL    HW232655   2.763   2.145   5.429
10586SOL     OW32656   5.799   4.834   5.523
10586SOL    HW132657   5.707   4.862   5.497
10586SOL    HW232658   5.810   4.845   5.622
10587SOL     OW32659   6.173   4.933   7.006
10587SOL    HW132660   6.113   4.913   6.929
10587SOL    HW232661   6.228   5.014   6.986
10588SOL     OW32662   1.652   2.656   4.847
10588SOL    HW132663   1.623   2.598   4.924
10588SOL    HW232664   1.747   2.634   4.823
10589SOL     OW32665   6.185   0.963   4.563
10589SOL    HW132666   6.252   1.036   4.552
10589SOL    HW232667   6.123   0.963   4.484
10590SOL     OW32668   0.219   0.779   1.018
10590SOL    HW132669   0.195   0.689   1.055
10590SOL    HW232670   0.250   0.838   1.093
10591SOL     OW32671   1.522   2.167   0.175
10591SOL    HW132672   1.531   2.193   0.078
10591SOL    HW232673   1.613   2.147   0.213
10592SOL     OW32674   5.913   3.593   2.869
10592SOL    HW132675   5.960   3.535   2.935
10592SOL    HW232676   5.815   3.574   2.872
10593SOL     OW32677   2.356   5.655   0.476
10593SOL    HW132678   2.365   5.706   0.390
10593SOL    HW232679   2.396   5.709   0.551
10594SOL     OW32680   5.179   1.202   3.339
10594SOL    HW132681   5.084   1.192   3.369
10594SOL    HW232682   5.199   1.298   3.319
10595SOL     OW32683   5.273   6.833   0.084
10595SOL    HW132684   5.217   6.775   0.024
10595SOL    HW232685   5.302   6.915   0.034
10596SOL     OW32686   4.475   1.398   0.339
10596SOL    HW132687   4.472   1.418   0.437
10596SOL    HW232688   4.445   1.304   0.323
10597SOL     OW32689   3.164   1.698   5.768
10597SOL    HW132690   3.134   1.656   5.853
10597SOL    HW232691   3.098   1.767   5.740
10598SOL     OW32692   3.106   2.473   6.991
10598SOL    HW132693   3.165   2.402   6.954
10598SOL    HW232694   3.159   2.534   0.025
10599SOL     OW32695   5.493   3.457   6.309
10599SOL    HW132696   5.412   3.504   6.274
10599SOL    HW232697   5.523   3.500   6.394
10600SOL     OW32698   3.529   2.819   0.877
10600SOL    HW132699   3.467   2.872   0.934
10600SOL    HW232700   3.582   2.881   0.819
10601SOL     OW32701   1.211   5.006   5.109
10601SOL    HW132702   1.177   4.994   5.016
10601SOL    HW232703   1.311   4.996   5.109
10602SOL     OW32704   2.065   0.473   2.087
10602SOL    HW132705   2.051   0.528   2.169
10602SOL    HW232706   2.088   0.533   2.010
10603SOL     OW32707   3.903   0.508   3.553
10603SOL    HW132708   3.925   0.577   3.484
10603SOL    HW232709   3.917   0.417   3.515
10604SOL     OW32710   6.576   5.882   5.662
10604SOL    HW132711   6.505   5.812   5.665
10604SOL    HW232712   6.549   5.960   5.718
10605SOL     OW32713   2.107   6.760   6.832
10605SOL    HW132714   2.149   6.808   6.755
10605SOL    HW232715   2.067   6.827   6.895
10606SOL     OW32716   0.501   0.342   1.590
10606SOL    HW132717   0.419   0.286   1.600
10606SOL    HW232718   0.553   0.311   1.511
10607SOL     OW32719   3.957   5.492   5.850
10607SOL    HW132720   3.994   5.557   5.784
10607SOL    HW232721   3.977   5.524   5.943
10608SOL     OW32722   6.513   3.041   4.778
10608SOL    HW132723   6.510   3.049   4.678
10608SOL    HW232724   6.438   2.983   4.809
10609SOL     OW32725   2.699   6.543   0.020
10609SOL    HW132726   2.786   6.592   0.017
10609SOL    HW232727   2.715   6.446   7.024
10610SOL     OW32728   0.667   2.151   3.683
10610SOL    HW132729   0.581   2.121   3.642
10610SOL    HW232730   0.744   2.122   3.626
10611SOL     OW32731   2.283   4.406   6.594
10611SOL    HW132732   2.249   4.413   6.500
10611SOL    HW232733   2.380   4.432   6.596
10612SOL     OW32734   3.212   2.177   4.831
10612SOL    HW132735   3.209   2.103   4.898
10612SOL    HW232736   3.195   2.264   4.877
10613SOL     OW32737   5.518   6.024   5.558
10613SOL    HW132738   5.471   6.006   5.472
10613SOL    HW232739   5.580   5.948   5.578
10614SOL     OW32740   4.997   2.010   5.174
10614SOL    HW132741   4.903   2.014   5.140
10614SOL    HW232742   5.061   2.010   5.097
10615SOL     OW32743   4.381   0.476   5.406
10615SOL    HW132744   4.407   0.569   5.433
10615SOL    HW232745   4.457   0.414   5.424
10616SOL     OW32746   2.077   0.142   0.583
10616SOL    HW132747   2.036   0.160   0.493
10616SOL    HW232748   2.060   0.047   0.608
10617SOL     OW32749   3.086   4.142   1.267
10617SOL    HW132750   3.156   4.211   1.246
10617SOL    HW232751   3.130   4.054   1.281
10618SOL     OW32752   1.315   3.864   6.031
10618SOL    HW132753   1.306   3.780   5.977
10618SOL    HW232754   1.259   3.935   5.990
10619SOL     OW32755   0.620   2.842   2.814
10619SOL    HW132756   0.583   2.749   2.808
10619SOL    HW232757   0.574   2.891   2.889
10620SOL     OW32758   1.272   6.646   5.247
10620SOL    HW132759   1.281   6.547   5.260
10620SOL    HW232760   1.359   6.684   5.217
10621SOL     OW32761   0.701   5.025   1.568
10621SOL    HW132762   0.618   4.979   1.597
10621SOL    HW232763   0.746   4.972   1.496
10622SOL     OW32764   4.998   1.923   2.096
10622SOL    HW132765   5.049   1.979   2.162
10622SOL    HW232766   4.923   1.877   2.143
10623SOL     OW32767   0.456   4.936   5.480
10623SOL    HW132768   0.499   4.928   5.391
10623SOL    HW232769   0.431   5.032   5.496
10624SOL     OW32770   1.022   2.177   4.780
10624SOL    HW132771   0.941   2.187   4.837
10624SOL    HW232772   1.087   2.250   4.801
10625SOL     OW32773   0.249   4.731   1.164
10625SOL    HW132774   0.338   4.691   1.145
10625SOL    HW232775   0.212   4.773   1.081
10626SOL     OW32776   2.552   2.840   0.493
10626SOL    HW132777   2.567   2.920   0.551
10626SOL    HW232778   2.553   2.868   0.396
10627SOL     OW32779   4.935   0.326   6.780
10627SOL    HW132780   4.994   0.259   6.825
10627SOL    HW232781   4.991   0.395   6.735
10628SOL     OW32782   4.870   6.075   0.734
10628SOL    HW132783   4.841   6.051   0.641
10628SOL    HW232784   4.928   6.157   0.731
10629SOL     OW32785   2.667   5.062   4.733
10629SOL    HW132786   2.597   4.998   4.701
10629SOL    HW232787   2.738   5.012   4.783
10630SOL     OW32788   6.198   1.274   3.548
10630SOL    HW132789   6.248   1.230   3.473
10630SOL    HW232790   6.101   1.281   3.525
10631SOL     OW32791   3.421   5.190   5.110
10631SOL    HW132792   3.358   5.241   5.169
10631SOL    HW232793   3.378   5.103   5.085
10632SOL     OW32794   5.155   0.110   4.238
10632SOL    HW132795   5.230   0.058   4.196
10632SOL    HW232796   5.157   0.204   4.203
10633SOL     OW32797   2.411   2.705   0.684
10633SOL    HW132798   2.491   2.670   0.733
10633SOL    HW232799   2.441   2.772   0.616
10634SOL     OW32800   3.110   4.159   0.348
10634SOL    HW132801   3.087   4.084   0.410
10634SOL    HW232802   3.209   4.174   0.350
10635SOL     OW32803   2.024   3.578   6.840
10635SOL    HW132804   1.961   3.624   6.902
10635SOL    HW232805   2.109   3.558   6.889
10636SOL     OW32806   0.248   1.925   0.903
10636SOL    HW132807   0.251   1.857   0.977
10636SOL    HW232808   0.156   1.928   0.865
10637SOL     OW32809   1.523   4.482   5.706
10637SOL    HW132810   1.538   4.415   5.633
10637SOL    HW232811   1.478   4.438   5.784
10638SOL     OW32812   5.685   5.479   2.464
10638SOL    HW132813   5.717   5.392   2.502
10638SOL    HW232814   5.688   5.475   2.364
10639SOL     OW32815   0.743   3.980   2.992
10639SOL    HW132816   0.825   3.941   2.949
10639SOL    HW232817   0.770   4.039   3.068
10640SOL     OW32818   4.523   6.679   4.734
10640SOL    HW132819   4.472   6.643   4.657
10640SOL    HW232820   4.544   6.605   4.798
10641SOL     OW32821   2.020   1.993   2.014
10641SOL    HW132822   2.087   2.067   2.020
10641SOL    HW232823   2.014   1.947   2.103
10642SOL     OW32824   6.500   2.530   1.476
10642SOL    HW132825   6.561   2.526   1.555
10642SOL    HW232826   6.498   2.441   1.431
10643SOL     OW32827   1.210   5.328   4.549
10643SOL    HW132828   1.206   5.232   4.518
10643SOL    HW232829   1.122   5.372   4.531
10644SOL     OW32830   5.803   2.851   2.643
10644SOL    HW132831   5.868   2.800   2.699
10644SOL    HW232832   5.743   2.788   2.596
10645SOL     OW32833   1.794   2.758   4.548
10645SOL    HW132834   1.716   2.796   4.598
10645SOL    HW232835   1.877   2.770   4.602
10646SOL     OW32836   0.565   0.482   0.041
10646SOL    HW132837   0.653   0.479   7.020
10646SOL    HW232838   0.575   0.445   0.133
10647SOL     OW32839   2.996   5.426   4.821
10647SOL    HW132840   2.944   5.414   4.736
10647SOL    HW232841   3.025   5.521   4.829
10648SOL     OW32842   6.114   3.948   6.314
10648SOL    HW132843   6.042   3.892   6.354
10648SOL    HW232844   6.203   3.918   6.348
10649SOL     OW32845   0.063   4.348   2.553
10649SOL    HW132846   0.006   4.427   2.530
10649SOL    HW232847   0.128   4.374   2.625
10650SOL     OW32848   0.922   0.564   3.666
10650SOL    HW132849   0.990   0.630   3.632
10650SOL    HW232850   0.968   0.499   3.727
10651SOL     OW32851   5.256   6.518   0.183
10651SOL    HW132852   5.221   6.603   0.143
10651SOL    HW232853   5.232   6.441   0.124
10652SOL     OW32854   3.695   6.807   5.600
10652SOL    HW132855   3.742   6.787   5.514
10652SOL    HW232856   3.615   6.747   5.608
10653SOL     OW32857   3.992   5.308   3.587
10653SOL    HW132858   3.920   5.287   3.652
10653SOL    HW232859   3.972   5.264   3.499
10654SOL     OW32860   5.369   1.041   1.015
10654SOL    HW132861   5.324   0.971   1.070
10654SOL    HW232862   5.465   1.016   1.000
10655SOL     OW32863   2.368   5.754   0.736
10655SOL    HW132864   2.438   5.823   0.752
10655SOL    HW232865   2.291   5.769   0.798
10656SOL     OW32866   0.151   1.871   2.767
10656SOL    HW132867   0.085   1.946   2.762
10656SOL    HW232868   0.117   1.793   2.715
10657SOL     OW32869   5.844   0.725   5.658
10657SOL    HW132870   5.876   0.653   5.720
10657SOL    HW232871   5.745   0.720   5.649
10658SOL     OW32872   6.421   4.895   5.058
10658SOL    HW132873   6.398   4.950   5.138
10658SOL    HW232874   6.510   4.851   5.072
10659SOL     OW32875   0.497   5.447   1.235
10659SOL    HW132876   0.577   5.459   1.176
10659SOL    HW232877   0.496   5.518   1.304
10660SOL     OW32878   5.014   3.771   6.406
10660SOL    HW132879   4.967   3.689   6.372
10660SOL    HW232880   5.009   3.843   6.337
10661SOL     OW32881   1.079   6.724   1.469
10661SOL    HW132882   1.073   6.795   1.539
10661SOL    HW232883   1.174   6.695   1.459
10662SOL     OW32884   5.797   6.590   3.085
10662SOL    HW132885   5.756   6.501   3.064
10662SOL    HW232886   5.839   6.587   3.176
10663SOL     OW32887   0.756   2.079   2.691
10663SOL    HW132888   0.662   2.057   2.663
10663SOL    HW232889   0.764   2.177   2.709
10664SOL     OW32890   6.333   4.295   4.757
10664SOL    HW132891   6.284   4.242   4.689
10664SOL    HW232892   6.312   4.392   4.746
10665SOL     OW32893   0.843   1.985   0.727
10665SOL    HW132894   0.774   2.010   0.659
10665SOL    HW232895   0.889   2.068   0.759
10666SOL     OW32896   3.603   4.017   1.618
10666SOL    HW132897   3.514   4.017   1.573
10666SOL    HW232898   3.675   4.031   1.550
10667SOL     OW32899   4.739   3.055   5.566
10667SOL    HW132900   4.741   2.964   5.524
10667SOL    HW232901   4.678   3.053   5.645
10668SOL     OW32902   2.625   0.511   5.143
10668SOL    HW132903   2.544   0.548   5.189
10668SOL    HW232904   2.614   0.521   5.044
10669SOL     OW32905   5.427   6.859   1.331
10669SOL    HW132906   5.382   6.796   1.394
10669SOL    HW232907   5.420   6.824   1.238
10670SOL     OW32908   5.265   4.298   5.028
10670SOL    HW132909   5.247   4.256   4.939
10670SOL    HW232910   5.294   4.228   5.093
10671SOL     OW32911   2.452   2.515   3.217
10671SOL    HW132912   2.407   2.429   3.195
10671SOL    HW232913   2.518   2.538   3.146
10672SOL     OW32914   6.505   3.195   0.858
10672SOL    HW132915   6.432   3.128   0.867
10672SOL    HW232916   6.584   3.153   0.813
10673SOL     OW32917   1.154   0.827   6.522
10673SOL    HW132918   1.104   0.741   6.538
10673SOL    HW232919   1.120   0.897   6.584
10674SOL     OW32920   3.682   4.078   2.108
10674SOL    HW132921   3.780   4.056   2.115
10674SOL    HW232922   3.649   4.110   2.197
10675SOL     OW32923   1.725   0.130   6.597
10675SOL    HW132924   1.769   0.220   6.599
10675SOL    HW232925   1.681   0.117   6.509
10676SOL     OW32926   6.310   6.095   6.409
10676SOL    HW132927   6.232   6.119   6.350
10676SOL    HW232928   6.364   6.178   6.426
10677SOL     OW32929   1.440   0.408   2.197
10677SOL    HW132930   1.400   0.318   2.176
10677SOL    HW232931   1.491   0.402   2.283
10678SOL     OW32932   4.045   5.726   4.448
10678SOL    HW132933   3.959   5.755   4.490
10678SOL    HW232934   4.119   5.786   4.479
10679SOL     OW32935   4.623   5.515   6.200
10679SOL    HW132936   4.665   5.442   6.254
10679SOL    HW232937   4.670   5.601   6.220
10680SOL     OW32938   3.106   1.509   3.287
10680SOL    HW132939   3.059   1.593   3.260
10680SOL    HW232940   3.176   1.531   3.355
10681SOL     OW32941   0.565   3.571   0.617
10681SOL    HW132942   0.638   3.614   0.670
10681SOL    HW232943   0.563   3.473   0.635
10682SOL     OW32944   1.417   1.260   5.107
10682SOL    HW132945   1.338   1.282   5.165
10682SOL    HW232946   1.387   1.255   5.012
10683SOL     OW32947   3.661   1.836   3.670
10683SOL    HW132948   3.725   1.876   3.735
10683SOL    HW232949   3.567   1.859   3.697
10684SOL     OW32950   5.578   4.214   1.742
10684SOL    HW132951   5.620   4.145   1.801
10684SOL    HW232952   5.573   4.301   1.791
10685SOL     OW32953   0.671   5.470   2.434
10685SOL    HW132954   0.621   5.384   2.443
10685SOL    HW232955   0.765   5.458   2.466
10686SOL     OW32956   0.775   4.944   6.140
10686SOL    HW132957   0.679   4.937   6.165
10686SOL    HW232958   0.814   5.025   6.183
10687SOL     OW32959   6.634   5.367   1.606
10687SOL    HW132960   6.721   5.339   1.645
10687SOL    HW232961   6.649   5.438   1.537
10688SOL     OW32962   6.432   4.156   2.831
10688SOL    HW132963   6.342   4.114   2.844
10688SOL    HW232964   6.494   4.091   2.788
10689SOL     OW32965   0.336   5.652   3.549
10689SOL    HW132966   0.394   5.611   3.620
10689SOL    HW232967   0.385   5.728   3.506
10690SOL     OW32968   0.281   6.072   3.223
10690SOL    HW132969   0.254   6.104   3.313
10690SOL    HW232970   0.206   6.022   3.180
10691SOL     OW32971   0.484   2.394   2.418
10691SOL    HW132972   0.573   2.366   2.456
10691SOL    HW232973   0.496   2.478   2.365
10692SOL     OW32974   2.908   6.111   3.028
10692SOL    HW132975   2.957   6.083   3.110
10692SOL    HW232976   2.816   6.140   3.052
10693SOL     OW32977   2.211   6.995   0.098
10693SOL    HW132978   2.237   7.022   0.006
10693SOL    HW232979   2.122   0.008   0.121
10694SOL     OW32980   5.452   6.332   1.820
10694SOL    HW132981   5.391   6.387   1.876
10694SOL    HW232982   5.495   6.262   1.877
10695SOL     OW32983   5.234   1.888   3.261
10695SOL    HW132984   5.272   1.943   3.186
10695SOL    HW232985   5.146   1.849   3.232
10696SOL     OW32986   0.252   3.586   3.695
10696SOL    HW132987   0.327   3.525   3.672
10696SOL    HW232988   0.174   3.568   3.634
10697SOL     OW32989   6.988   6.209   4.473
10697SOL    HW132990   6.906   6.157   4.448
10697SOL    HW232991   6.976   6.305   4.448
10698SOL     OW32992   4.713   5.567   5.531
10698SOL    HW132993   4.657   5.632   5.481
10698SOL    HW232994   4.786   5.616   5.580
10699SOL     OW32995   4.071   3.380   2.007
10699SOL    HW132996   3.983   3.332   2.003
10699SOL    HW232997   4.069   3.457   1.944
10700SOL     OW32998   7.006   6.979   2.104
10700SOL    HW132999   0.074   6.982   2.138
10700SOL    HW233000   6.958   0.038   2.129
10701SOL     OW33001   3.502   6.431   0.180
10701SOL    HW133002   3.450   6.441   0.095
10701SOL    HW233003   3.485   6.341   0.219
10702SOL     OW33004   5.956   3.070   2.284
10702SOL    HW133005   5.865   3.041   2.312
10702SOL    HW233006   5.979   3.157   2.328
10703SOL     OW33007   3.261   4.109   5.166
10703SOL    HW133008   3.207   4.172   5.222
10703SOL    HW233009   3.319   4.161   5.103
10704SOL     OW33010   6.441   5.369   1.793
10704SOL    HW133011   6.509   5.379   1.720
10704SOL    HW233012   6.441   5.274   1.826
10705SOL     OW33013   6.145   4.674   1.839
10705SOL    HW133014   6.168   4.599   1.777
10705SOL    HW233015   6.214   4.681   1.911
10706SOL     OW33016   5.053   6.902   2.485
10706SOL    HW133017   5.133   6.959   2.496
10706SOL    HW233018   5.020   6.908   2.391
10707SOL     OW33019   0.325   6.285   3.824
10707SOL    HW133020   0.383   6.223   3.877
10707SOL    HW233021   0.246   6.235   3.789
10708SOL     OW33022   4.254   0.797   2.217
10708SOL    HW133023   4.308   0.880   2.201
10708SOL    HW233024   4.232   0.791   2.314
10709SOL     OW33025   6.432   6.711   4.904
10709SOL    HW133026   6.355   6.754   4.857
10709SOL    HW233027   6.494   6.671   4.837
10710SOL     OW33028   0.291   6.504   4.984
10710SOL    HW133029   0.306   6.573   5.055
10710SOL    HW233030   0.340   6.420   5.008
10711SOL     OW33031   1.751   6.291   3.892
10711SOL    HW133032   1.663   6.330   3.865
10711SOL    HW233033   1.737   6.227   3.968
10712SOL     OW33034   2.741   1.119   1.595
10712SOL    HW133035   2.782   1.141   1.507
10712SOL    HW233036   2.679   1.192   1.623
10713SOL     OW33037   1.516   4.162   1.486
10713SOL    HW133038   1.555   4.077   1.522
10713SOL    HW233039   1.582   4.204   1.424
10714SOL     OW33040   6.066   3.753   4.570
10714SOL    HW133041   6.041   3.714   4.658
10714SOL    HW233042   6.107   3.683   4.513
10715SOL     OW33043   5.184   6.679   2.644
10715SOL    HW133044   5.151   6.773   2.645
10715SOL    HW233045   5.123   6.621   2.699
10716SOL     OW33046   5.722   2.415   4.507
10716SOL    HW133047   5.645   2.401   4.444
10716SOL    HW233048   5.783   2.485   4.470
10717SOL     OW33049   1.117   2.613   1.136
10717SOL    HW133050   1.070   2.681   1.080
10717SOL    HW233051   1.103   2.635   1.233
10718SOL     OW33052   1.677   3.046   6.644
10718SOL    HW133053   1.671   3.129   6.588
10718SOL    HW233054   1.773   3.024   6.660
10719SOL     OW33055   5.355   5.889   0.570
10719SOL    HW133056   5.263   5.919   0.547
10719SOL    HW233057   5.376   5.804   0.522
10720SOL     OW33058   6.507   3.564   4.986
10720SOL    HW133059   6.459   3.587   5.071
10720SOL    HW233060   6.589   3.622   4.977
10721SOL     OW33061   6.076   4.115   5.439
10721SOL    HW133062   6.083   4.025   5.481
10721SOL    HW233063   6.163   4.138   5.395
10722SOL     OW33064   0.196   3.498   0.871
10722SOL    HW133065   0.203   3.470   0.776
10722SOL    HW233066   0.101   3.496   0.900
10723SOL     OW33067   0.611   3.852   6.029
10723SOL    HW133068   0.591   3.946   6.003
10723SOL    HW233069   0.542   3.791   5.991
10724SOL     OW33070   4.689   1.112   6.986
10724SOL    HW133071   4.683   1.027   0.013
10724SOL    HW233072   4.782   1.124   6.952
10725SOL     OW33073   0.084   4.666   4.584
10725SOL    HW133074   0.080   4.568   4.564
10725SOL    HW233075   0.179   4.695   4.589
10726SOL     OW33076   5.340   6.944   5.984
10726SOL    HW133077   5.357   6.979   6.076
10726SOL    HW233078   5.300   7.016   5.928
10727SOL     OW33079   0.560   5.218   4.359
10727SOL    HW133080   0.624   5.262   4.423
10727SOL    HW233081   0.507   5.148   4.407
10728SOL     OW33082   6.369   6.184   1.231
10728SOL    HW133083   6.292   6.136   1.189
10728SOL    HW233084   6.451   6.170   1.177
10729SOL     OW33085   5.342   1.041   2.599
10729SOL    HW133086   5.377   1.021   2.690
10729SOL    HW233087   5.415   1.078   2.542
10730SOL     OW33088   2.306   0.327   2.228
10730SOL    HW133089   2.231   0.362   2.172
10730SOL    HW233090   2.272   0.305   2.319
10731SOL     OW33091   3.132   5.754   0.496
10731SOL    HW133092   3.036   5.756   0.522
10731SOL    HW233093   3.149   5.674   0.438
10732SOL     OW33094   4.979   4.965   2.276
10732SOL    HW133095   4.951   4.902   2.348
10732SOL    HW233096   5.076   4.988   2.288
10733SOL     OW33097   4.872   2.212   6.865
10733SOL    HW133098   4.784   2.218   6.818
10733SOL    HW233099   4.881   2.123   6.909
10734SOL     OW33100   1.254   0.291   0.113
10734SOL    HW133101   1.173   0.276   0.171
10734SOL    HW233102   1.298   0.377   0.139
10735SOL     OW33103   1.503   4.740   2.882
10735SOL    HW133104   1.471   4.664   2.826
10735SOL    HW233105   1.463   4.733   2.974
10736SOL     OW33106   0.236   0.649   3.432
10736SOL    HW133107   0.308   0.654   3.502
10736SOL    HW233108   0.277   0.661   3.342
10737SOL     OW33109   1.186   1.752   0.519
10737SOL    HW133110   1.171   1.799   0.431
10737SOL    HW233111   1.138   1.801   0.591
10738SOL     OW33112   2.593   0.557   3.321
10738SOL    HW133113   2.531   0.608   3.261
10738SOL    HW233114   2.544   0.528   3.403
10739SOL     OW33115   6.997   1.276   1.219
10739SOL    HW133116   0.068   1.295   1.202
10739SOL    HW233117   6.965   1.331   1.297
10740SOL     OW33118   0.827   4.770   5.405
10740SOL    HW133119   0.838   4.768   5.504
10740SOL    HW233120   0.917   4.778   5.362
10741SOL     OW33121   0.506   0.360   2.912
10741SOL    HW133122   0.551   0.449   2.917
10741SOL    HW233123   0.435   0.363   2.841
10742SOL     OW33124   6.088   0.033   1.469
10742SOL    HW133125   6.037   6.987   1.517
10742SOL    HW233126   6.041   0.058   1.385
10743SOL     OW33127   2.210   1.660   4.800
10743SOL    HW133128   2.256   1.649   4.712
10743SOL    HW233129   2.215   1.573   4.850
10744SOL     OW33130   3.067   1.261   2.146
10744SOL    HW133131   3.026   1.325   2.081
10744SOL    HW233132   3.125   1.312   2.210
10745SOL     OW33133   1.271   4.998   0.834
10745SOL    HW133134   1.226   4.931   0.892
10745SOL    HW233135   1.259   4.972   0.738
10746SOL     OW33136   1.884   3.834   1.620
10746SOL    HW133137   1.839   3.756   1.664
10746SOL    HW233138   1.953   3.802   1.556
10747SOL     OW33139   4.425   0.671   2.942
10747SOL    HW133140   4.417   0.667   2.842
10747SOL    HW233141   4.437   0.579   2.978
10748SOL     OW33142   3.586   0.700   1.246
10748SOL    HW133143   3.514   0.682   1.313
10748SOL    HW233144   3.587   0.626   1.178
10749SOL     OW33145   6.942   4.822   3.798
10749SOL    HW133146   6.962   4.870   3.712
10749SOL    HW233147   6.879   4.746   3.780
10750SOL     OW33148   3.914   5.907   4.644
10750SOL    HW133149   3.925   5.969   4.722
10750SOL    HW233150   3.900   5.959   4.561
10751SOL     OW33151   1.101   4.143   4.578
10751SOL    HW133152   1.102   4.100   4.669
10751SOL    HW233153   1.088   4.241   4.589
10752SOL     OW33154   6.668   3.676   6.199
10752SOL    HW133155   6.739   3.741   6.225
10752SOL    HW233156   6.676   3.593   6.253
10753SOL     OW33157   4.877   0.469   4.310
10753SOL    HW133158   4.904   0.501   4.219
10753SOL    HW233159   4.955   0.427   4.355
10754SOL     OW33160   1.213   1.868   3.740
10754SOL    HW133161   1.186   1.799   3.673
10754SOL    HW233162   1.209   1.830   3.832
10755SOL     OW33163   0.199   2.324   0.254
10755SOL    HW133164   0.172   2.228   0.245
10755SOL    HW233165   0.281   2.331   0.310
10756SOL     OW33166   6.446   4.590   6.932
10756SOL    HW133167   6.482   4.500   6.957
10756SOL    HW233168   6.410   4.636   7.013
10757SOL     OW33169   1.253   2.970   0.336
10757SOL    HW133170   1.288   3.064   0.334
10757SOL    HW233171   1.263   2.929   0.245
10758SOL     OW33172   1.039   6.939   5.546
10758SOL    HW133173   1.137   6.962   5.543
10758SOL    HW233174   1.015   6.888   5.463
10759SOL     OW33175   2.180   3.209   0.015
10759SOL    HW133176   2.083   3.182   0.015
10759SOL    HW233177   2.187   3.308   0.007
10760SOL     OW33178   6.393   1.043   0.451
10760SOL    HW133179   6.406   0.983   0.530
10760SOL    HW233180   6.407   0.991   0.367
10761SOL     OW33181   1.318   2.041   6.089
10761SOL    HW133182   1.270   2.010   6.007
10761SOL    HW233183   1.268   2.011   6.170
10762SOL     OW33184   3.890   1.641   4.947
10762SOL    HW133185   3.975   1.694   4.946
10762SOL    HW233186   3.811   1.703   4.944
10763SOL     OW33187   4.597   6.572   1.054
10763SOL    HW133188   4.590   6.619   1.142
10763SOL    HW233189   4.692   6.571   1.024
10764SOL     OW33190   5.803   1.896   5.487
10764SOL    HW133191   5.716   1.851   5.508
10764SOL    HW233192   5.787   1.965   5.415
10765SOL     OW33193   5.769   2.813   0.964
10765SOL    HW133194   5.799   2.779   0.875
10765SOL    HW233195   5.669   2.823   0.963
10766SOL     OW33196   3.543   3.067   1.279
10766SOL    HW133197   3.568   3.162   1.301
10766SOL    HW233198   3.626   3.012   1.274
10767SOL     OW33199   1.481   0.460   6.935
10767SOL    HW133200   1.561   0.481   6.990
10767SOL    HW233201   1.445   0.370   6.960
10768SOL     OW33202   3.946   5.184   1.192
10768SOL    HW133203   3.944   5.097   1.143
10768SOL    HW233204   4.005   5.248   1.143
10769SOL     OW33205   2.102   5.143   5.141
10769SOL    HW133206   2.053   5.228   5.160
10769SOL    HW233207   2.169   5.158   5.069
10770SOL     OW33208   5.837   0.178   4.936
10770SOL    HW133209   5.776   0.100   4.923
10770SOL    HW233210   5.801   0.236   5.009
10771SOL     OW33211   5.313   1.285   4.906
10771SOL    HW133212   5.346   1.258   4.816
10771SOL    HW233213   5.375   1.353   4.945
10772SOL     OW33214   6.822   6.477   4.746
10772SOL    HW133215   6.794   6.410   4.678
10772SOL    HW233216   6.916   6.460   4.774
10773SOL     OW33217   6.388   5.608   6.902
10773SOL    HW133218   6.440   5.529   6.933
10773SOL    HW233219   6.445   5.662   6.839
10774SOL     OW33220   1.608   1.657   6.976
10774SOL    HW133221   1.649   1.684   6.889
10774SOL    HW233222   1.676   1.613   0.009
10775SOL     OW33223   0.584   2.702   0.585
10775SOL    HW133224   0.503   2.668   0.538
10775SOL    HW233225   0.646   2.626   0.605
10776SOL     OW33226   1.575   6.444   6.973
10776SOL    HW133227   1.543   6.488   6.889
10776SOL    HW233228   1.583   6.345   6.958
10777SOL     OW33229   4.125   6.188   4.357
10777SOL    HW133230   4.060   6.112   4.352
10777SOL    HW233231   4.150   6.216   4.264
10778SOL     OW33232   5.850   6.392   5.241
10778SOL    HW133233   5.855   6.334   5.159
10778SOL    HW233234   5.778   6.460   5.229
10779SOL     OW33235   6.205   5.054   3.309
10779SOL    HW133236   6.250   5.105   3.383
10779SOL    HW233237   6.244   4.962   3.304
10780SOL     OW33238   1.384   0.212   3.682
10780SOL    HW133239   1.316   0.196   3.754
10780SOL    HW233240   1.423   0.303   3.692
10781SOL     OW33241   3.847   1.559   2.920
10781SOL    HW133242   3.881   1.644   2.959
10781SOL    HW233243   3.784   1.515   2.984
10782SOL     OW33244   6.988   1.642   3.427
10782SOL    HW133245   7.015   1.675   3.517
10782SOL    HW233246   6.888   1.631   3.424
10783SOL     OW33247   0.988   3.468   3.411
10783SOL    HW133248   1.085   3.450   3.392
10783SOL    HW233249   0.932   3.404   3.359
10784SOL     OW33250   3.217   0.281   3.292
10784SOL    HW133251   3.269   0.366   3.302
10784SOL    HW233252   3.141   0.296   3.227
10785SOL     OW33253   0.484   5.003   0.992
10785SOL    HW133254   0.553   4.939   1.027
10785SOL    HW233255   0.530   5.079   0.946
10786SOL     OW33256   5.076   4.845   1.974
10786SOL    HW133257   4.980   4.829   1.952
10786SOL    HW233258   5.086   4.861   2.072
10787SOL     OW33259   3.109   1.246   4.628
10787SOL    HW133260   3.174   1.178   4.594
10787SOL    HW233261   3.103   1.322   4.563
10788SOL     OW33262   2.270   5.175   6.503
10788SOL    HW133263   2.342   5.144   6.566
10788SOL    HW233264   2.255   5.106   6.433
10789SOL     OW33265   5.858   2.555   0.334
10789SOL    HW133266   5.825   2.648   0.353
10789SOL    HW233267   5.932   2.559   0.268
10790SOL     OW33268   1.309   0.649   2.253
10790SOL    HW133269   1.374   0.574   2.242
10790SOL    HW233270   1.297   0.669   2.350
10791SOL     OW33271   0.122   0.529   1.143
10791SOL    HW133272   0.166   0.471   1.074
10791SOL    HW233273   0.134   0.488   1.233
10792SOL     OW33274   3.948   3.947   2.196
10792SOL    HW133275   3.968   3.955   2.294
10792SOL    HW233276   3.955   3.851   2.169
10793SOL     OW33277   5.163   2.408   4.320
10793SOL    HW133278   5.136   2.327   4.268
10793SOL    HW233279   5.083   2.446   4.366
10794SOL     OW33280   2.891   3.723   3.694
10794SOL    HW133281   2.980   3.708   3.737
10794SOL    HW233282   2.902   3.782   3.614
10795SOL     OW33283   6.935   3.625   3.256
10795SOL    HW133284   7.008   3.586   3.200
10795SOL    HW233285   6.848   3.581   3.235
10796SOL     OW33286   5.382   6.407   0.603
10796SOL    HW133287   5.310   6.442   0.543
10796SOL    HW233288   5.470   6.412   0.555
10797SOL     OW33289   3.703   1.876   1.464
10797SOL    HW133290   3.679   1.804   1.400
10797SOL    HW233291   3.635   1.949   1.460
10798SOL     OW33292   2.768   6.250   1.131
10798SOL    HW133293   2.801   6.236   1.037
10798SOL    HW233294   2.803   6.337   1.166
10799SOL     OW33295   3.669   0.907   1.849
10799SOL    HW133296   3.641   0.840   1.918
10799SOL    HW233297   3.680   0.862   1.761
10800SOL     OW33298   0.289   0.336   0.355
10800SOL    HW133299   0.241   0.338   0.267
10800SOL    HW233300   0.244   0.399   0.419
10801SOL     OW33301   1.064   0.111   5.799
10801SOL    HW133302   1.106   0.174   5.734
10801SOL    HW233303   1.053   0.021   5.757
10802SOL     OW33304   1.336   2.699   3.350
10802SOL    HW133305   1.279   2.692   3.268
10802SOL    HW233306   1.320   2.787   3.395
10803SOL     OW33307   3.337   3.887   5.868
10803SOL    HW133308   3.297   3.827   5.799
10803SOL    HW233309   3.300   3.979   5.858
10804SOL     OW33310   5.781   3.096   1.928
10804SOL    HW133311   5.876   3.126   1.922
10804SOL    HW233312   5.772   3.028   2.000
10805SOL     OW33313   3.974   6.927   6.983
10805SOL    HW133314   3.894   6.978   6.952
10805SOL    HW233315   3.968   6.833   6.951
10806SOL     OW33316   4.651   4.248   5.842
10806SOL    HW133317   4.596   4.326   5.872
10806SOL    HW233318   4.736   4.245   5.895
10807SOL     OW33319   1.294   6.392   3.190
10807SOL    HW133320   1.298   6.340   3.105
10807SOL    HW233321   1.206   6.437   3.198
10808SOL     OW33322   6.696   3.408   6.286
10808SOL    HW133323   6.637   3.328   6.278
10808SOL    HW233324   6.778   3.384   6.338
10809SOL     OW33325   2.945   6.113   3.738
10809SOL    HW133326   3.019   6.060   3.780
10809SOL    HW233327   2.967   6.210   3.741
10810SOL     OW33328   2.198   0.395   4.750
10810SOL    HW133329   2.167   0.328   4.818
10810SOL    HW233330   2.145   0.384   4.666
10811SOL     OW33331   4.259   4.733   5.592
10811SOL    HW133332   4.167   4.726   5.552
10811SOL    HW233333   4.260   4.686   5.681
10812SOL     OW33334   1.066   3.509   1.720
10812SOL    HW133335   1.147   3.466   1.760
10812SOL    HW233336   1.082   3.607   1.710
10813SOL     OW33337   1.896   5.442   0.053
10813SOL    HW133338   1.881   5.536   0.085
10813SOL    HW233339   1.918   5.383   0.130
10814SOL     OW33340   1.543   6.659   6.350
10814SOL    HW133341   1.533   6.758   6.357
10814SOL    HW233342   1.456   6.615   6.369
10815SOL     OW33343   4.612   4.362   3.665
10815SOL    HW133344   4.653   4.445   3.628
10815SOL    HW233345   4.649   4.343   3.756
10816SOL     OW33346   2.054   2.365   1.357
10816SOL    HW133347   2.067   2.317   1.444
10816SOL    HW233348   2.130   2.344   1.296
10817SOL     OW33349   5.597   6.746   2.985
10817SOL    HW133350   5.678   6.702   3.022
10817SOL    HW233351   5.533   6.767   3.058
10818SOL     OW33352   4.516   4.447   5.342
10818SOL    HW133353   4.527   4.357   5.301
10818SOL    HW233354   4.520   4.440   5.441
10819SOL     OW33355   6.830   4.432   0.168
10819SOL    HW133356   6.849   4.352   0.223
10819SOL    HW233357   6.879   4.425   0.081
10820SOL     OW33358   6.020   6.001   3.805
10820SOL    HW133359   5.950   6.060   3.846
10820SOL    HW233360   5.983   5.955   3.725
10821SOL     OW33361   5.600   6.522   2.224
10821SOL    HW133362   5.626   6.617   2.207
10821SOL    HW233363   5.563   6.514   2.316
10822SOL     OW33364   0.865   3.066   3.274
10822SOL    HW133365   0.860   3.164   3.258
10822SOL    HW233366   0.900   3.020   3.192
10823SOL     OW33367   1.885   5.530   1.511
10823SOL    HW133368   1.846   5.458   1.454
10823SOL    HW233369   1.910   5.492   1.600
10824SOL     OW33370   6.034   1.082   3.737
10824SOL    HW133371   6.093   1.001   3.732
10824SOL    HW233372   6.088   1.164   3.717
10825SOL     OW33373   3.107   0.123   6.363
10825SOL    HW133374   3.075   0.089   6.275
10825SOL    HW233375   3.047   0.197   6.394
10826SOL     OW33376   0.336   3.556   3.350
10826SOL    HW133377   0.411   3.527   3.410
10826SOL    HW233378   0.354   3.647   3.314
10827SOL     OW33379   6.159   4.156   4.580
10827SOL    HW133380   6.176   4.239   4.526
10827SOL    HW233381   6.183   4.076   4.525
10828SOL     OW33382   0.803   5.086   1.810
10828SOL    HW133383   0.898   5.055   1.811
10828SOL    HW233384   0.754   5.043   1.734
10829SOL     OW33385   3.582   2.313   1.003
10829SOL    HW133386   3.662   2.310   0.943
10829SOL    HW233387   3.499   2.313   0.948
10830SOL     OW33388   5.302   1.532   3.777
10830SOL    HW133389   5.234   1.521   3.850
10830SOL    HW233390   5.288   1.461   3.708
10831SOL     OW33391   3.859   6.074   2.172
10831SOL    HW133392   3.941   6.021   2.153
10831SOL    HW233393   3.797   6.021   2.231
10832SOL     OW33394   1.297   2.675   0.345
10832SOL    HW133395   1.342   2.586   0.353
10832SOL    HW233396   1.337   2.739   0.411
10833SOL     OW33397   1.512   1.393   1.933
10833SOL    HW133398   1.550   1.406   1.841
10833SOL    HW233399   1.413   1.397   1.929
10834SOL     OW33400   1.294   2.129   6.713
10834SOL    HW133401   1.225   2.197   6.734
10834SOL    HW233402   1.249   2.043   6.688
10835SOL     OW33403   6.475   2.385   6.917
10835SOL    HW133404   6.518   2.307   6.872
10835SOL    HW233405   6.524   2.406   7.002
10836SOL     OW33406   0.182   1.977   4.346
10836SOL    HW133407   0.154   2.073   4.352
10836SOL    HW233408   0.155   1.940   4.257
10837SOL     OW33409   0.088   4.928   0.136
10837SOL    HW133410   7.018   4.919   0.165
10837SOL    HW233411   0.119   5.022   0.151
10838SOL     OW33412   6.077   6.528   4.930
10838SOL    HW133413   6.142   6.561   4.999
10838SOL    HW233414   6.087   6.429   4.919
10839SOL     OW33415   3.910   2.852   0.970
10839SOL    HW133416   3.841   2.921   0.949
10839SOL    HW233417   3.872   2.785   1.035
10840SOL     OW33418   3.795   5.149   2.117
10840SOL    HW133419   3.807   5.050   2.106
10840SOL    HW233420   3.712   5.178   2.069
10841SOL     OW33421   4.608   5.499   0.220
10841SOL    HW133422   4.626   5.540   0.131
10841SOL    HW233423   4.593   5.400   0.208
10842SOL     OW33424   5.241   2.452   1.230
10842SOL    HW133425   5.197   2.420   1.314
10842SOL    HW233426   5.172   2.470   1.160
10843SOL     OW33427   0.890   2.229   1.077
10843SOL    HW133428   0.894   2.131   1.095
10843SOL    HW233429   0.827   2.272   1.142
10844SOL     OW33430   0.462   6.879   4.011
10844SOL    HW133431   0.505   6.871   3.921
10844SOL    HW233432   0.531   6.869   4.083
10845SOL     OW33433   3.328   0.356   5.871
10845SOL    HW133434   3.251   0.375   5.810
10845SOL    HW233435   3.402   0.421   5.852
10846SOL     OW33436   4.949   2.620   1.161
10846SOL    HW133437   4.983   2.596   1.070
10846SOL    HW233438   4.944   2.538   1.217
10847SOL     OW33439   3.714   3.629   6.517
10847SOL    HW133440   3.657   3.557   6.556
10847SOL    HW233441   3.753   3.684   6.591
10848SOL     OW33442   2.879   2.548   6.753
10848SOL    HW133443   2.833   2.546   6.842
10848SOL    HW233444   2.972   2.513   6.762
10849SOL     OW33445   2.879   5.295   3.083
10849SOL    HW133446   2.833   5.232   3.146
10849SOL    HW233447   2.856   5.270   2.989
10850SOL     OW33448   3.945   5.838   0.068
10850SOL    HW133449   3.865   5.779   0.055
10850SOL    HW233450   3.921   5.932   0.045
10851SOL     OW33451   2.511   3.061   6.550
10851SOL    HW133452   2.578   3.078   6.477
10851SOL    HW233453   2.446   2.991   6.519
10852SOL     OW33454   0.793   6.979   6.864
10852SOL    HW133455   0.818   6.911   6.795
10852SOL    HW233456   0.876   0.002   6.895
10853SOL     OW33457   3.306   2.424   5.583
10853SOL    HW133458   3.359   2.459   5.505
10853SOL    HW233459   3.365   2.418   5.663
10854SOL     OW33460   5.276   7.021   5.300
10854SOL    HW133461   5.370   7.003   5.330
10854SOL    HW233462   5.254   0.092   5.312
10855SOL     OW33463   2.761   6.606   1.818
10855SOL    HW133464   2.668   6.571   1.831
10855SOL    HW233465   2.826   6.551   1.871
10856SOL     OW33466   5.698   1.914   2.049
10856SOL    HW133467   5.729   2.001   2.011
10856SOL    HW233468   5.727   1.839   1.989
10857SOL     OW33469   5.717   2.498   3.230
10857SOL    HW133470   5.782   2.514   3.303
10857SOL    HW233471   5.686   2.585   3.193
10858SOL     OW33472   0.715   2.321   6.533
10858SOL    HW133473   0.740   2.406   6.487
10858SOL    HW233474   0.715   2.335   6.632
10859SOL     OW33475   2.066   3.361   4.063
10859SOL    HW133476   2.114   3.275   4.045
10859SOL    HW233477   2.048   3.368   4.161
10860SOL     OW33478   6.306   1.337   6.153
10860SOL    HW133479   6.235   1.319   6.221
10860SOL    HW233480   6.341   1.429   6.166
10861SOL     OW33481   3.690   3.341   3.151
10861SOL    HW133482   3.773   3.394   3.168
10861SOL    HW233483   3.700   3.249   3.187
10862SOL     OW33484   2.484   1.679   6.430
10862SOL    HW133485   2.575   1.664   6.391
10862SOL    HW233486   2.424   1.717   6.359
10863SOL     OW33487   3.889   0.617   2.959
10863SOL    HW133488   3.961   0.686   2.971
10863SOL    HW233489   3.844   0.632   2.871
10864SOL     OW33490   3.758   5.321   0.555
10864SOL    HW133491   3.834   5.263   0.584
10864SOL    HW233492   3.687   5.264   0.512
10865SOL     OW33493   5.871   1.159   3.000
10865SOL    HW133494   5.908   1.096   3.069
10865SOL    HW233495   5.911   1.138   2.911
10866SOL     OW33496   4.452   4.592   0.329
10866SOL    HW133497   4.370   4.574   0.274
10866SOL    HW233498   4.464   4.518   0.396
10867SOL     OW33499   2.814   3.958   0.242
10867SOL    HW133500   2.738   3.896   0.225
10867SOL    HW233501   2.793   4.016   0.322
10868SOL     OW33502   2.523   2.276   3.666
10868SOL    HW133503   2.426   2.252   3.660
10868SOL    HW233504   2.549   2.330   3.585
10869NA      NA33505   0.563   2.490   6.036
10870NA      NA33506   4.434   4.655   5.209
10871NA      NA33507   2.156   4.349   2.324
10872NA      NA33508   5.005   4.382   3.860
10873NA      NA33509   4.284   2.305   5.232
10874NA      NA33510   3.257   4.477   1.555
10875NA      NA33511   0.298   4.528   0.300
10876NA      NA33512   3.255   3.450   2.866
10877NA      NA33513   4.894   5.227   1.088
10878NA      NA33514   3.593   7.017   5.662
10879NA      NA33515   5.917   5.814   1.130
10880NA      NA33516   2.196   0.816   5.002
10881NA      NA33517   4.186   4.952   1.806
10882NA      NA33518   4.024   3.148   1.683
   7.02543   7.02543   7.02543
